<event>
 6    1  0.9216756E-006  0.9603282E+02  0.7561462E-02  0.1288867E+00
          1   -1    0    0  501    0  0.00000000000E+00  0.00000000000E+00  0.17769831633E+03  0.17769831633E+03  0.00000000000E+00 0. -1.
         -1   -1    0    0    0  501 -0.00000000000E+00 -0.00000000000E+00 -0.10189998415E+03  0.10189998415E+03  0.00000000000E+00 0.  1.
          5    1    1    2  502    0  0.34460515433E+01 -0.91003724006E+02  0.71037663401E+02  0.11557411075E+03  0.41800000000E+01 0. -1.
         -5    1    1    2    0  502 -0.97552263293E+01  0.10153477855E+02 -0.34859691569E+02  0.37827609621E+02  0.41800000000E+01 0. -1.
        -11    1    1    2    0    0  0.15426918416E+02  0.71530009890E+02  0.64863850681E+02  0.97784718907E+02  0.00000000000E+00 0. -1.
         11    1    1    2    0    0 -0.91177436300E+01  0.93202362605E+01 -0.25243490332E+02  0.28411861202E+02  0.00000000000E+00 0.  1.
</event>
<event>
 6    1  0.9216756E-006  0.1562617E+03  0.7561462E-02  0.1192983E+00
         -2   -1    0    0    0  501 -0.00000000000E+00  0.00000000000E+00  0.88654979601E+03  0.88654979601E+03  0.00000000000E+00 0. -1.
          2   -1    0    0  501    0  0.00000000000E+00 -0.00000000000E+00 -0.42323077955E+02  0.42323077955E+02  0.00000000000E+00 0.  1.
          5    1    1    2  502    0 -0.23997542145E+02 -0.19586041835E+02  0.30360900172E+03  0.30521368480E+03  0.41800000000E+01 0.  1.
         -5    1    1    2    0  502 -0.95675063551E+02  0.90922042673E+02  0.32866012312E+03  0.35419695729E+03  0.41800000000E+01 0.  1.
        -11    1    1    2    0    0  0.50147425221E+02 -0.77236997086E+00  0.21065686593E+02  0.54397830502E+02  0.00000000000E+00 0.  1.
         11    1    1    2    0    0  0.69525180475E+02 -0.70563630867E+02  0.19089190663E+03  0.21506440137E+03  0.00000000000E+00 0. -1.
</event>
<event>
 6    1  0.9216756E-006  0.2081925E+03  0.7561462E-02  0.1143005E+00
          2   -1    0    0  501    0  0.00000000000E+00  0.00000000000E+00  0.24430108929E+02  0.24430108929E+02  0.00000000000E+00 0. -1.
         -2   -1    0    0    0  501 -0.00000000000E+00 -0.00000000000E+00 -0.29477532715E+04  0.29477532715E+04  0.00000000000E+00 0.  1.
          5    1    1    2  502    0 -0.68606871942E+02  0.76918954222E+02 -0.38390784694E+03  0.39752501272E+03  0.41800000000E+01 0. -1.
         -5    1    1    2    0  502 -0.11708067994E+03 -0.26398499630E+02 -0.18300101016E+04  0.18339463489E+04  0.41800000000E+01 0.  1.
        -11    1    1    2    0    0  0.16408768996E+03 -0.39005246635E+02 -0.68742793190E+03  0.70781589472E+03  0.00000000000E+00 0. -1.
         11    1    1    2    0    0  0.21599861929E+02 -0.11515207956E+02 -0.21977282194E+02  0.32896124122E+02  0.00000000000E+00 0.  1.
</event>
<event>
 6    1  0.9216756E-006  0.1271159E+03  0.7561462E-02  0.1231799E+00
          1   -1    0    0  501    0  0.00000000000E+00  0.00000000000E+00  0.25341936346E+03  0.25341936346E+03  0.00000000000E+00 0. -1.
         -1   -1    0    0    0  501 -0.00000000000E+00 -0.00000000000E+00 -0.10990792712E+03  0.10990792712E+03  0.00000000000E+00 0.  1.
          5    1    1    2  502    0 -0.71295716353E+02  0.45746043405E+02  0.44714412663E+01  0.84930829765E+02  0.41800000000E+01 0. -1.
         -5    1    1    2    0  502  0.50376572082E+02 -0.57779528764E+02 -0.31719206118E+02  0.83065356171E+02  0.41800000000E+01 0.  1.
        -11    1    1    2    0    0  0.55693562799E+02 -0.46578113424E+00  0.81375239853E+02  0.98609936367E+02  0.00000000000E+00 0.  1.
         11    1    1    2    0    0 -0.34774418528E+02  0.12499266493E+02  0.89383961338E+02  0.96721168269E+02  0.00000000000E+00 0. -1.
</event>
<event>
 6    1  0.9216756E-006  0.1379594E+03  0.7561462E-02  0.1216101E+00
          2   -1    0    0  501    0  0.00000000000E+00  0.00000000000E+00  0.49668241608E+03  0.49668241608E+03  0.00000000000E+00 0. -1.
         -2   -1    0    0    0  501 -0.00000000000E+00 -0.00000000000E+00 -0.44977943013E+02  0.44977943013E+02  0.00000000000E+00 0.  1.
          5    1    1    2  502    0  0.18423445687E+01  0.86584589227E+02  0.19322260241E+03  0.21178463544E+03  0.41800000000E+01 0. -1.
         -5    1    1    2    0  502 -0.65598989450E+02 -0.88964584098E+01  0.69552191258E+02  0.96111154909E+02  0.41800000000E+01 0. -1.
        -11    1    1    2    0    0  0.16445697009E+02 -0.73577731549E+02  0.16315352691E+03  0.17973095691E+03  0.00000000000E+00 0. -1.
         11    1    1    2    0    0  0.47310947872E+02 -0.41103992674E+01  0.25776152490E+02  0.54033611834E+02  0.00000000000E+00 0.  1.
</event>
<event>
 6    1  0.9216756E-006  0.1410073E+03  0.7561462E-02  0.1211980E+00
          2   -1    0    0  501    0  0.00000000000E+00  0.00000000000E+00  0.24165546628E+03  0.24165546628E+03  0.00000000000E+00 0. -1.
         -2   -1    0    0    0  501 -0.00000000000E+00 -0.00000000000E+00 -0.19600538708E+03  0.19600538708E+03  0.00000000000E+00 0.  1.
          5    1    1    2  502    0  0.12453533744E+02 -0.42134964260E+02 -0.22221189115E+02  0.49413554432E+02  0.41800000000E+01 0.  1.
         -5    1    1    2    0  502  0.82825139935E+02  0.80186053129E+02 -0.11282974271E+03  0.16136241868E+03  0.41800000000E+01 0.  1.
        -11    1    1    2    0    0  0.53371344032E+01 -0.19491392982E+02  0.11652590694E+01  0.20242461133E+02  0.00000000000E+00 0. -1.
         11    1    1    2    0    0 -0.10061580808E+03 -0.18559695887E+02  0.17953575195E+03  0.20664241911E+03  0.00000000000E+00 0.  1.
</event>
<event>
 6    1  0.9216756E-006  0.2096043E+03  0.7561462E-02  0.1141880E+00
         -3   -1    0    0    0  501 -0.00000000000E+00  0.00000000000E+00  0.51535118821E+03  0.51535118821E+03  0.00000000000E+00 0.  1.
          3   -1    0    0  501    0  0.00000000000E+00 -0.00000000000E+00 -0.88541074856E+02  0.88541074856E+02  0.00000000000E+00 0. -1.
          5    1    1    2  502    0 -0.13470177414E+01 -0.11048249351E+03  0.10263934105E+03  0.15086584292E+03  0.41800000000E+01 0. -1.
         -5    1    1    2    0  502  0.97458406905E+02 -0.42832423604E+02  0.15226015919E+03  0.18583160674E+03  0.41800000000E+01 0. -1.
        -11    1    1    2    0    0 -0.87389863309E+02  0.54691270761E+02  0.67054305512E+02  0.12298131238E+03  0.00000000000E+00 0. -1.
         11    1    1    2    0    0 -0.87215258541E+01  0.98623646353E+02  0.10485630760E+03  0.14421350102E+03  0.00000000000E+00 0.  1.
</event>
<event>
 6    1  0.9216756E-006  0.1225893E+03  0.7561462E-02  0.1238886E+00
          2   -1    0    0  501    0  0.00000000000E+00  0.00000000000E+00  0.71272312610E+03  0.71272312610E+03  0.00000000000E+00 0.  1.
         -2   -1    0    0    0  501 -0.00000000000E+00 -0.00000000000E+00 -0.22771910760E+02  0.22771910760E+02  0.00000000000E+00 0. -1.
          5    1    1    2  502    0 -0.10970844459E+02 -0.77493567053E+02  0.27449338298E+03  0.28546401185E+03  0.41800000000E+01 0.  1.
         -5    1    1    2    0  502  0.52516713633E+02  0.31094010910E+02  0.19231555387E+03  0.20181077123E+03  0.41800000000E+01 0.  1.
        -11    1    1    2    0    0 -0.63691439038E+02  0.12148667355E+02  0.16423472453E+03  0.17657076277E+03  0.00000000000E+00 0.  1.
         11    1    1    2    0    0  0.22145569864E+02  0.34250888788E+02  0.58907553964E+02  0.71649491006E+02  0.00000000000E+00 0. -1.
</event>
<event>
 6    1  0.9216756E-006  0.6196967E+02  0.7561462E-02  0.1389747E+00
         -2   -1    0    0    0  501 -0.00000000000E+00  0.00000000000E+00  0.28193921238E+03  0.28193921238E+03  0.00000000000E+00 0.  1.
          2   -1    0    0  501    0  0.00000000000E+00 -0.00000000000E+00 -0.45969856951E+02  0.45969856951E+02  0.00000000000E+00 0. -1.
          5    1    1    2  502    0 -0.10915210419E+02 -0.18190921762E+02  0.16561603943E+03  0.16702154463E+03  0.41800000000E+01 0.  1.
         -5    1    1    2    0  502  0.27355637700E+01 -0.14941054100E+02 -0.21612057240E+02  0.26744566269E+02  0.41800000000E+01 0.  1.
        -11    1    1    2    0    0  0.70271598377E+00  0.59322207089E+02  0.88699970397E+02  0.10671130592E+03  0.00000000000E+00 0.  1.
         11    1    1    2    0    0  0.74769306648E+01 -0.26190231226E+02  0.32654028448E+01  0.27431652513E+02  0.00000000000E+00 0. -1.
</event>
<event>
 6    1  0.9216756E-006  0.1575626E+03  0.7561462E-02  0.1191476E+00
          2   -1    0    0  501    0  0.00000000000E+00  0.00000000000E+00  0.94692187273E+03  0.94692187273E+03  0.00000000000E+00 0.  1.
         -2   -1    0    0    0  501 -0.00000000000E+00 -0.00000000000E+00 -0.34228739478E+02  0.34228739478E+02  0.00000000000E+00 0. -1.
          5    1    1    2  502    0  0.28852771210E+02  0.35211292394E+02  0.40330311541E+02  0.60961659652E+02  0.41800000000E+01 0.  1.
         -5    1    1    2    0  502  0.82827027513E+02 -0.90547626728E+02  0.25765597826E+03  0.28541770219E+03  0.41800000000E+01 0.  1.
        -11    1    1    2    0    0 -0.91125843980E+02  0.38732458016E+01  0.48838523639E+03  0.49682900539E+03  0.00000000000E+00 0.  1.
         11    1    1    2    0    0 -0.20553954743E+02  0.51463088532E+02  0.12632160707E+03  0.13794224497E+03  0.00000000000E+00 0. -1.
</event>
<event>
 6    1  0.9216756E-006  0.1084702E+03  0.7561462E-02  0.1263429E+00
         -1   -1    0    0    0  501 -0.00000000000E+00  0.00000000000E+00  0.41698698926E+02  0.41698698926E+02  0.00000000000E+00 0.  1.
          1   -1    0    0  501    0  0.00000000000E+00 -0.00000000000E+00 -0.50350077938E+03  0.50350077938E+03  0.00000000000E+00 0. -1.
          5    1    1    2  502    0 -0.47151672566E+02 -0.63262452305E+02 -0.12498941928E+03  0.14786901443E+03  0.41800000000E+01 0.  1.
         -5    1    1    2    0  502  0.30486668448E+02  0.39467449086E+01  0.10288298366E+02  0.32685397836E+02  0.41800000000E+01 0.  1.
        -11    1    1    2    0    0 -0.24268083023E+02 -0.10126270558E+02 -0.46463058374E+02  0.53388172871E+02  0.00000000000E+00 0.  1.
         11    1    1    2    0    0  0.40933087141E+02  0.69441977955E+02 -0.30063790117E+03  0.31125689317E+03  0.00000000000E+00 0. -1.
</event>
<event>
 6    1  0.9216756E-006  0.2076354E+03  0.7561462E-02  0.1143452E+00
          2   -1    0    0  501    0  0.00000000000E+00  0.00000000000E+00  0.12521647576E+04  0.12521647576E+04  0.00000000000E+00 0. -1.
         -2   -1    0    0    0  501 -0.00000000000E+00 -0.00000000000E+00 -0.57369088512E+02  0.57369088512E+02  0.00000000000E+00 0.  1.
          5    1    1    2  502    0 -0.71271436412E+02 -0.28874949044E+02  0.20110424466E+03  0.21534569870E+03  0.41800000000E+01 0.  1.
         -5    1    1    2    0  502 -0.12675728297E+03 -0.74053193794E+01  0.71063621013E+02  0.14556702296E+03  0.41800000000E+01 0.  1.
        -11    1    1    2    0    0  0.18224600462E+03  0.51404748209E+02  0.88563904863E+03  0.90565588321E+03  0.00000000000E+00 0. -1.
         11    1    1    2    0    0  0.15782714761E+02 -0.15124479786E+02  0.36988754791E+02  0.42965241242E+02  0.00000000000E+00 0.  1.
</event>
<event>
 6    1  0.9216756E-006  0.3097936E+03  0.7561462E-02  0.1080445E+00
         -2   -1    0    0    0  501 -0.00000000000E+00  0.00000000000E+00  0.48938359182E+03  0.48938359182E+03  0.00000000000E+00 0. -1.
          2   -1    0    0  501    0  0.00000000000E+00 -0.00000000000E+00 -0.20355030184E+03  0.20355030184E+03  0.00000000000E+00 0.  1.
          5    1    1    2  502    0  0.12051787946E+03 -0.22546975492E+03  0.11648664577E+03  0.28097647713E+03  0.41800000000E+01 0. -1.
         -5    1    1    2    0  502  0.62857824704E+02 -0.60737936869E+01  0.11231350575E+02  0.64277622327E+02  0.41800000000E+01 0. -1.
        -11    1    1    2    0    0 -0.45184677818E+02  0.23721997390E+02  0.61846875811E+02  0.80183691093E+02  0.00000000000E+00 0. -1.
         11    1    1    2    0    0 -0.13819102634E+03  0.20782155122E+03  0.96268417816E+02  0.26749610312E+03  0.00000000000E+00 0.  1.
</event>
<event>
 6    1  0.9216756E-006  0.1511795E+03  0.7561462E-02  0.1199031E+00
          1   -1    0    0  501    0  0.00000000000E+00  0.00000000000E+00  0.66505411345E+02  0.66505411345E+02  0.00000000000E+00 0. -1.
         -1   -1    0    0    0  501 -0.00000000000E+00 -0.00000000000E+00 -0.38875140366E+03  0.38875140366E+03  0.00000000000E+00 0.  1.
          5    1    1    2  502    0  0.57541089723E+02 -0.10941034540E+03 -0.14733543027E+03  0.19237152102E+03  0.41800000000E+01 0. -1.
         -5    1    1    2    0  502  0.21100296048E+02  0.23125382650E+02  0.26678347651E+01  0.31695355470E+02  0.41800000000E+01 0. -1.
        -11    1    1    2    0    0 -0.11916050376E+02  0.79080787821E+02 -0.10947514983E+03  0.13557496705E+03  0.00000000000E+00 0.  1.
         11    1    1    2    0    0 -0.66725335395E+02  0.72041749296E+01 -0.68103246978E+02  0.95614971468E+02  0.00000000000E+00 0. -1.
</event>
<event>
 6    1  0.9216756E-006  0.1573728E+03  0.7561462E-02  0.1191695E+00
         -1   -1    0    0    0  501 -0.00000000000E+00  0.00000000000E+00  0.60175009415E+02  0.60175009415E+02  0.00000000000E+00 0.  1.
          1   -1    0    0  501    0  0.00000000000E+00 -0.00000000000E+00 -0.52068769046E+03  0.52068769046E+03  0.00000000000E+00 0. -1.
          5    1    1    2  502    0  0.27249652927E+02 -0.44249662684E+01 -0.55126249224E+01  0.28460241472E+02  0.41800000000E+01 0.  1.
         -5    1    1    2    0  502 -0.56392172839E+02  0.13638578272E+03 -0.18176289473E+03  0.23417169169E+03  0.41800000000E+01 0.  1.
        -11    1    1    2    0    0  0.10826835976E+02 -0.70174817326E+01  0.40668597258E+01  0.13527925751E+02  0.00000000000E+00 0.  1.
         11    1    1    2    0    0  0.18315683936E+02 -0.12494333471E+03 -0.27730402111E+03  0.30470284096E+03  0.00000000000E+00 0. -1.
</event>
<event>
 6    1  0.9216756E-006  0.1414129E+03  0.7561462E-02  0.1211440E+00
         -1   -1    0    0    0  501 -0.00000000000E+00  0.00000000000E+00  0.17816066857E+03  0.17816066857E+03  0.00000000000E+00 0.  1.
          1   -1    0    0  501    0  0.00000000000E+00 -0.00000000000E+00 -0.13221771634E+03  0.13221771634E+03  0.00000000000E+00 0. -1.
          5    1    1    2  502    0  0.13589302133E+01 -0.42251404556E+02  0.12720174628E+02  0.44343016596E+02  0.41800000000E+01 0. -1.
         -5    1    1    2    0  502  0.99716388336E+02  0.66985929492E+02  0.41812591254E+02  0.12726444138E+03  0.41800000000E+01 0. -1.
        -11    1    1    2    0    0  0.65016524447E+01 -0.94774591576E+01 -0.26283199207E+02  0.28686238463E+02  0.00000000000E+00 0. -1.
         11    1    1    2    0    0 -0.10757697099E+03 -0.15257065779E+02  0.17693385554E+02  0.11008468848E+03  0.00000000000E+00 0.  1.
</event>
<event>
 6    1  0.9216756E-006  0.1227535E+03  0.7561462E-02  0.1238623E+00
         -2   -1    0    0    0  501 -0.00000000000E+00  0.00000000000E+00  0.11108298923E+03  0.11108298923E+03  0.00000000000E+00 0.  1.
          2   -1    0    0  501    0  0.00000000000E+00 -0.00000000000E+00 -0.21257534868E+03  0.21257534868E+03  0.00000000000E+00 0. -1.
          5    1    1    2  502    0  0.35461891985E+02  0.18741795075E+01  0.32037366998E+02  0.48009620037E+02  0.41800000000E+01 0.  1.
         -5    1    1    2    0  502 -0.78628392431E+02 -0.61180832481E+02 -0.35430808043E+01  0.99777473314E+02  0.41800000000E+01 0.  1.
        -11    1    1    2    0    0  0.38432262752E+01  0.69345080672E+02 -0.48107098236E+02  0.84485522442E+02  0.00000000000E+00 0.  1.
         11    1    1    2    0    0  0.39323274171E+02 -0.10038427698E+02 -0.81879547412E+02  0.91385722116E+02  0.00000000000E+00 0. -1.
</event>
<event>
 6    1  0.9216756E-006  0.9889832E+02  0.7561462E-02  0.1282630E+00
         -1   -1    0    0    0  501 -0.00000000000E+00  0.00000000000E+00  0.41046156122E+02  0.41046156122E+02  0.00000000000E+00 0.  1.
          1   -1    0    0  501    0  0.00000000000E+00 -0.00000000000E+00 -0.42083268348E+03  0.42083268348E+03  0.00000000000E+00 0. -1.
          5    1    1    2  502    0  0.34787176902E+02 -0.48077094456E+01 -0.15131490368E+03  0.15539283839E+03  0.41800000000E+01 0. -1.
         -5    1    1    2    0  502 -0.14758060599E+02  0.75792763811E+02 -0.47296693519E+02  0.90646527879E+02  0.41800000000E+01 0. -1.
        -11    1    1    2    0    0 -0.33109763539E+02 -0.57247132535E+02 -0.18502052045E+03  0.19648430882E+03  0.00000000000E+00 0. -1.
         11    1    1    2    0    0  0.13080647237E+02 -0.13737921830E+02  0.38455902976E+01  0.19355164506E+02  0.00000000000E+00 0.  1.
</event>
<event>
 6    1  0.9216756E-006  0.1885277E+03  0.7561462E-02  0.1159796E+00
         -2   -1    0    0    0  501 -0.00000000000E+00  0.00000000000E+00  0.13617815437E+03  0.13617815437E+03  0.00000000000E+00 0.  1.
          2   -1    0    0  501    0  0.00000000000E+00 -0.00000000000E+00 -0.56255582463E+03  0.56255582463E+03  0.00000000000E+00 0. -1.
          5    1    1    2  502    0 -0.77216614805E+02  0.55243979017E+02 -0.36680266836E+02  0.10186862714E+03  0.41800000000E+01 0.  1.
         -5    1    1    2    0  502 -0.14666688290E+01  0.99570027121E+02  0.52728621834E+02  0.11275691278E+03  0.41800000000E+01 0.  1.
        -11    1    1    2    0    0  0.13014199478E+02 -0.86942094822E+02 -0.30458699536E+03  0.31701977065E+03  0.00000000000E+00 0. -1.
         11    1    1    2    0    0  0.65669084156E+02 -0.67871911316E+02 -0.13783902989E+03  0.16708866843E+03  0.00000000000E+00 0.  1.
</event>
<event>
 6    1  0.9216756E-006  0.2245306E+03  0.7561462E-02  0.1130550E+00
         -2   -1    0    0    0  501 -0.00000000000E+00  0.00000000000E+00  0.54847167809E+03  0.54847167809E+03  0.00000000000E+00 0.  1.
          2   -1    0    0  501    0  0.00000000000E+00 -0.00000000000E+00 -0.11114250710E+03  0.11114250710E+03  0.00000000000E+00 0. -1.
          5    1    1    2  502    0 -0.51917794935E+02 -0.11786066427E+02 -0.21457080592E+01  0.53445722521E+02  0.41800000000E+01 0.  1.
         -5    1    1    2    0  502 -0.16516893039E+03  0.54659597232E+02  0.22616795368E+03  0.28537319917E+03  0.41800000000E+01 0.  1.
        -11    1    1    2    0    0  0.51066527314E+02 -0.47349088585E+01  0.47392318379E+01  0.51504076463E+02  0.00000000000E+00 0. -1.
         11    1    1    2    0    0  0.16602019801E+03 -0.38138621946E+02  0.20856769353E+03  0.26929118704E+03  0.00000000000E+00 0.  1.
</event>
<event>
 6    1  0.9216756E-006  0.1009835E+03  0.7561462E-02  0.1278241E+00
         -2   -1    0    0    0  501 -0.00000000000E+00  0.00000000000E+00  0.50135054844E+02  0.50135054844E+02  0.00000000000E+00 0. -1.
          2   -1    0    0  501    0  0.00000000000E+00 -0.00000000000E+00 -0.24068329920E+03  0.24068329920E+03  0.00000000000E+00 0.  1.
          5    1    1    2  502    0  0.51195985622E+02  0.15359330090E+02 -0.72895968734E+02  0.90488853580E+02  0.41800000000E+01 0.  1.
         -5    1    1    2    0  502 -0.61753867007E+02 -0.32132671850E+01 -0.16625898404E+02  0.64169759810E+02  0.41800000000E+01 0.  1.
        -11    1    1    2    0    0  0.40310545526E+02 -0.31260514458E+02 -0.37002849423E+02  0.63018812352E+02  0.00000000000E+00 0. -1.
         11    1    1    2    0    0 -0.29752664141E+02  0.19114451554E+02 -0.64023527792E+02  0.73140928301E+02  0.00000000000E+00 0.  1.
</event>
<event>
 6    1  0.9216756E-006  0.1226582E+03  0.7561462E-02  0.1238775E+00
          2   -1    0    0  501    0  0.00000000000E+00  0.00000000000E+00  0.46490153541E+03  0.46490153541E+03  0.00000000000E+00 0. -1.
         -2   -1    0    0    0  501 -0.00000000000E+00 -0.00000000000E+00 -0.63426293970E+02  0.63426293970E+02  0.00000000000E+00 0.  1.
          5    1    1    2  502    0  0.24954003677E+02 -0.96972361475E+02  0.83511028935E+01  0.10056616980E+03  0.41800000000E+01 0. -1.
         -5    1    1    2    0  502  0.43286520719E+01  0.35567626224E+02  0.29963482734E+02  0.46894306280E+02  0.41800000000E+01 0. -1.
        -11    1    1    2    0    0 -0.58567416963E+02  0.51847744683E+02  0.30705439065E+03  0.31686074193E+03  0.00000000000E+00 0. -1.
         11    1    1    2    0    0  0.29284761215E+02  0.95569905674E+01  0.56106265166E+02  0.64006611369E+02  0.00000000000E+00 0.  1.
</event>
<event>
 6    1  0.9216756E-006  0.1346217E+03  0.7561462E-02  0.1220755E+00
         -1   -1    0    0    0  501 -0.00000000000E+00  0.00000000000E+00  0.22839125043E+03  0.22839125043E+03  0.00000000000E+00 0.  1.
          1   -1    0    0  501    0  0.00000000000E+00 -0.00000000000E+00 -0.92474076821E+02  0.92474076821E+02  0.00000000000E+00 0. -1.
          5    1    1    2  502    0  0.10742900664E+02 -0.91753489135E+02  0.55086716843E+02  0.10763889379E+03  0.41800000000E+01 0. -1.
         -5    1    1    2    0  502 -0.61943970168E+02  0.10878273925E+02  0.15171508928E+02  0.64830851969E+02  0.41800000000E+01 0. -1.
        -11    1    1    2    0    0  0.40081933791E+02  0.90939889283E+01  0.63605476093E+02  0.75729245606E+02  0.00000000000E+00 0.  1.
         11    1    1    2    0    0  0.11119135714E+02  0.71781226282E+02  0.20534717481E+01  0.72666335891E+02  0.00000000000E+00 0. -1.
</event>
<event>
 6    1  0.9216756E-006  0.1238211E+03  0.7561462E-02  0.1236923E+00
          4   -1    0    0  501    0  0.00000000000E+00  0.00000000000E+00  0.56543901343E+02  0.56543901343E+02  0.00000000000E+00 0.  1.
         -4   -1    0    0    0  501 -0.00000000000E+00 -0.00000000000E+00 -0.28346161724E+03  0.28346161724E+03  0.00000000000E+00 0. -1.
          5    1    1    2  502    0  0.73865326779E+02  0.74485795640E+02 -0.12162415005E+03  0.16066775198E+03  0.41800000000E+01 0. -1.
         -5    1    1    2    0  502 -0.22801842782E+02 -0.29386284662E+02 -0.40932398962E+02  0.55465407646E+02  0.41800000000E+01 0. -1.
        -11    1    1    2    0    0 -0.19177947551E+01 -0.55051983504E+02 -0.40311902493E+02  0.68260151678E+02  0.00000000000E+00 0. -1.
         11    1    1    2    0    0 -0.49145689242E+02  0.99524725271E+01 -0.24049264396E+02  0.55612207280E+02  0.00000000000E+00 0.  1.
</event>
<event>
 6    1  0.9216756E-006  0.8408924E+02  0.7561462E-02  0.1317832E+00
         -2   -1    0    0    0  501 -0.00000000000E+00  0.00000000000E+00  0.10779194101E+03  0.10779194101E+03  0.00000000000E+00 0. -1.
          2   -1    0    0  501    0  0.00000000000E+00 -0.00000000000E+00 -0.11530325574E+03  0.11530325574E+03  0.00000000000E+00 0.  1.
          5    1    1    2  502    0 -0.14517574265E+02  0.25280333249E+02 -0.51420284125E+02  0.59256841219E+02  0.41800000000E+01 0. -1.
         -5    1    1    2    0  502  0.43140516772E+02 -0.22733028032E+02  0.48805543533E+02  0.69118363915E+02  0.41800000000E+01 0. -1.
        -11    1    1    2    0    0 -0.32206537815E+02 -0.40454660124E+02  0.11967793695E+02  0.53076065130E+02  0.00000000000E+00 0. -1.
         11    1    1    2    0    0  0.35835953080E+01  0.37907354907E+02 -0.16864367834E+02  0.41643926494E+02  0.00000000000E+00 0.  1.
</event>
<event>
 6    1  0.9216756E-006  0.8913669E+02  0.7561462E-02  0.1304956E+00
          2   -1    0    0  501    0  0.00000000000E+00  0.00000000000E+00  0.10170578954E+03  0.10170578954E+03  0.00000000000E+00 0.  1.
         -2   -1    0    0    0  501 -0.00000000000E+00 -0.00000000000E+00 -0.18204475955E+03  0.18204475955E+03  0.00000000000E+00 0. -1.
          5    1    1    2  502    0 -0.22585118662E+02  0.61133242907E+02 -0.10591243370E+03  0.12442779828E+03  0.41800000000E+01 0.  1.
         -5    1    1    2    0  502  0.47475132381E+02 -0.15173673315E+02 -0.41398086199E+01  0.50187039879E+02  0.41800000000E+01 0.  1.
        -11    1    1    2    0    0 -0.22149267647E+02 -0.60671185219E+01  0.56511654604E+02  0.60999730250E+02  0.00000000000E+00 0.  1.
         11    1    1    2    0    0 -0.27407460720E+01 -0.39892451071E+02 -0.26798382300E+02  0.48135980673E+02  0.00000000000E+00 0. -1.
</event>
<event>
 6    1  0.9216756E-006  0.1877942E+03  0.7561462E-02  0.1160466E+00
          1   -1    0    0  501    0  0.00000000000E+00  0.00000000000E+00  0.11182078383E+04  0.11182078383E+04  0.00000000000E+00 0. -1.
         -1   -1    0    0    0  501 -0.00000000000E+00 -0.00000000000E+00 -0.52379784584E+02  0.52379784584E+02  0.00000000000E+00 0.  1.
          5    1    1    2  502    0 -0.61121783236E+02 -0.43901148754E+02  0.19720525596E+03  0.21111742852E+03  0.41800000000E+01 0. -1.
         -5    1    1    2    0  502 -0.10772270129E+03 -0.10484978038E+02  0.54498641810E+02  0.12125052369E+03  0.41800000000E+01 0. -1.
        -11    1    1    2    0    0  0.11203116536E+03 -0.17391358915E+01  0.35692937151E+03  0.37410236948E+03  0.00000000000E+00 0.  1.
         11    1    1    2    0    0  0.56813319162E+02  0.56125262683E+02  0.45719478442E+03  0.46411730117E+03  0.00000000000E+00 0. -1.
</event>
<event>
 6    1  0.9216756E-006  0.3480803E+03  0.7561462E-02  0.1063406E+00
          1   -1    0    0  501    0  0.00000000000E+00  0.00000000000E+00  0.10707816202E+04  0.10707816202E+04  0.00000000000E+00 0.  1.
         -1   -1    0    0    0  501 -0.00000000000E+00 -0.00000000000E+00 -0.23032505262E+03  0.23032505262E+03  0.00000000000E+00 0. -1.
          5    1    1    2  502    0  0.15503724691E+03 -0.28607342368E+03 -0.51044528002E+02  0.32938969004E+03  0.41800000000E+01 0.  1.
         -5    1    1    2    0  502  0.24527207112E+02  0.37411541625E+01  0.15572321037E+02  0.29589689178E+02  0.41800000000E+01 0.  1.
        -11    1    1    2    0    0 -0.10189675601E+03  0.23104313009E+03  0.67506581722E+03  0.72074803811E+03  0.00000000000E+00 0.  1.
         11    1    1    2    0    0 -0.77667698014E+02  0.51289139424E+02  0.20086295729E+03  0.22137925546E+03  0.00000000000E+00 0. -1.
</event>
<event>
 6    1  0.9216756E-006  0.8421100E+02  0.7561462E-02  0.1317509E+00
         -3   -1    0    0    0  501 -0.00000000000E+00  0.00000000000E+00  0.44008080370E+02  0.44008080370E+02  0.00000000000E+00 0.  1.
          3   -1    0    0  501    0  0.00000000000E+00 -0.00000000000E+00 -0.35332461960E+03  0.35332461960E+03  0.00000000000E+00 0. -1.
          5    1    1    2  502    0 -0.19453932864E+02 -0.27207363562E+02  0.24330807865E+01  0.33794798682E+02  0.41800000000E+01 0.  1.
         -5    1    1    2    0  502  0.49270229048E+02 -0.26515060449E+02 -0.20181664133E+03  0.20947084050E+03  0.41800000000E+01 0.  1.
        -11    1    1    2    0    0 -0.30758819571E+02  0.65792513082E+01  0.30865960231E+01  0.31605673608E+02  0.00000000000E+00 0.  1.
         11    1    1    2    0    0  0.94252338684E+00  0.47143172703E+02 -0.11301957471E+03  0.12246138718E+03  0.00000000000E+00 0. -1.
</event>
<event>
 6    1  0.9216756E-006  0.9037349E+02  0.7561462E-02  0.1301950E+00
          2   -1    0    0  501    0  0.00000000000E+00  0.00000000000E+00  0.18329908531E+03  0.18329908531E+03  0.00000000000E+00 0. -1.
         -2   -1    0    0    0  501 -0.00000000000E+00 -0.00000000000E+00 -0.73434606234E+02  0.73434606234E+02  0.00000000000E+00 0.  1.
          5    1    1    2  502    0 -0.55898886534E+02 -0.56610685285E+01 -0.28605982585E+02  0.63186294814E+02  0.41800000000E+01 0. -1.
         -5    1    1    2    0  502  0.26165023167E+02 -0.10171031041E+02  0.65708486109E+02  0.71576084389E+02  0.41800000000E+01 0. -1.
        -11    1    1    2    0    0 -0.85527337223E+00  0.50090346891E+02  0.49742070325E+02  0.70597789657E+02  0.00000000000E+00 0.  1.
         11    1    1    2    0    0  0.30589136740E+02 -0.34258247321E+02  0.23019905223E+02  0.51373522680E+02  0.00000000000E+00 0. -1.
</event>
<event>
 6    1  0.9216756E-006  0.9261207E+02  0.7561462E-02  0.1296647E+00
         -2   -1    0    0    0  501 -0.00000000000E+00  0.00000000000E+00  0.43058196274E+03  0.43058196274E+03  0.00000000000E+00 0. -1.
          2   -1    0    0  501    0  0.00000000000E+00 -0.00000000000E+00 -0.41792446182E+02  0.41792446182E+02  0.00000000000E+00 0.  1.
          5    1    1    2  502    0  0.20499540639E+02 -0.11483877345E+02  0.22905616383E+03  0.23029613370E+03  0.41800000000E+01 0.  1.
         -5    1    1    2    0  502  0.42003423754E+02  0.49289993430E+02  0.42778676557E+02  0.77725662605E+02  0.41800000000E+01 0.  1.
        -11    1    1    2    0    0 -0.43718530880E+02 -0.55505020355E+02  0.11907218363E+03  0.13845686022E+03  0.00000000000E+00 0. -1.
         11    1    1    2    0    0 -0.18784433513E+02  0.17698904270E+02 -0.21175074624E+01  0.25895752405E+02  0.00000000000E+00 0.  1.
</event>
<event>
 6    1  0.9216756E-006  0.1378775E+03  0.7561462E-02  0.1216214E+00
          2   -1    0    0  501    0  0.00000000000E+00  0.00000000000E+00  0.35032545408E+03  0.35032545408E+03  0.00000000000E+00 0. -1.
         -2   -1    0    0    0  501 -0.00000000000E+00 -0.00000000000E+00 -0.70340828429E+02  0.70340828429E+02  0.00000000000E+00 0.  1.
          5    1    1    2  502    0  0.20368025600E+02  0.60377650568E+00 -0.65842701042E+01  0.21818478996E+02  0.41800000000E+01 0. -1.
         -5    1    1    2    0  502 -0.13280611648E+03  0.73580654492E+01  0.13864962239E+03  0.19217907246E+03  0.41800000000E+01 0. -1.
        -11    1    1    2    0    0  0.55690209182E+01  0.11937173814E+02 -0.88706515520E+01  0.15880761052E+02  0.00000000000E+00 0.  1.
         11    1    1    2    0    0  0.10686906996E+03 -0.19899015768E+02  0.15678992492E+03  0.19078797001E+03  0.00000000000E+00 0. -1.
</event>
<event>
 6    1  0.9216756E-006  0.1489392E+03  0.7561462E-02  0.1201783E+00
          3   -1    0    0  501    0  0.00000000000E+00  0.00000000000E+00  0.13253705344E+03  0.13253705344E+03  0.00000000000E+00 0. -1.
         -3   -1    0    0    0  501 -0.00000000000E+00 -0.00000000000E+00 -0.17972651784E+03  0.17972651784E+03  0.00000000000E+00 0.  1.
          5    1    1    2  502    0  0.48186808671E+02 -0.25561424833E+02 -0.42098086372E+02  0.69029531691E+02  0.41800000000E+01 0.  1.
         -5    1    1    2    0  502  0.41713023916E+02  0.98980998245E+02 -0.32855278496E+01  0.10754292850E+03  0.41800000000E+01 0.  1.
        -11    1    1    2    0    0 -0.45265761620E+02 -0.78643568319E+02 -0.12699807153E+01  0.90749175555E+02  0.00000000000E+00 0.  1.
         11    1    1    2    0    0 -0.44634070967E+02  0.52239949066E+01 -0.53586946288E+00  0.44941935538E+02  0.00000000000E+00 0. -1.
</event>
<event>
 6    1  0.9216756E-006  0.1159489E+03  0.7561462E-02  0.1249934E+00
          2   -1    0    0  501    0  0.00000000000E+00  0.00000000000E+00  0.68589385032E+02  0.68589385032E+02  0.00000000000E+00 0. -1.
         -2   -1    0    0    0  501 -0.00000000000E+00 -0.00000000000E+00 -0.20964436375E+03  0.20964436375E+03  0.00000000000E+00 0.  1.
          5    1    1    2  502    0 -0.43585741062E+02 -0.26432653456E+02 -0.47607302513E+02  0.69873669184E+02  0.41800000000E+01 0.  1.
         -5    1    1    2    0  502  0.75681336679E+02  0.17805815839E+02 -0.55734457116E+02  0.95752357199E+02  0.41800000000E+01 0.  1.
        -11    1    1    2    0    0  0.33272137817E+02 -0.10316743822E+02 -0.72815381289E-01  0.34834977538E+02  0.00000000000E+00 0. -1.
         11    1    1    2    0    0 -0.65367733434E+02  0.18943581439E+02 -0.37640403712E+02  0.77772744864E+02  0.00000000000E+00 0.  1.
</event>
<event>
 6    1  0.9216756E-006  0.3569216E+03  0.7561462E-02  0.1059809E+00
         -2   -1    0    0    0  501 -0.00000000000E+00  0.00000000000E+00  0.92811359035E+02  0.92811359035E+02  0.00000000000E+00 0. -1.
          2   -1    0    0  501    0  0.00000000000E+00 -0.00000000000E+00 -0.14353728416E+04  0.14353728416E+04  0.00000000000E+00 0.  1.
          5    1    1    2  502    0  0.93942035862E+02 -0.22210930422E+03 -0.34482891975E+03  0.42081124678E+03  0.41800000000E+01 0. -1.
         -5    1    1    2    0  502 -0.46338150097E+00 -0.11348381652E+03 -0.32813192075E+03  0.34722733353E+03  0.41800000000E+01 0. -1.
        -11    1    1    2    0    0  0.16301452229E+02  0.66338469336E+02 -0.10939610687E+03  0.12897301291E+03  0.00000000000E+00 0.  1.
         11    1    1    2    0    0 -0.10978010659E+03  0.26925465140E+03 -0.56020453516E+03  0.63117260739E+03  0.00000000000E+00 0. -1.
</event>
<event>
 6    1  0.9216756E-006  0.9884132E+02  0.7561462E-02  0.1282752E+00
         -1   -1    0    0    0  501 -0.00000000000E+00  0.00000000000E+00  0.39477186400E+02  0.39477186400E+02  0.00000000000E+00 0.  1.
          1   -1    0    0  501    0  0.00000000000E+00 -0.00000000000E+00 -0.32701808010E+03  0.32701808010E+03  0.00000000000E+00 0. -1.
          5    1    1    2  502    0  0.26283228819E+02  0.39015180208E+02 -0.29128274886E+02  0.55488027552E+02  0.41800000000E+01 0.  1.
         -5    1    1    2    0  502 -0.51198811833E+02 -0.56763200960E+02 -0.11099104575E+03  0.13483272582E+03  0.41800000000E+01 0.  1.
        -11    1    1    2    0    0  0.48281682842E+02  0.10236992869E+02 -0.33527238402E+02  0.59665673849E+02  0.00000000000E+00 0.  1.
         11    1    1    2    0    0 -0.23366099828E+02  0.75110278825E+01 -0.11389433466E+03  0.11650883927E+03  0.00000000000E+00 0. -1.
</event>
<event>
 6    1  0.9216756E-006  0.1283226E+03  0.7561462E-02  0.1229966E+00
         -1   -1    0    0    0  501 -0.00000000000E+00  0.00000000000E+00  0.90131848204E+02  0.90131848204E+02  0.00000000000E+00 0.  1.
          1   -1    0    0  501    0  0.00000000000E+00 -0.00000000000E+00 -0.30021245584E+03  0.30021245584E+03  0.00000000000E+00 0. -1.
          5    1    1    2  502    0  0.12519525256E+03 -0.20063070782E+02 -0.73188423931E+02  0.14645953663E+03  0.41800000000E+01 0.  1.
         -5    1    1    2    0  502 -0.14442259874E+02  0.52225167930E+01  0.23585112230E+02  0.28453180329E+02  0.41800000000E+01 0.  1.
        -11    1    1    2    0    0 -0.60976732224E+02  0.19128853928E+02 -0.15182567770E+03  0.16472738490E+03  0.00000000000E+00 0. -1.
         11    1    1    2    0    0 -0.49776260459E+02 -0.42882999389E+01 -0.86516182323E+01  0.50704202190E+02  0.00000000000E+00 0.  1.
</event>
<event>
 6    1  0.9216756E-006  0.1605191E+03  0.7561462E-02  0.1188112E+00
          2   -1    0    0  501    0  0.00000000000E+00  0.00000000000E+00  0.53140782115E+03  0.53140782115E+03  0.00000000000E+00 0. -1.
         -2   -1    0    0    0  501 -0.00000000000E+00 -0.00000000000E+00 -0.58158279598E+02  0.58158279598E+02  0.00000000000E+00 0.  1.
          5    1    1    2  502    0  0.10587696528E+03  0.66259199936E+02  0.10317535964E+03  0.16205813954E+03  0.41800000000E+01 0.  1.
         -5    1    1    2    0  502 -0.36056792419E+02  0.31212392283E+02  0.30211535480E+02  0.56608435658E+02  0.41800000000E+01 0.  1.
        -11    1    1    2    0    0  0.20854020181E+01 -0.71820846816E+02  0.15244059804E+03  0.16852512831E+03  0.00000000000E+00 0. -1.
         11    1    1    2    0    0 -0.71905574881E+02 -0.25650745403E+02  0.18742204838E+03  0.20237439724E+03  0.00000000000E+00 0.  1.
</event>
<event>
 6    1  0.9216756E-006  0.1560788E+03  0.7561462E-02  0.1193196E+00
         -1   -1    0    0    0  501 -0.00000000000E+00  0.00000000000E+00  0.55697253042E+03  0.55697253042E+03  0.00000000000E+00 0.  1.
          1   -1    0    0  501    0  0.00000000000E+00 -0.00000000000E+00 -0.46774078927E+02  0.46774078927E+02  0.00000000000E+00 0. -1.
          5    1    1    2  502    0 -0.22180605083E+02  0.11433098626E+03  0.22508653375E+03  0.25346592223E+03  0.41800000000E+01 0.  1.
         -5    1    1    2    0  502 -0.52386996665E+02 -0.20820797329E+02  0.11089700442E+03  0.12447297301E+03  0.41800000000E+01 0.  1.
        -11    1    1    2    0    0  0.65646924720E+02 -0.25382765740E+02  0.11633346695E+03  0.13596793392E+03  0.00000000000E+00 0.  1.
         11    1    1    2    0    0  0.89206770270E+01 -0.68127423187E+02  0.57881446383E+02  0.89839780188E+02  0.00000000000E+00 0. -1.
</event>
<event>
 6    1  0.9216756E-006  0.9941570E+02  0.7561462E-02  0.1281529E+00
          2   -1    0    0  501    0  0.00000000000E+00  0.00000000000E+00  0.10245232837E+03  0.10245232837E+03  0.00000000000E+00 0. -1.
         -2   -1    0    0    0  501 -0.00000000000E+00 -0.00000000000E+00 -0.11842928625E+03  0.11842928625E+03  0.00000000000E+00 0.  1.
          5    1    1    2  502    0 -0.47504256516E+02 -0.47484130967E+02 -0.22897544726E+02  0.71085631708E+02  0.41800000000E+01 0.  1.
         -5    1    1    2    0  502  0.44597553133E+02  0.35154781125E+02 -0.13043105298E+01  0.56955895282E+02  0.41800000000E+01 0.  1.
        -11    1    1    2    0    0 -0.25086245652E+02 -0.19815621070E+02 -0.23523630403E+02  0.39690549840E+02  0.00000000000E+00 0.  1.
         11    1    1    2    0    0  0.27992949035E+02  0.32144970912E+02  0.31748527787E+02  0.53149537790E+02  0.00000000000E+00 0. -1.
</event>
<event>
 6    1  0.9216756E-006  0.1095276E+03  0.7561462E-02  0.1261447E+00
         -2   -1    0    0    0  501 -0.00000000000E+00  0.00000000000E+00  0.42917037545E+02  0.42917037545E+02  0.00000000000E+00 0.  1.
          2   -1    0    0  501    0  0.00000000000E+00 -0.00000000000E+00 -0.43245292152E+03  0.43245292152E+03  0.00000000000E+00 0. -1.
          5    1    1    2  502    0  0.67911067885E+01  0.10368757006E+02  0.11208698609E+02  0.17226072616E+02  0.41800000000E+01 0.  1.
         -5    1    1    2    0  502 -0.81801578264E+02  0.24284468724E+02 -0.25544160016E+03  0.26934943312E+03  0.41800000000E+01 0.  1.
        -11    1    1    2    0    0 -0.11393838416E+02 -0.32141445972E+02 -0.41181954568E+02  0.53468172636E+02  0.00000000000E+00 0.  1.
         11    1    1    2    0    0  0.86404309892E+02 -0.25117797574E+01 -0.10412102786E+03  0.13532628070E+03  0.00000000000E+00 0. -1.
</event>
<event>
 6    1  0.9216756E-006  0.1822700E+03  0.7561462E-02  0.1165624E+00
         -1   -1    0    0    0  501 -0.00000000000E+00  0.00000000000E+00  0.14987699449E+03  0.14987699449E+03  0.00000000000E+00 0.  1.
          1   -1    0    0  501    0  0.00000000000E+00 -0.00000000000E+00 -0.28894243242E+03  0.28894243242E+03  0.00000000000E+00 0. -1.
          5    1    1    2  502    0  0.19597997048E+02  0.14618827033E+02 -0.44195222770E+02  0.50680190487E+02  0.41800000000E+01 0. -1.
         -5    1    1    2    0  502  0.13297946327E+03 -0.94035588162E+02  0.16692958142E+02  0.16377532398E+03  0.41800000000E+01 0. -1.
        -11    1    1    2    0    0 -0.86418324729E+02  0.21905473211E+02 -0.92462734192E+01  0.89629627790E+02  0.00000000000E+00 0.  1.
         11    1    1    2    0    0 -0.66159135587E+02  0.57511287918E+02 -0.10231689988E+03  0.13473428465E+03  0.00000000000E+00 0. -1.
</event>
<event>
 6    1  0.9216756E-006  0.1019183E+03  0.7561462E-02  0.1276313E+00
         -1   -1    0    0    0  501 -0.00000000000E+00  0.00000000000E+00  0.16779052672E+03  0.16779052672E+03  0.00000000000E+00 0.  1.
          1   -1    0    0  501    0  0.00000000000E+00 -0.00000000000E+00 -0.91815978175E+02  0.91815978175E+02  0.00000000000E+00 0. -1.
          5    1    1    2  502    0  0.60257767394E+02 -0.18739264242E+01  0.71027327622E+02  0.93256977222E+02  0.41800000000E+01 0.  1.
         -5    1    1    2    0  502 -0.46515057253E+02 -0.41938503795E+02  0.12487019855E+02  0.63999114968E+02  0.41800000000E+01 0.  1.
        -11    1    1    2    0    0  0.26582933179E+02  0.23510787475E+02  0.27747818363E+02  0.45048317261E+02  0.00000000000E+00 0.  1.
         11    1    1    2    0    0 -0.40325643320E+02  0.20301642744E+02 -0.35287617298E+02  0.57302095441E+02  0.00000000000E+00 0. -1.
</event>
<event>
 6    1  0.9216756E-006  0.9838446E+02  0.7561462E-02  0.1283730E+00
         -1   -1    0    0    0  501 -0.00000000000E+00  0.00000000000E+00  0.33676614415E+03  0.33676614415E+03  0.00000000000E+00 0.  1.
          1   -1    0    0  501    0  0.00000000000E+00 -0.00000000000E+00 -0.54037495853E+02  0.54037495853E+02  0.00000000000E+00 0. -1.
          5    1    1    2  502    0 -0.17294811661E+01 -0.31709008022E+02  0.31568043391E+01  0.32185246752E+02  0.41800000000E+01 0. -1.
         -5    1    1    2    0  502  0.65578891703E+02  0.28952992078E+02  0.22076230238E+03  0.23214722341E+03  0.41800000000E+01 0. -1.
        -11    1    1    2    0    0  0.13670244983E+02  0.68760456720E+01  0.45120128315E+02  0.47644323703E+02  0.00000000000E+00 0.  1.
         11    1    1    2    0    0 -0.77519655519E+02 -0.41200297275E+01  0.13689413270E+02  0.78826846140E+02  0.00000000000E+00 0. -1.
</event>
<event>
 6    1  0.9216756E-006  0.7937243E+02  0.7561462E-02  0.1330842E+00
         -1   -1    0    0    0  501 -0.00000000000E+00  0.00000000000E+00  0.27666080175E+02  0.27666080175E+02  0.00000000000E+00 0.  1.
          1   -1    0    0  501    0  0.00000000000E+00 -0.00000000000E+00 -0.57210386421E+03  0.57210386421E+03  0.00000000000E+00 0. -1.
          5    1    1    2  502    0 -0.15346358889E+02 -0.24518293754E+02  0.67053530239E-01  0.29225577085E+02  0.41800000000E+01 0. -1.
         -5    1    1    2    0  502 -0.46480235442E+02  0.16580507647E+02 -0.27255105821E+03  0.27701421851E+03  0.41800000000E+01 0. -1.
        -11    1    1    2    0    0  0.28487459375E+02  0.28925615038E+02 -0.35847085992E+02  0.54159395501E+02  0.00000000000E+00 0.  1.
         11    1    1    2    0    0  0.33339134956E+02 -0.20987828930E+02 -0.23610669336E+03  0.23937075329E+03  0.00000000000E+00 0. -1.
</event>
<event>
 6    1  0.9216756E-006  0.1795400E+03  0.7561462E-02  0.1168249E+00
         -1   -1    0    0    0  501 -0.00000000000E+00  0.00000000000E+00  0.46127137025E+03  0.46127137025E+03  0.00000000000E+00 0.  1.
          1   -1    0    0  501    0  0.00000000000E+00 -0.00000000000E+00 -0.75459885146E+02  0.75459885146E+02  0.00000000000E+00 0. -1.
          5    1    1    2  502    0  0.16331134013E+03  0.26400234911E+02  0.20568489218E+03  0.26399112389E+03  0.41800000000E+01 0. -1.
         -5    1    1    2    0  502 -0.19775427996E+02 -0.24496583342E+02  0.27300050945E+02  0.41879772319E+02  0.41800000000E+01 0.  1.
        -11    1    1    2    0    0 -0.60858227870E+02  0.36189797898E+02  0.27491546608E+02  0.75955319144E+02  0.00000000000E+00 0. -1.
         11    1    1    2    0    0 -0.82677684265E+02 -0.38093449467E+02  0.12533499537E+03  0.15490504005E+03  0.00000000000E+00 0.  1.
</event>
<event>
 6    1  0.9216756E-006  0.1668092E+03  0.7561462E-02  0.1181217E+00
         -1   -1    0    0    0  501 -0.00000000000E+00  0.00000000000E+00  0.64484841053E+02  0.64484841053E+02  0.00000000000E+00 0.  1.
          1   -1    0    0  501    0  0.00000000000E+00 -0.00000000000E+00 -0.58474418347E+03  0.58474418347E+03  0.00000000000E+00 0. -1.
          5    1    1    2  502    0 -0.62435555440E+01  0.94204308784E+02 -0.86686860712E+02  0.12824007954E+03  0.41800000000E+01 0.  1.
         -5    1    1    2    0  502  0.83720632774E+02  0.14925850637E+02 -0.37231461163E+02  0.92927818600E+02  0.41800000000E+01 0.  1.
        -11    1    1    2    0    0 -0.10673774602E+02 -0.80645434666E+02 -0.14303017337E+03  0.16454557451E+03  0.00000000000E+00 0.  1.
         11    1    1    2    0    0 -0.66803302629E+02 -0.28484724755E+02 -0.25331084717E+03  0.26351555187E+03  0.00000000000E+00 0. -1.
</event>
<event>
 6    1  0.9817585E-006  0.8754046E+02  0.7561462E-02  0.1308920E+00
          3   -1    0    0  501    0  0.00000000000E+00  0.00000000000E+00  0.59484470139E+03  0.59484470139E+03  0.00000000000E+00 0. -1.
         -3   -1    0    0    0  501 -0.00000000000E+00 -0.00000000000E+00 -0.34392141929E+02  0.34392141929E+02  0.00000000000E+00 0.  1.
          5    1    1    2  502    0 -0.28533587359E+02 -0.38989844674E+02  0.73680702035E+01  0.49052364405E+02  0.41800000000E+01 0. -1.
         -5    1    1    2    0  502 -0.26459982484E+02 -0.28362580316E+02  0.22801012034E+03  0.23132369964E+03  0.41800000000E+01 0. -1.
        -11    1    1    2    0    0  0.23581018902E+02  0.20989337038E+02  0.17232355768E+02  0.35966245385E+02  0.00000000000E+00 0.  1.
         11    1    1    2    0    0  0.31412550942E+02  0.46363087951E+02  0.30784201315E+03  0.31289453390E+03  0.00000000000E+00 0. -1.
</event>
<event>
 6    1  0.9216756E-006  0.1583547E+03  0.7561462E-02  0.1190567E+00
         -2   -1    0    0    0  501 -0.00000000000E+00  0.00000000000E+00  0.40365523679E+02  0.40365523679E+02  0.00000000000E+00 0.  1.
          2   -1    0    0  501    0  0.00000000000E+00 -0.00000000000E+00 -0.74686380743E+03  0.74686380743E+03  0.00000000000E+00 0. -1.
          5    1    1    2  502    0  0.85999752876E+02  0.93756265964E+02 -0.18941677036E+03  0.22821564406E+03  0.41800000000E+01 0.  1.
         -5    1    1    2    0  502 -0.36325224946E+02  0.31027218501E+02 -0.15221626752E+03  0.15959158735E+03  0.41800000000E+01 0.  1.
        -11    1    1    2    0    0 -0.19635753199E+01 -0.64738466453E+02 -0.26882770982E+03  0.27651991290E+03  0.00000000000E+00 0. -1.
         11    1    1    2    0    0 -0.47710952610E+02 -0.60045018012E+02 -0.96037536064E+02  0.12290218680E+03  0.00000000000E+00 0.  1.
</event>
<event>
 6    1  0.9216756E-006  0.1327296E+03  0.7561462E-02  0.1223461E+00
         -2   -1    0    0    0  501 -0.00000000000E+00  0.00000000000E+00  0.15217748575E+03  0.15217748575E+03  0.00000000000E+00 0.  1.
          2   -1    0    0  501    0  0.00000000000E+00 -0.00000000000E+00 -0.13094092373E+03  0.13094092373E+03  0.00000000000E+00 0. -1.
          5    1    1    2  502    0  0.29198954375E+02 -0.48520701142E+02 -0.51818861162E+01  0.57018959300E+02  0.41800000000E+01 0. -1.
         -5    1    1    2    0  502  0.55453306342E+02  0.77747229748E+02  0.18861071504E+02  0.97431582847E+02  0.41800000000E+01 0. -1.
        -11    1    1    2    0    0 -0.79826484608E+02 -0.48375148551E+02 -0.19317103684E+02  0.95318272839E+02  0.00000000000E+00 0. -1.
         11    1    1    2    0    0 -0.48257761086E+01  0.19148619945E+02  0.26874480310E+02  0.33349594492E+02  0.00000000000E+00 0.  1.
</event>
<event>
 6    1  0.9216756E-006  0.1021861E+03  0.7561462E-02  0.1275765E+00
          2   -1    0    0  501    0  0.00000000000E+00  0.00000000000E+00  0.44794038705E+03  0.44794038705E+03  0.00000000000E+00 0.  1.
         -2   -1    0    0    0  501 -0.00000000000E+00 -0.00000000000E+00 -0.26224652885E+02  0.26224652885E+02  0.00000000000E+00 0. -1.
          5    1    1    2  502    0  0.12026052529E+01  0.55020582805E+02  0.65793236348E+02  0.85877430916E+02  0.41800000000E+01 0. -1.
         -5    1    1    2    0  502  0.35047436583E+02 -0.62147618867E+02  0.15246457909E+03  0.16838518230E+03  0.41800000000E+01 0. -1.
        -11    1    1    2    0    0 -0.43608990644E+02  0.30492367613E+02  0.17192973101E+03  0.17997600105E+03  0.00000000000E+00 0.  1.
         11    1    1    2    0    0  0.73589488075E+01 -0.23365331551E+02  0.31528187717E+02  0.39926425669E+02  0.00000000000E+00 0. -1.
</event>
<event>
 6    1  0.9216756E-006  0.2697304E+03  0.7561462E-02  0.1101434E+00
         -1   -1    0    0    0  501 -0.00000000000E+00  0.00000000000E+00  0.15398903937E+03  0.15398903937E+03  0.00000000000E+00 0.  1.
          1   -1    0    0  501    0  0.00000000000E+00 -0.00000000000E+00 -0.53149964763E+03  0.53149964763E+03  0.00000000000E+00 0. -1.
          5    1    1    2  502    0 -0.12774848353E+02  0.12184718539E+03 -0.21292584411E+02  0.12442178222E+03  0.41800000000E+01 0. -1.
         -5    1    1    2    0  502  0.11134855642E+03  0.10622405646E+03 -0.61719403441E+02  0.16585779556E+03  0.41800000000E+01 0. -1.
        -11    1    1    2    0    0 -0.84749646908E+02 -0.87992163480E+02 -0.12330730752E+03  0.17357942151E+03  0.00000000000E+00 0.  1.
         11    1    1    2    0    0 -0.13824061160E+02 -0.14007907837E+03 -0.17119131289E+03  0.22162968771E+03  0.00000000000E+00 0. -1.
</event>
<event>
 6    1  0.9216756E-006  0.1260424E+03  0.7561462E-02  0.1233449E+00
          4   -1    0    0  501    0  0.00000000000E+00  0.00000000000E+00  0.25045601555E+03  0.25045601555E+03  0.00000000000E+00 0. -1.
         -4   -1    0    0    0  501 -0.00000000000E+00 -0.00000000000E+00 -0.82708742269E+02  0.82708742269E+02  0.00000000000E+00 0.  1.
          5    1    1    2  502    0  0.68699152795E+01  0.24511354183E+02  0.41858071229E+02  0.49168818847E+02  0.41800000000E+01 0.  1.
         -5    1    1    2    0  502 -0.66694148429E+02 -0.80912219726E+02 -0.47674984451E+01  0.10504807555E+03  0.41800000000E+01 0.  1.
        -11    1    1    2    0    0 -0.39169675552E+01 -0.20838846270E+02  0.15075493843E+02  0.26016738137E+02  0.00000000000E+00 0. -1.
         11    1    1    2    0    0  0.63741200705E+02  0.77239711813E+02  0.11558120665E+03  0.15293112528E+03  0.00000000000E+00 0.  1.
</event>
<event>
 6    1  0.9216756E-006  0.1801762E+03  0.7561462E-02  0.1167633E+00
          1   -1    0    0  501    0  0.00000000000E+00  0.00000000000E+00  0.69833358686E+03  0.69833358686E+03  0.00000000000E+00 0. -1.
         -1   -1    0    0    0  501 -0.00000000000E+00 -0.00000000000E+00 -0.53157669050E+02  0.53157669050E+02  0.00000000000E+00 0.  1.
          5    1    1    2  502    0  0.21860075220E+02  0.18968897629E+02  0.50740398046E+02  0.58564002252E+02  0.41800000000E+01 0.  1.
         -5    1    1    2    0  502  0.21164414074E+02 -0.17040308037E+03  0.32425288786E+03  0.36693671104E+03  0.41800000000E+01 0.  1.
        -11    1    1    2    0    0 -0.21360180952E+01  0.49087024916E+02  0.20828934899E+02  0.53366123312E+02  0.00000000000E+00 0.  1.
         11    1    1    2    0    0 -0.40888471199E+02  0.10234715782E+03  0.24935369700E+03  0.27262441930E+03  0.00000000000E+00 0. -1.
</event>
<event>
 6    1  0.9216756E-006  0.1055012E+03  0.7561462E-02  0.1269135E+00
          4   -1    0    0  501    0  0.00000000000E+00  0.00000000000E+00  0.98591967268E+02  0.98591967268E+02  0.00000000000E+00 0. -1.
         -4   -1    0    0    0  501 -0.00000000000E+00 -0.00000000000E+00 -0.17725009708E+03  0.17725009708E+03  0.00000000000E+00 0.  1.
          5    1    1    2  502    0 -0.14148672934E+02 -0.77859704352E+02 -0.10071073476E+03  0.12815008000E+03  0.41800000000E+01 0. -1.
         -5    1    1    2    0  502  0.39310232348E+01  0.42618806519E+02 -0.13245883538E+02  0.44997127058E+02  0.41800000000E+01 0. -1.
        -11    1    1    2    0    0 -0.17550844308E+02  0.52974331217E+02  0.41011923869E+02  0.69255251088E+02  0.00000000000E+00 0. -1.
         11    1    1    2    0    0  0.27768494007E+02 -0.17733433384E+02 -0.57134353793E+01  0.33439606200E+02  0.00000000000E+00 0.  1.
</event>
<event>
 6    1  0.9216756E-006  0.9475971E+02  0.7561462E-02  0.1291718E+00
          1   -1    0    0  501    0  0.00000000000E+00  0.00000000000E+00  0.26230100917E+03  0.26230100917E+03  0.00000000000E+00 0. -1.
         -1   -1    0    0    0  501 -0.00000000000E+00 -0.00000000000E+00 -0.44246530848E+02  0.44246530848E+02  0.00000000000E+00 0.  1.
          5    1    1    2  502    0  0.19146372706E+01 -0.62587972518E+02  0.72049979298E+02  0.95548898773E+02  0.41800000000E+01 0.  1.
         -5    1    1    2    0  502 -0.23228274045E+01  0.61855601905E+02  0.59488967578E+02  0.85953014361E+02  0.41800000000E+01 0.  1.
        -11    1    1    2    0    0 -0.10326737909E+02  0.30964534881E+02  0.87040716698E+02  0.92959831645E+02  0.00000000000E+00 0. -1.
         11    1    1    2    0    0  0.10734928042E+02 -0.30232164268E+02 -0.52518525632E+00  0.32085795236E+02  0.00000000000E+00 0.  1.
</event>
<event>
 6    1  0.9216756E-006  0.2500133E+03  0.7561462E-02  0.1113296E+00
         -2   -1    0    0    0  501 -0.00000000000E+00  0.00000000000E+00  0.74453672320E+03  0.74453672320E+03  0.00000000000E+00 0. -1.
          2   -1    0    0  501    0  0.00000000000E+00 -0.00000000000E+00 -0.17504285236E+03  0.17504285236E+03  0.00000000000E+00 0.  1.
          5    1    1    2  502    0  0.15709912912E+03 -0.38279491438E+02  0.24981995119E+03  0.29761205662E+03  0.41800000000E+01 0.  1.
         -5    1    1    2    0  502  0.87228967651E+02  0.32622626955E+02  0.34738293413E+03  0.35967416353E+03  0.41800000000E+01 0.  1.
        -11    1    1    2    0    0 -0.12282859543E+03 -0.61460864049E+01  0.31012843058E+02  0.12683230925E+03  0.00000000000E+00 0. -1.
         11    1    1    2    0    0 -0.12149950134E+03  0.11802950889E+02 -0.58721857538E+02  0.13546104616E+03  0.00000000000E+00 0.  1.
</event>
<event>
 6    1  0.9216756E-006  0.1280578E+03  0.7561462E-02  0.1230366E+00
          4   -1    0    0  501    0  0.00000000000E+00  0.00000000000E+00  0.57502166050E+03  0.57502166050E+03  0.00000000000E+00 0. -1.
         -4   -1    0    0    0  501 -0.00000000000E+00 -0.00000000000E+00 -0.42953286156E+02  0.42953286156E+02  0.00000000000E+00 0.  1.
          5    1    1    2  502    0  0.66919144472E+02  0.49277820291E+02  0.31455846722E+03  0.32537820635E+03  0.41800000000E+01 0. -1.
         -5    1    1    2    0  502  0.34264955009E+02 -0.77167756148E+01  0.62576229987E+01  0.35920273012E+02  0.41800000000E+01 0. -1.
        -11    1    1    2    0    0 -0.29495538988E+02 -0.57020684782E+02  0.14187521792E+03  0.15572386707E+03  0.00000000000E+00 0. -1.
         11    1    1    2    0    0 -0.71688560493E+02  0.15459640106E+02  0.69377066209E+02  0.10095260023E+03  0.00000000000E+00 0.  1.
</event>
<event>
 6    1  0.9216756E-006  0.1028425E+03  0.7561462E-02  0.1274430E+00
          2   -1    0    0  501    0  0.00000000000E+00  0.00000000000E+00  0.37312217443E+02  0.37312217443E+02  0.00000000000E+00 0. -1.
         -2   -1    0    0    0  501 -0.00000000000E+00 -0.00000000000E+00 -0.32778503259E+03  0.32778503259E+03  0.00000000000E+00 0.  1.
          5    1    1    2  502    0 -0.23837324033E+02  0.36278795378E+02 -0.11794001363E+03  0.12574453557E+03  0.41800000000E+01 0.  1.
         -5    1    1    2    0  502  0.57085163921E+02 -0.16700341561E+02 -0.40015892491E+02  0.71807808768E+02  0.41800000000E+01 0. -1.
        -11    1    1    2    0    0  0.16935923805E+02  0.28371183130E+02 -0.39863881214E+02  0.51777201284E+02  0.00000000000E+00 0.  1.
         11    1    1    2    0    0 -0.50183763692E+02 -0.47949636947E+02 -0.92653027817E+02  0.11576770441E+03  0.00000000000E+00 0. -1.
</event>
<event>
 6    1  0.9216756E-006  0.1455928E+03  0.7561462E-02  0.1205995E+00
          4   -1    0    0  501    0  0.00000000000E+00  0.00000000000E+00  0.30415961547E+02  0.30415961547E+02  0.00000000000E+00 0. -1.
         -4   -1    0    0    0  501 -0.00000000000E+00 -0.00000000000E+00 -0.73095367499E+03  0.73095367499E+03  0.00000000000E+00 0.  1.
          5    1    1    2  502    0 -0.26008725683E+02 -0.12201760294E+02 -0.11937879722E+03  0.12285807418E+03  0.41800000000E+01 0.  1.
         -5    1    1    2    0  502  0.12620652110E+03  0.21822160959E+02 -0.30120058609E+03  0.32732790614E+03  0.41800000000E+01 0.  1.
        -11    1    1    2    0    0 -0.11325929362E+03  0.62757745378E+01 -0.25305147419E+03  0.27731228160E+03  0.00000000000E+00 0.  1.
         11    1    1    2    0    0  0.13061498201E+02 -0.15896175203E+02 -0.26906855942E+02  0.33871374611E+02  0.00000000000E+00 0. -1.
</event>
<event>
 6    1  0.9216756E-006  0.1197995E+03  0.7561462E-02  0.1243428E+00
         -2   -1    0    0    0  501 -0.00000000000E+00  0.00000000000E+00  0.31545178381E+03  0.31545178381E+03  0.00000000000E+00 0.  1.
          2   -1    0    0  501    0  0.00000000000E+00 -0.00000000000E+00 -0.55252107837E+02  0.55252107837E+02  0.00000000000E+00 0. -1.
          5    1    1    2  502    0  0.22925377006E+02  0.51441100977E+02  0.89524871905E+02  0.10584864132E+03  0.41800000000E+01 0.  1.
         -5    1    1    2    0  502  0.50491534456E+02 -0.63561823129E+02  0.48016390211E+02  0.94406284432E+02  0.41800000000E+01 0.  1.
        -11    1    1    2    0    0 -0.82394505194E+02 -0.49625206134E+01  0.52829209228E+02  0.98002073675E+02  0.00000000000E+00 0. -1.
         11    1    1    2    0    0  0.89775937323E+01  0.17083242766E+02  0.69829204628E+02  0.72446892215E+02  0.00000000000E+00 0.  1.
</event>
<event>
 6    1  0.9216756E-006  0.1618903E+03  0.7561462E-02  0.1186579E+00
         -2   -1    0    0    0  501 -0.00000000000E+00  0.00000000000E+00  0.50008616732E+02  0.50008616732E+02  0.00000000000E+00 0.  1.
          2   -1    0    0  501    0  0.00000000000E+00 -0.00000000000E+00 -0.70330527725E+03  0.70330527725E+03  0.00000000000E+00 0. -1.
          5    1    1    2  502    0  0.11118349664E+03 -0.16404884967E+02 -0.96752748950E+02  0.14835584588E+03  0.41800000000E+01 0.  1.
         -5    1    1    2    0  502  0.41234113459E+02  0.19118940502E+02 -0.22060998254E+03  0.22528209604E+03  0.41800000000E+01 0.  1.
        -11    1    1    2    0    0 -0.86435448321E+02 -0.33705921898E+02 -0.11944140962E+03  0.15123963180E+03  0.00000000000E+00 0.  1.
         11    1    1    2    0    0 -0.65982161782E+02  0.30991866362E+02 -0.21649251941E+03  0.22843632026E+03  0.00000000000E+00 0. -1.
</event>
<event>
 6    1  0.9216756E-006  0.1048090E+03  0.7561462E-02  0.1270496E+00
         -2   -1    0    0    0  501 -0.00000000000E+00  0.00000000000E+00  0.31362686212E+02  0.31362686212E+02  0.00000000000E+00 0.  1.
          2   -1    0    0  501    0  0.00000000000E+00 -0.00000000000E+00 -0.45017863071E+03  0.45017863071E+03  0.00000000000E+00 0. -1.
          5    1    1    2  502    0  0.71317175456E+02  0.81126778479E+01 -0.88139048720E+02  0.11374497513E+03  0.41800000000E+01 0.  1.
         -5    1    1    2    0  502 -0.39795508082E+02 -0.43066173206E+02 -0.11969214252E+03  0.13334938740E+03  0.41800000000E+01 0.  1.
        -11    1    1    2    0    0  0.57011902225E+01 -0.15338740804E+02 -0.22276826743E+01  0.16514935952E+02  0.00000000000E+00 0.  1.
         11    1    1    2    0    0 -0.37222857596E+02  0.50292236162E+02 -0.20875707058E+03  0.21793201844E+03  0.00000000000E+00 0. -1.
</event>
<event>
 6    1  0.9216756E-006  0.6832276E+02  0.7561462E-02  0.1365891E+00
          2   -1    0    0  501    0  0.00000000000E+00  0.00000000000E+00  0.32206773306E+02  0.32206773306E+02  0.00000000000E+00 0. -1.
         -2   -1    0    0    0  501 -0.00000000000E+00 -0.00000000000E+00 -0.28586233449E+03  0.28586233449E+03  0.00000000000E+00 0.  1.
          5    1    1    2  502    0  0.27954684422E+02  0.36941626882E+02 -0.17795805307E+02  0.49802723464E+02  0.41800000000E+01 0. -1.
         -5    1    1    2    0  502 -0.46798909569E+02 -0.85351430816E+01 -0.21636867459E+03  0.22157586139E+03  0.41800000000E+01 0.  1.
        -11    1    1    2    0    0  0.12762072296E+02  0.56405055716E+00 -0.48346318798E+01  0.13658781341E+02  0.00000000000E+00 0. -1.
         11    1    1    2    0    0  0.60821528505E+01 -0.28970534358E+02 -0.14656449406E+02  0.33031741605E+02  0.00000000000E+00 0.  1.
</event>
<event>
 6    1  0.9216756E-006  0.9735916E+02  0.7561462E-02  0.1285949E+00
          2   -1    0    0  501    0  0.00000000000E+00  0.00000000000E+00  0.54052856852E+03  0.54052856852E+03  0.00000000000E+00 0. -1.
         -2   -1    0    0    0  501 -0.00000000000E+00 -0.00000000000E+00 -0.23127313598E+02  0.23127313598E+02  0.00000000000E+00 0.  1.
          5    1    1    2  502    0 -0.48857865390E+01 -0.49345782204E+02  0.75383668497E+02  0.90327443268E+02  0.41800000000E+01 0.  1.
         -5    1    1    2    0  502  0.22834385294E+02  0.66142286624E+02  0.23455033787E+03  0.24480103069E+03  0.41800000000E+01 0.  1.
        -11    1    1    2    0    0 -0.45033392234E+02 -0.49814315279E+01  0.46699730526E+02  0.65066780367E+02  0.00000000000E+00 0.  1.
         11    1    1    2    0    0  0.27084793478E+02 -0.11815072892E+02  0.16076751802E+03  0.16346062779E+03  0.00000000000E+00 0. -1.
</event>
<event>
 6    1  0.9216756E-006  0.7929092E+02  0.7561462E-02  0.1331076E+00
          1   -1    0    0  501    0  0.00000000000E+00  0.00000000000E+00  0.33566986149E+02  0.33566986149E+02  0.00000000000E+00 0. -1.
         -1   -1    0    0    0  501 -0.00000000000E+00 -0.00000000000E+00 -0.79758701371E+03  0.79758701371E+03  0.00000000000E+00 0.  1.
          5    1    1    2  502    0  0.33578668387E+02  0.19369046906E+02 -0.66843030898E+03  0.66956645474E+03  0.41800000000E+01 0.  1.
         -5    1    1    2    0  502 -0.80028275172E+01  0.25323985137E+02 -0.24271243285E+02  0.36220368884E+02  0.41800000000E+01 0.  1.
        -11    1    1    2    0    0 -0.40160714343E+02 -0.59589580280E+02 -0.27683355046E+02  0.77007591841E+02  0.00000000000E+00 0. -1.
         11    1    1    2    0    0  0.14584873474E+02  0.14896548237E+02 -0.43635120245E+02  0.48359584391E+02  0.00000000000E+00 0.  1.
</event>
<event>
 6    1  0.9216756E-006  0.1128909E+03  0.7561462E-02  0.1255308E+00
          1   -1    0    0  501    0  0.00000000000E+00  0.00000000000E+00  0.10852543724E+04  0.10852543724E+04  0.00000000000E+00 0. -1.
         -1   -1    0    0    0  501 -0.00000000000E+00 -0.00000000000E+00 -0.13394275368E+02  0.13394275368E+02  0.00000000000E+00 0.  1.
          5    1    1    2  502    0 -0.32846082033E+02  0.61336793201E+02  0.45181106620E+03  0.45715618693E+03  0.41800000000E+01 0. -1.
         -5    1    1    2    0  502  0.51375188328E+02 -0.39258085438E+02  0.17792504548E+03  0.18935522559E+03  0.41800000000E+01 0.  1.
        -11    1    1    2    0    0  0.32485237138E+02 -0.23755056617E+02  0.13756768167E+03  0.14333338894E+03  0.00000000000E+00 0.  1.
         11    1    1    2    0    0 -0.51014343433E+02  0.16763488538E+01  0.30455630367E+03  0.30880384629E+03  0.00000000000E+00 0. -1.
</event>
<event>
 6    1  0.9216756E-006  0.9424505E+02  0.7561462E-02  0.1292886E+00
         -2   -1    0    0    0  501 -0.00000000000E+00  0.00000000000E+00  0.37272166592E+02  0.37272166592E+02  0.00000000000E+00 0.  1.
          2   -1    0    0  501    0  0.00000000000E+00 -0.00000000000E+00 -0.51131869793E+03  0.51131869793E+03  0.00000000000E+00 0. -1.
          5    1    1    2  502    0  0.20244013191E+02  0.30432490994E+02 -0.19577678705E+03  0.19920336174E+03  0.41800000000E+01 0.  1.
         -5    1    1    2    0  502  0.19429376021E+01  0.45614599494E+02  0.51349615305E+00  0.45849784861E+02  0.41800000000E+01 0.  1.
        -11    1    1    2    0    0 -0.45685341851E+02 -0.66066897076E+02 -0.13175414708E+03  0.15430858895E+03  0.00000000000E+00 0.  1.
         11    1    1    2    0    0  0.23498391057E+02 -0.99801934120E+01 -0.14702909335E+03  0.14922912898E+03  0.00000000000E+00 0. -1.
</event>
<event>
 6    1  0.9216756E-006  0.1394873E+03  0.7561462E-02  0.1214021E+00
          2   -1    0    0  501    0  0.00000000000E+00  0.00000000000E+00  0.14759028366E+03  0.14759028366E+03  0.00000000000E+00 0. -1.
         -2   -1    0    0    0  501 -0.00000000000E+00 -0.00000000000E+00 -0.13926524603E+03  0.13926524603E+03  0.00000000000E+00 0.  1.
          5    1    1    2  502    0  0.22182674795E+01 -0.29442403671E+02  0.15514152175E+02  0.33614537960E+02  0.41800000000E+01 0.  1.
         -5    1    1    2    0  502  0.32065642786E+02  0.11476275095E+03 -0.25683388280E+02  0.12196640229E+03  0.41800000000E+01 0.  1.
        -11    1    1    2    0    0  0.70533032709E+01 -0.88203502121E+02  0.14159936634E+02  0.89610884824E+02  0.00000000000E+00 0. -1.
         11    1    1    2    0    0 -0.41337213536E+02  0.28831548419E+01  0.43343370931E+01  0.41663704622E+02  0.00000000000E+00 0.  1.
</event>
<event>
 6    1  0.9216756E-006  0.1226184E+03  0.7561462E-02  0.1238839E+00
          2   -1    0    0  501    0  0.00000000000E+00  0.00000000000E+00  0.65167840142E+03  0.65167840142E+03  0.00000000000E+00 0.  1.
         -2   -1    0    0    0  501 -0.00000000000E+00 -0.00000000000E+00 -0.37608404479E+02  0.37608404479E+02  0.00000000000E+00 0. -1.
          5    1    1    2  502    0 -0.71066456730E+02 -0.83474952459E+02  0.25493563677E+03  0.27753947513E+03  0.41800000000E+01 0.  1.
         -5    1    1    2    0  502  0.33862757555E+01  0.27055420541E+01 -0.13096578280E+02  0.14414561524E+02  0.41800000000E+01 0.  1.
        -11    1    1    2    0    0  0.67486750408E+02  0.22356425793E+02  0.27375252155E+03  0.28283336846E+03  0.00000000000E+00 0.  1.
         11    1    1    2    0    0  0.19343056701E+00  0.58412984612E+02  0.98478416901E+02  0.11449940079E+03  0.00000000000E+00 0. -1.
</event>
<event>
 6    1  0.9216756E-006  0.1461633E+03  0.7561462E-02  0.1205268E+00
         -1   -1    0    0    0  501 -0.00000000000E+00  0.00000000000E+00  0.15809604030E+03  0.15809604030E+03  0.00000000000E+00 0.  1.
          1   -1    0    0  501    0  0.00000000000E+00 -0.00000000000E+00 -0.14612660006E+03  0.14612660006E+03  0.00000000000E+00 0. -1.
          5    1    1    2  502    0  0.27208055563E+02  0.10056604260E+02  0.14504946096E+02  0.32699838501E+02  0.41800000000E+01 0. -1.
         -5    1    1    2    0  502 -0.13101312644E+03 -0.15176838654E+02  0.18483162139E+02  0.13324366932E+03  0.41800000000E+01 0. -1.
        -11    1    1    2    0    0  0.30207263112E+02  0.39587098494E+02 -0.27263721149E+02  0.56770834086E+02  0.00000000000E+00 0. -1.
         11    1    1    2    0    0  0.73597807765E+02 -0.34466864099E+02  0.62450531532E+01  0.81508298458E+02  0.00000000000E+00 0.  1.
</event>
<event>
 6    1  0.9216756E-006  0.1388646E+03  0.7561462E-02  0.1214865E+00
         -3   -1    0    0    0  501 -0.00000000000E+00  0.00000000000E+00  0.32017997055E+03  0.32017997055E+03  0.00000000000E+00 0.  1.
          3   -1    0    0  501    0  0.00000000000E+00 -0.00000000000E+00 -0.92329465843E+02  0.92329465843E+02  0.00000000000E+00 0. -1.
          5    1    1    2  502    0  0.39512842951E+02 -0.81170483951E+02  0.61714878057E+02  0.10943541838E+03  0.41800000000E+01 0. -1.
         -5    1    1    2    0  502 -0.67263617316E+02  0.60529879079E+02  0.18296042197E+03  0.20415741202E+03  0.41800000000E+01 0.  1.
        -11    1    1    2    0    0 -0.31375137280E+02 -0.59595966403E+01 -0.11183558956E+02  0.33837671645E+02  0.00000000000E+00 0.  1.
         11    1    1    2    0    0  0.59125911644E+02  0.26600201513E+02 -0.56412363595E+01  0.65078934348E+02  0.00000000000E+00 0. -1.
</event>
<event>
 6    1  0.9216756E-006  0.1019730E+03  0.7561462E-02  0.1276201E+00
         -2   -1    0    0    0  501 -0.00000000000E+00  0.00000000000E+00  0.15738700784E+03  0.15738700784E+03  0.00000000000E+00 0.  1.
          2   -1    0    0  501    0  0.00000000000E+00 -0.00000000000E+00 -0.12572884575E+03  0.12572884575E+03  0.00000000000E+00 0. -1.
          5    1    1    2  502    0  0.65783388075E+01 -0.41050372187E+02  0.81103926768E+02  0.91234461336E+02  0.41800000000E+01 0. -1.
         -5    1    1    2    0  502  0.24765788850E+02  0.66558604679E+02  0.18013701868E+02  0.73384998530E+02  0.41800000000E+01 0. -1.
        -11    1    1    2    0    0 -0.20194018649E+02  0.29026187242E+02 -0.47814466165E+02  0.59468824687E+02  0.00000000000E+00 0. -1.
         11    1    1    2    0    0 -0.11150109009E+02 -0.54534419734E+02 -0.19645000376E+02  0.59027569037E+02  0.00000000000E+00 0.  1.
</event>
<event>
 6    1  0.9216756E-006  0.1725500E+03  0.7561462E-02  0.1175214E+00
          2   -1    0    0  501    0  0.00000000000E+00  0.00000000000E+00  0.33383559442E+03  0.33383559442E+03  0.00000000000E+00 0. -1.
         -2   -1    0    0    0  501 -0.00000000000E+00 -0.00000000000E+00 -0.11639409384E+03  0.11639409384E+03  0.00000000000E+00 0.  1.
          5    1    1    2  502    0 -0.91996769324E+02 -0.48432878169E+02  0.31647972424E+02  0.10875760117E+03  0.41800000000E+01 0. -1.
         -5    1    1    2    0  502  0.23738329317E+02 -0.71640594973E+02 -0.19236477290E+02  0.77996138272E+02  0.41800000000E+01 0. -1.
        -11    1    1    2    0    0 -0.21820427099E+02  0.36835150307E+02  0.54541169023E+02  0.69337568859E+02  0.00000000000E+00 0.  1.
         11    1    1    2    0    0  0.90078867105E+02  0.83238322836E+02  0.15048883642E+03  0.19413837996E+03  0.00000000000E+00 0. -1.
</event>
<event>
 6    1  0.9216756E-006  0.8484571E+02  0.7561462E-02  0.1315836E+00
         -1   -1    0    0    0  501 -0.00000000000E+00  0.00000000000E+00  0.17042499728E+03  0.17042499728E+03  0.00000000000E+00 0.  1.
          1   -1    0    0  501    0  0.00000000000E+00 -0.00000000000E+00 -0.82558832292E+02  0.82558832292E+02  0.00000000000E+00 0. -1.
          5    1    1    2  502    0 -0.23062154196E+00  0.39632728684E+02  0.67254624948E+02  0.78175848867E+02  0.41800000000E+01 0.  1.
         -5    1    1    2    0  502  0.19076381966E+02 -0.72468954229E+02  0.15863033809E+02  0.76712227953E+02  0.41800000000E+01 0.  1.
        -11    1    1    2    0    0  0.11964389189E+02  0.14987084874E+02  0.42240455950E+02  0.46389820441E+02  0.00000000000E+00 0.  1.
         11    1    1    2    0    0 -0.30810149613E+02  0.17849140671E+02 -0.37491949721E+02  0.51705932307E+02  0.00000000000E+00 0. -1.
</event>
<event>
 6    1  0.9216756E-006  0.1776941E+03  0.7561462E-02  0.1170054E+00
          4   -1    0    0  501    0  0.00000000000E+00  0.00000000000E+00  0.26032280171E+03  0.26032280171E+03  0.00000000000E+00 0. -1.
         -4   -1    0    0    0  501 -0.00000000000E+00 -0.00000000000E+00 -0.21884722784E+03  0.21884722784E+03  0.00000000000E+00 0.  1.
          5    1    1    2  502    0 -0.15400785980E+02  0.16559296805E+02 -0.75594890772E+01  0.24207701142E+02  0.41800000000E+01 0. -1.
         -5    1    1    2    0  502  0.10727813667E+03 -0.12488286423E+03 -0.12868786306E+03  0.20900327003E+03  0.41800000000E+01 0. -1.
        -11    1    1    2    0    0 -0.34740031970E+02 -0.10132738299E+02  0.56510922421E+02  0.67104594176E+02  0.00000000000E+00 0. -1.
         11    1    1    2    0    0 -0.57137318718E+02  0.11845630572E+03  0.12121200358E+03  0.17885446421E+03  0.00000000000E+00 0.  1.
</event>
<event>
 6    1  0.9216756E-006  0.1228933E+03  0.7561462E-02  0.1238399E+00
         -2   -1    0    0    0  501 -0.00000000000E+00  0.00000000000E+00  0.60274721344E+02  0.60274721344E+02  0.00000000000E+00 0.  1.
          2   -1    0    0  501    0  0.00000000000E+00 -0.00000000000E+00 -0.30622174856E+03  0.30622174856E+03  0.00000000000E+00 0. -1.
          5    1    1    2  502    0 -0.22485186561E+02 -0.45914929822E+02 -0.25983825648E+02  0.57501269469E+02  0.41800000000E+01 0. -1.
         -5    1    1    2    0  502  0.77914774942E+02  0.67805226239E+01 -0.14641669296E+03  0.16604820992E+03  0.41800000000E+01 0. -1.
        -11    1    1    2    0    0  0.84386010940E+01  0.50584567521E+02 -0.10243887041E+02  0.52296708132E+02  0.00000000000E+00 0.  1.
         11    1    1    2    0    0 -0.63868189475E+02 -0.11450160323E+02 -0.63302621572E+02  0.90650282383E+02  0.00000000000E+00 0. -1.
</event>
<event>
 6    1  0.9216756E-006  0.9131927E+02  0.7561462E-02  0.1299688E+00
         -1   -1    0    0    0  501 -0.00000000000E+00  0.00000000000E+00  0.17233699853E+03  0.17233699853E+03  0.00000000000E+00 0.  1.
          1   -1    0    0  501    0  0.00000000000E+00 -0.00000000000E+00 -0.10200295037E+03  0.10200295037E+03  0.00000000000E+00 0. -1.
          5    1    1    2  502    0  0.64756360077E+02  0.22367043648E+01  0.65694133043E+02  0.92366555274E+02  0.41800000000E+01 0.  1.
         -5    1    1    2    0  502 -0.56042907853E+02 -0.28206679298E+02  0.53014723733E+02  0.82246322776E+02  0.41800000000E+01 0.  1.
        -11    1    1    2    0    0 -0.14507220527E+02 -0.10495664656E+02  0.16971446364E+02  0.24670800872E+02  0.00000000000E+00 0.  1.
         11    1    1    2    0    0  0.57937683023E+01  0.36465639590E+02 -0.65346254984E+02  0.75056269973E+02  0.00000000000E+00 0. -1.
</event>
<event>
 6    1  0.9216756E-006  0.1074359E+03  0.7561462E-02  0.1265393E+00
         -2   -1    0    0    0  501 -0.00000000000E+00  0.00000000000E+00  0.45089795069E+02  0.45089795069E+02  0.00000000000E+00 0.  1.
          2   -1    0    0  501    0  0.00000000000E+00 -0.00000000000E+00 -0.44175362959E+03  0.44175362959E+03  0.00000000000E+00 0. -1.
          5    1    1    2  502    0 -0.43915421935E+02 -0.70431942582E+01 -0.17978322189E+03  0.18525023655E+03  0.41800000000E+01 0.  1.
         -5    1    1    2    0  502 -0.34368002460E+02 -0.26907084308E+02  0.71022542253E+01  0.44419198485E+02  0.41800000000E+01 0.  1.
        -11    1    1    2    0    0  0.81481376674E+02 -0.10171573335E+02 -0.14782026814E+03  0.16909614816E+03  0.00000000000E+00 0.  1.
         11    1    1    2    0    0 -0.31979522794E+01  0.44121851901E+02 -0.76162598720E+02  0.88077841468E+02  0.00000000000E+00 0. -1.
</event>
<event>
 6    1  0.9216756E-006  0.1328277E+03  0.7561462E-02  0.1223319E+00
         -1   -1    0    0    0  501 -0.00000000000E+00  0.00000000000E+00  0.53107996002E+03  0.53107996002E+03  0.00000000000E+00 0.  1.
          1   -1    0    0  501    0  0.00000000000E+00 -0.00000000000E+00 -0.35046178882E+02  0.35046178882E+02  0.00000000000E+00 0. -1.
          5    1    1    2  502    0  0.43196985879E+02  0.77447715054E+01  0.12618404249E+03  0.13366318137E+03  0.41800000000E+01 0. -1.
         -5    1    1    2    0  502 -0.52764533377E+02 -0.87378364315E+02  0.19107107856E+03  0.21666726563E+03  0.41800000000E+01 0. -1.
        -11    1    1    2    0    0 -0.38650419106E+02  0.48495500075E+02  0.76147648378E+02  0.98204545608E+02  0.00000000000E+00 0. -1.
         11    1    1    2    0    0  0.48217966604E+02  0.31138092735E+02  0.10263101170E+03  0.11759114629E+03  0.00000000000E+00 0.  1.
</event>
<event>
 6    1  0.9216756E-006  0.1292641E+03  0.7561462E-02  0.1228552E+00
          1   -1    0    0  501    0  0.00000000000E+00  0.00000000000E+00  0.34728935715E+03  0.34728935715E+03  0.00000000000E+00 0. -1.
         -1   -1    0    0    0  501 -0.00000000000E+00 -0.00000000000E+00 -0.66851596947E+02  0.66851596947E+02  0.00000000000E+00 0.  1.
          5    1    1    2  502    0  0.86916354045E+02  0.63400945907E+02  0.14235210077E+03  0.17848172326E+03  0.41800000000E+01 0.  1.
         -5    1    1    2    0  502 -0.23857907074E+02  0.20937194507E+02 -0.81676380049E+01  0.33041618519E+02  0.41800000000E+01 0.  1.
        -11    1    1    2    0    0 -0.45146379935E+01 -0.51550215891E+02  0.12895342474E+02  0.53330071931E+02  0.00000000000E+00 0.  1.
         11    1    1    2    0    0 -0.58543808977E+02 -0.32787924523E+02  0.13335795496E+03  0.14928754039E+03  0.00000000000E+00 0. -1.
</event>
<event>
 6    1  0.9216756E-006  0.1506421E+03  0.7561462E-02  0.1199686E+00
         -2   -1    0    0    0  501 -0.00000000000E+00  0.00000000000E+00  0.97694961609E+02  0.97694961609E+02  0.00000000000E+00 0.  1.
          2   -1    0    0  501    0  0.00000000000E+00 -0.00000000000E+00 -0.26073159181E+03  0.26073159181E+03  0.00000000000E+00 0. -1.
          5    1    1    2  502    0 -0.21078987640E+02 -0.44359718788E+02 -0.72554221488E+02  0.87713715157E+02  0.41800000000E+01 0.  1.
         -5    1    1    2    0  502  0.10620061634E+03 -0.21505191763E+02 -0.59850526494E+02  0.12385718431E+03  0.41800000000E+01 0.  1.
        -11    1    1    2    0    0  0.19360801186E+02  0.24397919730E+02 -0.47821655305E+01  0.31511398206E+02  0.00000000000E+00 0.  1.
         11    1    1    2    0    0 -0.10448242988E+03  0.41466990821E+02 -0.25849716689E+02  0.11534425575E+03  0.00000000000E+00 0. -1.
</event>
<event>
 6    1  0.9216756E-006  0.1170005E+03  0.7561462E-02  0.1248129E+00
          1   -1    0    0  501    0  0.00000000000E+00  0.00000000000E+00  0.12816927650E+03  0.12816927650E+03  0.00000000000E+00 0.  1.
         -1   -1    0    0    0  501 -0.00000000000E+00 -0.00000000000E+00 -0.14753656810E+03  0.14753656810E+03  0.00000000000E+00 0. -1.
          5    1    1    2  502    0 -0.89405010946E+02 -0.41080206914E+02 -0.38758081338E+02  0.10583241777E+03  0.41800000000E+01 0. -1.
         -5    1    1    2    0  502  0.40209439156E+02  0.20420957406E+01 -0.28210950402E+02  0.49338618494E+02  0.41800000000E+01 0. -1.
        -11    1    1    2    0    0  0.67909409868E+02  0.31670848019E+02  0.60786109806E+02  0.96486691871E+02  0.00000000000E+00 0.  1.
         11    1    1    2    0    0 -0.18713838078E+02  0.73672631540E+01 -0.13184369668E+02  0.24048116466E+02  0.00000000000E+00 0. -1.
</event>
<event>
 6    1  0.9216756E-006  0.1191967E+03  0.7561462E-02  0.1244428E+00
          2   -1    0    0  501    0  0.00000000000E+00  0.00000000000E+00  0.82624273537E+03  0.82624273537E+03  0.00000000000E+00 0. -1.
         -2   -1    0    0    0  501 -0.00000000000E+00 -0.00000000000E+00 -0.24726712002E+02  0.24726712002E+02  0.00000000000E+00 0.  1.
          5    1    1    2  502    0 -0.79135988709E+02 -0.42043276364E+02  0.12890480791E+03  0.15704796623E+03  0.41800000000E+01 0.  1.
         -5    1    1    2    0  502  0.16176054445E+02 -0.24721215502E+02  0.25928142078E+03  0.26099258763E+03  0.41800000000E+01 0.  1.
        -11    1    1    2    0    0  0.67194360807E+02  0.17546539955E+02  0.31872238076E+03  0.32620073450E+03  0.00000000000E+00 0. -1.
         11    1    1    2    0    0 -0.42344265439E+01  0.49217951911E+02  0.94607413920E+02  0.10672815902E+03  0.00000000000E+00 0.  1.
</event>
<event>
 6    1  0.1095394E-005  0.5082347E+02  0.7561462E-02  0.1440950E+00
          2   -1    0    0  501    0  0.00000000000E+00  0.00000000000E+00  0.97664578712E+02  0.97664578712E+02  0.00000000000E+00 0.  1.
         -2   -1    0    0    0  501 -0.00000000000E+00 -0.00000000000E+00 -0.87627993295E+02  0.87627993295E+02  0.00000000000E+00 0. -1.
          5    1    1    2  502    0  0.89084599474E+01  0.23027242504E+02  0.27674806548E+02  0.37322672378E+02  0.41800000000E+01 0.  1.
         -5    1    1    2    0  502 -0.74331679729E+01 -0.41869734239E+02 -0.72004314681E+02  0.83728253081E+02  0.41800000000E+01 0. -1.
        -11    1    1    2    0    0 -0.14381187255E+02  0.14060345953E+02  0.36668178708E+02  0.41821850807E+02  0.00000000000E+00 0.  1.
         11    1    1    2    0    0  0.12905895280E+02  0.47821457811E+01  0.17697914843E+02  0.22419795740E+02  0.00000000000E+00 0. -1.
</event>
<event>
 6    1  0.9216756E-006  0.1084731E+03  0.7561462E-02  0.1263424E+00
         -3   -1    0    0    0  501 -0.00000000000E+00  0.00000000000E+00  0.29077047488E+03  0.29077047488E+03  0.00000000000E+00 0.  1.
          3   -1    0    0  501    0  0.00000000000E+00 -0.00000000000E+00 -0.10553217451E+03  0.10553217451E+03  0.00000000000E+00 0. -1.
          5    1    1    2  502    0 -0.56403731712E+02  0.63653842473E+02  0.54230823258E+02  0.10095368841E+03  0.41800000000E+01 0.  1.
         -5    1    1    2    0  502  0.19542318974E+02  0.17164123932E+02  0.16228121371E+03  0.16440551725E+03  0.41800000000E+01 0.  1.
        -11    1    1    2    0    0  0.43253671501E+02 -0.26429982075E+02 -0.51786250858E+02  0.72465438857E+02  0.00000000000E+00 0. -1.
         11    1    1    2    0    0 -0.63922587634E+01 -0.54387984330E+02  0.20512514260E+02  0.58478004863E+02  0.00000000000E+00 0.  1.
</event>
<event>
 6    1  0.9216756E-006  0.1061517E+03  0.7561462E-02  0.1267867E+00
         -2   -1    0    0    0  501 -0.00000000000E+00  0.00000000000E+00  0.16607535651E+03  0.16607535651E+03  0.00000000000E+00 0.  1.
          2   -1    0    0  501    0  0.00000000000E+00 -0.00000000000E+00 -0.95368064618E+02  0.95368064618E+02  0.00000000000E+00 0. -1.
          5    1    1    2  502    0  0.57168111077E+02 -0.35021587256E+02  0.68915450373E+02  0.96236771550E+02  0.41800000000E+01 0.  1.
         -5    1    1    2    0  502 -0.52157584316E+02  0.23480811931E+02  0.38038755022E+02  0.68819920185E+02  0.41800000000E+01 0.  1.
        -11    1    1    2    0    0 -0.45404497039E+02  0.13404809205E+02 -0.28364147294E+02  0.55188604919E+02  0.00000000000E+00 0.  1.
         11    1    1    2    0    0  0.40393970278E+02 -0.18640338796E+01 -0.78827662096E+01  0.41198124475E+02  0.00000000000E+00 0. -1.
</event>
<event>
 6    1  0.9216756E-006  0.1238242E+03  0.7561462E-02  0.1236918E+00
         -3   -1    0    0    0  501 -0.00000000000E+00  0.00000000000E+00  0.16292237503E+03  0.16292237503E+03  0.00000000000E+00 0.  1.
          3   -1    0    0  501    0  0.00000000000E+00 -0.00000000000E+00 -0.11436637330E+03  0.11436637330E+03  0.00000000000E+00 0. -1.
          5    1    1    2  502    0  0.18926515783E+02  0.53503551696E+02  0.37551408146E+02  0.68179349495E+02  0.41800000000E+01 0. -1.
         -5    1    1    2    0  502 -0.24524633777E+02 -0.47770960054E+02 -0.21875162750E+02  0.58133617054E+02  0.41800000000E+01 0. -1.
        -11    1    1    2    0    0 -0.10032647724E+02  0.64324271215E+02 -0.12171079468E+02  0.66229910638E+02  0.00000000000E+00 0. -1.
         11    1    1    2    0    0  0.15630765717E+02 -0.70056862857E+02  0.45050835797E+02  0.84745871146E+02  0.00000000000E+00 0.  1.
</event>
<event>
 6    1  0.9216756E-006  0.9609101E+02  0.7561462E-02  0.1288738E+00
          1   -1    0    0  501    0  0.00000000000E+00  0.00000000000E+00  0.14562069781E+03  0.14562069781E+03  0.00000000000E+00 0. -1.
         -1   -1    0    0    0  501 -0.00000000000E+00 -0.00000000000E+00 -0.91199220392E+02  0.91199220392E+02  0.00000000000E+00 0.  1.
          5    1    1    2  502    0  0.34611817004E+02  0.22774517581E+02  0.43337486823E+02  0.60102135499E+02  0.41800000000E+01 0. -1.
         -5    1    1    2    0  502 -0.66991718875E+02 -0.18222486223E+02 -0.17539796213E+02  0.71729117192E+02  0.41800000000E+01 0. -1.
        -11    1    1    2    0    0  0.25773331399E+02  0.33555733492E+02  0.46077080089E+02  0.62556767589E+02  0.00000000000E+00 0. -1.
         11    1    1    2    0    0  0.66065704721E+01 -0.38107764850E+02 -0.17453293278E+02  0.42431897925E+02  0.00000000000E+00 0.  1.
</event>
<event>
 6    1  0.9216756E-006  0.1460630E+03  0.7561462E-02  0.1205396E+00
          1   -1    0    0  501    0  0.00000000000E+00  0.00000000000E+00  0.57589308065E+03  0.57589308065E+03  0.00000000000E+00 0. -1.
         -1   -1    0    0    0  501 -0.00000000000E+00 -0.00000000000E+00 -0.47652885428E+02  0.47652885428E+02  0.00000000000E+00 0.  1.
          5    1    1    2  502    0  0.62823267401E+02 -0.48201555763E+02  0.17071717568E+03  0.18823384228E+03  0.41800000000E+01 0. -1.
         -5    1    1    2    0  502 -0.64171937783E+02  0.95212103022E+02  0.79991841120E+02  0.13999839001E+03  0.41800000000E+01 0.  1.
        -11    1    1    2    0    0  0.43279572845E+02 -0.17609253918E+02  0.97126223475E+02  0.10778084494E+03  0.00000000000E+00 0.  1.
         11    1    1    2    0    0 -0.41930902463E+02 -0.29401293341E+02  0.18040495494E+03  0.18753288885E+03  0.00000000000E+00 0. -1.
</event>
<event>
 6    1  0.9216756E-006  0.1101435E+03  0.7561462E-02  0.1260304E+00
          1   -1    0    0  501    0  0.00000000000E+00  0.00000000000E+00  0.13370578697E+03  0.13370578697E+03  0.00000000000E+00 0. -1.
         -1   -1    0    0    0  501 -0.00000000000E+00 -0.00000000000E+00 -0.12575552076E+03  0.12575552076E+03  0.00000000000E+00 0.  1.
          5    1    1    2  502    0 -0.81745173769E+02 -0.25589767573E+02 -0.63338109246E+02  0.10661284220E+03  0.41800000000E+01 0.  1.
         -5    1    1    2    0  502  0.37107685575E+01  0.41879809579E+02  0.21636936454E+02  0.47469123363E+02  0.41800000000E+01 0.  1.
        -11    1    1    2    0    0 -0.12670038012E+01 -0.12838071141E+02  0.11619964142E+02  0.17362169678E+02  0.00000000000E+00 0.  1.
         11    1    1    2    0    0  0.79301409013E+02 -0.34519708651E+01  0.38031474853E+02  0.88017172494E+02  0.00000000000E+00 0. -1.
</event>
<event>
 6    1  0.9216756E-006  0.1020013E+03  0.7561462E-02  0.1276143E+00
          1   -1    0    0  501    0  0.00000000000E+00  0.00000000000E+00  0.35904363158E+03  0.35904363158E+03  0.00000000000E+00 0. -1.
         -1   -1    0    0    0  501 -0.00000000000E+00 -0.00000000000E+00 -0.48679221798E+02  0.48679221798E+02  0.00000000000E+00 0.  1.
          5    1    1    2  502    0 -0.22055080614E+02 -0.19464750291E+02  0.11647662611E+03  0.12020640547E+03  0.41800000000E+01 0. -1.
         -5    1    1    2    0  502  0.13754355547E+01  0.90814130175E+02  0.61971888100E+02  0.11003220155E+03  0.41800000000E+01 0. -1.
        -11    1    1    2    0    0  0.27892097151E+02 -0.28350398786E+02  0.12762004611E+03  0.13367344675E+03  0.00000000000E+00 0. -1.
         11    1    1    2    0    0 -0.72124520914E+01 -0.42998981099E+02  0.42958494553E+01  0.43810799619E+02  0.00000000000E+00 0.  1.
</event>
<event>
 6    1  0.9216756E-006  0.9615635E+02  0.7561462E-02  0.1288593E+00
          2   -1    0    0  501    0  0.00000000000E+00  0.00000000000E+00  0.19978651697E+03  0.19978651697E+03  0.00000000000E+00 0.  1.
         -2   -1    0    0    0  501 -0.00000000000E+00 -0.00000000000E+00 -0.85550022642E+02  0.85550022642E+02  0.00000000000E+00 0. -1.
          5    1    1    2  502    0 -0.16191162274E+02  0.73584669893E+02  0.28008527479E+02  0.80491039195E+02  0.41800000000E+01 0. -1.
         -5    1    1    2    0  502  0.28828580719E+02 -0.32235633690E+02 -0.28315579199E+02  0.51860076852E+02  0.41800000000E+01 0. -1.
        -11    1    1    2    0    0 -0.34215566466E+02 -0.10562673050E+02  0.10931196092E+03  0.11502773513E+03  0.00000000000E+00 0.  1.
         11    1    1    2    0    0  0.21578148021E+02 -0.30786363153E+02  0.52315851324E+01  0.37957688433E+02  0.00000000000E+00 0. -1.
</event>
<event>
 6    1  0.9216756E-006  0.1096890E+03  0.7561462E-02  0.1261147E+00
         -1   -1    0    0    0  501 -0.00000000000E+00  0.00000000000E+00  0.15748577978E+03  0.15748577978E+03  0.00000000000E+00 0.  1.
          1   -1    0    0  501    0  0.00000000000E+00 -0.00000000000E+00 -0.12862600918E+03  0.12862600918E+03  0.00000000000E+00 0. -1.
          5    1    1    2  502    0 -0.37459617577E+02 -0.18753975419E+02  0.18449255690E+02  0.45965008197E+02  0.41800000000E+01 0. -1.
         -5    1    1    2    0  502  0.32896049577E+02  0.71705229992E+02  0.80865522068E+02  0.11305085203E+03  0.41800000000E+01 0.  1.
        -11    1    1    2    0    0  0.16968024168E+02 -0.72865365932E+02 -0.30564489422E+02  0.80817469709E+02  0.00000000000E+00 0.  1.
         11    1    1    2    0    0 -0.12404456168E+02  0.19914111360E+02 -0.39890517738E+02  0.46278459022E+02  0.00000000000E+00 0. -1.
</event>
<event>
 6    1  0.9216756E-006  0.9174637E+02  0.7561462E-02  0.1298677E+00
         -4   -1    0    0    0  501 -0.00000000000E+00  0.00000000000E+00  0.25264017721E+03  0.25264017721E+03  0.00000000000E+00 0. -1.
          4   -1    0    0  501    0  0.00000000000E+00 -0.00000000000E+00 -0.62435156566E+02  0.62435156566E+02  0.00000000000E+00 0.  1.
          5    1    1    2  502    0  0.48140449554E+01 -0.28576960895E+02  0.11654572920E+03  0.12016737127E+03  0.41800000000E+01 0. -1.
         -5    1    1    2    0  502 -0.46997148290E+02 -0.60741258289E+01 -0.15072620242E+02  0.49902737730E+02  0.41800000000E+01 0. -1.
        -11    1    1    2    0    0  0.70622671796E+02  0.15353045905E+02  0.32821244363E+02  0.79375763755E+02  0.00000000000E+00 0.  1.
         11    1    1    2    0    0 -0.28439568462E+02  0.19298040819E+02  0.55910667327E+02  0.65629461027E+02  0.00000000000E+00 0. -1.
</event>
<event>
 6    1  0.9216756E-006  0.8209507E+02  0.7561462E-02  0.1323209E+00
          2   -1    0    0  501    0  0.00000000000E+00  0.00000000000E+00  0.59216034725E+02  0.59216034725E+02  0.00000000000E+00 0. -1.
         -2   -1    0    0    0  501 -0.00000000000E+00 -0.00000000000E+00 -0.13643638381E+03  0.13643638381E+03  0.00000000000E+00 0.  1.
          5    1    1    2  502    0  0.52790181129E+02  0.61143806218E+02 -0.22845753270E+02  0.84052180846E+02  0.41800000000E+01 0. -1.
         -5    1    1    2    0  502 -0.28420317375E+02 -0.21027866443E+02 -0.51856248535E+02  0.62900147209E+02  0.41800000000E+01 0.  1.
        -11    1    1    2    0    0 -0.66160152971E+01 -0.18975922746E+02 -0.57571632697E+01  0.20904598331E+02  0.00000000000E+00 0. -1.
         11    1    1    2    0    0 -0.17753848457E+02 -0.21140017029E+02  0.32388159858E+01  0.27795492152E+02  0.00000000000E+00 0.  1.
</event>
<event>
 6    1  0.9216756E-006  0.1610318E+03  0.7561462E-02  0.1187537E+00
          3   -1    0    0  501    0  0.00000000000E+00  0.00000000000E+00  0.15477434682E+04  0.15477434682E+04  0.00000000000E+00 0. -1.
         -3   -1    0    0    0  501 -0.00000000000E+00 -0.00000000000E+00 -0.19988426916E+02  0.19988426916E+02  0.00000000000E+00 0.  1.
          5    1    1    2  502    0 -0.10436081495E+03 -0.94425030701E+02  0.77679571909E+03  0.78945318273E+03  0.41800000000E+01 0.  1.
         -5    1    1    2    0  502 -0.72143076155E+01  0.13646920199E+02  0.95938090006E+01  0.18649349491E+02  0.41800000000E+01 0.  1.
        -11    1    1    2    0    0  0.10144223847E+03  0.19674285099E+02  0.48534450577E+03  0.49622262597E+03  0.00000000000E+00 0. -1.
         11    1    1    2    0    0  0.10132884097E+02  0.61103825403E+02  0.25602100745E+03  0.26340673696E+03  0.00000000000E+00 0.  1.
</event>
<event>
 6    1  0.9216756E-006  0.1411121E+03  0.7561462E-02  0.1211840E+00
         -2   -1    0    0    0  501 -0.00000000000E+00  0.00000000000E+00  0.23169777690E+03  0.23169777690E+03  0.00000000000E+00 0.  1.
          2   -1    0    0  501    0  0.00000000000E+00 -0.00000000000E+00 -0.21298190619E+03  0.21298190619E+03  0.00000000000E+00 0. -1.
          5    1    1    2  502    0  0.29496565239E+02  0.19258814511E+02  0.61267361008E+02  0.70796265595E+02  0.41800000000E+01 0. -1.
         -5    1    1    2    0  502 -0.37019995283E+02 -0.11164858194E+03  0.11848906279E+03  0.16701202442E+03  0.41800000000E+01 0. -1.
        -11    1    1    2    0    0 -0.40550174402E+02  0.30809833702E+02 -0.52530765276E+02  0.73164498203E+02  0.00000000000E+00 0. -1.
         11    1    1    2    0    0  0.48073604446E+02  0.61579933731E+02 -0.10850978781E+03  0.13370689486E+03  0.00000000000E+00 0.  1.
</event>
<event>
 6    1  0.9216756E-006  0.1058918E+03  0.7561462E-02  0.1268373E+00
         -1   -1    0    0    0  501 -0.00000000000E+00  0.00000000000E+00  0.51136534021E+03  0.51136534021E+03  0.00000000000E+00 0.  1.
          1   -1    0    0  501    0  0.00000000000E+00 -0.00000000000E+00 -0.41390239197E+02  0.41390239197E+02  0.00000000000E+00 0. -1.
          5    1    1    2  502    0 -0.81424031353E+02  0.44332060019E+02  0.32725738567E+03  0.34016183399E+03  0.41800000000E+01 0. -1.
         -5    1    1    2    0  502  0.39532673032E+01 -0.37359086326E+02  0.37631170091E+02  0.53337669764E+02  0.41800000000E+01 0. -1.
        -11    1    1    2    0    0  0.50589476878E+02 -0.15612827018E+02  0.11714487701E+03  0.12855340426E+03  0.00000000000E+00 0.  1.
         11    1    1    2    0    0  0.26881287172E+02  0.86398533246E+01 -0.12058331759E+02  0.30702671387E+02  0.00000000000E+00 0. -1.
</event>
<event>
 6    1  0.9216756E-006  0.1434971E+03  0.7561462E-02  0.1208699E+00
         -1   -1    0    0    0  501 -0.00000000000E+00  0.00000000000E+00  0.31181638260E+03  0.31181638260E+03  0.00000000000E+00 0.  1.
          1   -1    0    0  501    0  0.00000000000E+00 -0.00000000000E+00 -0.83150391409E+02  0.83150391409E+02  0.00000000000E+00 0. -1.
          5    1    1    2  502    0  0.33012135745E+02 -0.78292074480E+02  0.13845157492E+03  0.16249849547E+03  0.41800000000E+01 0.  1.
         -5    1    1    2    0  502 -0.68979678908E+02 -0.12042582078E+02  0.67779762296E+02  0.97543777158E+02  0.41800000000E+01 0.  1.
        -11    1    1    2    0    0 -0.29903666005E+02  0.31855901465E+02  0.16276126436E+02  0.46625529385E+02  0.00000000000E+00 0.  1.
         11    1    1    2    0    0  0.65871209169E+02  0.58478755093E+02  0.61585275446E+01  0.88298971999E+02  0.00000000000E+00 0. -1.
</event>
<event>
 6    1  0.9216756E-006  0.1309310E+03  0.7561462E-02  0.1226081E+00
          4   -1    0    0  501    0  0.00000000000E+00  0.00000000000E+00  0.62481012481E+02  0.62481012481E+02  0.00000000000E+00 0. -1.
         -4   -1    0    0    0  501 -0.00000000000E+00 -0.00000000000E+00 -0.30356683862E+03  0.30356683862E+03  0.00000000000E+00 0.  1.
          5    1    1    2  502    0 -0.99140660792E+02  0.43074674759E+02 -0.10818298796E+03  0.15298800447E+03  0.41800000000E+01 0. -1.
         -5    1    1    2    0  502  0.39181749251E+02  0.14366027414E+02 -0.39747695870E+02  0.57783595812E+02  0.41800000000E+01 0. -1.
        -11    1    1    2    0    0  0.23745780676E+02 -0.69605347334E+02 -0.91014603319E+02  0.11701463368E+03  0.00000000000E+00 0.  1.
         11    1    1    2    0    0  0.36213130865E+02  0.12164645161E+02 -0.21405389882E+01  0.38261617139E+02  0.00000000000E+00 0. -1.
</event>
<event>
 6    1  0.9216756E-006  0.2248533E+03  0.7561462E-02  0.1130316E+00
         -4   -1    0    0    0  501 -0.00000000000E+00  0.00000000000E+00  0.12891478458E+03  0.12891478458E+03  0.00000000000E+00 0.  1.
          4   -1    0    0  501    0  0.00000000000E+00 -0.00000000000E+00 -0.44655336480E+03  0.44655336480E+03  0.00000000000E+00 0. -1.
          5    1    1    2  502    0  0.25076797835E+02  0.12107037842E+03 -0.29158445167E+02  0.12710062803E+03  0.41800000000E+01 0.  1.
         -5    1    1    2    0  502  0.83416362604E+02  0.66884075171E+02 -0.13559636032E+03  0.17272988853E+03  0.41800000000E+01 0.  1.
        -11    1    1    2    0    0 -0.70076779263E+02 -0.92101726324E+02 -0.39520008277E+02  0.12229192139E+03  0.00000000000E+00 0.  1.
         11    1    1    2    0    0 -0.38416381176E+02 -0.95852727268E+02 -0.11336376646E+03  0.15334571143E+03  0.00000000000E+00 0. -1.
</event>
<event>
 6    1  0.9216756E-006  0.1266410E+03  0.7561462E-02  0.1232527E+00
         -1   -1    0    0    0  501 -0.00000000000E+00  0.00000000000E+00  0.14172726890E+03  0.14172726890E+03  0.00000000000E+00 0.  1.
          1   -1    0    0  501    0  0.00000000000E+00 -0.00000000000E+00 -0.14223906347E+03  0.14223906347E+03  0.00000000000E+00 0. -1.
          5    1    1    2  502    0 -0.35866093375E+02  0.85864999356E+02  0.20246124723E+02  0.95323411263E+02  0.41800000000E+01 0. -1.
         -5    1    1    2    0  502  0.44900782446E+02  0.28541912566E+01 -0.38592205618E+02  0.59422701103E+02  0.41800000000E+01 0. -1.
        -11    1    1    2    0    0  0.25388992718E+02 -0.72650211065E+02  0.38415385209E+02  0.86013928755E+02  0.00000000000E+00 0.  1.
         11    1    1    2    0    0 -0.34423681788E+02 -0.16068979548E+02 -0.20581098884E+02  0.43206291241E+02  0.00000000000E+00 0. -1.
</event>
<event>
 6    1  0.9216756E-006  0.1552412E+03  0.7561462E-02  0.1194177E+00
         -1   -1    0    0    0  501 -0.00000000000E+00  0.00000000000E+00  0.24174266972E+03  0.24174266972E+03  0.00000000000E+00 0.  1.
          1   -1    0    0  501    0  0.00000000000E+00 -0.00000000000E+00 -0.15594587305E+03  0.15594587305E+03  0.00000000000E+00 0. -1.
          5    1    1    2  502    0  0.95286195321E+02 -0.63574425067E+02  0.63287873473E+02  0.13093507502E+03  0.41800000000E+01 0. -1.
         -5    1    1    2    0  502  0.22959356293E+02  0.39474139645E+02  0.89150030798E+02  0.10025238218E+03  0.41800000000E+01 0. -1.
        -11    1    1    2    0    0 -0.12878295234E+03  0.36378084382E+02 -0.68286451325E+02  0.15023798878E+03  0.00000000000E+00 0.  1.
         11    1    1    2    0    0  0.10537400727E+02 -0.12277798960E+02  0.16453437285E+01  0.16263096795E+02  0.00000000000E+00 0. -1.
</event>
<event>
 6    1  0.9216756E-006  0.1528422E+03  0.7561462E-02  0.1197023E+00
         -1   -1    0    0    0  501 -0.00000000000E+00  0.00000000000E+00  0.48595035782E+03  0.48595035782E+03  0.00000000000E+00 0.  1.
          1   -1    0    0  501    0  0.00000000000E+00 -0.00000000000E+00 -0.82682388961E+02  0.82682388961E+02  0.00000000000E+00 0. -1.
          5    1    1    2  502    0 -0.28159315478E+02  0.22834908476E+02  0.77153261374E+02  0.85349154852E+02  0.41800000000E+01 0. -1.
         -5    1    1    2    0  502  0.13243152225E+02 -0.13085842403E+03  0.31414311251E+03  0.34059165545E+03  0.41800000000E+01 0.  1.
        -11    1    1    2    0    0  0.37338720100E+02  0.10893413980E+03 -0.38733947464E+01  0.11522078814E+03  0.00000000000E+00 0. -1.
         11    1    1    2    0    0 -0.22422556847E+02 -0.91062425153E+00  0.15844989721E+02  0.27471148344E+02  0.00000000000E+00 0.  1.
</event>
<event>
 6    1  0.9216756E-006  0.1409177E+03  0.7561462E-02  0.1212099E+00
         -1   -1    0    0    0  501 -0.00000000000E+00  0.00000000000E+00  0.34321566778E+03  0.34321566778E+03  0.00000000000E+00 0.  1.
          1   -1    0    0  501    0  0.00000000000E+00 -0.00000000000E+00 -0.78859188522E+02  0.78859188522E+02  0.00000000000E+00 0. -1.
          5    1    1    2  502    0 -0.31188806756E+02 -0.14948829115E+02  0.10216202379E+03  0.10793868938E+03  0.41800000000E+01 0. -1.
         -5    1    1    2    0  502 -0.39647958107E+02  0.11205148154E+03  0.78356604296E+02  0.14242445343E+03  0.41800000000E+01 0. -1.
        -11    1    1    2    0    0  0.44306904386E+02 -0.90441952715E+02  0.20579539502E+02  0.10279283065E+03  0.00000000000E+00 0. -1.
         11    1    1    2    0    0  0.26529860478E+02 -0.66606997131E+01  0.63258311672E+02  0.68918882850E+02  0.00000000000E+00 0.  1.
</event>
<event>
 6    1  0.9216756E-006  0.1453930E+03  0.7561462E-02  0.1206251E+00
         -2   -1    0    0    0  501 -0.00000000000E+00  0.00000000000E+00  0.16993059002E+03  0.16993059002E+03  0.00000000000E+00 0. -1.
          2   -1    0    0  501    0  0.00000000000E+00 -0.00000000000E+00 -0.20442699331E+03  0.20442699331E+03  0.00000000000E+00 0.  1.
          5    1    1    2  502    0  0.95325007951E+02 -0.60467766499E+02  0.94316344938E+02  0.14716063757E+03  0.41800000000E+01 0.  1.
         -5    1    1    2    0  502  0.11005670955E+02  0.39353903807E+02 -0.42266565057E+01  0.41293965215E+02  0.41800000000E+01 0.  1.
        -11    1    1    2    0    0 -0.56844737863E+02 -0.31109325773E+02 -0.71479493748E+02  0.96480217658E+02  0.00000000000E+00 0.  1.
         11    1    1    2    0    0 -0.49485941043E+02  0.52223188465E+02 -0.53106597978E+02  0.89422762892E+02  0.00000000000E+00 0. -1.
</event>
<event>
 6    1  0.9216756E-006  0.9730172E+02  0.7561462E-02  0.1286075E+00
          1   -1    0    0  501    0  0.00000000000E+00  0.00000000000E+00  0.44093509687E+03  0.44093509687E+03  0.00000000000E+00 0. -1.
         -1   -1    0    0    0  501 -0.00000000000E+00 -0.00000000000E+00 -0.31633560658E+02  0.31633560658E+02  0.00000000000E+00 0.  1.
          5    1    1    2  502    0  0.81251944183E+01  0.32799404299E+02  0.30147835555E+01  0.34181589001E+02  0.41800000000E+01 0.  1.
         -5    1    1    2    0  502 -0.40039959795E+02 -0.52179613417E+02  0.17170657724E+03  0.18391990513E+03  0.41800000000E+01 0.  1.
        -11    1    1    2    0    0  0.53413701631E+02 -0.13751031417E+02  0.99890238557E+02  0.11410597770E+03  0.00000000000E+00 0.  1.
         11    1    1    2    0    0 -0.21498936254E+02  0.33131240535E+02  0.13468993686E+03  0.14036118570E+03  0.00000000000E+00 0. -1.
</event>
<event>
 6    1  0.9216756E-006  0.1451436E+03  0.7561462E-02  0.1206571E+00
          1   -1    0    0  501    0  0.00000000000E+00  0.00000000000E+00  0.80762192665E+03  0.80762192665E+03  0.00000000000E+00 0. -1.
         -1   -1    0    0    0  501 -0.00000000000E+00 -0.00000000000E+00 -0.32530678927E+02  0.32530678927E+02  0.00000000000E+00 0.  1.
          5    1    1    2  502    0  0.18135835951E+02 -0.84044365038E+02  0.10108998299E+03  0.13277432320E+03  0.41800000000E+01 0.  1.
         -5    1    1    2    0  502 -0.69572138547E+02 -0.35686731637E+00  0.13788336854E+03  0.15449823797E+03  0.41800000000E+01 0.  1.
        -11    1    1    2    0    0  0.21676348492E+02 -0.17808848059E+02  0.92024540079E+02  0.96205691775E+02  0.00000000000E+00 0.  1.
         11    1    1    2    0    0  0.29759954103E+02  0.10221008041E+03  0.44409335611E+03  0.45667435263E+03  0.00000000000E+00 0. -1.
</event>
<event>
 6    1  0.9216756E-006  0.2862420E+03  0.7561462E-02  0.1092328E+00
         -1   -1    0    0    0  501 -0.00000000000E+00  0.00000000000E+00  0.14029532885E+03  0.14029532885E+03  0.00000000000E+00 0.  1.
          1   -1    0    0  501    0  0.00000000000E+00 -0.00000000000E+00 -0.64797045159E+03  0.64797045159E+03  0.00000000000E+00 0. -1.
          5    1    1    2  502    0 -0.10240437151E+03 -0.39942704580E+02 -0.14872076147E+03  0.18497949142E+03  0.41800000000E+01 0.  1.
         -5    1    1    2    0  502 -0.10429194870E+03 -0.14930638409E+03 -0.86350544049E+02  0.20160132875E+03  0.41800000000E+01 0.  1.
        -11    1    1    2    0    0  0.91908192442E+02  0.88276818360E+02 -0.18752379324E+03  0.22672689635E+03  0.00000000000E+00 0. -1.
         11    1    1    2    0    0  0.11478812777E+03  0.10097227031E+03 -0.85080023982E+02  0.17495806392E+03  0.00000000000E+00 0.  1.
</event>
<event>
 6    1  0.9216756E-006  0.2934355E+03  0.7561462E-02  0.1088569E+00
         -1   -1    0    0    0  501 -0.00000000000E+00  0.00000000000E+00  0.16831875532E+03  0.16831875532E+03  0.00000000000E+00 0.  1.
          1   -1    0    0  501    0  0.00000000000E+00 -0.00000000000E+00 -0.64371250977E+03  0.64371250977E+03  0.00000000000E+00 0. -1.
          5    1    1    2  502    0  0.37832616029E+02 -0.43415944673E+01 -0.33348260311E+02  0.50791093156E+02  0.41800000000E+01 0. -1.
         -5    1    1    2    0  502  0.13718115636E+03  0.22361639961E+03 -0.44791412743E+02  0.26617044707E+03  0.41800000000E+01 0. -1.
        -11    1    1    2    0    0 -0.11149900185E+03 -0.17929459760E+03 -0.34180485209E+03  0.40175756005E+03  0.00000000000E+00 0. -1.
         11    1    1    2    0    0 -0.63514770540E+02 -0.39980207548E+02 -0.55449229308E+02  0.93312164819E+02  0.00000000000E+00 0.  1.
</event>
<event>
 6    1  0.9216756E-006  0.2280908E+03  0.7561462E-02  0.1127991E+00
         -2   -1    0    0    0  501 -0.00000000000E+00  0.00000000000E+00  0.94856131311E+02  0.94856131311E+02  0.00000000000E+00 0.  1.
          2   -1    0    0  501    0  0.00000000000E+00 -0.00000000000E+00 -0.68204265573E+03  0.68204265573E+03  0.00000000000E+00 0. -1.
          5    1    1    2  502    0 -0.40940088743E+02 -0.20603527823E+03 -0.14886897224E+03  0.25749965056E+03  0.41800000000E+01 0. -1.
         -5    1    1    2    0  502  0.58619352082E+02  0.14489025614E+03 -0.18154278970E+03  0.23959272037E+03  0.41800000000E+01 0.  1.
        -11    1    1    2    0    0 -0.11147130804E+02 -0.11946115401E+02 -0.43171043941E+01  0.16899869487E+02  0.00000000000E+00 0.  1.
         11    1    1    2    0    0 -0.65321325349E+01  0.73091137490E+02 -0.25245765808E+03  0.26290654662E+03  0.00000000000E+00 0. -1.
</event>
<event>
 6    1  0.9216756E-006  0.1234887E+03  0.7561462E-02  0.1237450E+00
         -1   -1    0    0    0  501 -0.00000000000E+00  0.00000000000E+00  0.27401065133E+03  0.27401065133E+03  0.00000000000E+00 0.  1.
          1   -1    0    0  501    0  0.00000000000E+00 -0.00000000000E+00 -0.15005841265E+03  0.15005841265E+03  0.00000000000E+00 0. -1.
          5    1    1    2  502    0  0.77847731506E+02  0.50264051454E+02 -0.67847352665E+02  0.11492380011E+03  0.41800000000E+01 0. -1.
         -5    1    1    2    0  502  0.88511132976E+01 -0.25709372215E+02  0.17686731085E+03  0.17899394424E+03  0.41800000000E+01 0.  1.
        -11    1    1    2    0    0  0.17404027108E+02  0.56746193210E+01  0.11650245500E+02  0.21698610191E+02  0.00000000000E+00 0.  1.
         11    1    1    2    0    0 -0.10410287191E+03 -0.30229298560E+02  0.32820349951E+01  0.10845270944E+03  0.00000000000E+00 0. -1.
</event>
<event>
 6    1  0.9216756E-006  0.1529009E+03  0.7561462E-02  0.1196953E+00
         -2   -1    0    0    0  501 -0.00000000000E+00  0.00000000000E+00  0.20907350878E+03  0.20907350878E+03  0.00000000000E+00 0. -1.
          2   -1    0    0  501    0  0.00000000000E+00 -0.00000000000E+00 -0.12900521952E+03  0.12900521952E+03  0.00000000000E+00 0.  1.
          5    1    1    2  502    0 -0.87869579901E+02  0.39528155003E+01  0.72195146655E+02  0.11386965980E+03  0.41800000000E+01 0.  1.
         -5    1    1    2    0  502 -0.17490854854E+02 -0.65002154700E+02 -0.16382532345E+02  0.69405114258E+02  0.41800000000E+01 0.  1.
        -11    1    1    2    0    0  0.80242950150E+02 -0.42310554636E+01 -0.12186140273E+01  0.80363660315E+02  0.00000000000E+00 0.  1.
         11    1    1    2    0    0  0.25117484606E+02  0.65280394663E+02  0.25474288974E+02  0.74440293921E+02  0.00000000000E+00 0. -1.
</event>
<event>
 6    1  0.9216756E-006  0.8534079E+02  0.7561462E-02  0.1314544E+00
          2   -1    0    0  501    0  0.00000000000E+00  0.00000000000E+00  0.40969375482E+03  0.40969375482E+03  0.00000000000E+00 0. -1.
         -2   -1    0    0    0  501 -0.00000000000E+00 -0.00000000000E+00 -0.38734891750E+02  0.38734891750E+02  0.00000000000E+00 0.  1.
          5    1    1    2  502    0 -0.26526467018E+02  0.97388765060E+01  0.19821067681E+03  0.20025844294E+03  0.41800000000E+01 0.  1.
         -5    1    1    2    0  502 -0.22563029930E+02  0.30422333054E+02 -0.50606015716E+01  0.38440743441E+02  0.41800000000E+01 0.  1.
        -11    1    1    2    0    0  0.69703417607E+02 -0.14675970893E+02  0.15250521358E+03  0.16832049999E+03  0.00000000000E+00 0. -1.
         11    1    1    2    0    0 -0.20613920659E+02 -0.25485238667E+02  0.25303574255E+02  0.41408960201E+02  0.00000000000E+00 0.  1.
</event>
<event>
 6    1  0.9216756E-006  0.2337924E+03  0.7561462E-02  0.1123999E+00
         -2   -1    0    0    0  501 -0.00000000000E+00  0.00000000000E+00  0.51354168054E+02  0.51354168054E+02  0.00000000000E+00 0.  1.
          2   -1    0    0  501    0  0.00000000000E+00 -0.00000000000E+00 -0.14623775349E+04  0.14623775349E+04  0.00000000000E+00 0. -1.
          5    1    1    2  502    0  0.17560567924E+03  0.83840443600E+02 -0.39633985492E+03  0.44155331226E+03  0.41800000000E+01 0. -1.
         -5    1    1    2    0  502  0.15729013017E+02  0.28119993424E+02 -0.38338605840E+01  0.32715543212E+02  0.41800000000E+01 0. -1.
        -11    1    1    2    0    0 -0.18683829187E+03 -0.71980274076E+02 -0.78998596431E+03  0.81496474217E+03  0.00000000000E+00 0.  1.
         11    1    1    2    0    0 -0.44964003835E+01 -0.39980162948E+02 -0.22086368705E+03  0.22449810534E+03  0.00000000000E+00 0. -1.
</event>
<event>
 6    1  0.9216756E-006  0.1128786E+03  0.7561462E-02  0.1255330E+00
          1   -1    0    0  501    0  0.00000000000E+00  0.00000000000E+00  0.23623729273E+03  0.23623729273E+03  0.00000000000E+00 0. -1.
         -1   -1    0    0    0  501 -0.00000000000E+00 -0.00000000000E+00 -0.75961250853E+02  0.75961250853E+02  0.00000000000E+00 0.  1.
          5    1    1    2  502    0  0.19747893372E+02  0.56910918105E+02  0.88261938091E+02  0.10694145131E+03  0.41800000000E+01 0. -1.
         -5    1    1    2    0  502 -0.45595251832E+02  0.14619426124E+02 -0.23074507588E+02  0.53315662898E+02  0.41800000000E+01 0. -1.
        -11    1    1    2    0    0 -0.95282405951E+01 -0.80299239412E+02  0.75181343465E+02  0.11041281458E+03  0.00000000000E+00 0.  1.
         11    1    1    2    0    0  0.35375599055E+02  0.87688951833E+01  0.19907267909E+02  0.41528614796E+02  0.00000000000E+00 0. -1.
</event>
<event>
 6    1  0.9216756E-006  0.1454714E+03  0.7561462E-02  0.1206151E+00
          1   -1    0    0  501    0  0.00000000000E+00  0.00000000000E+00  0.49731527601E+03  0.49731527601E+03  0.00000000000E+00 0. -1.
         -1   -1    0    0    0  501 -0.00000000000E+00 -0.00000000000E+00 -0.57161963659E+02  0.57161963659E+02  0.00000000000E+00 0.  1.
          5    1    1    2  502    0  0.44154674879E+02 -0.29880158890E+02  0.47462445499E+02  0.71502554791E+02  0.41800000000E+01 0. -1.
         -5    1    1    2    0  502 -0.10613979200E+02  0.11065419739E+03  0.58807684287E+02  0.12582855036E+03  0.41800000000E+01 0.  1.
        -11    1    1    2    0    0  0.17642763342E+02  0.11249353793E+02  0.68907666750E+02  0.72014454077E+02  0.00000000000E+00 0.  1.
         11    1    1    2    0    0 -0.51183459021E+02 -0.92023392297E+02  0.26497551581E+03  0.28513168043E+03  0.00000000000E+00 0. -1.
</event>
<event>
 6    1  0.9216756E-006  0.9226847E+02  0.7561462E-02  0.1297449E+00
          1   -1    0    0  501    0  0.00000000000E+00  0.00000000000E+00  0.29526647036E+03  0.29526647036E+03  0.00000000000E+00 0. -1.
         -1   -1    0    0    0  501 -0.00000000000E+00 -0.00000000000E+00 -0.55550983122E+02  0.55550983122E+02  0.00000000000E+00 0.  1.
          5    1    1    2  502    0  0.15740207388E+02 -0.74254428323E+02  0.79497011353E+01  0.76433921804E+02  0.41800000000E+01 0. -1.
         -5    1    1    2    0  502  0.17593986211E+02  0.12761311655E+02  0.87216857134E+02  0.89981398046E+02  0.41800000000E+01 0.  1.
        -11    1    1    2    0    0 -0.43136234848E+02  0.27856984956E+02  0.13994178519E+03  0.14906525286E+03  0.00000000000E+00 0. -1.
         11    1    1    2    0    0  0.98020412489E+01  0.33636131712E+02  0.46071437806E+01  0.35336880776E+02  0.00000000000E+00 0.  1.
</event>
<event>
 6    1  0.9216756E-006  0.8022915E+02  0.7561462E-02  0.1328402E+00
         -1   -1    0    0    0  501 -0.00000000000E+00  0.00000000000E+00  0.56335978271E+02  0.56335978271E+02  0.00000000000E+00 0.  1.
          1   -1    0    0  501    0  0.00000000000E+00 -0.00000000000E+00 -0.37375434067E+03  0.37375434067E+03  0.00000000000E+00 0. -1.
          5    1    1    2  502    0 -0.26402926051E+02 -0.17262479599E+02  0.39239555328E+02  0.50520518686E+02  0.41800000000E+01 0. -1.
         -5    1    1    2    0  502 -0.12721554326E+01  0.21157649771E+02 -0.81690260959E+02  0.84498731699E+02  0.41800000000E+01 0. -1.
        -11    1    1    2    0    0 -0.27935248748E+02  0.30725764285E+02 -0.10413138053E+03  0.11210617791E+03  0.00000000000E+00 0. -1.
         11    1    1    2    0    0  0.55610330232E+02 -0.34620934458E+02 -0.17083627623E+03  0.18296489064E+03  0.00000000000E+00 0.  1.
</event>
<event>
 6    1  0.9216756E-006  0.1068557E+03  0.7561462E-02  0.1266506E+00
          2   -1    0    0  501    0  0.00000000000E+00  0.00000000000E+00  0.37811255409E+03  0.37811255409E+03  0.00000000000E+00 0. -1.
         -2   -1    0    0    0  501 -0.00000000000E+00 -0.00000000000E+00 -0.73465293908E+02  0.73465293908E+02  0.00000000000E+00 0.  1.
          5    1    1    2  502    0  0.73469280355E+02  0.42314173621E+02 -0.19564546991E+02  0.87111815181E+02  0.41800000000E+01 0.  1.
         -5    1    1    2    0  502  0.10650650448E+02  0.20735991025E+02  0.86122852717E+02  0.89319851315E+02  0.41800000000E+01 0.  1.
        -11    1    1    2    0    0 -0.35802593394E+02 -0.25708438851E+02  0.19621092331E+03  0.20110066123E+03  0.00000000000E+00 0. -1.
         11    1    1    2    0    0 -0.48317337409E+02 -0.37341725795E+02  0.41878031149E+02  0.74045520274E+02  0.00000000000E+00 0.  1.
</event>
<event>
 6    1  0.9216756E-006  0.1561943E+03  0.7561462E-02  0.1193062E+00
         -2   -1    0    0    0  501 -0.00000000000E+00  0.00000000000E+00  0.50763652005E+02  0.50763652005E+02  0.00000000000E+00 0.  1.
          2   -1    0    0  501    0  0.00000000000E+00 -0.00000000000E+00 -0.66483352282E+03  0.66483352282E+03  0.00000000000E+00 0. -1.
          5    1    1    2  502    0  0.83133569591E+02 -0.26437358614E+02 -0.81766737485E+02  0.11963860615E+03  0.41800000000E+01 0.  1.
         -5    1    1    2    0  502  0.62508321994E+02  0.45623370514E+02 -0.27805977783E+03  0.28865809309E+03  0.41800000000E+01 0.  1.
        -11    1    1    2    0    0 -0.10473047495E+03 -0.20047108619E+02 -0.24221653192E+03  0.26464921553E+03  0.00000000000E+00 0. -1.
         11    1    1    2    0    0 -0.40911416635E+02  0.86109671948E+00 -0.12026823578E+02  0.42651260052E+02  0.00000000000E+00 0.  1.
</event>
<event>
 6    1  0.9216756E-006  0.7923668E+02  0.7561462E-02  0.1331232E+00
         -1   -1    0    0    0  501 -0.00000000000E+00  0.00000000000E+00  0.30651344270E+03  0.30651344270E+03  0.00000000000E+00 0.  1.
          1   -1    0    0  501    0  0.00000000000E+00 -0.00000000000E+00 -0.62229553965E+02  0.62229553965E+02  0.00000000000E+00 0. -1.
          5    1    1    2  502    0 -0.43689681447E+02 -0.14847742339E+02  0.19854107673E+03  0.20387563676E+03  0.41800000000E+01 0. -1.
         -5    1    1    2    0  502 -0.29476146823E+02  0.10159283735E+01 -0.12540731370E+02  0.32320545869E+02  0.41800000000E+01 0. -1.
        -11    1    1    2    0    0  0.38461718194E+02  0.25026700446E+02 -0.16969383525E+02  0.48924426198E+02  0.00000000000E+00 0. -1.
         11    1    1    2    0    0  0.34704110076E+02 -0.11194886481E+02  0.75252926904E+02  0.83622387834E+02  0.00000000000E+00 0.  1.
</event>
<event>
 6    1  0.9216756E-006  0.4532667E+03  0.7561462E-02  0.1026752E+00
         -2   -1    0    0    0  501 -0.00000000000E+00  0.00000000000E+00  0.43750146835E+03  0.43750146835E+03  0.00000000000E+00 0.  1.
          2   -1    0    0  501    0  0.00000000000E+00 -0.00000000000E+00 -0.47497411933E+03  0.47497411933E+03  0.00000000000E+00 0. -1.
          5    1    1    2  502    0  0.20276173925E+03 -0.19235107345E+03  0.20908941082E+02  0.28029611945E+03  0.41800000000E+01 0. -1.
         -5    1    1    2    0  502  0.17342886484E+03 -0.38284413602E+02 -0.16074816046E+02  0.17837920169E+03  0.41800000000E+01 0. -1.
        -11    1    1    2    0    0 -0.16665694547E+03  0.53627751452E+02  0.65304042967E+01  0.17519451869E+03  0.00000000000E+00 0. -1.
         11    1    1    2    0    0 -0.20953365862E+03  0.17700773560E+03 -0.48837180313E+02  0.27860574786E+03  0.00000000000E+00 0.  1.
</event>
<event>
 6    1  0.9216756E-006  0.1365355E+03  0.7561462E-02  0.1218068E+00
         -1   -1    0    0    0  501 -0.00000000000E+00  0.00000000000E+00  0.29192263726E+03  0.29192263726E+03  0.00000000000E+00 0.  1.
          1   -1    0    0  501    0  0.00000000000E+00 -0.00000000000E+00 -0.12813533651E+03  0.12813533651E+03  0.00000000000E+00 0. -1.
          5    1    1    2  502    0 -0.11624158339E+03 -0.37325702807E+02  0.53206364981E+02  0.13324302411E+03  0.41800000000E+01 0. -1.
         -5    1    1    2    0  502 -0.80090318823E+01 -0.79174544884E+01  0.11178589399E+03  0.11242948533E+03  0.41800000000E+01 0. -1.
        -11    1    1    2    0    0  0.73720802519E+02  0.48533893153E+02 -0.52181191007E+02  0.10253376129E+03  0.00000000000E+00 0. -1.
         11    1    1    2    0    0  0.50529812757E+02 -0.32907358572E+01  0.50976232788E+02  0.71851703034E+02  0.00000000000E+00 0.  1.
</event>
<event>
 6    1  0.9216756E-006  0.1025751E+03  0.7561462E-02  0.1274972E+00
          1   -1    0    0  501    0  0.00000000000E+00  0.00000000000E+00  0.34718615129E+03  0.34718615129E+03  0.00000000000E+00 0. -1.
         -1   -1    0    0    0  501 -0.00000000000E+00 -0.00000000000E+00 -0.44167404637E+02  0.44167404637E+02  0.00000000000E+00 0.  1.
          5    1    1    2  502    0  0.25358340874E+02 -0.63699151692E+02  0.18820332153E+02  0.71220114297E+02  0.41800000000E+01 0.  1.
         -5    1    1    2    0  502  0.49437909542E+01  0.47421838844E+02  0.74660019854E+02  0.88684061888E+02  0.41800000000E+01 0.  1.
        -11    1    1    2    0    0 -0.47382969038E+02  0.38161194944E+02  0.89349098612E+02  0.10809571674E+03  0.00000000000E+00 0.  1.
         11    1    1    2    0    0  0.17080837210E+02 -0.21883882096E+02  0.12018929603E+03  0.12335366300E+03  0.00000000000E+00 0. -1.
</event>
<event>
 6    1  0.9216756E-006  0.9864068E+02  0.7561462E-02  0.1283181E+00
          2   -1    0    0  501    0  0.00000000000E+00  0.00000000000E+00  0.79123939391E+02  0.79123939391E+02  0.00000000000E+00 0.  1.
         -2   -1    0    0    0  501 -0.00000000000E+00 -0.00000000000E+00 -0.23110657514E+03  0.23110657514E+03  0.00000000000E+00 0. -1.
          5    1    1    2  502    0 -0.27502921480E+02 -0.14545491601E+02  0.22853872799E+02  0.38829807078E+02  0.41800000000E+01 0.  1.
         -5    1    1    2    0  502  0.52115962947E+01  0.87807100191E+02 -0.78723406674E+02  0.11811898551E+03  0.41800000000E+01 0.  1.
        -11    1    1    2    0    0  0.55702920318E+01 -0.42074910941E+02  0.81145660453E+01  0.43210791084E+02  0.00000000000E+00 0.  1.
         11    1    1    2    0    0  0.16721033153E+02 -0.31186697649E+02 -0.10422766792E+03  0.11007093086E+03  0.00000000000E+00 0. -1.
</event>
<event>
 6    1  0.9216756E-006  0.9063945E+02  0.7561462E-02  0.1301311E+00
         -2   -1    0    0    0  501 -0.00000000000E+00  0.00000000000E+00  0.39340482409E+02  0.39340482409E+02  0.00000000000E+00 0.  1.
          2   -1    0    0  501    0  0.00000000000E+00 -0.00000000000E+00 -0.30344532961E+03  0.30344532961E+03  0.00000000000E+00 0. -1.
          5    1    1    2  502    0  0.47712605650E+02  0.37696706781E+02 -0.97026995169E+02  0.11458291597E+03  0.41800000000E+01 0. -1.
         -5    1    1    2    0  502 -0.32027338502E+02 -0.52331008408E+02 -0.47115346651E+02  0.77470079015E+02  0.41800000000E+01 0. -1.
        -11    1    1    2    0    0 -0.28986470104E+02  0.27767044229E+02 -0.12507174869E+03  0.13135511606E+03  0.00000000000E+00 0.  1.
         11    1    1    2    0    0  0.13301202956E+02 -0.13132742602E+02  0.51092433026E+01  0.19377700985E+02  0.00000000000E+00 0. -1.
</event>
<event>
 6    1  0.9216756E-006  0.8533420E+02  0.7561462E-02  0.1314561E+00
         -3   -1    0    0    0  501 -0.00000000000E+00  0.00000000000E+00  0.40631820939E+03  0.40631820939E+03  0.00000000000E+00 0.  1.
          3   -1    0    0  501    0  0.00000000000E+00 -0.00000000000E+00 -0.41407607075E+02  0.41407607075E+02  0.00000000000E+00 0. -1.
          5    1    1    2  502    0  0.29808484436E+01  0.28062513319E+02 -0.51477048100E+01  0.28988987151E+02  0.41800000000E+01 0. -1.
         -5    1    1    2    0  502  0.11237628233E+02  0.30392074116E+02  0.25541042738E+03  0.25749159457E+03  0.41800000000E+01 0.  1.
        -11    1    1    2    0    0 -0.52733614209E+02 -0.24599648285E+02  0.39731979598E+02  0.70459967117E+02  0.00000000000E+00 0.  1.
         11    1    1    2    0    0  0.38515137532E+02 -0.33854939149E+02  0.74915900140E+02  0.90785267625E+02  0.00000000000E+00 0. -1.
</event>
<event>
 6    1  0.9216756E-006  0.9693109E+02  0.7561462E-02  0.1286885E+00
         -2   -1    0    0    0  501 -0.00000000000E+00  0.00000000000E+00  0.48947626927E+02  0.48947626927E+02  0.00000000000E+00 0.  1.
          2   -1    0    0  501    0  0.00000000000E+00 -0.00000000000E+00 -0.31317096158E+03  0.31317096158E+03  0.00000000000E+00 0. -1.
          5    1    1    2  502    0  0.22116239069E+02 -0.89515670183E+02 -0.93406017953E+02  0.13131770569E+03  0.41800000000E+01 0.  1.
         -5    1    1    2    0  502 -0.28041121244E+01  0.39078382380E+02 -0.12758418699E+02  0.41415367461E+02  0.41800000000E+01 0.  1.
        -11    1    1    2    0    0  0.84674370222E+01  0.10072032888E+02  0.85687069560E+01  0.15702422588E+02  0.00000000000E+00 0.  1.
         11    1    1    2    0    0 -0.27779563966E+02  0.40365254915E+02 -0.16662760495E+03  0.17368309276E+03  0.00000000000E+00 0. -1.
</event>
<event>
 6    1  0.9216756E-006  0.1110318E+03  0.7561462E-02  0.1258671E+00
         -1   -1    0    0    0  501 -0.00000000000E+00  0.00000000000E+00  0.22799294698E+02  0.22799294698E+02  0.00000000000E+00 0.  1.
          1   -1    0    0  501    0  0.00000000000E+00 -0.00000000000E+00 -0.58066968970E+03  0.58066968970E+03  0.00000000000E+00 0. -1.
          5    1    1    2  502    0  0.46829580412E+02 -0.60655187492E+02 -0.13281501464E+03  0.15339283518E+03  0.41800000000E+01 0.  1.
         -5    1    1    2    0  502 -0.41165668515E+02  0.28074758930E+02 -0.13704420975E+03  0.14588143192E+03  0.41800000000E+01 0.  1.
        -11    1    1    2    0    0 -0.37088850198E+02  0.47718012921E+02 -0.21409429331E+03  0.22246113817E+03  0.00000000000E+00 0. -1.
         11    1    1    2    0    0  0.31424938301E+02 -0.15137584359E+02 -0.73916877306E+02  0.81733579134E+02  0.00000000000E+00 0.  1.
</event>
<event>
 6    1  0.9216756E-006  0.1364212E+03  0.7561462E-02  0.1218227E+00
          1   -1    0    0  501    0  0.00000000000E+00  0.00000000000E+00  0.14792912761E+03  0.14792912761E+03  0.00000000000E+00 0. -1.
         -1   -1    0    0    0  501 -0.00000000000E+00 -0.00000000000E+00 -0.22441022702E+03  0.22441022702E+03  0.00000000000E+00 0.  1.
          5    1    1    2  502    0 -0.51900935098E+02 -0.73208151070E+02 -0.13571149713E+03  0.16275203009E+03  0.41800000000E+01 0.  1.
         -5    1    1    2    0  502 -0.36718967383E+02  0.39662445370E+02 -0.18544400480E+02  0.57295369163E+02  0.41800000000E+01 0.  1.
        -11    1    1    2    0    0  0.31353577014E+02  0.58464800843E+02  0.26317797307E+02  0.71370905727E+02  0.00000000000E+00 0.  1.
         11    1    1    2    0    0  0.57266325467E+02 -0.24919095143E+02  0.51457000887E+02  0.80921049644E+02  0.00000000000E+00 0. -1.
</event>
<event>
 6    1  0.9216756E-006  0.1014865E+03  0.7561462E-02  0.1277201E+00
          2   -1    0    0  501    0  0.00000000000E+00  0.00000000000E+00  0.53026384427E+03  0.53026384427E+03  0.00000000000E+00 0.  1.
         -2   -1    0    0    0  501 -0.00000000000E+00 -0.00000000000E+00 -0.23187662649E+02  0.23187662649E+02  0.00000000000E+00 0. -1.
          5    1    1    2  502    0  0.54917181662E+02  0.44689547345E+02  0.16988671400E+03  0.18409785571E+03  0.41800000000E+01 0.  1.
         -5    1    1    2    0  502 -0.38346545213E+02 -0.36395885542E+02  0.80319064589E+02  0.96248337911E+02  0.41800000000E+01 0.  1.
        -11    1    1    2    0    0  0.19035230740E+02  0.24213516206E+02  0.17815790136E+03  0.18080064213E+03  0.00000000000E+00 0.  1.
         11    1    1    2    0    0 -0.35605867189E+02 -0.32507178010E+02  0.78712501670E+02  0.92304671169E+02  0.00000000000E+00 0. -1.
</event>
<event>
 6    1  0.9216756E-006  0.1348918E+03  0.7561462E-02  0.1220373E+00
         -1   -1    0    0    0  501 -0.00000000000E+00  0.00000000000E+00  0.16733345071E+02  0.16733345071E+02  0.00000000000E+00 0.  1.
          1   -1    0    0  501    0  0.00000000000E+00 -0.00000000000E+00 -0.11275427442E+04  0.11275427442E+04  0.00000000000E+00 0. -1.
          5    1    1    2  502    0  0.32964469001E+02  0.27380002364E+02 -0.25769087007E+03  0.26126304305E+03  0.41800000000E+01 0.  1.
         -5    1    1    2    0  502  0.52454679789E+01 -0.10287933411E+03 -0.34611785367E+03  0.36114638770E+03  0.41800000000E+01 0.  1.
        -11    1    1    2    0    0  0.28998630616E+02  0.33806344724E+02 -0.18933187849E+03  0.19450025638E+03  0.00000000000E+00 0.  1.
         11    1    1    2    0    0 -0.67208567597E+02  0.41692987017E+02 -0.31766879691E+03  0.32736640214E+03  0.00000000000E+00 0. -1.
</event>
<event>
 6    1  0.9216756E-006  0.1409388E+03  0.7561462E-02  0.1212071E+00
         -1   -1    0    0    0  501 -0.00000000000E+00  0.00000000000E+00  0.17327071975E+03  0.17327071975E+03  0.00000000000E+00 0.  1.
          1   -1    0    0  501    0  0.00000000000E+00 -0.00000000000E+00 -0.11498584934E+03  0.11498584934E+03  0.00000000000E+00 0. -1.
          5    1    1    2  502    0 -0.10341540666E+03  0.56553919691E+02  0.25812831725E+02  0.12073469612E+03  0.41800000000E+01 0. -1.
         -5    1    1    2    0  502  0.16978820025E+02 -0.31568295536E+02  0.10262216791E+02  0.37518303612E+02  0.41800000000E+01 0. -1.
        -11    1    1    2    0    0  0.42439318088E+02 -0.58688019663E+02  0.85912841194E+01  0.72932774076E+02  0.00000000000E+00 0.  1.
         11    1    1    2    0    0  0.43997268544E+02  0.33702395507E+02  0.13618537774E+02  0.57070795275E+02  0.00000000000E+00 0. -1.
</event>
<event>
 6    1  0.9216756E-006  0.1760960E+03  0.7561462E-02  0.1171636E+00
          1   -1    0    0  501    0  0.00000000000E+00  0.00000000000E+00  0.74773824182E+03  0.74773824182E+03  0.00000000000E+00 0. -1.
         -1   -1    0    0    0  501 -0.00000000000E+00 -0.00000000000E+00 -0.76237059016E+02  0.76237059016E+02  0.00000000000E+00 0.  1.
          5    1    1    2  502    0 -0.35787884634E+02 -0.12138480904E+03  0.12934595386E+03  0.18100522846E+03  0.41800000000E+01 0. -1.
         -5    1    1    2    0  502  0.58916842208E+02  0.12073026066E+03  0.51601146363E+02  0.14396923574E+03  0.41800000000E+01 0.  1.
        -11    1    1    2    0    0 -0.78550512170E+01 -0.43625964101E+02  0.25723125992E+03  0.26102269567E+03  0.00000000000E+00 0. -1.
         11    1    1    2    0    0 -0.15273906357E+02  0.44280512479E+02  0.23332282266E+03  0.23797814096E+03  0.00000000000E+00 0.  1.
</event>
<event>
 6    1  0.9216756E-006  0.2027925E+03  0.7561462E-02  0.1147404E+00
          2   -1    0    0  501    0  0.00000000000E+00  0.00000000000E+00  0.61351003158E+03  0.61351003158E+03  0.00000000000E+00 0. -1.
         -2   -1    0    0    0  501 -0.00000000000E+00 -0.00000000000E+00 -0.80594048995E+02  0.80594048995E+02  0.00000000000E+00 0.  1.
          5    1    1    2  502    0  0.11423010864E+03 -0.73007497803E+02  0.19102884575E+03  0.23428210508E+03  0.41800000000E+01 0. -1.
         -5    1    1    2    0  502  0.68327723311E+01 -0.72115759609E+02  0.19695390304E+02  0.75184774795E+02  0.41800000000E+01 0. -1.
        -11    1    1    2    0    0 -0.21993731824E+01  0.35902143360E+02  0.17895333695E+02  0.40175167806E+02  0.00000000000E+00 0.  1.
         11    1    1    2    0    0 -0.11886350778E+03  0.10922111405E+03  0.30429641284E+03  0.34446203289E+03  0.00000000000E+00 0. -1.
</event>
<event>
 6    1  0.9216756E-006  0.2087889E+03  0.7561462E-02  0.1142529E+00
         -2   -1    0    0    0  501 -0.00000000000E+00  0.00000000000E+00  0.20512000346E+03  0.20512000346E+03  0.00000000000E+00 0.  1.
          2   -1    0    0  501    0  0.00000000000E+00 -0.00000000000E+00 -0.33400446999E+03  0.33400446999E+03  0.00000000000E+00 0. -1.
          5    1    1    2  502    0 -0.17020510786E+03 -0.67522691222E+02  0.70954391532E+02  0.19642069812E+03  0.41800000000E+01 0. -1.
         -5    1    1    2    0  502 -0.70532402993E+01  0.34580363126E+02  0.22690820488E+02  0.42165097499E+02  0.41800000000E+01 0. -1.
        -11    1    1    2    0    0  0.12005476034E+03  0.61561296715E+02 -0.12511765725E+03  0.18400371434E+03  0.00000000000E+00 0. -1.
         11    1    1    2    0    0  0.57203587824E+02 -0.28618968619E+02 -0.97412021296E+02  0.11653496350E+03  0.00000000000E+00 0.  1.
</event>
<event>
 6    1  0.9216756E-006  0.1282795E+03  0.7561462E-02  0.1230031E+00
          1   -1    0    0  501    0  0.00000000000E+00  0.00000000000E+00  0.53191590103E+02  0.53191590103E+02  0.00000000000E+00 0. -1.
         -1   -1    0    0    0  501 -0.00000000000E+00 -0.00000000000E+00 -0.41383242385E+03  0.41383242385E+03  0.00000000000E+00 0.  1.
          5    1    1    2  502    0 -0.70645076176E+02  0.49574170584E+02 -0.75260365022E+02  0.11458586353E+03  0.41800000000E+01 0. -1.
         -5    1    1    2    0  502  0.31116688476E+02  0.37418314508E+02 -0.16970214705E+03  0.17659181656E+03  0.41800000000E+01 0. -1.
        -11    1    1    2    0    0  0.62024630443E+02 -0.65155441046E+02 -0.11292231876E+03  0.14437359992E+03  0.00000000000E+00 0.  1.
         11    1    1    2    0    0 -0.22496242743E+02 -0.21837044046E+02 -0.27560029190E+01  0.31472733951E+02  0.00000000000E+00 0. -1.
</event>
<event>
 6    1  0.9216756E-006  0.1046110E+03  0.7561462E-02  0.1270888E+00
          1   -1    0    0  501    0  0.00000000000E+00  0.00000000000E+00  0.38011288085E+03  0.38011288085E+03  0.00000000000E+00 0. -1.
         -1   -1    0    0    0  501 -0.00000000000E+00 -0.00000000000E+00 -0.49802989654E+02  0.49802989654E+02  0.00000000000E+00 0.  1.
          5    1    1    2  502    0 -0.48480864923E+02 -0.40320732481E+02  0.88550695285E+02  0.10878811409E+03  0.41800000000E+01 0. -1.
         -5    1    1    2    0  502  0.41137283965E+02 -0.72507619446E+01 -0.14406027137E+02  0.44383056437E+02  0.41800000000E+01 0. -1.
        -11    1    1    2    0    0  0.34570541762E+02  0.63645985260E+02  0.16321081403E+03  0.17856008405E+03  0.00000000000E+00 0. -1.
         11    1    1    2    0    0 -0.27226960804E+02 -0.16074490835E+02  0.92954409013E+02  0.98184615929E+02  0.00000000000E+00 0.  1.
</event>
<event>
 6    1  0.9216756E-006  0.1130770E+03  0.7561462E-02  0.1254976E+00
         -1   -1    0    0    0  501 -0.00000000000E+00  0.00000000000E+00  0.67542945048E+02  0.67542945048E+02  0.00000000000E+00 0.  1.
          1   -1    0    0  501    0  0.00000000000E+00 -0.00000000000E+00 -0.29676404977E+03  0.29676404977E+03  0.00000000000E+00 0. -1.
          5    1    1    2  502    0  0.30769433718E+01 -0.26881309813E+02 -0.55265344884E+02  0.61674979878E+02  0.41800000000E+01 0. -1.
         -5    1    1    2    0  502  0.35822902000E+02  0.89166527519E+02 -0.78204204123E+01  0.96501716632E+02  0.41800000000E+01 0. -1.
        -11    1    1    2    0    0 -0.29207159210E+02  0.90687189430E+01 -0.68733552962E+01  0.31345539163E+02  0.00000000000E+00 0.  1.
         11    1    1    2    0    0 -0.96926861614E+01 -0.71353936649E+02 -0.15926198413E+03  0.17478475914E+03  0.00000000000E+00 0. -1.
</event>
<event>
 6    1  0.9216756E-006  0.1449824E+03  0.7561462E-02  0.1206778E+00
         -1   -1    0    0    0  501 -0.00000000000E+00  0.00000000000E+00  0.88418262077E+02  0.88418262077E+02  0.00000000000E+00 0.  1.
          1   -1    0    0  501    0  0.00000000000E+00 -0.00000000000E+00 -0.62919500401E+03  0.62919500401E+03  0.00000000000E+00 0. -1.
          5    1    1    2  502    0 -0.33395052488E+02  0.78502460775E+02 -0.83289909656E+02  0.11930024027E+03  0.41800000000E+01 0.  1.
         -5    1    1    2    0  502 -0.38929392484E+02  0.37041236660E+02  0.44306166344E+02  0.69771481198E+02  0.41800000000E+01 0.  1.
        -11    1    1    2    0    0  0.70729431107E+02 -0.53739663858E+02 -0.39746930809E+03  0.40727442195E+03  0.00000000000E+00 0.  1.
         11    1    1    2    0    0  0.15950138657E+01 -0.61804033577E+02 -0.10432369052E+03  0.12126712267E+03  0.00000000000E+00 0. -1.
</event>
<event>
 6    1  0.9216756E-006  0.8876476E+02  0.7561462E-02  0.1305871E+00
          2   -1    0    0  501    0  0.00000000000E+00  0.00000000000E+00  0.23070664235E+03  0.23070664235E+03  0.00000000000E+00 0. -1.
         -2   -1    0    0    0  501 -0.00000000000E+00 -0.00000000000E+00 -0.54637996397E+02  0.54637996397E+02  0.00000000000E+00 0.  1.
          5    1    1    2  502    0  0.41785605885E+02  0.20968636215E+02 -0.62202192945E+01  0.47348538435E+02  0.41800000000E+01 0.  1.
         -5    1    1    2    0  502 -0.42879522600E+02 -0.42238657801E+02  0.77423379494E+02  0.98156048023E+02  0.41800000000E+01 0.  1.
        -11    1    1    2    0    0  0.39769478544E+01 -0.24286197189E+02 -0.91923405918E+00  0.24626824387E+02  0.00000000000E+00 0.  1.
         11    1    1    2    0    0 -0.28830311393E+01  0.45556218774E+02  0.10578471981E+03  0.11521322790E+03  0.00000000000E+00 0. -1.
</event>
<event>
 6    1  0.9216756E-006  0.1183511E+03  0.7561462E-02  0.1245842E+00
          2   -1    0    0  501    0  0.00000000000E+00  0.00000000000E+00  0.24000467646E+02  0.24000467646E+02  0.00000000000E+00 0. -1.
         -2   -1    0    0    0  501 -0.00000000000E+00 -0.00000000000E+00 -0.10830227654E+04  0.10830227654E+04  0.00000000000E+00 0.  1.
          5    1    1    2  502    0 -0.14236987725E+02 -0.33745209005E+02 -0.78108008898E+02  0.86369927662E+02  0.41800000000E+01 0. -1.
         -5    1    1    2    0  502 -0.61850436193E+02  0.51421497184E+02 -0.79903858185E+03  0.80308765058E+03  0.41800000000E+01 0. -1.
        -11    1    1    2    0    0  0.85686920906E+02 -0.40321903309E+02 -0.14793102354E+03  0.17564649733E+03  0.00000000000E+00 0.  1.
         11    1    1    2    0    0 -0.95994969884E+01  0.22645615130E+02 -0.33944683460E+02  0.41919157461E+02  0.00000000000E+00 0. -1.
</event>
<event>
 6    1  0.9216756E-006  0.1515406E+03  0.7561462E-02  0.1198593E+00
         -3   -1    0    0    0  501 -0.00000000000E+00  0.00000000000E+00  0.13288413001E+04  0.13288413001E+04  0.00000000000E+00 0.  1.
          3   -1    0    0  501    0  0.00000000000E+00 -0.00000000000E+00 -0.27808199736E+02  0.27808199736E+02  0.00000000000E+00 0. -1.
          5    1    1    2  502    0  0.43084224939E+02 -0.27434369029E+02  0.24685893308E+03  0.25212239147E+03  0.41800000000E+01 0.  1.
         -5    1    1    2    0  502  0.35964379396E+02  0.10954188340E+03  0.81918668508E+03  0.82727090981E+03  0.41800000000E+01 0.  1.
        -11    1    1    2    0    0  0.36965581424E+01 -0.46057200640E+02  0.13435179187E+03  0.14207510074E+03  0.00000000000E+00 0.  1.
         11    1    1    2    0    0 -0.82745162477E+02 -0.36050313735E+02  0.10063569032E+03  0.13518109779E+03  0.00000000000E+00 0. -1.
</event>
<event>
 6    1  0.9216756E-006  0.1334405E+03  0.7561462E-02  0.1222438E+00
          1   -1    0    0  501    0  0.00000000000E+00  0.00000000000E+00  0.80033685263E+03  0.80033685263E+03  0.00000000000E+00 0. -1.
         -1   -1    0    0    0  501 -0.00000000000E+00 -0.00000000000E+00 -0.33454735390E+02  0.33454735390E+02  0.00000000000E+00 0.  1.
          5    1    1    2  502    0 -0.80924551799E+02  0.51277791601E+00  0.28877728076E+03  0.29993138600E+03  0.41800000000E+01 0.  1.
         -5    1    1    2    0  502 -0.28919180815E+02  0.32001746356E+02  0.11327016502E+02  0.44790674160E+02  0.41800000000E+01 0.  1.
        -11    1    1    2    0    0  0.74481907524E+02  0.21883995500E+02  0.30600269773E+03  0.31569623822E+03  0.00000000000E+00 0.  1.
         11    1    1    2    0    0  0.35361825090E+02 -0.54398519772E+02  0.16077512225E+03  0.17337328965E+03  0.00000000000E+00 0. -1.
</event>
<event>
 6    1  0.9216756E-006  0.1092759E+03  0.7561462E-02  0.1261917E+00
         -3   -1    0    0    0  501 -0.00000000000E+00  0.00000000000E+00  0.28224456326E+02  0.28224456326E+02  0.00000000000E+00 0.  1.
          3   -1    0    0  501    0  0.00000000000E+00 -0.00000000000E+00 -0.79825487914E+03  0.79825487914E+03  0.00000000000E+00 0. -1.
          5    1    1    2  502    0  0.19848194321E+02  0.81872235034E+02 -0.28168050725E+03  0.29403808299E+03  0.41800000000E+01 0. -1.
         -5    1    1    2    0  502 -0.40694735625E+01  0.64670338000E+01  0.12984939435E+02  0.15635350760E+02  0.41800000000E+01 0. -1.
        -11    1    1    2    0    0 -0.49899527051E+02 -0.30920304231E+02 -0.23791798012E+03  0.24505304176E+03  0.00000000000E+00 0.  1.
         11    1    1    2    0    0  0.34120806292E+02 -0.57418964603E+02 -0.26341687489E+03  0.27175285995E+03  0.00000000000E+00 0. -1.
</event>
<event>
 6    1  0.9216756E-006  0.9151977E+02  0.7561462E-02  0.1299213E+00
         -1   -1    0    0    0  501 -0.00000000000E+00  0.00000000000E+00  0.38317411994E+02  0.38317411994E+02  0.00000000000E+00 0.  1.
          1   -1    0    0  501    0  0.00000000000E+00 -0.00000000000E+00 -0.33960966403E+03  0.33960966403E+03  0.00000000000E+00 0. -1.
          5    1    1    2  502    0 -0.37901273009E+02 -0.23089711691E+02 -0.48588209570E+01  0.44841072944E+02  0.41800000000E+01 0. -1.
         -5    1    1    2    0  502  0.59404055629E+02  0.19257646540E+02 -0.10909817259E+03  0.12577592153E+03  0.41800000000E+01 0. -1.
        -11    1    1    2    0    0  0.25539729602E+02  0.11848882690E+02 -0.12853330669E+03  0.13158071568E+03  0.00000000000E+00 0. -1.
         11    1    1    2    0    0 -0.47042512221E+02 -0.80168175393E+01 -0.58801951799E+02  0.75729365869E+02  0.00000000000E+00 0.  1.
</event>
<event>
 6    1  0.9216756E-006  0.9960065E+02  0.7561462E-02  0.1281138E+00
         -2   -1    0    0    0  501 -0.00000000000E+00  0.00000000000E+00  0.48761597783E+02  0.48761597783E+02  0.00000000000E+00 0.  1.
          2   -1    0    0  501    0  0.00000000000E+00 -0.00000000000E+00 -0.25605679088E+03  0.25605679088E+03  0.00000000000E+00 0. -1.
          5    1    1    2  502    0 -0.48233225083E+02  0.44806571296E+02 -0.58189902690E+02  0.87963685736E+02  0.41800000000E+01 0.  1.
         -5    1    1    2    0  502  0.25045381625E+02 -0.54536985543E+02 -0.30722773422E+02  0.67549353362E+02  0.41800000000E+01 0.  1.
        -11    1    1    2    0    0 -0.19113311656E+02  0.21892397942E+02 -0.95243965054E+02  0.99579157705E+02  0.00000000000E+00 0.  1.
         11    1    1    2    0    0  0.42301155114E+02 -0.12161983696E+02 -0.23138551929E+02  0.49726191859E+02  0.00000000000E+00 0. -1.
</event>
<event>
 6    1  0.9216756E-006  0.7901981E+02  0.7561462E-02  0.1331856E+00
          2   -1    0    0  501    0  0.00000000000E+00  0.00000000000E+00  0.45340269348E+03  0.45340269348E+03  0.00000000000E+00 0. -1.
         -2   -1    0    0    0  501 -0.00000000000E+00 -0.00000000000E+00 -0.32445250524E+02  0.32445250524E+02  0.00000000000E+00 0.  1.
          5    1    1    2  502    0 -0.19330871998E+02 -0.34123911173E+02  0.18012158921E+03  0.18438921667E+03  0.41800000000E+01 0. -1.
         -5    1    1    2    0  502 -0.19430107388E+02 -0.99875162612E+00 -0.14523965671E+02  0.24636244777E+02  0.41800000000E+01 0.  1.
        -11    1    1    2    0    0  0.27997564103E+02 -0.25051790923E+02  0.49900214284E+02  0.62461886057E+02  0.00000000000E+00 0.  1.
         11    1    1    2    0    0  0.10763415284E+02  0.60174453722E+02  0.20545960513E+03  0.21436059649E+03  0.00000000000E+00 0. -1.
</event>
<event>
 6    1  0.9216756E-006  0.1554871E+03  0.7561462E-02  0.1193888E+00
         -2   -1    0    0    0  501 -0.00000000000E+00  0.00000000000E+00  0.62880292763E+02  0.62880292763E+02  0.00000000000E+00 0.  1.
          2   -1    0    0  501    0  0.00000000000E+00 -0.00000000000E+00 -0.48942336030E+03  0.48942336030E+03  0.00000000000E+00 0. -1.
          5    1    1    2  502    0  0.39354209053E+01  0.77245901687E+02 -0.20952244328E+03  0.22338205725E+03  0.41800000000E+01 0. -1.
         -5    1    1    2    0  502 -0.83780317216E+02  0.24943005801E+02 -0.85742188580E+02  0.12251730651E+03  0.41800000000E+01 0. -1.
        -11    1    1    2    0    0  0.89317818949E+02 -0.73130188711E+02 -0.13260492260E+03  0.17581172538E+03  0.00000000000E+00 0. -1.
         11    1    1    2    0    0 -0.94729226380E+01 -0.29058718778E+02  0.13264869157E+01  0.30592563930E+02  0.00000000000E+00 0.  1.
</event>
<event>
 6    1  0.9216756E-006  0.1767721E+03  0.7561462E-02  0.1170964E+00
          1   -1    0    0  501    0  0.00000000000E+00  0.00000000000E+00  0.13791177197E+03  0.13791177197E+03  0.00000000000E+00 0. -1.
         -1   -1    0    0    0  501 -0.00000000000E+00 -0.00000000000E+00 -0.27911832807E+03  0.27911832807E+03  0.00000000000E+00 0.  1.
          5    1    1    2  502    0  0.40434911002E+02  0.14840962806E+03 -0.14758828656E+03  0.21321391713E+03  0.41800000000E+01 0. -1.
         -5    1    1    2    0  502 -0.81940525349E+00 -0.72514874631E+02 -0.16228127882E+02  0.74430524668E+02  0.41800000000E+01 0.  1.
        -11    1    1    2    0    0 -0.65994286883E+02 -0.26667539659E+02  0.17530857440E+02  0.73305760587E+02  0.00000000000E+00 0.  1.
         11    1    1    2    0    0  0.26378781135E+02 -0.49227213769E+02  0.50790009068E+01  0.56079897644E+02  0.00000000000E+00 0. -1.
</event>
<event>
 6    1  0.9216756E-006  0.1095781E+03  0.7561462E-02  0.1261353E+00
          1   -1    0    0  501    0  0.00000000000E+00  0.00000000000E+00  0.28252010536E+03  0.28252010536E+03  0.00000000000E+00 0. -1.
         -1   -1    0    0    0  501 -0.00000000000E+00 -0.00000000000E+00 -0.48167246449E+02  0.48167246449E+02  0.00000000000E+00 0.  1.
          5    1    1    2  502    0 -0.71284367045E+02 -0.23258461472E+01  0.41927524721E+02  0.82838760701E+02  0.41800000000E+01 0. -1.
         -5    1    1    2    0  502  0.47077375435E+02 -0.30406159593E+02  0.70861169237E+02  0.90441094225E+02  0.41800000000E+01 0. -1.
        -11    1    1    2    0    0 -0.24697647609E+02  0.34672919794E+02  0.25576894455E+02  0.49662487800E+02  0.00000000000E+00 0.  1.
         11    1    1    2    0    0  0.48904639220E+02 -0.19409140541E+01  0.95987270498E+02  0.10774500908E+03  0.00000000000E+00 0. -1.
</event>
<event>
 6    1  0.9216756E-006  0.9466593E+02  0.7561462E-02  0.1291930E+00
         -2   -1    0    0    0  501 -0.00000000000E+00  0.00000000000E+00  0.11633262126E+03  0.11633262126E+03  0.00000000000E+00 0. -1.
          2   -1    0    0  501    0  0.00000000000E+00 -0.00000000000E+00 -0.15081761631E+03  0.15081761631E+03  0.00000000000E+00 0.  1.
          5    1    1    2  502    0 -0.10275570062E+02  0.94158324735E+01  0.63251931381E+02  0.64903963398E+02  0.41800000000E+01 0. -1.
         -5    1    1    2    0  502 -0.58233133541E+02 -0.19294435594E+02 -0.49197861722E+02  0.78748175121E+02  0.41800000000E+01 0. -1.
        -11    1    1    2    0    0  0.57962306481E+01 -0.35445457508E+02 -0.19366774811E+02  0.40805008446E+02  0.00000000000E+00 0.  1.
         11    1    1    2    0    0  0.62712472955E+02  0.45324060629E+02 -0.29172289897E+02  0.82693090605E+02  0.00000000000E+00 0. -1.
</event>
<event>
 6    1  0.9216756E-006  0.1222704E+03  0.7561462E-02  0.1239398E+00
          1   -1    0    0  501    0  0.00000000000E+00  0.00000000000E+00  0.21505776988E+02  0.21505776988E+02  0.00000000000E+00 0. -1.
         -1   -1    0    0    0  501 -0.00000000000E+00 -0.00000000000E+00 -0.13313625026E+04  0.13313625026E+04  0.00000000000E+00 0.  1.
          5    1    1    2  502    0  0.23212416917E+02  0.26370623497E+02 -0.35636855084E+03  0.35812043018E+03  0.41800000000E+01 0. -1.
         -5    1    1    2    0  502 -0.22278015241E+02 -0.95126622523E+02 -0.78648760989E+03  0.79254376358E+03  0.41800000000E+01 0.  1.
        -11    1    1    2    0    0 -0.17696169492E+02 -0.16673211154E+02 -0.56647187036E+02  0.61644579518E+02  0.00000000000E+00 0.  1.
         11    1    1    2    0    0  0.16761767816E+02  0.85429210180E+02 -0.11035337783E+03  0.14055950630E+03  0.00000000000E+00 0. -1.
</event>
<event>
 6    1  0.9216756E-006  0.1075812E+03  0.7561462E-02  0.1265116E+00
          3   -1    0    0  501    0  0.00000000000E+00  0.00000000000E+00  0.47372973212E+02  0.47372973212E+02  0.00000000000E+00 0. -1.
         -3   -1    0    0    0  501 -0.00000000000E+00 -0.00000000000E+00 -0.40711631655E+03  0.40711631655E+03  0.00000000000E+00 0.  1.
          5    1    1    2  502    0  0.86555710734E+02 -0.33192197930E+02 -0.60604831148E+02  0.11083334797E+03  0.41800000000E+01 0.  1.
         -5    1    1    2    0  502 -0.16808117525E+02  0.35315660469E+02 -0.83745111421E+02  0.92522563604E+02  0.41800000000E+01 0.  1.
        -11    1    1    2    0    0 -0.12118327397E+02  0.18250576300E+02  0.49577277293E+01  0.22461443818E+02  0.00000000000E+00 0. -1.
         11    1    1    2    0    0 -0.57629265812E+02 -0.20374038838E+02 -0.22035112850E+03  0.22867193437E+03  0.00000000000E+00 0.  1.
</event>
<event>
 6    1  0.9216756E-006  0.1144887E+03  0.7561462E-02  0.1252476E+00
         -2   -1    0    0    0  501 -0.00000000000E+00  0.00000000000E+00  0.24358571419E+02  0.24358571419E+02  0.00000000000E+00 0.  1.
          2   -1    0    0  501    0  0.00000000000E+00 -0.00000000000E+00 -0.62051950266E+03  0.62051950266E+03  0.00000000000E+00 0. -1.
          5    1    1    2  502    0 -0.63138286361E+02  0.66708943488E+02 -0.18641802433E+03  0.20785975690E+03  0.41800000000E+01 0. -1.
         -5    1    1    2    0  502  0.42412064601E+02 -0.40294108727E+02 -0.10506774505E+03  0.12032913975E+03  0.41800000000E+01 0.  1.
        -11    1    1    2    0    0  0.31141559623E+02 -0.46378631061E+02 -0.26713472599E+03  0.27291342214E+03  0.00000000000E+00 0.  1.
         11    1    1    2    0    0 -0.10415337863E+02  0.19963796300E+02 -0.37540435874E+02  0.43775755289E+02  0.00000000000E+00 0. -1.
</event>
<event>
 6    1  0.9216756E-006  0.9484138E+02  0.7561462E-02  0.1291534E+00
         -2   -1    0    0    0  501 -0.00000000000E+00  0.00000000000E+00  0.59118432141E+02  0.59118432141E+02  0.00000000000E+00 0.  1.
          2   -1    0    0  501    0  0.00000000000E+00 -0.00000000000E+00 -0.24459076869E+03  0.24459076869E+03  0.00000000000E+00 0. -1.
          5    1    1    2  502    0 -0.20786874425E+02  0.26603746802E+02 -0.87960188478E+02  0.94309706018E+02  0.41800000000E+01 0.  1.
         -5    1    1    2    0  502  0.39240503072E+02 -0.53569450627E+02 -0.86720170868E+01  0.67098281663E+02  0.41800000000E+01 0.  1.
        -11    1    1    2    0    0 -0.21267135795E+01  0.55880958642E+02 -0.93321485788E+02  0.10879386085E+03  0.00000000000E+00 0. -1.
         11    1    1    2    0    0 -0.16326915068E+02 -0.28915254817E+02  0.44813548079E+01  0.33507352293E+02  0.00000000000E+00 0.  1.
</event>
<event>
 6    1  0.9216756E-006  0.1136433E+03  0.7561462E-02  0.1253968E+00
          2   -1    0    0  501    0  0.00000000000E+00  0.00000000000E+00  0.36989260355E+03  0.36989260355E+03  0.00000000000E+00 0. -1.
         -2   -1    0    0    0  501 -0.00000000000E+00 -0.00000000000E+00 -0.43302246723E+02  0.43302246723E+02  0.00000000000E+00 0.  1.
          5    1    1    2  502    0 -0.33158494494E+02 -0.87574713785E+02  0.11603912192E+03  0.14916891924E+03  0.41800000000E+01 0.  1.
         -5    1    1    2    0  502 -0.73986188818E+01  0.42183809664E+02  0.29559862191E+02  0.52206045741E+02  0.41800000000E+01 0.  1.
        -11    1    1    2    0    0  0.31333400928E+02 -0.11130086683E+02  0.15475131709E+02  0.36676157714E+02  0.00000000000E+00 0.  1.
         11    1    1    2    0    0  0.92237124483E+01  0.56520990805E+02  0.16551624101E+03  0.17514372758E+03  0.00000000000E+00 0. -1.
</event>
<event>
 6    1  0.9216756E-006  0.1744688E+03  0.7561462E-02  0.1173266E+00
         -1   -1    0    0    0  501 -0.00000000000E+00  0.00000000000E+00  0.10338249148E+03  0.10338249148E+03  0.00000000000E+00 0.  1.
          1   -1    0    0  501    0  0.00000000000E+00 -0.00000000000E+00 -0.67342979316E+03  0.67342979316E+03  0.00000000000E+00 0. -1.
          5    1    1    2  502    0  0.18161137242E+02 -0.75640053863E+02 -0.39607699518E+02  0.87392716604E+02  0.41800000000E+01 0. -1.
         -5    1    1    2    0  502  0.10059239492E+03 -0.88643832026E+01  0.28455458778E+02  0.10499806065E+03  0.41800000000E+01 0. -1.
        -11    1    1    2    0    0 -0.11258732217E+03  0.10168743154E+03 -0.47826573400E+03  0.50175128417E+03  0.00000000000E+00 0.  1.
         11    1    1    2    0    0 -0.61662099915E+01 -0.17182994475E+02 -0.80629326930E+02  0.82670223212E+02  0.00000000000E+00 0. -1.
</event>
<event>
 6    1  0.9216756E-006  0.2044456E+03  0.7561462E-02  0.1146042E+00
          1   -1    0    0  501    0  0.00000000000E+00  0.00000000000E+00  0.69778693871E+03  0.69778693871E+03  0.00000000000E+00 0.  1.
         -1   -1    0    0    0  501 -0.00000000000E+00 -0.00000000000E+00 -0.79519998176E+02  0.79519998176E+02  0.00000000000E+00 0. -1.
          5    1    1    2  502    0  0.44996943348E+02  0.43344165173E+02  0.12470397567E+03  0.13954209226E+03  0.41800000000E+01 0. -1.
         -5    1    1    2    0  502  0.14830125647E+03 -0.11405639286E+02  0.73620668245E+02  0.16601453693E+03  0.41800000000E+01 0. -1.
        -11    1    1    2    0    0 -0.29002744515E+02  0.40526666492E+01  0.15635479247E+03  0.15907358179E+03  0.00000000000E+00 0.  1.
         11    1    1    2    0    0 -0.16429545531E+03 -0.35991192536E+02  0.26358750415E+03  0.31267672590E+03  0.00000000000E+00 0. -1.
</event>
<event>
 6    1  0.9216756E-006  0.5246166E+02  0.7561462E-02  0.1432499E+00
         -2   -1    0    0    0  501 -0.00000000000E+00  0.00000000000E+00  0.28508113488E+02  0.28508113488E+02  0.00000000000E+00 0. -1.
          2   -1    0    0  501    0  0.00000000000E+00 -0.00000000000E+00 -0.42175975397E+03  0.42175975397E+03  0.00000000000E+00 0.  1.
          5    1    1    2  502    0 -0.69761874095E+01  0.37676347350E+02 -0.22085258113E+03  0.22419078780E+03  0.41800000000E+01 0.  1.
         -5    1    1    2    0  502  0.23952572147E+01 -0.14351463581E+02  0.12738799999E+02  0.19785125460E+02  0.41800000000E+01 0.  1.
        -11    1    1    2    0    0  0.51522209118E+01 -0.37098861486E+02 -0.18843167171E+03  0.19211810380E+03  0.00000000000E+00 0.  1.
         11    1    1    2    0    0 -0.57129071701E+00  0.13773977717E+02  0.32938123648E+01  0.14173850399E+02  0.00000000000E+00 0. -1.
</event>
<event>
 6    1  0.9216756E-006  0.1086061E+03  0.7561462E-02  0.1263173E+00
          1   -1    0    0  501    0  0.00000000000E+00  0.00000000000E+00  0.39343299191E+02  0.39343299191E+02  0.00000000000E+00 0. -1.
         -1   -1    0    0    0  501 -0.00000000000E+00 -0.00000000000E+00 -0.62567891690E+03  0.62567891690E+03  0.00000000000E+00 0.  1.
          5    1    1    2  502    0 -0.71450293558E+02  0.43628689039E+02 -0.48450190070E+03  0.49169926901E+03  0.41800000000E+01 0.  1.
         -5    1    1    2    0  502  0.24928762278E+02  0.69044382043E+01 -0.21056685263E+02  0.33615039043E+02  0.41800000000E+01 0.  1.
        -11    1    1    2    0    0 -0.15853719596E+02 -0.41165674658E+02 -0.57506892357E+02  0.72477554206E+02  0.00000000000E+00 0.  1.
         11    1    1    2    0    0  0.62375250876E+02 -0.93674525851E+01 -0.23270139388E+02  0.67230353836E+02  0.00000000000E+00 0. -1.
</event>
<event>
 6    1  0.9216756E-006  0.1351427E+03  0.7561462E-02  0.1220018E+00
         -3   -1    0    0    0  501 -0.00000000000E+00  0.00000000000E+00  0.14759978543E+04  0.14759978543E+04  0.00000000000E+00 0.  1.
          3   -1    0    0  501    0  0.00000000000E+00 -0.00000000000E+00 -0.19383105917E+02  0.19383105917E+02  0.00000000000E+00 0. -1.
          5    1    1    2  502    0  0.36722543390E+02  0.48728519313E+02  0.60763613925E+03  0.61070628285E+03  0.41800000000E+01 0. -1.
         -5    1    1    2    0  502 -0.87597827965E+02 -0.13877361651E+02  0.61544340488E+03  0.62181509924E+03  0.41800000000E+01 0.  1.
        -11    1    1    2    0    0 -0.14779979008E+02  0.26587045397E+02  0.67563386993E+02  0.74095411628E+02  0.00000000000E+00 0. -1.
         11    1    1    2    0    0  0.65655263583E+02 -0.61438203059E+02  0.16597181727E+03  0.18876416652E+03  0.00000000000E+00 0.  1.
</event>
<event>
 6    1  0.9216756E-006  0.9414779E+02  0.7561462E-02  0.1293107E+00
          1   -1    0    0  501    0  0.00000000000E+00  0.00000000000E+00  0.38751476409E+02  0.38751476409E+02  0.00000000000E+00 0. -1.
         -1   -1    0    0    0  501 -0.00000000000E+00 -0.00000000000E+00 -0.51275248619E+03  0.51275248619E+03  0.00000000000E+00 0.  1.
          5    1    1    2  502    0 -0.30615831146E+02  0.34492267746E+02 -0.21864285086E+02  0.51210985280E+02  0.41800000000E+01 0.  1.
         -5    1    1    2    0  502  0.14616085607E+02  0.45805774674E+02 -0.29781964417E+03  0.30170484220E+03  0.41800000000E+01 0.  1.
        -11    1    1    2    0    0 -0.13969285505E+02 -0.46499058373E+02 -0.14439508784E+03  0.15233924235E+03  0.00000000000E+00 0.  1.
         11    1    1    2    0    0  0.29969031043E+02 -0.33798984047E+02 -0.99219926906E+01  0.46248892778E+02  0.00000000000E+00 0. -1.
</event>
<event>
 6    1  0.9216756E-006  0.8484074E+02  0.7561462E-02  0.1315850E+00
          1   -1    0    0  501    0  0.00000000000E+00  0.00000000000E+00  0.30717217868E+03  0.30717217868E+03  0.00000000000E+00 0. -1.
         -1   -1    0    0    0  501 -0.00000000000E+00 -0.00000000000E+00 -0.39072474975E+02  0.39072474975E+02  0.00000000000E+00 0.  1.
          5    1    1    2  502    0  0.39590922862E+02  0.35126894927E+02  0.10370137537E+03  0.11650230716E+03  0.41800000000E+01 0.  1.
         -5    1    1    2    0  502 -0.36802039122E+02 -0.44338530005E+02  0.24135269484E+02  0.62612131090E+02  0.41800000000E+01 0.  1.
        -11    1    1    2    0    0 -0.24276918584E+02  0.22871116917E+02  0.10609709272E+02  0.35000324224E+02  0.00000000000E+00 0.  1.
         11    1    1    2    0    0  0.21488034845E+02 -0.13659481839E+02  0.12965334958E+03  0.13212989118E+03  0.00000000000E+00 0. -1.
</event>
<event>
 6    1  0.9216756E-006  0.1729319E+03  0.7561462E-02  0.1174824E+00
         -1   -1    0    0    0  501 -0.00000000000E+00  0.00000000000E+00  0.42177892068E+02  0.42177892068E+02  0.00000000000E+00 0.  1.
          1   -1    0    0  501    0  0.00000000000E+00 -0.00000000000E+00 -0.84352959533E+03  0.84352959533E+03  0.00000000000E+00 0. -1.
          5    1    1    2  502    0 -0.60482160396E+02 -0.11585479717E+03 -0.19411227883E+03  0.23404588214E+03  0.41800000000E+01 0. -1.
         -5    1    1    2    0  502  0.51820957199E+02 -0.29240256165E+02 -0.11931016365E+03  0.13338962380E+03  0.41800000000E+01 0. -1.
        -11    1    1    2    0    0  0.22592007874E+02  0.21858676656E+02 -0.28616758351E+02  0.42510227281E+02  0.00000000000E+00 0.  1.
         11    1    1    2    0    0 -0.13930804677E+02  0.12323637668E+03 -0.45931250242E+03  0.47576175418E+03  0.00000000000E+00 0. -1.
</event>
<event>
 6    1  0.9216756E-006  0.1835101E+03  0.7561462E-02  0.1164449E+00
          1   -1    0    0  501    0  0.00000000000E+00  0.00000000000E+00  0.13979183249E+03  0.13979183249E+03  0.00000000000E+00 0. -1.
         -1   -1    0    0    0  501 -0.00000000000E+00 -0.00000000000E+00 -0.28891682779E+03  0.28891682779E+03  0.00000000000E+00 0.  1.
          5    1    1    2  502    0  0.21985615172E+02 -0.25706723947E+00 -0.75355877714E+01  0.23615478846E+02  0.41800000000E+01 0. -1.
         -5    1    1    2    0  502 -0.16163106403E+03 -0.59083300535E+02 -0.15087324528E+03  0.22890095195E+03  0.41800000000E+01 0. -1.
        -11    1    1    2    0    0  0.40135343687E+02 -0.20360262591E+02  0.17842807643E+02  0.48412311350E+02  0.00000000000E+00 0.  1.
         11    1    1    2    0    0  0.99510105174E+02  0.79700630365E+02 -0.85589698863E+01  0.12777991813E+03  0.00000000000E+00 0. -1.
</event>
<event>
 6    1  0.9216756E-006  0.9140360E+02  0.7561462E-02  0.1299488E+00
         -1   -1    0    0    0  501 -0.00000000000E+00  0.00000000000E+00  0.11043112285E+03  0.11043112285E+03  0.00000000000E+00 0.  1.
          1   -1    0    0  501    0  0.00000000000E+00 -0.00000000000E+00 -0.18626063506E+03  0.18626063506E+03  0.00000000000E+00 0. -1.
          5    1    1    2  502    0 -0.11350949875E+02  0.27797894311E-01 -0.58001758299E+02  0.59249651489E+02  0.41800000000E+01 0. -1.
         -5    1    1    2    0  502 -0.68343594351E+02 -0.27533254054E+02  0.54333340914E+02  0.91643392029E+02  0.41800000000E+01 0. -1.
        -11    1    1    2    0    0  0.60672552830E+02 -0.32380091817E+01 -0.87500301162E+02  0.10652673877E+03  0.00000000000E+00 0. -1.
         11    1    1    2    0    0  0.19021991396E+02  0.30743465342E+02  0.15339206336E+02  0.39271975618E+02  0.00000000000E+00 0.  1.
</event>
<event>
 6    1  0.9216756E-006  0.1013950E+03  0.7561462E-02  0.1277389E+00
          1   -1    0    0  501    0  0.00000000000E+00  0.00000000000E+00  0.60629647867E+03  0.60629647867E+03  0.00000000000E+00 0. -1.
         -1   -1    0    0    0  501 -0.00000000000E+00 -0.00000000000E+00 -0.22747116614E+02  0.22747116614E+02  0.00000000000E+00 0.  1.
          5    1    1    2  502    0 -0.67176558540E+02 -0.36357931594E+02  0.27059080424E+03  0.28119645259E+03  0.41800000000E+01 0.  1.
         -5    1    1    2    0  502  0.23287901244E+02  0.31986657029E+02  0.39469788741E+02  0.56042922796E+02  0.41800000000E+01 0.  1.
        -11    1    1    2    0    0 -0.68375350772E+01 -0.26335556917E+02  0.27180560558E+02  0.38459021261E+02  0.00000000000E+00 0.  1.
         11    1    1    2    0    0  0.50726192373E+02  0.30706831483E+02  0.24630820851E+03  0.25334519864E+03  0.00000000000E+00 0. -1.
</event>
<event>
 6    1  0.9216756E-006  0.1183642E+03  0.7561462E-02  0.1245820E+00
         -1   -1    0    0    0  501 -0.00000000000E+00  0.00000000000E+00  0.98828945098E+02  0.98828945098E+02  0.00000000000E+00 0.  1.
          1   -1    0    0  501    0  0.00000000000E+00 -0.00000000000E+00 -0.17024995276E+03  0.17024995276E+03  0.00000000000E+00 0. -1.
          5    1    1    2  502    0  0.23653535973E+02  0.64369631263E+02 -0.14553605742E+02  0.70229758885E+02  0.41800000000E+01 0. -1.
         -5    1    1    2    0  502 -0.39762008437E+01 -0.80350864963E+02  0.15008608772E+02  0.81943897947E+02  0.41800000000E+01 0.  1.
        -11    1    1    2    0    0 -0.20359591964E+01 -0.34206692775E+02 -0.10842960686E+02  0.35941796796E+02  0.00000000000E+00 0.  1.
         11    1    1    2    0    0 -0.17641375933E+02  0.50187926475E+02 -0.61033050011E+02  0.80963444235E+02  0.00000000000E+00 0. -1.
</event>
<event>
 6    1  0.9216756E-006  0.1234901E+03  0.7561462E-02  0.1237448E+00
         -2   -1    0    0    0  501 -0.00000000000E+00  0.00000000000E+00  0.53176827252E+02  0.53176827252E+02  0.00000000000E+00 0.  1.
          2   -1    0    0  501    0  0.00000000000E+00 -0.00000000000E+00 -0.16899568317E+04  0.16899568317E+04  0.00000000000E+00 0. -1.
          5    1    1    2  502    0  0.22557357230E+02 -0.15792104550E+02 -0.12645547108E+04  0.12648613813E+04  0.41800000000E+01 0. -1.
         -5    1    1    2    0  502 -0.95095594176E+02 -0.14387002851E+02 -0.12613348781E+02  0.97091332518E+02  0.41800000000E+01 0.  1.
        -11    1    1    2    0    0  0.86254537469E+02  0.49283897960E+02 -0.24877776587E+03  0.26787893651E+03  0.00000000000E+00 0. -1.
         11    1    1    2    0    0 -0.13716300523E+02 -0.19104790560E+02 -0.11083417898E+03  0.11330200860E+03  0.00000000000E+00 0.  1.
</event>
<event>
 6    1  0.9216756E-006  0.3091853E+03  0.7561462E-02  0.1080737E+00
         -1   -1    0    0    0  501 -0.00000000000E+00  0.00000000000E+00  0.10120425111E+03  0.10120425111E+03  0.00000000000E+00 0.  1.
          1   -1    0    0  501    0  0.00000000000E+00 -0.00000000000E+00 -0.99168617420E+03  0.99168617420E+03  0.00000000000E+00 0. -1.
          5    1    1    2  502    0  0.24177677570E+02  0.70406823266E+02 -0.17647322356E+03  0.19157753493E+03  0.41800000000E+01 0.  1.
         -5    1    1    2    0  502  0.19308334742E+03  0.13128735258E+03 -0.24210508826E+03  0.33637760651E+03  0.41800000000E+01 0.  1.
        -11    1    1    2    0    0 -0.10402539309E+03 -0.15745036783E+03 -0.29892359025E+03  0.35350702050E+03  0.00000000000E+00 0.  1.
         11    1    1    2    0    0 -0.11323563191E+03 -0.44243808016E+02 -0.17298002102E+03  0.21142826337E+03  0.00000000000E+00 0. -1.
</event>
<event>
 6    1  0.9216756E-006  0.1604726E+03  0.7561462E-02  0.1188164E+00
         -1   -1    0    0    0  501 -0.00000000000E+00  0.00000000000E+00  0.49432082278E+03  0.49432082278E+03  0.00000000000E+00 0.  1.
          1   -1    0    0  501    0  0.00000000000E+00 -0.00000000000E+00 -0.84030256854E+02  0.84030256854E+02  0.00000000000E+00 0. -1.
          5    1    1    2  502    0  0.44230253677E+02 -0.14114165946E+02  0.12646065328E+02  0.48300314584E+02  0.41800000000E+01 0. -1.
         -5    1    1    2    0  502  0.10569941684E+03  0.12153475415E+02  0.32201528253E+03  0.33916277547E+03  0.41800000000E+01 0. -1.
        -11    1    1    2    0    0 -0.79690832697E+02  0.38693359878E+02  0.67170129825E+02  0.11117387848E+03  0.00000000000E+00 0.  1.
         11    1    1    2    0    0 -0.70238837816E+02 -0.36732669347E+02  0.84590882451E+01  0.79714111104E+02  0.00000000000E+00 0. -1.
</event>
<event>
 6    1  0.9216756E-006  0.1083582E+03  0.7561462E-02  0.1263641E+00
         -1   -1    0    0    0  501 -0.00000000000E+00  0.00000000000E+00  0.45099409360E+02  0.45099409360E+02  0.00000000000E+00 0.  1.
          1   -1    0    0  501    0  0.00000000000E+00 -0.00000000000E+00 -0.26633655380E+03  0.26633655380E+03  0.00000000000E+00 0. -1.
          5    1    1    2  502    0 -0.50593585864E+02  0.49517146829E+02 -0.89922605682E+02  0.11452164063E+03  0.41800000000E+01 0.  1.
         -5    1    1    2    0  502  0.29853335963E+02 -0.44474331655E+02 -0.39086890630E+02  0.66441291855E+02  0.41800000000E+01 0.  1.
        -11    1    1    2    0    0 -0.30931360147E+02  0.17677200899E+02 -0.31382060763E+02  0.47477007171E+02  0.00000000000E+00 0. -1.
         11    1    1    2    0    0  0.51671610047E+02 -0.22720016073E+02 -0.60845587370E+02  0.82996023505E+02  0.00000000000E+00 0.  1.
</event>
<event>
 6    1  0.9216756E-006  0.7863807E+02  0.7561462E-02  0.1332961E+00
          1   -1    0    0  501    0  0.00000000000E+00  0.00000000000E+00  0.13740125877E+02  0.13740125877E+02  0.00000000000E+00 0. -1.
         -1   -1    0    0    0  501 -0.00000000000E+00 -0.00000000000E+00 -0.11788852494E+04  0.11788852494E+04  0.00000000000E+00 0.  1.
          5    1    1    2  502    0  0.35673439913E+02 -0.94876377973E+01 -0.85584469674E+03  0.85665058626E+03  0.41800000000E+01 0.  1.
         -5    1    1    2    0  502 -0.40575184816E+01 -0.23233482836E+02 -0.26676255149E+02  0.35851822404E+02  0.41800000000E+01 0.  1.
        -11    1    1    2    0    0  0.24698867063E+02  0.31260419266E+02 -0.16446844605E+03  0.16922505013E+03  0.00000000000E+00 0.  1.
         11    1    1    2    0    0 -0.56314788495E+02  0.14607013672E+01 -0.11815572556E+03  0.13089791646E+03  0.00000000000E+00 0. -1.
</event>
<event>
 6    1  0.9216756E-006  0.1046142E+03  0.7561462E-02  0.1270882E+00
          2   -1    0    0  501    0  0.00000000000E+00  0.00000000000E+00  0.46158781547E+02  0.46158781547E+02  0.00000000000E+00 0. -1.
         -2   -1    0    0    0  501 -0.00000000000E+00 -0.00000000000E+00 -0.42437613331E+03  0.42437613331E+03  0.00000000000E+00 0.  1.
          5    1    1    2  502    0  0.49875015530E+02  0.23990968561E+02 -0.19469018885E+03  0.20244709379E+03  0.41800000000E+01 0.  1.
         -5    1    1    2    0  502  0.23567198974E+02  0.24069211991E+02  0.11747867603E+02  0.35919696916E+02  0.41800000000E+01 0.  1.
        -11    1    1    2    0    0 -0.41192018365E+02  0.19004971139E+02 -0.42177621226E+02  0.61942901428E+02  0.00000000000E+00 0. -1.
         11    1    1    2    0    0 -0.32250196139E+02 -0.67065151691E+02 -0.15309740928E+03  0.17022522272E+03  0.00000000000E+00 0.  1.
</event>
<event>
 6    1  0.9216756E-006  0.1219364E+03  0.7561462E-02  0.1239936E+00
         -2   -1    0    0    0  501 -0.00000000000E+00  0.00000000000E+00  0.14390320651E+03  0.14390320651E+03  0.00000000000E+00 0. -1.
          2   -1    0    0  501    0  0.00000000000E+00 -0.00000000000E+00 -0.16564082647E+03  0.16564082647E+03  0.00000000000E+00 0.  1.
          5    1    1    2  502    0  0.11880237748E+02 -0.40367210500E+02  0.64411307433E+02  0.77051545460E+02  0.41800000000E+01 0.  1.
         -5    1    1    2    0  502 -0.57095553826E+02 -0.52932694940E+02 -0.39358588675E+02  0.87340387924E+02  0.41800000000E+01 0.  1.
        -11    1    1    2    0    0  0.32975140699E+01 -0.10854294428E+02  0.13566051521E+02  0.17684090602E+02  0.00000000000E+00 0. -1.
         11    1    1    2    0    0  0.41917802008E+02  0.10415419987E+03 -0.60356390231E+02  0.12746800899E+03  0.00000000000E+00 0.  1.
</event>
<event>
 6    1  0.9216756E-006  0.1061880E+03  0.7561462E-02  0.1267797E+00
         -2   -1    0    0    0  501 -0.00000000000E+00  0.00000000000E+00  0.30439222342E+02  0.30439222342E+02  0.00000000000E+00 0.  1.
          2   -1    0    0  501    0  0.00000000000E+00 -0.00000000000E+00 -0.40644524323E+03  0.40644524323E+03  0.00000000000E+00 0. -1.
          5    1    1    2  502    0  0.39589327651E+02 -0.49826464068E+02 -0.71161682624E+02  0.95558614783E+02  0.41800000000E+01 0.  1.
         -5    1    1    2    0  502 -0.47665676047E+02  0.36019422485E+02 -0.10871213079E+03  0.12411774752E+03  0.41800000000E+01 0.  1.
        -11    1    1    2    0    0 -0.71671511246E+01  0.49437501559E+02 -0.75724332188E+02  0.90717192973E+02  0.00000000000E+00 0.  1.
         11    1    1    2    0    0  0.15243499521E+02 -0.35630459976E+02 -0.12040787528E+03  0.12649091029E+03  0.00000000000E+00 0. -1.
</event>
<event>
 6    1  0.9216756E-006  0.6676347E+02  0.7561462E-02  0.1371458E+00
          1   -1    0    0  501    0  0.00000000000E+00  0.00000000000E+00  0.41389947513E+03  0.41389947513E+03  0.00000000000E+00 0. -1.
         -1   -1    0    0    0  501 -0.00000000000E+00 -0.00000000000E+00 -0.39550396241E+02  0.39550396241E+02  0.00000000000E+00 0.  1.
          5    1    1    2  502    0 -0.20858199645E+02 -0.74668991747E+01 -0.25115352580E+02  0.33750146828E+02  0.41800000000E+01 0.  1.
         -5    1    1    2    0  502  0.77215510946E+01  0.31346655501E+02  0.12347973741E+03  0.12769868093E+03  0.41800000000E+01 0.  1.
        -11    1    1    2    0    0 -0.66540781185E+00 -0.49405616871E+02  0.24341574581E+03  0.24837991677E+03  0.00000000000E+00 0. -1.
         11    1    1    2    0    0  0.13802056362E+02  0.25525860545E+02  0.32568948249E+02  0.43621126836E+02  0.00000000000E+00 0.  1.
</event>
<event>
 6    1  0.9216756E-006  0.1455301E+03  0.7561462E-02  0.1206076E+00
         -3   -1    0    0    0  501 -0.00000000000E+00  0.00000000000E+00  0.13024946210E+03  0.13024946210E+03  0.00000000000E+00 0.  1.
          3   -1    0    0  501    0  0.00000000000E+00 -0.00000000000E+00 -0.22313971457E+03  0.22313971457E+03  0.00000000000E+00 0. -1.
          5    1    1    2  502    0 -0.18136949158E+02 -0.29769174517E+01 -0.24836477152E+02  0.31179062840E+02  0.41800000000E+01 0. -1.
         -5    1    1    2    0  502  0.12797025836E+03  0.27661365278E+02  0.44049016691E+02  0.13820031269E+03  0.41800000000E+01 0. -1.
        -11    1    1    2    0    0 -0.15230080461E+02 -0.42327888560E+02 -0.58688340321E+02  0.73945431167E+02  0.00000000000E+00 0.  1.
         11    1    1    2    0    0 -0.94603228747E+02  0.17643440733E+02 -0.53414451690E+02  0.11006436998E+03  0.00000000000E+00 0. -1.
</event>
<event>
 6    1  0.9216756E-006  0.1541589E+03  0.7561462E-02  0.1195454E+00
         -2   -1    0    0    0  501 -0.00000000000E+00  0.00000000000E+00  0.12884781406E+03  0.12884781406E+03  0.00000000000E+00 0.  1.
          2   -1    0    0  501    0  0.00000000000E+00 -0.00000000000E+00 -0.24816182588E+03  0.24816182588E+03  0.00000000000E+00 0. -1.
          5    1    1    2  502    0  0.34709548454E+02  0.11655631760E+03  0.19056358967E+02  0.12316957881E+03  0.41800000000E+01 0. -1.
         -5    1    1    2    0  502 -0.74192684963E+02 -0.69927728966E+02 -0.54690530230E+02  0.11577118932E+03  0.41800000000E+01 0.  1.
        -11    1    1    2    0    0 -0.15346360767E+02 -0.65964717578E+01 -0.65769508394E+02  0.67857589574E+02  0.00000000000E+00 0. -1.
         11    1    1    2    0    0  0.54829497276E+02 -0.40032116879E+02 -0.17910332164E+02  0.70211282224E+02  0.00000000000E+00 0.  1.
</event>
<event>
 6    1  0.9216756E-006  0.7613885E+02  0.7561462E-02  0.1340380E+00
          1   -1    0    0  501    0  0.00000000000E+00  0.00000000000E+00  0.69741798210E+03  0.69741798210E+03  0.00000000000E+00 0. -1.
         -1   -1    0    0    0  501 -0.00000000000E+00 -0.00000000000E+00 -0.18459396236E+02  0.18459396236E+02  0.00000000000E+00 0.  1.
          5    1    1    2  502    0  0.30121616044E+02 -0.15873942791E+02  0.30583654087E+03  0.30775437599E+03  0.41800000000E+01 0. -1.
         -5    1    1    2    0  502 -0.10065367952E+02  0.21488168615E+02  0.84254429209E+00  0.24108822106E+02  0.41800000000E+01 0. -1.
        -11    1    1    2    0    0 -0.15411569158E+02  0.42672364130E+02  0.19593168402E+03  0.20111606581E+03  0.00000000000E+00 0. -1.
         11    1    1    2    0    0 -0.46446789329E+01 -0.48286589954E+02  0.17634781669E+03  0.18289811443E+03  0.00000000000E+00 0.  1.
</event>
<event>
 6    1  0.9216756E-006  0.8697349E+02  0.7561462E-02  0.1310351E+00
         -4   -1    0    0    0  501 -0.00000000000E+00  0.00000000000E+00  0.30204551987E+02  0.30204551987E+02  0.00000000000E+00 0.  1.
          4   -1    0    0  501    0  0.00000000000E+00 -0.00000000000E+00 -0.51168746506E+03  0.51168746506E+03  0.00000000000E+00 0. -1.
          5    1    1    2  502    0  0.12003437823E+02 -0.57249615478E+02 -0.20737361720E+03  0.21550612637E+03  0.41800000000E+01 0. -1.
         -5    1    1    2    0  502 -0.14049688379E+02  0.73924288207E+01  0.13015241999E+02  0.20950195028E+02  0.41800000000E+01 0. -1.
        -11    1    1    2    0    0 -0.21067633319E+02  0.66919328880E+02 -0.24180643386E+03  0.25177846057E+03  0.00000000000E+00 0. -1.
         11    1    1    2    0    0  0.23113883875E+02 -0.17062142222E+02 -0.45318104011E+02  0.53657235078E+02  0.00000000000E+00 0.  1.
</event>
<event>
 6    1  0.9216756E-006  0.8939938E+02  0.7561462E-02  0.1304313E+00
         -2   -1    0    0    0  501 -0.00000000000E+00  0.00000000000E+00  0.60627610946E+03  0.60627610946E+03  0.00000000000E+00 0.  1.
          2   -1    0    0  501    0  0.00000000000E+00 -0.00000000000E+00 -0.29771726093E+02  0.29771726093E+02  0.00000000000E+00 0. -1.
          5    1    1    2  502    0 -0.34792882469E+01 -0.75830486788E+02  0.43387215260E+03  0.44048255967E+03  0.41800000000E+01 0. -1.
         -5    1    1    2    0  502 -0.52347888855E+01  0.32266367965E+02  0.41043391280E+02  0.52636051183E+02  0.41800000000E+01 0. -1.
        -11    1    1    2    0    0 -0.20960339086E+02  0.57176504246E+01 -0.80789742460E+01  0.23179671392E+02  0.00000000000E+00 0. -1.
         11    1    1    2    0    0  0.29674416219E+02  0.37846468398E+02  0.10966781374E+03  0.11974955331E+03  0.00000000000E+00 0.  1.
</event>
<event>
 6    1  0.9216756E-006  0.8984315E+02  0.7561462E-02  0.1303232E+00
          4   -1    0    0  501    0  0.00000000000E+00  0.00000000000E+00  0.96218799312E+02  0.96218799312E+02  0.00000000000E+00 0. -1.
         -4   -1    0    0    0  501 -0.00000000000E+00 -0.00000000000E+00 -0.11976688163E+03  0.11976688163E+03  0.00000000000E+00 0.  1.
          5    1    1    2  502    0 -0.18884768688E+02  0.45309527622E+02 -0.53061014210E+02  0.72405327226E+02  0.41800000000E+01 0.  1.
         -5    1    1    2    0  502  0.30265070766E+02 -0.32122241200E+02  0.33279876685E+02  0.55433162280E+02  0.41800000000E+01 0.  1.
        -11    1    1    2    0    0  0.36803131910E+02 -0.76410647384E+01 -0.10870185382E+02  0.39128216404E+02  0.00000000000E+00 0.  1.
         11    1    1    2    0    0 -0.48183433988E+02 -0.55462216837E+01  0.71032405928E+01  0.49018975027E+02  0.00000000000E+00 0. -1.
</event>
<event>
 6    1  0.9216756E-006  0.1173486E+03  0.7561462E-02  0.1247536E+00
          3   -1    0    0  501    0  0.00000000000E+00  0.00000000000E+00  0.47852008305E+02  0.47852008305E+02  0.00000000000E+00 0. -1.
         -3   -1    0    0    0  501 -0.00000000000E+00 -0.00000000000E+00 -0.54625088434E+03  0.54625088434E+03  0.00000000000E+00 0.  1.
          5    1    1    2  502    0  0.13510829810E+00  0.74032493082E+02 -0.26346383252E+03  0.27369963780E+03  0.41800000000E+01 0.  1.
         -5    1    1    2    0  502  0.66204719560E+02 -0.27210502305E+02 -0.16248579351E+03  0.17760231367E+03  0.41800000000E+01 0.  1.
        -11    1    1    2    0    0 -0.45051440930E+01 -0.21600927702E+02 -0.72746930799E+02  0.76019815453E+02  0.00000000000E+00 0.  1.
         11    1    1    2    0    0 -0.61834683765E+02 -0.25221063075E+02  0.29768079307E+00  0.66781125723E+02  0.00000000000E+00 0. -1.
</event>
<event>
 6    1  0.9216756E-006  0.1092172E+03  0.7561462E-02  0.1262026E+00
         -1   -1    0    0    0  501 -0.00000000000E+00  0.00000000000E+00  0.86699816625E+02  0.86699816625E+02  0.00000000000E+00 0.  1.
          1   -1    0    0  501    0  0.00000000000E+00 -0.00000000000E+00 -0.16002814293E+03  0.16002814293E+03  0.00000000000E+00 0. -1.
          5    1    1    2  502    0 -0.19905197156E+01  0.73473065316E+02 -0.32448844252E+02  0.80452802245E+02  0.41800000000E+01 0. -1.
         -5    1    1    2    0  502 -0.14057098688E+02 -0.43588328876E+02  0.19179483082E+02  0.49828399623E+02  0.41800000000E+01 0. -1.
        -11    1    1    2    0    0 -0.60399982353E+01  0.32287288072E+02 -0.12640211941E+02  0.35195532496E+02  0.00000000000E+00 0. -1.
         11    1    1    2    0    0  0.22087616639E+02 -0.62172024512E+02 -0.47418753192E+02  0.81251225191E+02  0.00000000000E+00 0.  1.
</event>
<event>
 6    1  0.9216756E-006  0.1345409E+03  0.7561462E-02  0.1220869E+00
         -1   -1    0    0    0  501 -0.00000000000E+00  0.00000000000E+00  0.10275897574E+03  0.10275897574E+03  0.00000000000E+00 0.  1.
          1   -1    0    0  501    0  0.00000000000E+00 -0.00000000000E+00 -0.25207919939E+03  0.25207919939E+03  0.00000000000E+00 0. -1.
          5    1    1    2  502    0 -0.33643351861E+02  0.78319176524E+01 -0.81358973297E+02  0.88487112024E+02  0.41800000000E+01 0.  1.
         -5    1    1    2    0  502  0.38232640582E+01  0.10567891423E+03 -0.11215928266E+02  0.10642330434E+03  0.41800000000E+01 0.  1.
        -11    1    1    2    0    0  0.82664043103E+01 -0.10493354861E+03 -0.75400016074E+01  0.10552835964E+03  0.00000000000E+00 0.  1.
         11    1    1    2    0    0  0.21553683492E+02 -0.85772832658E+01 -0.49205320484E+02  0.54399399117E+02  0.00000000000E+00 0. -1.
</event>
<event>
 6    1  0.9216756E-006  0.8878476E+02  0.7561462E-02  0.1305822E+00
          2   -1    0    0  501    0  0.00000000000E+00  0.00000000000E+00  0.19994284741E+03  0.19994284741E+03  0.00000000000E+00 0. -1.
         -2   -1    0    0    0  501 -0.00000000000E+00 -0.00000000000E+00 -0.67833498355E+02  0.67833498355E+02  0.00000000000E+00 0.  1.
          5    1    1    2  502    0 -0.50944977680E+02 -0.28810408636E+02  0.62181579689E+02  0.85495331155E+02  0.41800000000E+01 0. -1.
         -5    1    1    2    0  502  0.46904559939E+02 -0.27678067586E+01 -0.18650907581E+02  0.50725016027E+02  0.41800000000E+01 0. -1.
        -11    1    1    2    0    0  0.34190853360E+02  0.18248798208E+02  0.90587037062E+02  0.98529408672E+02  0.00000000000E+00 0. -1.
         11    1    1    2    0    0 -0.30150435619E+02  0.13329417187E+02 -0.20083601182E+01  0.33026589908E+02  0.00000000000E+00 0.  1.
</event>
<event>
 6    1  0.9216756E-006  0.8414546E+02  0.7561462E-02  0.1317683E+00
         -2   -1    0    0    0  501 -0.00000000000E+00  0.00000000000E+00  0.22144146163E+03  0.22144146163E+03  0.00000000000E+00 0.  1.
          2   -1    0    0  501    0  0.00000000000E+00 -0.00000000000E+00 -0.13294925477E+03  0.13294925477E+03  0.00000000000E+00 0. -1.
          5    1    1    2  502    0 -0.41103556592E+02 -0.21286596456E+02 -0.11095691867E+02  0.47782929287E+02  0.41800000000E+01 0. -1.
         -5    1    1    2    0  502  0.57599892433E+01 -0.32447552155E+01  0.16398109039E+03  0.16416752516E+03  0.41800000000E+01 0.  1.
        -11    1    1    2    0    0  0.20764093491E+02 -0.41481816934E+02  0.36384305085E+01  0.46530924032E+02  0.00000000000E+00 0.  1.
         11    1    1    2    0    0  0.14579473858E+02  0.66013168606E+02 -0.68031622161E+02  0.95909337925E+02  0.00000000000E+00 0. -1.
</event>
<event>
 6    1  0.9216756E-006  0.1359859E+03  0.7561462E-02  0.1218835E+00
          1   -1    0    0  501    0  0.00000000000E+00  0.00000000000E+00  0.10523145805E+03  0.10523145805E+03  0.00000000000E+00 0. -1.
         -1   -1    0    0    0  501 -0.00000000000E+00 -0.00000000000E+00 -0.19085260373E+03  0.19085260373E+03  0.00000000000E+00 0.  1.
          5    1    1    2  502    0 -0.13471941478E+01  0.11415644710E+03 -0.68306337347E+02  0.13310423535E+03  0.41800000000E+01 0.  1.
         -5    1    1    2    0  502  0.21307536154E+02 -0.29501044921E+02 -0.88550540995E+01  0.37685635612E+02  0.41800000000E+01 0.  1.
        -11    1    1    2    0    0  0.13268553110E+02 -0.86794461726E+02 -0.20002872729E+02  0.90052473621E+02  0.00000000000E+00 0.  1.
         11    1    1    2    0    0 -0.33228895116E+02  0.21390595462E+01  0.11543118488E+02  0.35241717194E+02  0.00000000000E+00 0. -1.
</event>
<event>
 6    1  0.9216756E-006  0.9443809E+02  0.7561462E-02  0.1292447E+00
         -1   -1    0    0    0  501 -0.00000000000E+00  0.00000000000E+00  0.96061236515E+02  0.96061236515E+02  0.00000000000E+00 0.  1.
          1   -1    0    0  501    0  0.00000000000E+00 -0.00000000000E+00 -0.21866314868E+03  0.21866314868E+03  0.00000000000E+00 0. -1.
          5    1    1    2  502    0 -0.22592142416E+02  0.22699094736E+02 -0.56150809811E+02  0.64776844962E+02  0.41800000000E+01 0. -1.
         -5    1    1    2    0  502 -0.57144379904E+02 -0.46009136503E+02  0.44385568179E+02  0.85847957803E+02  0.41800000000E+01 0. -1.
        -11    1    1    2    0    0  0.55124658486E+02  0.17023115326E+02 -0.80880058215E+01  0.58257448166E+02  0.00000000000E+00 0.  1.
         11    1    1    2    0    0  0.24611863834E+02  0.62869264408E+01 -0.10274866471E+03  0.10584213427E+03  0.00000000000E+00 0. -1.
</event>
<event>
 6    1  0.9216756E-006  0.1592506E+03  0.7561462E-02  0.1189545E+00
          1   -1    0    0  501    0  0.00000000000E+00  0.00000000000E+00  0.34225581585E+03  0.34225581585E+03  0.00000000000E+00 0. -1.
         -1   -1    0    0    0  501 -0.00000000000E+00 -0.00000000000E+00 -0.10372826535E+03  0.10372826535E+03  0.00000000000E+00 0.  1.
          5    1    1    2  502    0  0.10707344225E+03  0.69989668051E+02  0.11406489401E+03  0.17143963402E+03  0.41800000000E+01 0.  1.
         -5    1    1    2    0  502  0.73019453113E+01  0.24213698042E+02 -0.30391438572E+02  0.39758439566E+02  0.41800000000E+01 0.  1.
        -11    1    1    2    0    0 -0.10079944528E+03 -0.39080718557E+02  0.13851695518E+03  0.17571220107E+03  0.00000000000E+00 0. -1.
         11    1    1    2    0    0 -0.13575942278E+02 -0.55122647535E+02  0.16337139881E+02  0.59073806543E+02  0.00000000000E+00 0.  1.
</event>
<event>
 6    1  0.9216756E-006  0.1491957E+03  0.7561462E-02  0.1201465E+00
         -1   -1    0    0    0  501 -0.00000000000E+00  0.00000000000E+00  0.94568713774E+03  0.94568713774E+03  0.00000000000E+00 0.  1.
          1   -1    0    0  501    0  0.00000000000E+00 -0.00000000000E+00 -0.31513752212E+02  0.31513752212E+02  0.00000000000E+00 0. -1.
          5    1    1    2  502    0  0.98410237275E+02 -0.55259579543E+02  0.34520978253E+03  0.36321544885E+03  0.41800000000E+01 0. -1.
         -5    1    1    2    0  502 -0.26017202423E+02 -0.33138130423E+02  0.34007809177E+03  0.34270338692E+03  0.41800000000E+01 0. -1.
        -11    1    1    2    0    0 -0.36452393866E+01  0.72446859482E+02  0.14102426231E+03  0.15858649936E+03  0.00000000000E+00 0.  1.
         11    1    1    2    0    0 -0.68747795466E+02  0.15950850483E+02  0.87861248919E+02  0.11269555481E+03  0.00000000000E+00 0. -1.
</event>
<event>
 6    1  0.9216756E-006  0.1170494E+03  0.7561462E-02  0.1248045E+00
          2   -1    0    0  501    0  0.00000000000E+00  0.00000000000E+00  0.46739531855E+03  0.46739531855E+03  0.00000000000E+00 0. -1.
         -2   -1    0    0    0  501 -0.00000000000E+00 -0.00000000000E+00 -0.29855030872E+02  0.29855030872E+02  0.00000000000E+00 0.  1.
          5    1    1    2  502    0  0.43577424490E+02  0.54882675979E+02  0.12469268058E+03  0.14309729920E+03  0.41800000000E+01 0. -1.
         -5    1    1    2    0  502 -0.60485145757E+02 -0.13782004693E+02  0.92726803513E+02  0.11164286363E+03  0.41800000000E+01 0. -1.
        -11    1    1    2    0    0 -0.30598946648E+00  0.29270969522E+02  0.67019803987E+02  0.73133695468E+02  0.00000000000E+00 0.  1.
         11    1    1    2    0    0  0.17213710733E+02 -0.70371640808E+02  0.15310099960E+03  0.16937649113E+03  0.00000000000E+00 0. -1.
</event>
<event>
 6    1  0.9216756E-006  0.1145791E+03  0.7561462E-02  0.1252318E+00
          2   -1    0    0  501    0  0.00000000000E+00  0.00000000000E+00  0.22193682267E+03  0.22193682267E+03  0.00000000000E+00 0. -1.
         -2   -1    0    0    0  501 -0.00000000000E+00 -0.00000000000E+00 -0.79072773800E+02  0.79072773800E+02  0.00000000000E+00 0.  1.
          5    1    1    2  502    0  0.46115227843E+02 -0.98588913711E+02  0.15713611965E+02  0.11004898067E+03  0.41800000000E+01 0. -1.
         -5    1    1    2    0  502 -0.22420414457E+02  0.21836390570E+02  0.34729558361E+02  0.46937379150E+02  0.41800000000E+01 0. -1.
        -11    1    1    2    0    0 -0.32964541249E+02  0.46344662738E+02  0.12806181184E+02  0.58296543813E+02  0.00000000000E+00 0.  1.
         11    1    1    2    0    0  0.92697278636E+01  0.30407860403E+02  0.79614697364E+02  0.85726692840E+02  0.00000000000E+00 0. -1.
</event>
<event>
 6    1  0.9216756E-006  0.1261644E+03  0.7561462E-02  0.1233261E+00
          1   -1    0    0  501    0  0.00000000000E+00  0.00000000000E+00  0.63185442105E+03  0.63185442105E+03  0.00000000000E+00 0. -1.
         -1   -1    0    0    0  501 -0.00000000000E+00 -0.00000000000E+00 -0.27596642147E+02  0.27596642147E+02  0.00000000000E+00 0.  1.
          5    1    1    2  502    0 -0.92350791219E+01 -0.70556995726E+02  0.16895368062E+03  0.18337501173E+03  0.41800000000E+01 0. -1.
         -5    1    1    2    0  502  0.63711130505E+02  0.25568317878E+02  0.97133742409E+02  0.11901799588E+03  0.41800000000E+01 0. -1.
        -11    1    1    2    0    0 -0.23264842328E+02  0.69048013694E+02  0.25164526702E+03  0.26198133807E+03  0.00000000000E+00 0.  1.
         11    1    1    2    0    0 -0.31211209055E+02 -0.24059335846E+02  0.86525088850E+02  0.95076717510E+02  0.00000000000E+00 0. -1.
</event>
<event>
 6    1  0.9216756E-006  0.1298296E+03  0.7561462E-02  0.1227709E+00
         -2   -1    0    0    0  501 -0.00000000000E+00  0.00000000000E+00  0.48565688990E+02  0.48565688990E+02  0.00000000000E+00 0. -1.
          2   -1    0    0  501    0  0.00000000000E+00 -0.00000000000E+00 -0.62346624505E+03  0.62346624505E+03  0.00000000000E+00 0.  1.
          5    1    1    2  502    0 -0.28167650574E+02  0.55412328765E+02 -0.96851321744E+01  0.63049321195E+02  0.41800000000E+01 0.  1.
         -5    1    1    2    0  502 -0.56078403374E+02 -0.51057551929E+02 -0.90048344342E+02  0.11780423444E+03  0.41800000000E+01 0.  1.
        -11    1    1    2    0    0  0.25576259217E+02 -0.43789948317E+02 -0.25312210691E+03  0.25815209783E+03  0.00000000000E+00 0. -1.
         11    1    1    2    0    0  0.58669794731E+02  0.39435171482E+02 -0.22204497264E+03  0.23302628057E+03  0.00000000000E+00 0.  1.
</event>
<event>
 6    1  0.9216756E-006  0.1057890E+03  0.7561462E-02  0.1268573E+00
          2   -1    0    0  501    0  0.00000000000E+00  0.00000000000E+00  0.43141312418E+03  0.43141312418E+03  0.00000000000E+00 0. -1.
         -2   -1    0    0    0  501 -0.00000000000E+00 -0.00000000000E+00 -0.37237641891E+02  0.37237641891E+02  0.00000000000E+00 0.  1.
          5    1    1    2  502    0 -0.97403320585E+01 -0.65410230350E+02  0.10505680779E+03  0.12420860504E+03  0.41800000000E+01 0. -1.
         -5    1    1    2    0  502  0.31500595403E+02  0.37421814850E+02  0.11524969133E+02  0.50427939190E+02  0.41800000000E+01 0. -1.
        -11    1    1    2    0    0 -0.29477073942E+02  0.58092846621E+02  0.20331193682E+03  0.21349337313E+03  0.00000000000E+00 0. -1.
         11    1    1    2    0    0  0.77168105979E+01 -0.30104431121E+02  0.74281768547E+02  0.80520848712E+02  0.00000000000E+00 0.  1.
</event>
<event>
 6    1  0.9216756E-006  0.1201214E+03  0.7561462E-02  0.1242897E+00
          4   -1    0    0  501    0  0.00000000000E+00  0.00000000000E+00  0.16990239446E+03  0.16990239446E+03  0.00000000000E+00 0.  1.
         -4   -1    0    0    0  501 -0.00000000000E+00 -0.00000000000E+00 -0.19633338693E+03  0.19633338693E+03  0.00000000000E+00 0. -1.
          5    1    1    2  502    0 -0.18457805347E+02  0.95714234094E+02 -0.67394498464E+02  0.11858075733E+03  0.41800000000E+01 0.  1.
         -5    1    1    2    0  502  0.51589067779E+02 -0.13489618423E+02 -0.63387576576E+02  0.82938887042E+02  0.41800000000E+01 0.  1.
        -11    1    1    2    0    0 -0.17189908573E+02 -0.55175773630E+02  0.11729223508E+03  0.13075674882E+03  0.00000000000E+00 0.  1.
         11    1    1    2    0    0 -0.15941353859E+02 -0.27048842040E+02 -0.12941152508E+02  0.33959388198E+02  0.00000000000E+00 0. -1.
</event>
<event>
 6    1  0.9216756E-006  0.2180452E+03  0.7561462E-02  0.1135349E+00
         -1   -1    0    0    0  501 -0.00000000000E+00  0.00000000000E+00  0.22107865068E+03  0.22107865068E+03  0.00000000000E+00 0.  1.
          1   -1    0    0  501    0  0.00000000000E+00 -0.00000000000E+00 -0.37619109247E+03  0.37619109247E+03  0.00000000000E+00 0. -1.
          5    1    1    2  502    0  0.59691669986E+02 -0.19300466158E+03  0.10037027599E+03  0.22562260427E+03  0.41800000000E+01 0.  1.
         -5    1    1    2    0  502  0.29493165075E+02  0.12737555745E+02  0.21863584428E+01  0.32470674089E+02  0.41800000000E+01 0.  1.
        -11    1    1    2    0    0 -0.64639616911E+02  0.11540642466E+03 -0.96544714466E+02  0.16376142653E+03  0.00000000000E+00 0.  1.
         11    1    1    2    0    0 -0.24545218151E+02  0.64860681173E+02 -0.16112436175E+03  0.17541503826E+03  0.00000000000E+00 0. -1.
</event>
<event>
 6    1  0.9216756E-006  0.1235104E+03  0.7561462E-02  0.1237416E+00
         -1   -1    0    0    0  501 -0.00000000000E+00  0.00000000000E+00  0.50313062193E+02  0.50313062193E+02  0.00000000000E+00 0.  1.
          1   -1    0    0  501    0  0.00000000000E+00 -0.00000000000E+00 -0.45099840519E+03  0.45099840519E+03  0.00000000000E+00 0. -1.
          5    1    1    2  502    0 -0.18764426838E+02  0.96390982963E+02 -0.34793493642E+02  0.10426593361E+03  0.41800000000E+01 0. -1.
         -5    1    1    2    0  502  0.19429065407E+02 -0.57134924440E+01 -0.95862450168E+02  0.98067396879E+02  0.41800000000E+01 0. -1.
        -11    1    1    2    0    0  0.41854863026E+02 -0.68039440184E+02 -0.15855582678E+03  0.17754195331E+03  0.00000000000E+00 0.  1.
         11    1    1    2    0    0 -0.42519501595E+02 -0.22638050335E+02 -0.11147357241E+03  0.12143618359E+03  0.00000000000E+00 0. -1.
</event>
<event>
 6    1  0.9216756E-006  0.1371865E+03  0.7561462E-02  0.1217166E+00
          1   -1    0    0  501    0  0.00000000000E+00  0.00000000000E+00  0.27179501510E+03  0.27179501510E+03  0.00000000000E+00 0. -1.
         -1   -1    0    0    0  501 -0.00000000000E+00 -0.00000000000E+00 -0.84688801542E+02  0.84688801542E+02  0.00000000000E+00 0.  1.
          5    1    1    2  502    0 -0.31854406242E+01  0.50040310419E+02  0.74562112546E+01  0.50864989777E+02  0.41800000000E+01 0.  1.
         -5    1    1    2    0  502 -0.92696363855E+02 -0.52149937793E+02  0.40657438181E+02  0.11394179024E+03  0.41800000000E+01 0.  1.
        -11    1    1    2    0    0  0.72955922357E+02 -0.29393197991E+02  0.46641838011E+02  0.91443904926E+02  0.00000000000E+00 0.  1.
         11    1    1    2    0    0  0.22925882122E+02  0.31502825365E+02  0.92350726116E+02  0.10023313170E+03  0.00000000000E+00 0. -1.
</event>
<event>
 6    1  0.9216756E-006  0.1089686E+03  0.7561462E-02  0.1262492E+00
          2   -1    0    0  501    0  0.00000000000E+00  0.00000000000E+00  0.18634708946E+03  0.18634708946E+03  0.00000000000E+00 0. -1.
         -2   -1    0    0    0  501 -0.00000000000E+00 -0.00000000000E+00 -0.81017903044E+02  0.81017903044E+02  0.00000000000E+00 0.  1.
          5    1    1    2  502    0 -0.38060042831E+02 -0.82455406652E+02  0.13467141432E+02  0.91903739014E+02  0.41800000000E+01 0. -1.
         -5    1    1    2    0  502  0.29215529108E+02  0.30407230819E+02  0.25076819644E+02  0.49238867885E+02  0.41800000000E+01 0. -1.
        -11    1    1    2    0    0  0.34684092535E+02  0.11446662227E+02  0.68972371919E+02  0.78046143013E+02  0.00000000000E+00 0. -1.
         11    1    1    2    0    0 -0.25839578811E+02  0.40601513605E+02 -0.21871465783E+01  0.48176242593E+02  0.00000000000E+00 0.  1.
</event>
<event>
 6    1  0.9216756E-006  0.2210909E+03  0.7561462E-02  0.1133072E+00
          2   -1    0    0  501    0  0.00000000000E+00  0.00000000000E+00  0.19429948820E+04  0.19429948820E+04  0.00000000000E+00 0. -1.
         -2   -1    0    0    0  501 -0.00000000000E+00 -0.00000000000E+00 -0.27300491963E+02  0.27300491963E+02  0.00000000000E+00 0.  1.
          5    1    1    2  502    0  0.18575718970E+03  0.72807079292E+02  0.75638637680E+03  0.78226876950E+03  0.41800000000E+01 0. -1.
         -5    1    1    2    0  502  0.59648318997E+01 -0.24910876201E+02  0.39451258133E+02  0.47222930245E+02  0.41800000000E+01 0. -1.
        -11    1    1    2    0    0 -0.11256524649E+03  0.17593845860E+02  0.53568509876E+03  0.54766687243E+03  0.00000000000E+00 0. -1.
         11    1    1    2    0    0 -0.79156775108E+02 -0.65490048952E+02  0.58417165637E+03  0.59313680181E+03  0.00000000000E+00 0.  1.
</event>
<event>
 6    1  0.9216756E-006  0.2022020E+03  0.7561462E-02  0.1147894E+00
         -2   -1    0    0    0  501 -0.00000000000E+00  0.00000000000E+00  0.42868489262E+02  0.42868489262E+02  0.00000000000E+00 0.  1.
          2   -1    0    0  501    0  0.00000000000E+00 -0.00000000000E+00 -0.12439167491E+04  0.12439167491E+04  0.00000000000E+00 0. -1.
          5    1    1    2  502    0 -0.91971085729E+02  0.45178405536E+02 -0.19549666161E+03  0.22076273698E+03  0.41800000000E+01 0.  1.
         -5    1    1    2    0  502  0.88844732179E+01  0.10816118847E+03 -0.13429297241E+03  0.17271320561E+03  0.41800000000E+01 0.  1.
        -11    1    1    2    0    0  0.36982106364E+01 -0.94142366934E+02 -0.33561934016E+03  0.34859260392E+03  0.00000000000E+00 0.  1.
         11    1    1    2    0    0  0.79388401875E+02 -0.59197227070E+02 -0.53563928561E+03  0.54471669181E+03  0.00000000000E+00 0. -1.
</event>
<event>
 6    1  0.9216756E-006  0.1181129E+03  0.7561462E-02  0.1246243E+00
          1   -1    0    0  501    0  0.00000000000E+00  0.00000000000E+00  0.27949319551E+02  0.27949319551E+02  0.00000000000E+00 0. -1.
         -1   -1    0    0    0  501 -0.00000000000E+00 -0.00000000000E+00 -0.70822744871E+03  0.70822744871E+03  0.00000000000E+00 0.  1.
          5    1    1    2  502    0  0.43074941342E+02  0.50237761537E+02 -0.16725963181E+03  0.17992370630E+03  0.41800000000E+01 0. -1.
         -5    1    1    2    0  502 -0.78769891646E+02  0.24073407752E+01 -0.31512565451E+03  0.32485710959E+03  0.41800000000E+01 0.  1.
        -11    1    1    2    0    0  0.29759119750E+02  0.73977180506E+01 -0.73566028690E+01  0.31534917892E+02  0.00000000000E+00 0.  1.
         11    1    1    2    0    0  0.59358305542E+01 -0.60042820363E+02 -0.19053623997E+03  0.19986103448E+03  0.00000000000E+00 0. -1.
</event>
<event>
 6    1  0.9216756E-006  0.8157293E+02  0.7561462E-02  0.1324646E+00
          2   -1    0    0  501    0  0.00000000000E+00  0.00000000000E+00  0.88000556980E+02  0.88000556980E+02  0.00000000000E+00 0. -1.
         -2   -1    0    0    0  501 -0.00000000000E+00 -0.00000000000E+00 -0.27218533380E+03  0.27218533380E+03  0.00000000000E+00 0.  1.
          5    1    1    2  502    0  0.65061961267E+02  0.25433375042E+02 -0.21273126056E+03  0.22394637079E+03  0.41800000000E+01 0. -1.
         -5    1    1    2    0  502 -0.79051845198E+01  0.13707162781E+02  0.13549880529E+02  0.21247350803E+02  0.41800000000E+01 0. -1.
        -11    1    1    2    0    0 -0.40228935017E+02 -0.43568720987E+02 -0.30184671693E+02  0.66541078037E+02  0.00000000000E+00 0.  1.
         11    1    1    2    0    0 -0.16927841730E+02  0.44281831632E+01  0.45181274904E+02  0.48451091151E+02  0.00000000000E+00 0. -1.
</event>
<event>
 6    1  0.9216756E-006  0.7331274E+02  0.7561462E-02  0.1349177E+00
         -2   -1    0    0    0  501 -0.00000000000E+00  0.00000000000E+00  0.27182337571E+02  0.27182337571E+02  0.00000000000E+00 0.  1.
          2   -1    0    0  501    0  0.00000000000E+00 -0.00000000000E+00 -0.49932352770E+03  0.49932352770E+03  0.00000000000E+00 0. -1.
          5    1    1    2  502    0  0.45770011675E+02  0.13432146492E+02 -0.22406236086E+03  0.22912164996E+03  0.41800000000E+01 0.  1.
         -5    1    1    2    0  502 -0.10366374470E+02 -0.14457541103E+02  0.10373021689E+02  0.21013190937E+02  0.41800000000E+01 0.  1.
        -11    1    1    2    0    0 -0.57853180064E+02  0.30060722334E+01 -0.24100608218E+03  0.24787085057E+03  0.00000000000E+00 0. -1.
         11    1    1    2    0    0  0.22449542860E+02 -0.19806776228E+01 -0.17445768782E+02  0.28500173804E+02  0.00000000000E+00 0.  1.
</event>
<event>
 6    1  0.9216756E-006  0.1266823E+03  0.7561462E-02  0.1232463E+00
         -1   -1    0    0    0  501 -0.00000000000E+00  0.00000000000E+00  0.24160316458E+02  0.24160316458E+02  0.00000000000E+00 0.  1.
          1   -1    0    0  501    0  0.00000000000E+00 -0.00000000000E+00 -0.70915244967E+03  0.70915244967E+03  0.00000000000E+00 0. -1.
          5    1    1    2  502    0 -0.10229560848E+03 -0.29322386170E+02 -0.25098463117E+03  0.27264436786E+03  0.41800000000E+01 0. -1.
         -5    1    1    2    0  502  0.37551928230E+02 -0.34507347062E+01 -0.78961308819E+02  0.87603741782E+02  0.41800000000E+01 0. -1.
        -11    1    1    2    0    0  0.16953663961E+02  0.54025902024E+02 -0.12625129785E+03  0.13836768055E+03  0.00000000000E+00 0.  1.
         11    1    1    2    0    0  0.47790016289E+02 -0.21252781147E+02 -0.22879489538E+03  0.23469697594E+03  0.00000000000E+00 0. -1.
</event>
<event>
 6    1  0.9216756E-006  0.8830552E+02  0.7561462E-02  0.1307008E+00
         -1   -1    0    0    0  501 -0.00000000000E+00  0.00000000000E+00  0.59561253459E+02  0.59561253459E+02  0.00000000000E+00 0.  1.
          1   -1    0    0  501    0  0.00000000000E+00 -0.00000000000E+00 -0.35108258563E+03  0.35108258563E+03  0.00000000000E+00 0. -1.
          5    1    1    2  502    0 -0.36137081259E+01 -0.80398665928E+01 -0.90385936872E+02  0.90910881227E+02  0.41800000000E+01 0.  1.
         -5    1    1    2    0  502  0.15031533029E+02 -0.65753701452E+02  0.20567059961E+02  0.70639738075E+02  0.41800000000E+01 0.  1.
        -11    1    1    2    0    0 -0.38833607584E+02  0.46621619550E+02 -0.70376470611E+02  0.92921860201E+02  0.00000000000E+00 0.  1.
         11    1    1    2    0    0  0.27415782681E+02  0.27171948494E+02 -0.15132598465E+03  0.15617135959E+03  0.00000000000E+00 0. -1.
</event>
<event>
 6    1  0.9216756E-006  0.9799879E+02  0.7561462E-02  0.1284561E+00
          1   -1    0    0  501    0  0.00000000000E+00  0.00000000000E+00  0.11574092298E+03  0.11574092298E+03  0.00000000000E+00 0.  1.
         -1   -1    0    0    0  501 -0.00000000000E+00 -0.00000000000E+00 -0.16189663766E+03  0.16189663766E+03  0.00000000000E+00 0. -1.
          5    1    1    2  502    0  0.10771783390E+02  0.55989498797E+02  0.35460833612E+02  0.67274054534E+02  0.41800000000E+01 0.  1.
         -5    1    1    2    0  502 -0.43314595189E+02  0.20210997823E+02 -0.73065848650E+02  0.87411264882E+02  0.41800000000E+01 0.  1.
        -11    1    1    2    0    0 -0.49110381904E+00 -0.46266230353E+02 -0.45618163321E+02  0.64975549854E+02  0.00000000000E+00 0. -1.
         11    1    1    2    0    0  0.33033915618E+02 -0.29934266267E+02  0.37067463682E+02  0.57976691367E+02  0.00000000000E+00 0.  1.
</event>
<event>
 6    1  0.9216756E-006  0.1333355E+03  0.7561462E-02  0.1222589E+00
          3   -1    0    0  501    0  0.00000000000E+00  0.00000000000E+00  0.22907045148E+03  0.22907045148E+03  0.00000000000E+00 0. -1.
         -3   -1    0    0    0  501 -0.00000000000E+00 -0.00000000000E+00 -0.88126645459E+02  0.88126645459E+02  0.00000000000E+00 0.  1.
          5    1    1    2  502    0 -0.29525161557E+02 -0.48914525160E+02 -0.78715319460E+01  0.57825594262E+02  0.41800000000E+01 0.  1.
         -5    1    1    2    0  502  0.83811367808E+02 -0.19804323177E+02  0.53813899776E+02  0.10163643441E+03  0.41800000000E+01 0.  1.
        -11    1    1    2    0    0 -0.64916385563E+02  0.12703456151E+02  0.34508693667E+02  0.74608074974E+02  0.00000000000E+00 0.  1.
         11    1    1    2    0    0  0.10630179312E+02  0.56015392186E+02  0.60492744521E+02  0.83126993291E+02  0.00000000000E+00 0. -1.
</event>
<event>
 6    1  0.9216756E-006  0.9598914E+02  0.7561462E-02  0.1288964E+00
         -4   -1    0    0    0  501 -0.00000000000E+00  0.00000000000E+00  0.12749994163E+03  0.12749994163E+03  0.00000000000E+00 0.  1.
          4   -1    0    0  501    0  0.00000000000E+00 -0.00000000000E+00 -0.16770547695E+03  0.16770547695E+03  0.00000000000E+00 0. -1.
          5    1    1    2  502    0  0.17391848228E+02  0.61608855257E+02 -0.43176284993E+02  0.77329111056E+02  0.41800000000E+01 0.  1.
         -5    1    1    2    0  502  0.20850566957E+02  0.11777227771E+02  0.71226494339E+02  0.75260448658E+02  0.41800000000E+01 0.  1.
        -11    1    1    2    0    0  0.16735040443E+02 -0.95454205522E+01  0.14811491948E+02  0.24301377037E+02  0.00000000000E+00 0.  1.
         11    1    1    2    0    0 -0.54977455629E+02 -0.63840662475E+02 -0.83067236610E+02  0.11831448183E+03  0.00000000000E+00 0. -1.
</event>
<event>
 6    1  0.9216756E-006  0.1247532E+03  0.7561462E-02  0.1235456E+00
         -2   -1    0    0    0  501 -0.00000000000E+00  0.00000000000E+00  0.44023329413E+03  0.44023329413E+03  0.00000000000E+00 0.  1.
          2   -1    0    0  501    0  0.00000000000E+00 -0.00000000000E+00 -0.57589932358E+02  0.57589932358E+02  0.00000000000E+00 0. -1.
          5    1    1    2  502    0 -0.43098548923E+02  0.57195462815E+02  0.15742870622E+03  0.17300310930E+03  0.41800000000E+01 0. -1.
         -5    1    1    2    0  502  0.64533624463E+02 -0.54244783074E+02  0.21461988902E+03  0.23062145247E+03  0.41800000000E+01 0.  1.
        -11    1    1    2    0    0  0.35647761001E+02 -0.62153545697E+01  0.73924769019E+01  0.36932942092E+02  0.00000000000E+00 0.  1.
         11    1    1    2    0    0 -0.57082836541E+02  0.32646748285E+01  0.32022896360E+01  0.57265722628E+02  0.00000000000E+00 0. -1.
</event>
<event>
 6    1  0.9216756E-006  0.1075725E+03  0.7561462E-02  0.1265132E+00
          1   -1    0    0  501    0  0.00000000000E+00  0.00000000000E+00  0.51249147716E+03  0.51249147716E+03  0.00000000000E+00 0. -1.
         -1   -1    0    0    0  501 -0.00000000000E+00 -0.00000000000E+00 -0.23841100834E+02  0.23841100834E+02  0.00000000000E+00 0.  1.
          5    1    1    2  502    0  0.46305932946E+02 -0.23626114844E+02  0.75681271265E+02  0.91910608468E+02  0.41800000000E+01 0.  1.
         -5    1    1    2    0  502 -0.68402227166E+02  0.12256188470E+02  0.20196158757E+03  0.21362358037E+03  0.41800000000E+01 0.  1.
        -11    1    1    2    0    0  0.56678686325E+02  0.14924258212E+02  0.12642878141E+03  0.13935366423E+03  0.00000000000E+00 0.  1.
         11    1    1    2    0    0 -0.34582392106E+02 -0.35543318386E+01  0.84578736082E+02  0.91444724920E+02  0.00000000000E+00 0. -1.
</event>
<event>
 6    1  0.9216756E-006  0.1107542E+03  0.7561462E-02  0.1259180E+00
          2   -1    0    0  501    0  0.00000000000E+00  0.00000000000E+00  0.15775765386E+03  0.15775765386E+03  0.00000000000E+00 0. -1.
         -2   -1    0    0    0  501 -0.00000000000E+00 -0.00000000000E+00 -0.14730723096E+03  0.14730723096E+03  0.00000000000E+00 0.  1.
          5    1    1    2  502    0 -0.12537572371E+02  0.50105501521E+02 -0.34753775357E+02  0.62394305070E+02  0.41800000000E+01 0. -1.
         -5    1    1    2    0  502  0.73186531042E+02 -0.49410936220E+02 -0.55259998595E+02  0.10425377110E+03  0.41800000000E+01 0.  1.
        -11    1    1    2    0    0 -0.45451695081E+02  0.24671230775E+02  0.95259491582E+02  0.10839232883E+03  0.00000000000E+00 0. -1.
         11    1    1    2    0    0 -0.15197263591E+02 -0.25365796076E+02  0.52047052728E+01  0.30024479816E+02  0.00000000000E+00 0.  1.
</event>
<event>
 6    1  0.9216756E-006  0.1187739E+03  0.7561462E-02  0.1245134E+00
          1   -1    0    0  501    0  0.00000000000E+00  0.00000000000E+00  0.37053286025E+03  0.37053286025E+03  0.00000000000E+00 0. -1.
         -1   -1    0    0    0  501 -0.00000000000E+00 -0.00000000000E+00 -0.48203859581E+02  0.48203859581E+02  0.00000000000E+00 0.  1.
          5    1    1    2  502    0  0.41342694584E+02  0.13711613585E+01  0.38159890337E+02  0.56433572539E+02  0.41800000000E+01 0. -1.
         -5    1    1    2    0  502 -0.90359054725E+02 -0.18642055320E+02  0.47774160478E+02  0.10398138202E+03  0.41800000000E+01 0. -1.
        -11    1    1    2    0    0 -0.30026904089E+01 -0.31896136582E+02  0.61440795555E+02  0.69291781886E+02  0.00000000000E+00 0. -1.
         11    1    1    2    0    0  0.52019050550E+02  0.49167030543E+02  0.17495415430E+03  0.18902998339E+03  0.00000000000E+00 0.  1.
</event>
<event>
 6    1  0.9216756E-006  0.1581351E+03  0.7561462E-02  0.1190818E+00
         -2   -1    0    0    0  501 -0.00000000000E+00  0.00000000000E+00  0.89023677966E+02  0.89023677966E+02  0.00000000000E+00 0.  1.
          2   -1    0    0  501    0  0.00000000000E+00 -0.00000000000E+00 -0.49335859674E+03  0.49335859674E+03  0.00000000000E+00 0. -1.
          5    1    1    2  502    0  0.11513689661E+03  0.10632459499E+03 -0.87231471675E+02  0.17941077591E+03  0.41800000000E+01 0.  1.
         -5    1    1    2    0  502 -0.34312422725E+01 -0.12401601465E+02  0.20067288744E+02  0.24202099495E+02  0.41800000000E+01 0.  1.
        -11    1    1    2    0    0 -0.59542255102E+02 -0.51642075399E+02 -0.77423132254E+02  0.11048314578E+03  0.00000000000E+00 0.  1.
         11    1    1    2    0    0 -0.52163399239E+02 -0.42280918125E+02 -0.25974760359E+03  0.26828625352E+03  0.00000000000E+00 0. -1.
</event>
<event>
 6    1  0.9216756E-006  0.1305470E+03  0.7561462E-02  0.1226646E+00
         -2   -1    0    0    0  501 -0.00000000000E+00  0.00000000000E+00  0.51075053447E+02  0.51075053447E+02  0.00000000000E+00 0.  1.
          2   -1    0    0  501    0  0.00000000000E+00 -0.00000000000E+00 -0.42044911627E+03  0.42044911627E+03  0.00000000000E+00 0. -1.
          5    1    1    2  502    0  0.10209627851E+03 -0.39608170393E+02 -0.71570416114E+02  0.13089023688E+03  0.41800000000E+01 0. -1.
         -5    1    1    2    0  502 -0.36503897487E+02 -0.66337268759E+01 -0.41757432010E+02  0.56015144310E+02  0.41800000000E+01 0. -1.
        -11    1    1    2    0    0 -0.28086681551E+02  0.66034850814E+02 -0.21045707035E+03  0.22235476532E+03  0.00000000000E+00 0. -1.
         11    1    1    2    0    0 -0.37505699473E+02 -0.19792953545E+02 -0.45589144351E+02  0.62264023205E+02  0.00000000000E+00 0.  1.
</event>
<event>
 6    1  0.9216756E-006  0.9948505E+02  0.7561462E-02  0.1281383E+00
          1   -1    0    0  501    0  0.00000000000E+00  0.00000000000E+00  0.65657103985E+03  0.65657103985E+03  0.00000000000E+00 0. -1.
         -1   -1    0    0    0  501 -0.00000000000E+00 -0.00000000000E+00 -0.18128712339E+02  0.18128712339E+02  0.00000000000E+00 0.  1.
          5    1    1    2  502    0 -0.55833324073E+02  0.20876756383E+01  0.25931167849E+03  0.26529556624E+03  0.41800000000E+01 0.  1.
         -5    1    1    2    0  502  0.51282524747E+02 -0.15199100935E+02  0.77454966620E+02  0.94221304744E+02  0.41800000000E+01 0.  1.
        -11    1    1    2    0    0  0.60928567247E+00  0.51097450667E+02  0.20409746158E+03  0.21039746794E+03  0.00000000000E+00 0. -1.
         11    1    1    2    0    0  0.39415136545E+01 -0.37986025371E+02  0.97578220826E+02  0.10478541326E+03  0.00000000000E+00 0.  1.
</event>
<event>
 6    1  0.9216756E-006  0.1745155E+03  0.7561462E-02  0.1173219E+00
         -2   -1    0    0    0  501 -0.00000000000E+00  0.00000000000E+00  0.35332947624E+02  0.35332947624E+02  0.00000000000E+00 0.  1.
          2   -1    0    0  501    0  0.00000000000E+00 -0.00000000000E+00 -0.97185864540E+03  0.97185864540E+03  0.00000000000E+00 0. -1.
          5    1    1    2  502    0  0.21988354461E+02 -0.16242667981E+02 -0.26382392711E+02  0.38220610150E+02  0.41800000000E+01 0. -1.
         -5    1    1    2    0  502 -0.14963885452E+03 -0.42786060539E+02 -0.32636873196E+03  0.36160262078E+03  0.41800000000E+01 0. -1.
        -11    1    1    2    0    0  0.70977921822E+02 -0.14907966826E+02 -0.21047426960E+03  0.22261970044E+03  0.00000000000E+00 0.  1.
         11    1    1    2    0    0  0.56672578234E+02  0.73936695346E+02 -0.37330030352E+03  0.38474866166E+03  0.00000000000E+00 0. -1.
</event>
<event>
 6    1  0.9216756E-006  0.1082602E+03  0.7561462E-02  0.1263826E+00
         -4   -1    0    0    0  501 -0.00000000000E+00  0.00000000000E+00  0.69201416219E+03  0.69201416219E+03  0.00000000000E+00 0.  1.
          4   -1    0    0  501    0  0.00000000000E+00 -0.00000000000E+00 -0.17843059957E+02  0.17843059957E+02  0.00000000000E+00 0. -1.
          5    1    1    2  502    0  0.46499316904E+02 -0.17172240231E+02  0.21671383920E+03  0.22234979830E+03  0.41800000000E+01 0.  1.
         -5    1    1    2    0  502 -0.67632725079E+02  0.27244601224E+02  0.17906845449E+03  0.19338934198E+03  0.41800000000E+01 0.  1.
        -11    1    1    2    0    0  0.40449724697E+02  0.29259316439E+02  0.12522632736E+03  0.13481068537E+03  0.00000000000E+00 0.  1.
         11    1    1    2    0    0 -0.19316316523E+02 -0.39331677431E+02  0.15316248119E+03  0.15930739650E+03  0.00000000000E+00 0. -1.
</event>
<event>
 6    1  0.9216756E-006  0.1046744E+03  0.7561462E-02  0.1270762E+00
         -1   -1    0    0    0  501 -0.00000000000E+00  0.00000000000E+00  0.99645872753E+02  0.99645872753E+02  0.00000000000E+00 0.  1.
          1   -1    0    0  501    0  0.00000000000E+00 -0.00000000000E+00 -0.18741287192E+03  0.18741287192E+03  0.00000000000E+00 0. -1.
          5    1    1    2  502    0  0.75648392760E+02  0.17117903355E+02 -0.30738726718E+00  0.77674119431E+02  0.41800000000E+01 0. -1.
         -5    1    1    2    0  502 -0.38802185867E+02 -0.16188200920E+02  0.35385185318E+02  0.55111262162E+02  0.41800000000E+01 0.  1.
        -11    1    1    2    0    0 -0.55629634161E+02 -0.23214810423E+02 -0.60255633921E+02  0.85231009844E+02  0.00000000000E+00 0.  1.
         11    1    1    2    0    0  0.18783427268E+02  0.22285107988E+02 -0.62589163294E+02  0.69042353232E+02  0.00000000000E+00 0. -1.
</event>
<event>
 6    1  0.9216756E-006  0.1071011E+03  0.7561462E-02  0.1266034E+00
         -1   -1    0    0    0  501 -0.00000000000E+00  0.00000000000E+00  0.21979228596E+03  0.21979228596E+03  0.00000000000E+00 0.  1.
          1   -1    0    0  501    0  0.00000000000E+00 -0.00000000000E+00 -0.77356830920E+02  0.77356830920E+02  0.00000000000E+00 0. -1.
          5    1    1    2  502    0 -0.31180958924E+02 -0.52513698607E+02  0.17733465613E+02  0.63732950218E+02  0.41800000000E+01 0.  1.
         -5    1    1    2    0  502 -0.37081202082E+02  0.62931046947E+02  0.85573131886E+02  0.11258581402E+03  0.41800000000E+01 0.  1.
        -11    1    1    2    0    0  0.69147293070E+02  0.22140741615E+00 -0.10611624128E+02  0.69957156366E+02  0.00000000000E+00 0. -1.
         11    1    1    2    0    0 -0.88513206398E+00 -0.10638755756E+02  0.49740481671E+02  0.50873196279E+02  0.00000000000E+00 0.  1.
</event>
<event>
 6    1  0.9216756E-006  0.1378862E+03  0.7561462E-02  0.1216202E+00
          1   -1    0    0  501    0  0.00000000000E+00  0.00000000000E+00  0.12744012237E+03  0.12744012237E+03  0.00000000000E+00 0. -1.
         -1   -1    0    0    0  501 -0.00000000000E+00 -0.00000000000E+00 -0.20110570472E+03  0.20110570472E+03  0.00000000000E+00 0.  1.
          5    1    1    2  502    0  0.49459424674E+02  0.31276925259E+02 -0.22454062699E+02  0.62818294106E+02  0.41800000000E+01 0.  1.
         -5    1    1    2    0  502 -0.71477914005E+02  0.58315458094E+02 -0.90721350579E+02  0.12945122902E+03  0.41800000000E+01 0.  1.
        -11    1    1    2    0    0  0.33829984836E+01 -0.10220347207E+03  0.15598511137E+02  0.10344229276E+03  0.00000000000E+00 0.  1.
         11    1    1    2    0    0  0.18635490847E+02  0.12611088722E+02  0.23911319787E+02  0.32834011205E+02  0.00000000000E+00 0. -1.
</event>
<event>
 6    1  0.9216756E-006  0.9932272E+02  0.7561462E-02  0.1281727E+00
          2   -1    0    0  501    0  0.00000000000E+00  0.00000000000E+00  0.52987883104E+02  0.52987883104E+02  0.00000000000E+00 0. -1.
         -2   -1    0    0    0  501 -0.00000000000E+00 -0.00000000000E+00 -0.23416399022E+03  0.23416399022E+03  0.00000000000E+00 0.  1.
          5    1    1    2  502    0  0.35509365355E+02 -0.35285388306E+02 -0.15347033736E+02  0.52525969770E+02  0.41800000000E+01 0.  1.
         -5    1    1    2    0  502 -0.35850215614E+02  0.43861385147E+02 -0.11543939033E+03  0.12865762436E+03  0.41800000000E+01 0.  1.
        -11    1    1    2    0    0 -0.37350442247E+02 -0.30308992984E+02 -0.16615702360E+02  0.50889804054E+02  0.00000000000E+00 0.  1.
         11    1    1    2    0    0  0.37691292506E+02  0.21732996143E+02 -0.33773980694E+02  0.55078475142E+02  0.00000000000E+00 0. -1.
</event>
<event>
 6    1  0.9216756E-006  0.1115071E+03  0.7561462E-02  0.1257804E+00
         -1   -1    0    0    0  501 -0.00000000000E+00  0.00000000000E+00  0.15823025741E+02  0.15823025741E+02  0.00000000000E+00 0.  1.
          1   -1    0    0  501    0  0.00000000000E+00 -0.00000000000E+00 -0.83240234517E+03  0.83240234517E+03  0.00000000000E+00 0. -1.
          5    1    1    2  502    0  0.36979192774E+02  0.40064112635E+02 -0.18768752173E+03  0.19549084897E+03  0.41800000000E+01 0.  1.
         -5    1    1    2    0  502 -0.49707453457E+02 -0.51045730566E+02 -0.22004075895E+03  0.23132640476E+03  0.41800000000E+01 0.  1.
        -11    1    1    2    0    0  0.81469819735E+01  0.53540075323E+02 -0.16037477233E+03  0.16927191315E+03  0.00000000000E+00 0.  1.
         11    1    1    2    0    0  0.45812787095E+01 -0.42558457393E+02 -0.24847626642E+03  0.25213620403E+03  0.00000000000E+00 0. -1.
</event>
<event>
 6    1  0.9216756E-006  0.1298336E+03  0.7561462E-02  0.1227703E+00
         -2   -1    0    0    0  501 -0.00000000000E+00  0.00000000000E+00  0.28183366232E+02  0.28183366232E+02  0.00000000000E+00 0.  1.
          2   -1    0    0  501    0  0.00000000000E+00 -0.00000000000E+00 -0.78980624732E+03  0.78980624732E+03  0.00000000000E+00 0. -1.
          5    1    1    2  502    0  0.30166259577E+02  0.53268184635E+02 -0.19164318967E+03  0.20122645765E+03  0.41800000000E+01 0. -1.
         -5    1    1    2    0  502 -0.70966334255E+02  0.24134144788E+02 -0.75594384760E+02  0.10653948071E+03  0.41800000000E+01 0. -1.
        -11    1    1    2    0    0  0.62076726133E+02 -0.25446463549E+02 -0.21390286186E+03  0.22417733326E+03  0.00000000000E+00 0. -1.
         11    1    1    2    0    0 -0.21276651455E+02 -0.51955865875E+02 -0.28048244480E+03  0.28604634194E+03  0.00000000000E+00 0.  1.
</event>
<event>
 6    1  0.9216756E-006  0.8562075E+02  0.7561462E-02  0.1313817E+00
          1   -1    0    0  501    0  0.00000000000E+00  0.00000000000E+00  0.12959011809E+03  0.12959011809E+03  0.00000000000E+00 0. -1.
         -1   -1    0    0    0  501 -0.00000000000E+00 -0.00000000000E+00 -0.20478823281E+03  0.20478823281E+03  0.00000000000E+00 0.  1.
          5    1    1    2  502    0 -0.23227239026E+02  0.42010021159E+02 -0.13704471609E+03  0.14526896819E+03  0.41800000000E+01 0. -1.
         -5    1    1    2    0  502  0.57635078515E+02 -0.23637717127E+02 -0.36963541428E+02  0.72555632044E+02  0.41800000000E+01 0. -1.
        -11    1    1    2    0    0 -0.12298557153E+02 -0.32251934013E+02  0.44702185470E+02  0.56477669405E+02  0.00000000000E+00 0.  1.
         11    1    1    2    0    0 -0.22109282335E+02  0.13879629981E+02  0.54107957322E+02  0.60076081259E+02  0.00000000000E+00 0. -1.
</event>
<event>
 6    1  0.9216756E-006  0.1217260E+03  0.7561462E-02  0.1240277E+00
          1   -1    0    0  501    0  0.00000000000E+00  0.00000000000E+00  0.59860536057E+03  0.59860536057E+03  0.00000000000E+00 0. -1.
         -1   -1    0    0    0  501 -0.00000000000E+00 -0.00000000000E+00 -0.36498924001E+02  0.36498924001E+02  0.00000000000E+00 0.  1.
          5    1    1    2  502    0 -0.36856685359E+02  0.62230876382E+02  0.36245008983E+02  0.81007841022E+02  0.41800000000E+01 0. -1.
         -5    1    1    2    0  502  0.37845552814E+02  0.27399376546E+02  0.16980525317E+03  0.17616557016E+03  0.41800000000E+01 0. -1.
        -11    1    1    2    0    0  0.40781816356E+02 -0.27345793979E+02  0.17978993837E+03  0.18637427648E+03  0.00000000000E+00 0.  1.
         11    1    1    2    0    0 -0.41770683811E+02 -0.62284458949E+02  0.17626623604E+03  0.19155659691E+03  0.00000000000E+00 0. -1.
</event>
<event>
 6    1  0.9216756E-006  0.1211979E+03  0.7561462E-02  0.1241134E+00
         -2   -1    0    0    0  501 -0.00000000000E+00  0.00000000000E+00  0.38980954006E+02  0.38980954006E+02  0.00000000000E+00 0.  1.
          2   -1    0    0  501    0  0.00000000000E+00 -0.00000000000E+00 -0.10704700634E+04  0.10704700634E+04  0.00000000000E+00 0. -1.
          5    1    1    2  502    0  0.41379170778E+02  0.95672722483E+01 -0.65310296797E+03  0.65449578122E+03  0.41800000000E+01 0. -1.
         -5    1    1    2    0  502 -0.97282597869E+02 -0.94581140622E+01 -0.52991100326E+02  0.11126045516E+03  0.41800000000E+01 0.  1.
        -11    1    1    2    0    0  0.40248079881E+02 -0.41394270914E+02 -0.24760671775E+03  0.25424885501E+03  0.00000000000E+00 0.  1.
         11    1    1    2    0    0  0.15655347210E+02  0.41285112728E+02 -0.77788323328E+02  0.89445925985E+02  0.00000000000E+00 0. -1.
</event>
<event>
 6    1  0.9216756E-006  0.1809096E+03  0.7561462E-02  0.1166926E+00
         -2   -1    0    0    0  501 -0.00000000000E+00  0.00000000000E+00  0.14303094236E+03  0.14303094236E+03  0.00000000000E+00 0. -1.
          2   -1    0    0  501    0  0.00000000000E+00 -0.00000000000E+00 -0.29120726299E+03  0.29120726299E+03  0.00000000000E+00 0.  1.
          5    1    1    2  502    0  0.15098425067E+03  0.51218092242E+02  0.19784298528E+02  0.16071225153E+03  0.41800000000E+01 0.  1.
         -5    1    1    2    0  502 -0.10503043456E+01 -0.34593997111E+02 -0.74243594473E+01  0.35643250252E+02  0.41800000000E+01 0.  1.
        -11    1    1    2    0    0 -0.60600964511E+02  0.28973284966E+02 -0.10084250775E+03  0.12116575222E+03  0.00000000000E+00 0.  1.
         11    1    1    2    0    0 -0.89332981809E+02 -0.45597380096E+02 -0.59693751952E+02  0.11671695135E+03  0.00000000000E+00 0. -1.
</event>
<event>
 6    1  0.9216756E-006  0.6625636E+02  0.7561462E-02  0.1373307E+00
         -1   -1    0    0    0  501 -0.00000000000E+00  0.00000000000E+00  0.45263206287E+03  0.45263206287E+03  0.00000000000E+00 0.  1.
          1   -1    0    0  501    0  0.00000000000E+00 -0.00000000000E+00 -0.78469631029E+02  0.78469631029E+02  0.00000000000E+00 0. -1.
          5    1    1    2  502    0 -0.56520613471E+02 -0.12391604227E+02  0.40349865054E+03  0.40764784433E+03  0.41800000000E+01 0.  1.
         -5    1    1    2    0  502 -0.99344941736E+00 -0.62784219802E+01 -0.83016150736E+01  0.11260316920E+02  0.41800000000E+01 0.  1.
        -11    1    1    2    0    0  0.26071958186E+02 -0.62037298920E+01 -0.54003209061E+02  0.60287476785E+02  0.00000000000E+00 0. -1.
         11    1    1    2    0    0  0.31442104702E+02  0.24873756100E+02  0.32968605435E+02  0.51906055860E+02  0.00000000000E+00 0.  1.
</event>
<event>
 6    1  0.9216756E-006  0.1030597E+03  0.7561462E-02  0.1273990E+00
         -1   -1    0    0    0  501 -0.00000000000E+00  0.00000000000E+00  0.11007625020E+03  0.11007625020E+03  0.00000000000E+00 0.  1.
          1   -1    0    0  501    0  0.00000000000E+00 -0.00000000000E+00 -0.17431588844E+03  0.17431588844E+03  0.00000000000E+00 0. -1.
          5    1    1    2  502    0  0.48391409084E+02 -0.21768780670E+02 -0.52065875199E+02  0.74457612406E+02  0.41800000000E+01 0.  1.
         -5    1    1    2    0  502  0.27569555191E+02  0.47348536764E+02  0.49754264430E+02  0.74127751457E+02  0.41800000000E+01 0.  1.
        -11    1    1    2    0    0 -0.32265803748E+01  0.14529036104E+02  0.16043176167E+02  0.21883491781E+02  0.00000000000E+00 0.  1.
         11    1    1    2    0    0 -0.72734383900E+02 -0.40108792198E+02 -0.77971203633E+02  0.11392328300E+03  0.00000000000E+00 0. -1.
</event>
<event>
 6    1  0.9216756E-006  0.2663082E+03  0.7561462E-02  0.1103411E+00
         -2   -1    0    0    0  501 -0.00000000000E+00  0.00000000000E+00  0.82265320637E+02  0.82265320637E+02  0.00000000000E+00 0.  1.
          2   -1    0    0  501    0  0.00000000000E+00 -0.00000000000E+00 -0.10083265477E+04  0.10083265477E+04  0.00000000000E+00 0. -1.
          5    1    1    2  502    0 -0.26952876523E+00  0.40380711949E+01  0.70425511775E+01  0.91350200775E+01  0.41800000000E+01 0. -1.
         -5    1    1    2    0  502 -0.17147125213E+03  0.19704118859E+03 -0.49798588150E+03  0.56234778463E+03  0.41800000000E+01 0. -1.
        -11    1    1    2    0    0  0.59140413682E+02 -0.52104481386E+02 -0.22291292341E+03  0.23643738481E+03  0.00000000000E+00 0. -1.
         11    1    1    2    0    0  0.11260036721E+03 -0.14897477840E+03 -0.21220497331E+03  0.28267167880E+03  0.00000000000E+00 0.  1.
</event>
<event>
 6    1  0.9216756E-006  0.9585776E+02  0.7561462E-02  0.1289256E+00
         -1   -1    0    0    0  501 -0.00000000000E+00  0.00000000000E+00  0.13690216976E+02  0.13690216976E+02  0.00000000000E+00 0.  1.
          1   -1    0    0  501    0  0.00000000000E+00 -0.00000000000E+00 -0.10826414597E+04  0.10826414597E+04  0.00000000000E+00 0. -1.
          5    1    1    2  502    0 -0.48506096741E+02  0.25916479310E+02 -0.86360634241E+02  0.10247017550E+03  0.41800000000E+01 0. -1.
         -5    1    1    2    0  502 -0.59625163175E+01 -0.32010932092E+02 -0.44330031312E+03  0.44451421956E+03  0.41800000000E+01 0. -1.
        -11    1    1    2    0    0  0.51493662316E+01  0.42261163441E+02 -0.25757899352E+03  0.26107366740E+03  0.00000000000E+00 0.  1.
         11    1    1    2    0    0  0.49319246827E+02 -0.36166710658E+02 -0.28171130181E+03  0.28827361418E+03  0.00000000000E+00 0. -1.
</event>
<event>
 6    1  0.9216756E-006  0.1332337E+03  0.7561462E-02  0.1222735E+00
          1   -1    0    0  501    0  0.00000000000E+00  0.00000000000E+00  0.26110677400E+03  0.26110677400E+03  0.00000000000E+00 0. -1.
         -1   -1    0    0    0  501 -0.00000000000E+00 -0.00000000000E+00 -0.98521764666E+02  0.98521764666E+02  0.00000000000E+00 0.  1.
          5    1    1    2  502    0  0.10148562530E+03  0.39691317348E+01  0.41821822630E+02  0.10991643825E+03  0.41800000000E+01 0. -1.
         -5    1    1    2    0  502 -0.10582917533E+02 -0.31928197389E+02 -0.33213248896E+02  0.47455244539E+02  0.41800000000E+01 0. -1.
        -11    1    1    2    0    0 -0.76536288696E+02 -0.21435726382E+02  0.87671420183E+02  0.11833668818E+03  0.00000000000E+00 0.  1.
         11    1    1    2    0    0 -0.14366419068E+02  0.49394792037E+02  0.66305015415E+02  0.83920167698E+02  0.00000000000E+00 0. -1.
</event>
<event>
 6    1  0.9216756E-006  0.9907627E+02  0.7561462E-02  0.1282250E+00
         -3   -1    0    0    0  501 -0.00000000000E+00  0.00000000000E+00  0.95846140845E+02  0.95846140845E+02  0.00000000000E+00 0.  1.
          3   -1    0    0  501    0  0.00000000000E+00 -0.00000000000E+00 -0.15620058698E+03  0.15620058698E+03  0.00000000000E+00 0. -1.
          5    1    1    2  502    0  0.69088261129E+02 -0.36265830795E+02 -0.69549917200E+02  0.10460908991E+03  0.41800000000E+01 0. -1.
         -5    1    1    2    0  502 -0.15136336473E+02  0.31012754428E+02  0.20429300904E+02  0.40320321855E+02  0.41800000000E+01 0. -1.
        -11    1    1    2    0    0 -0.46545938598E+02  0.32659783291E+02  0.24128762068E+02  0.61768786644E+02  0.00000000000E+00 0.  1.
         11    1    1    2    0    0 -0.74059860575E+01 -0.27406706923E+02 -0.35362591904E+02  0.45348529414E+02  0.00000000000E+00 0. -1.
</event>
<event>
 6    1  0.9216756E-006  0.6964888E+02  0.7561462E-02  0.1361291E+00
          3   -1    0    0  501    0  0.00000000000E+00  0.00000000000E+00  0.96195425280E+02  0.96195425280E+02  0.00000000000E+00 0.  1.
         -3   -1    0    0    0  501 -0.00000000000E+00 -0.00000000000E+00 -0.21265458952E+03  0.21265458952E+03  0.00000000000E+00 0. -1.
          5    1    1    2  502    0 -0.17358591014E+02  0.26078008548E+02  0.13420571607E+02  0.34336094043E+02  0.41800000000E+01 0.  1.
         -5    1    1    2    0  502  0.14058401045E+01  0.12935491874E+02 -0.16961778698E+03  0.17016747455E+03  0.41800000000E+01 0.  1.
        -11    1    1    2    0    0  0.48620285439E+02 -0.37361304864E+02  0.36783424956E+02  0.71503983167E+02  0.00000000000E+00 0.  1.
         11    1    1    2    0    0 -0.32667534529E+02 -0.16521955588E+01  0.29546261771E+01  0.32842463036E+02  0.00000000000E+00 0. -1.
</event>
<event>
 6    1  0.9216756E-006  0.8536428E+02  0.7561462E-02  0.1314483E+00
          1   -1    0    0  501    0  0.00000000000E+00  0.00000000000E+00  0.34751359483E+03  0.34751359483E+03  0.00000000000E+00 0. -1.
         -1   -1    0    0    0  501 -0.00000000000E+00 -0.00000000000E+00 -0.41841090256E+02  0.41841090256E+02  0.00000000000E+00 0.  1.
          5    1    1    2  502    0 -0.79770995746E+01 -0.59096708738E+02  0.15673552408E+02  0.61799577235E+02  0.41800000000E+01 0. -1.
         -5    1    1    2    0  502  0.38676922319E+02  0.40042408924E+02  0.89907841405E+02  0.10583095567E+03  0.41800000000E+01 0. -1.
        -11    1    1    2    0    0 -0.17945069979E+02 -0.11974517639E+02  0.29797745475E+01  0.21778284266E+02  0.00000000000E+00 0.  1.
         11    1    1    2    0    0 -0.12754752766E+02  0.31028817454E+02  0.19711133622E+03  0.19994586792E+03  0.00000000000E+00 0. -1.
</event>
<event>
 6    1  0.9216756E-006  0.8020553E+02  0.7561462E-02  0.1328469E+00
         -2   -1    0    0    0  501 -0.00000000000E+00  0.00000000000E+00  0.54029203229E+03  0.54029203229E+03  0.00000000000E+00 0.  1.
          2   -1    0    0  501    0  0.00000000000E+00 -0.00000000000E+00 -0.30598264206E+02  0.30598264206E+02  0.00000000000E+00 0. -1.
          5    1    1    2  502    0 -0.48508951058E+01 -0.23727225800E+01  0.34318580590E+03  0.34325374108E+03  0.41800000000E+01 0. -1.
         -5    1    1    2    0  502  0.26057950174E+02 -0.39391294947E+02  0.38333288224E+02  0.60972159802E+02  0.41800000000E+01 0. -1.
        -11    1    1    2    0    0  0.37944686948E+02  0.11071786720E+02  0.54458999885E+02  0.67291651765E+02  0.00000000000E+00 0.  1.
         11    1    1    2    0    0 -0.59151742016E+02  0.30692230807E+02  0.73715674077E+02  0.99372743849E+02  0.00000000000E+00 0. -1.
</event>
<event>
 6    1  0.9216756E-006  0.3331560E+03  0.7561462E-02  0.1069749E+00
          2   -1    0    0  501    0  0.00000000000E+00  0.00000000000E+00  0.56201346414E+03  0.56201346414E+03  0.00000000000E+00 0.  1.
         -2   -1    0    0    0  501 -0.00000000000E+00 -0.00000000000E+00 -0.20500898723E+03  0.20500898723E+03  0.00000000000E+00 0. -1.
          5    1    1    2  502    0  0.24089277088E+03 -0.63979959129E+02  0.19156774446E+03  0.31438580654E+03  0.41800000000E+01 0. -1.
         -5    1    1    2    0  502  0.50033499889E+02 -0.74451707030E+02  0.24071386769E+02  0.92969413528E+02  0.41800000000E+01 0. -1.
        -11    1    1    2    0    0 -0.18496236657E+03  0.11777160416E+03  0.11874985239E+03  0.24936470327E+03  0.00000000000E+00 0.  1.
         11    1    1    2    0    0 -0.10596390420E+03  0.20660061996E+02  0.22615493292E+02  0.11030252804E+03  0.00000000000E+00 0. -1.
</event>
<event>
 6    1  0.9216756E-006  0.1146470E+03  0.7561462E-02  0.1252199E+00
          3   -1    0    0  501    0  0.00000000000E+00  0.00000000000E+00  0.18933701332E+03  0.18933701332E+03  0.00000000000E+00 0. -1.
         -3   -1    0    0    0  501 -0.00000000000E+00 -0.00000000000E+00 -0.79742904653E+02  0.79742904653E+02  0.00000000000E+00 0.  1.
          5    1    1    2  502    0  0.24273180082E+02 -0.77617105815E+02  0.60901172075E+02  0.10168592600E+03  0.41800000000E+01 0. -1.
         -5    1    1    2    0  502  0.16603884904E+02  0.37533661378E+02 -0.14143560329E+02  0.43611666204E+02  0.41800000000E+01 0. -1.
        -11    1    1    2    0    0 -0.68924046842E+02  0.18924288040E+02  0.40542980209E+02  0.82172904021E+02  0.00000000000E+00 0.  1.
         11    1    1    2    0    0  0.28046981857E+02  0.21159156397E+02  0.22293516708E+02  0.41609421745E+02  0.00000000000E+00 0. -1.
</event>
<event>
 6    1  0.9216756E-006  0.1482432E+03  0.7561462E-02  0.1202648E+00
          2   -1    0    0  501    0  0.00000000000E+00  0.00000000000E+00  0.25639365820E+03  0.25639365820E+03  0.00000000000E+00 0. -1.
         -2   -1    0    0    0  501 -0.00000000000E+00 -0.00000000000E+00 -0.13261918085E+03  0.13261918085E+03  0.00000000000E+00 0.  1.
          5    1    1    2  502    0 -0.70960447148E+02 -0.59323392213E+02  0.62638233649E+02  0.11178403570E+03  0.41800000000E+01 0.  1.
         -5    1    1    2    0  502 -0.53893745336E+02 -0.21998465783E+01 -0.52825864656E+02  0.75613619725E+02  0.41800000000E+01 0.  1.
        -11    1    1    2    0    0  0.76164163936E+02  0.66715485524E+01  0.10173007835E+03  0.12725760594E+03  0.00000000000E+00 0. -1.
         11    1    1    2    0    0  0.48690028547E+02  0.54851690239E+02  0.12232030009E+02  0.74357577692E+02  0.00000000000E+00 0.  1.
</event>
<event>
 6    1  0.9216756E-006  0.1168480E+03  0.7561462E-02  0.1248389E+00
          2   -1    0    0  501    0  0.00000000000E+00  0.00000000000E+00  0.24465186503E+02  0.24465186503E+02  0.00000000000E+00 0. -1.
         -2   -1    0    0    0  501 -0.00000000000E+00 -0.00000000000E+00 -0.83440088987E+03  0.83440088987E+03  0.00000000000E+00 0.  1.
          5    1    1    2  502    0  0.21940417045E+02 -0.45222818703E+02 -0.32123914540E+03  0.32517463950E+03  0.41800000000E+01 0.  1.
         -5    1    1    2    0  502 -0.88452679369E+02  0.50102517602E+01 -0.27340444425E+03  0.28743075975E+03  0.41800000000E+01 0.  1.
        -11    1    1    2    0    0  0.73833688931E+02  0.25467368851E+02 -0.21609723771E+03  0.22977819010E+03  0.00000000000E+00 0.  1.
         11    1    1    2    0    0 -0.73214266071E+01  0.14745198091E+02  0.80512399914E+00  0.16482487039E+02  0.00000000000E+00 0. -1.
</event>
<event>
 6    1  0.9216756E-006  0.1145797E+03  0.7561462E-02  0.1252317E+00
         -1   -1    0    0    0  501 -0.00000000000E+00  0.00000000000E+00  0.64173751024E+03  0.64173751024E+03  0.00000000000E+00 0.  1.
          1   -1    0    0  501    0  0.00000000000E+00 -0.00000000000E+00 -0.21626434163E+02  0.21626434163E+02  0.00000000000E+00 0. -1.
          5    1    1    2  502    0 -0.49579302559E+02 -0.17248353078E+02  0.12246896753E+03  0.13331066474E+03  0.41800000000E+01 0. -1.
         -5    1    1    2    0  502  0.75354344215E+02 -0.13785297956E+02  0.26212011647E+03  0.27311671404E+03  0.41800000000E+01 0. -1.
        -11    1    1    2    0    0 -0.55011380230E+02 -0.27780234892E+01  0.15955165624E+03  0.16879188482E+03  0.00000000000E+00 0.  1.
         11    1    1    2    0    0  0.29236338573E+02  0.33811674524E+02  0.75970335841E+02  0.88144680810E+02  0.00000000000E+00 0. -1.
</event>
<event>
 6    1  0.9216756E-006  0.1451639E+03  0.7561462E-02  0.1206545E+00
          1   -1    0    0  501    0  0.00000000000E+00  0.00000000000E+00  0.74853537598E+03  0.74853537598E+03  0.00000000000E+00 0. -1.
         -1   -1    0    0    0  501 -0.00000000000E+00 -0.00000000000E+00 -0.40756527002E+02  0.40756527002E+02  0.00000000000E+00 0.  1.
          5    1    1    2  502    0 -0.50568197588E+02 -0.13894170344E+02  0.14041807956E+02  0.54450301630E+02  0.41800000000E+01 0. -1.
         -5    1    1    2    0  502 -0.80137314530E+02  0.13836021888E+02  0.27267318023E+03  0.28457259232E+03  0.41800000000E+01 0. -1.
        -11    1    1    2    0    0  0.86106014457E+02  0.41340590183E+02  0.29947195983E+03  0.31433540184E+03  0.00000000000E+00 0. -1.
         11    1    1    2    0    0  0.44599497661E+02 -0.41282441726E+02  0.12159190096E+03  0.13593360720E+03  0.00000000000E+00 0.  1.
</event>
<event>
 6    1  0.9216756E-006  0.1907341E+03  0.7561462E-02  0.1157801E+00
          1   -1    0    0  501    0  0.00000000000E+00  0.00000000000E+00  0.75234729455E+03  0.75234729455E+03  0.00000000000E+00 0. -1.
         -1   -1    0    0    0  501 -0.00000000000E+00 -0.00000000000E+00 -0.64799055596E+02  0.64799055596E+02  0.00000000000E+00 0.  1.
          5    1    1    2  502    0  0.31260457427E+02 -0.81846863079E+02  0.38361904683E+02  0.95735225103E+02  0.41800000000E+01 0. -1.
         -5    1    1    2    0  502  0.37541885615E+02 -0.94936619608E+02  0.25960792979E+03  0.27899122662E+03  0.41800000000E+01 0. -1.
        -11    1    1    2    0    0 -0.31200647505E+02  0.46646946100E+02  0.44227490787E+02  0.71452704123E+02  0.00000000000E+00 0.  1.
         11    1    1    2    0    0 -0.37601695538E+02  0.13013653659E+03  0.34535091370E+03  0.37096719431E+03  0.00000000000E+00 0. -1.
</event>
<event>
 6    1  0.9216756E-006  0.1553611E+03  0.7561462E-02  0.1194036E+00
          2   -1    0    0  501    0  0.00000000000E+00  0.00000000000E+00  0.41336286978E+03  0.41336286978E+03  0.00000000000E+00 0.  1.
         -2   -1    0    0    0  501 -0.00000000000E+00 -0.00000000000E+00 -0.60297737164E+02  0.60297737164E+02  0.00000000000E+00 0. -1.
          5    1    1    2  502    0  0.83656301297E+01 -0.13781955256E+03  0.17982098375E+03  0.22675376828E+03  0.41800000000E+01 0. -1.
         -5    1    1    2    0  502  0.10969261355E+02  0.25270548178E+02  0.15887492232E+02  0.32075069904E+02  0.41800000000E+01 0. -1.
        -11    1    1    2    0    0 -0.46468876340E+02  0.10751140038E+03  0.11405095875E+03  0.16347990357E+03  0.00000000000E+00 0. -1.
         11    1    1    2    0    0  0.27133984855E+02  0.50376039983E+01  0.43305697894E+02  0.51351865188E+02  0.00000000000E+00 0.  1.
</event>
<event>
 6    1  0.9216756E-006  0.1171445E+03  0.7561462E-02  0.1247883E+00
         -1   -1    0    0    0  501 -0.00000000000E+00  0.00000000000E+00  0.15804392497E+04  0.15804392497E+04  0.00000000000E+00 0.  1.
          1   -1    0    0  501    0  0.00000000000E+00 -0.00000000000E+00 -0.99718900305E+01  0.99718900305E+01  0.00000000000E+00 0. -1.
          5    1    1    2  502    0  0.58486969800E+02  0.52601958140E+02  0.62979678651E+03  0.63470399111E+03  0.41800000000E+01 0. -1.
         -5    1    1    2    0  502 -0.56652481228E+02  0.57364235005E+00  0.52629791678E+03  0.52935508149E+03  0.41800000000E+01 0. -1.
        -11    1    1    2    0    0  0.27321587863E+02 -0.62405796380E+02  0.31911574848E+03  0.32630631853E+03  0.00000000000E+00 0.  1.
         11    1    1    2    0    0 -0.29156076435E+02  0.92301958900E+01  0.95256907905E+02  0.10004574860E+03  0.00000000000E+00 0. -1.
</event>
<event>
 6    1  0.9216756E-006  0.5778941E+02  0.7561462E-02  0.1407350E+00
         -2   -1    0    0    0  501 -0.00000000000E+00  0.00000000000E+00  0.21983335247E+02  0.21983335247E+02  0.00000000000E+00 0. -1.
          2   -1    0    0  501    0  0.00000000000E+00 -0.00000000000E+00 -0.57364782548E+03  0.57364782548E+03  0.00000000000E+00 0.  1.
          5    1    1    2  502    0  0.60304756309E+01  0.14220270758E+02 -0.29455688846E+03  0.29499121288E+03  0.41800000000E+01 0.  1.
         -5    1    1    2    0  502  0.17495819530E+02 -0.33529194072E+01  0.70568289304E+01  0.19611654803E+02  0.41800000000E+01 0.  1.
        -11    1    1    2    0    0  0.16310918195E+02 -0.32195674949E+02 -0.47250788986E+02  0.59457922917E+02  0.00000000000E+00 0.  1.
         11    1    1    2    0    0 -0.39837213355E+02  0.21328323598E+02 -0.21691364171E+03  0.22157037012E+03  0.00000000000E+00 0. -1.
</event>
<event>
 6    1  0.9216756E-006  0.1910794E+03  0.7561462E-02  0.1157491E+00
         -2   -1    0    0    0  501 -0.00000000000E+00  0.00000000000E+00  0.43861904703E+02  0.43861904703E+02  0.00000000000E+00 0.  1.
          2   -1    0    0  501    0  0.00000000000E+00 -0.00000000000E+00 -0.11099734502E+04  0.11099734502E+04  0.00000000000E+00 0. -1.
          5    1    1    2  502    0 -0.23703529385E+02 -0.27159532243E+02 -0.11411852359E+02  0.38042085527E+02  0.41800000000E+01 0. -1.
         -5    1    1    2    0  502 -0.13260124868E+03 -0.80341355367E+02 -0.45649906875E+03  0.48212726193E+03  0.41800000000E+01 0. -1.
        -11    1    1    2    0    0  0.54113228811E+02  0.25874186158E+02 -0.84807983895E+02  0.10387545029E+03  0.00000000000E+00 0.  1.
         11    1    1    2    0    0  0.10219154925E+03  0.81626701453E+02 -0.51339264049E+03  0.52979055714E+03  0.00000000000E+00 0. -1.
</event>
<event>
 6    1  0.9216756E-006  0.4181111E+03  0.7561462E-02  0.1037683E+00
         -1   -1    0    0    0  501 -0.00000000000E+00  0.00000000000E+00  0.25334424065E+03  0.25334424065E+03  0.00000000000E+00 0.  1.
          1   -1    0    0  501    0  0.00000000000E+00 -0.00000000000E+00 -0.72243196132E+03  0.72243196132E+03  0.00000000000E+00 0. -1.
          5    1    1    2  502    0 -0.31007212918E+02  0.48495051182E+02 -0.87945304520E+02  0.10519061854E+03  0.41800000000E+01 0. -1.
         -5    1    1    2    0  502 -0.24047774992E+03  0.26285923502E+03 -0.13890212168E+03  0.38240789408E+03  0.41800000000E+01 0. -1.
        -11    1    1    2    0    0  0.15636074480E+03 -0.24106765749E+03 -0.14465590745E+03  0.32169493245E+03  0.00000000000E+00 0.  1.
         11    1    1    2    0    0  0.11512421804E+03 -0.70286628711E+02 -0.97584387017E+02  0.16648275690E+03  0.00000000000E+00 0. -1.
</event>
<event>
 6    1  0.9216756E-006  0.1052436E+03  0.7561462E-02  0.1269641E+00
         -1   -1    0    0    0  501 -0.00000000000E+00  0.00000000000E+00  0.42456868970E+02  0.42456868970E+02  0.00000000000E+00 0.  1.
          1   -1    0    0  501    0  0.00000000000E+00 -0.00000000000E+00 -0.29074197731E+03  0.29074197731E+03  0.00000000000E+00 0. -1.
          5    1    1    2  502    0  0.25283907722E+02  0.69995230470E+02 -0.67759542255E+02  0.10073448389E+03  0.41800000000E+01 0. -1.
         -5    1    1    2    0  502 -0.19241881635E+02 -0.40247294482E+02 -0.23602348034E+02  0.50642254637E+02  0.41800000000E+01 0.  1.
        -11    1    1    2    0    0  0.32162281690E+02  0.12205200967E+02 -0.70360837787E+02  0.78320028015E+02  0.00000000000E+00 0. -1.
         11    1    1    2    0    0 -0.38204307777E+02 -0.41953136955E+02 -0.86562380265E+02  0.10350207974E+03  0.00000000000E+00 0.  1.
</event>
<event>
 6    1  0.9216756E-006  0.1135548E+03  0.7561462E-02  0.1254125E+00
          2   -1    0    0  501    0  0.00000000000E+00  0.00000000000E+00  0.61167428795E+03  0.61167428795E+03  0.00000000000E+00 0. -1.
         -2   -1    0    0    0  501 -0.00000000000E+00 -0.00000000000E+00 -0.27124774833E+02  0.27124774833E+02  0.00000000000E+00 0.  1.
          5    1    1    2  502    0  0.88260675183E+02 -0.23632571008E+02  0.15000679152E+03  0.17569278613E+03  0.41800000000E+01 0.  1.
         -5    1    1    2    0  502 -0.23446894973E+02  0.25493613142E+01  0.21176714032E+03  0.21311745646E+03  0.41800000000E+01 0.  1.
        -11    1    1    2    0    0 -0.36620326020E+01 -0.31091650478E+02  0.83559111577E+02  0.89231308069E+02  0.00000000000E+00 0.  1.
         11    1    1    2    0    0 -0.61151747608E+02  0.52174860171E+02  0.13921646970E+03  0.16075751212E+03  0.00000000000E+00 0. -1.
</event>
<event>
 6    1  0.9216756E-006  0.1372720E+03  0.7561462E-02  0.1217048E+00
         -2   -1    0    0    0  501 -0.00000000000E+00  0.00000000000E+00  0.16481236481E+03  0.16481236481E+03  0.00000000000E+00 0.  1.
          2   -1    0    0  501    0  0.00000000000E+00 -0.00000000000E+00 -0.22932860317E+03  0.22932860317E+03  0.00000000000E+00 0. -1.
          5    1    1    2  502    0  0.14524491583E+02 -0.10879052968E+03  0.18778415006E+01  0.10985144010E+03  0.41800000000E+01 0. -1.
         -5    1    1    2    0  502  0.26969061210E+02 -0.29160873442E+01  0.73843583299E+02  0.78779318494E+02  0.41800000000E+01 0. -1.
        -11    1    1    2    0    0 -0.32885896919E+01  0.95835317712E+02 -0.54460582577E+02  0.11027773120E+03  0.00000000000E+00 0.  1.
         11    1    1    2    0    0 -0.38204963101E+02  0.15871299311E+02 -0.85777080592E+02  0.95232478190E+02  0.00000000000E+00 0. -1.
</event>
<event>
 6    1  0.9216756E-006  0.1281538E+03  0.7561462E-02  0.1230221E+00
         -2   -1    0    0    0  501 -0.00000000000E+00  0.00000000000E+00  0.10152246313E+04  0.10152246313E+04  0.00000000000E+00 0. -1.
          2   -1    0    0  501    0  0.00000000000E+00 -0.00000000000E+00 -0.18128398394E+02  0.18128398394E+02  0.00000000000E+00 0.  1.
          5    1    1    2  502    0 -0.39017069499E+02  0.78020994965E+01  0.19362845770E+03  0.19771862962E+03  0.41800000000E+01 0.  1.
         -5    1    1    2    0  502  0.99619626608E+02  0.25013441090E+02  0.51248658007E+03  0.52269466172E+03  0.41800000000E+01 0.  1.
        -11    1    1    2    0    0  0.86047675383E+00 -0.49743274148E+02  0.15429367100E+03  0.16211622576E+03  0.00000000000E+00 0. -1.
         11    1    1    2    0    0 -0.61463033863E+02  0.16927733561E+02  0.13668752410E+03  0.15082351255E+03  0.00000000000E+00 0.  1.
</event>
<event>
 6    1  0.9216756E-006  0.1339303E+03  0.7561462E-02  0.1221738E+00
          2   -1    0    0  501    0  0.00000000000E+00  0.00000000000E+00  0.23021666829E+03  0.23021666829E+03  0.00000000000E+00 0. -1.
         -2   -1    0    0    0  501 -0.00000000000E+00 -0.00000000000E+00 -0.91911547318E+02  0.91911547318E+02  0.00000000000E+00 0.  1.
          5    1    1    2  502    0  0.55589940903E+02  0.10398327284E+03  0.75928953980E+01  0.11822811434E+03  0.41800000000E+01 0. -1.
         -5    1    1    2    0  502 -0.14637782822E+02 -0.25414629154E+02  0.24360183113E+02  0.38354386741E+02  0.41800000000E+01 0. -1.
        -11    1    1    2    0    0 -0.62214499024E+02 -0.34065974838E+02  0.35771759266E+02  0.79440249820E+02  0.00000000000E+00 0.  1.
         11    1    1    2    0    0  0.21262340943E+02 -0.44502668845E+02  0.70580283195E+02  0.86105464708E+02  0.00000000000E+00 0. -1.
</event>
<event>
 6    1  0.9216756E-006  0.8192064E+02  0.7561462E-02  0.1323688E+00
          1   -1    0    0  501    0  0.00000000000E+00  0.00000000000E+00  0.59891364425E+03  0.59891364425E+03  0.00000000000E+00 0. -1.
         -1   -1    0    0    0  501 -0.00000000000E+00 -0.00000000000E+00 -0.30928708362E+02  0.30928708362E+02  0.00000000000E+00 0.  1.
          5    1    1    2  502    0 -0.22716192365E+02  0.12138816662E+02  0.35127191244E+03  0.35223969841E+03  0.41800000000E+01 0.  1.
         -5    1    1    2    0  502 -0.24401651789E+02  0.48341878572E+02  0.45724939376E+02  0.70997326110E+02  0.41800000000E+01 0.  1.
        -11    1    1    2    0    0  0.33103141062E+02 -0.61008799953E+02  0.17790612938E+03  0.19096722884E+03  0.00000000000E+00 0. -1.
         11    1    1    2    0    0  0.14014703093E+02  0.52810471952E+00 -0.69180453071E+01  0.15638099253E+02  0.00000000000E+00 0.  1.
</event>
<event>
 6    1  0.9216756E-006  0.2091382E+03  0.7561462E-02  0.1142250E+00
         -2   -1    0    0    0  501 -0.00000000000E+00  0.00000000000E+00  0.83427651300E+02  0.83427651300E+02  0.00000000000E+00 0. -1.
          2   -1    0    0  501    0  0.00000000000E+00 -0.00000000000E+00 -0.66601014718E+03  0.66601014718E+03  0.00000000000E+00 0.  1.
          5    1    1    2  502    0 -0.19886297275E+02 -0.13522359158E+03 -0.61719035875E+02  0.15002531896E+03  0.41800000000E+01 0.  1.
         -5    1    1    2    0  502  0.53826881398E+02 -0.59484571948E+02 -0.12812329975E+03  0.15122433600E+03  0.41800000000E+01 0.  1.
        -11    1    1    2    0    0 -0.24367616006E+02  0.44877008355E+02 -0.18470863461E+03  0.19163769537E+03  0.00000000000E+00 0.  1.
         11    1    1    2    0    0 -0.95729681171E+01  0.14983115518E+03 -0.20803152565E+03  0.25655044814E+03  0.00000000000E+00 0. -1.
</event>
<event>
 6    1  0.9216756E-006  0.1422625E+03  0.7561462E-02  0.1210317E+00
         -2   -1    0    0    0  501 -0.00000000000E+00  0.00000000000E+00  0.80932945954E+02  0.80932945954E+02  0.00000000000E+00 0.  1.
          2   -1    0    0  501    0  0.00000000000E+00 -0.00000000000E+00 -0.43793177756E+03  0.43793177756E+03  0.00000000000E+00 0. -1.
          5    1    1    2  502    0 -0.20198266034E+02  0.52231924270E+02  0.92782766281E+01  0.56918386141E+02  0.41800000000E+01 0.  1.
         -5    1    1    2    0  502 -0.99156101503E+02 -0.40601280404E+02 -0.63672125234E+02  0.12470769169E+03  0.41800000000E+01 0.  1.
        -11    1    1    2    0    0  0.88662700926E+02 -0.10291812723E+01 -0.28853213283E+03  0.30184917662E+03  0.00000000000E+00 0. -1.
         11    1    1    2    0    0  0.30691666611E+02 -0.10601462594E+02 -0.14072850169E+02  0.35389469061E+02  0.00000000000E+00 0.  1.
</event>
<event>
 6    1  0.9216756E-006  0.9852788E+02  0.7561462E-02  0.1283422E+00
          1   -1    0    0  501    0  0.00000000000E+00  0.00000000000E+00  0.37718090768E+03  0.37718090768E+03  0.00000000000E+00 0. -1.
         -1   -1    0    0    0  501 -0.00000000000E+00 -0.00000000000E+00 -0.70857558377E+02  0.70857558377E+02  0.00000000000E+00 0.  1.
          5    1    1    2  502    0 -0.19545952647E+02  0.39445588023E+01  0.40983117028E+02  0.45767806266E+02  0.41800000000E+01 0. -1.
         -5    1    1    2    0  502  0.67017647733E+02 -0.36675845857E+02 -0.34306207952E+02  0.83850289690E+02  0.41800000000E+01 0.  1.
        -11    1    1    2    0    0 -0.69446460983E+02  0.35549395873E+02  0.27213611900E+03  0.28309828285E+03  0.00000000000E+00 0. -1.
         11    1    1    2    0    0  0.21974765896E+02 -0.28181088185E+01  0.27510321226E+02  0.35322087247E+02  0.00000000000E+00 0.  1.
</event>
<event>
 6    1  0.9216756E-006  0.9759533E+02  0.7561462E-02  0.1285435E+00
          2   -1    0    0  501    0  0.00000000000E+00  0.00000000000E+00  0.13877276540E+02  0.13877276540E+02  0.00000000000E+00 0. -1.
         -2   -1    0    0    0  501 -0.00000000000E+00 -0.00000000000E+00 -0.94426678728E+03  0.94426678728E+03  0.00000000000E+00 0.  1.
          5    1    1    2  502    0  0.58162125352E+02  0.16561870249E+02 -0.13014552556E+03  0.14357039596E+03  0.41800000000E+01 0.  1.
         -5    1    1    2    0  502 -0.35210371546E+02  0.12439747907E+02 -0.42660717704E+03  0.42825888607E+03  0.41800000000E+01 0.  1.
        -11    1    1    2    0    0  0.17586966519E+02 -0.48806062944E+02 -0.22907729737E+03  0.23487814148E+03  0.00000000000E+00 0.  1.
         11    1    1    2    0    0 -0.40538720324E+02  0.19804444787E+02 -0.14455951077E+03  0.15143664032E+03  0.00000000000E+00 0. -1.
</event>
<event>
 6    1  0.9216756E-006  0.2043339E+03  0.7561462E-02  0.1146133E+00
         -3   -1    0    0    0  501 -0.00000000000E+00  0.00000000000E+00  0.22254997939E+03  0.22254997939E+03  0.00000000000E+00 0.  1.
          3   -1    0    0  501    0  0.00000000000E+00 -0.00000000000E+00 -0.24346276811E+03  0.24346276811E+03  0.00000000000E+00 0. -1.
          5    1    1    2  502    0  0.97165751510E+01  0.10745839700E+03  0.75131194666E+02  0.13154424248E+03  0.41800000000E+01 0. -1.
         -5    1    1    2    0  502  0.85249469756E+02  0.61281864950E+02 -0.16395878525E+02  0.10634489314E+03  0.41800000000E+01 0. -1.
        -11    1    1    2    0    0 -0.78884547767E+02 -0.11450384880E+03 -0.96318291319E+02  0.16914820871E+03  0.00000000000E+00 0. -1.
         11    1    1    2    0    0 -0.16081497140E+02 -0.54236413147E+02  0.16670186454E+02  0.58975403159E+02  0.00000000000E+00 0.  1.
</event>
<event>
 6    1  0.9216756E-006  0.1071991E+03  0.7561462E-02  0.1265846E+00
         -2   -1    0    0    0  501 -0.00000000000E+00  0.00000000000E+00  0.11780906185E+03  0.11780906185E+03  0.00000000000E+00 0.  1.
          2   -1    0    0  501    0  0.00000000000E+00 -0.00000000000E+00 -0.13614650150E+03  0.13614650150E+03  0.00000000000E+00 0. -1.
          5    1    1    2  502    0 -0.32563712844E+02 -0.44697848357E+02  0.33192031318E+02  0.64633399918E+02  0.41800000000E+01 0. -1.
         -5    1    1    2    0  502  0.55114822706E+02  0.63502351320E+02 -0.33533499631E+02  0.90620970546E+02  0.41800000000E+01 0.  1.
        -11    1    1    2    0    0 -0.44286170806E+02  0.24451905763E+01  0.21150968329E+02  0.49138654263E+02  0.00000000000E+00 0.  1.
         11    1    1    2    0    0  0.21735060943E+02 -0.21249693540E+02 -0.39146939663E+02  0.49562538623E+02  0.00000000000E+00 0. -1.
</event>
<event>
 6    1  0.9216756E-006  0.1123908E+03  0.7561462E-02  0.1256205E+00
         -3   -1    0    0    0  501 -0.00000000000E+00  0.00000000000E+00  0.16058903553E+03  0.16058903553E+03  0.00000000000E+00 0.  1.
          3   -1    0    0  501    0  0.00000000000E+00 -0.00000000000E+00 -0.10676667381E+03  0.10676667381E+03  0.00000000000E+00 0. -1.
          5    1    1    2  502    0 -0.80599786656E+01 -0.34409090229E+02  0.24053449338E+02  0.42953341797E+02  0.41800000000E+01 0.  1.
         -5    1    1    2    0  502 -0.19855606659E+02  0.10172626711E+03 -0.43295648458E+00  0.10373108689E+03  0.41800000000E+01 0.  1.
        -11    1    1    2    0    0  0.35726646264E+02 -0.28034249528E+02  0.56702137403E+02  0.72646023883E+02  0.00000000000E+00 0. -1.
         11    1    1    2    0    0 -0.78110609394E+01 -0.39282927356E+02 -0.26500268536E+02  0.48025256763E+02  0.00000000000E+00 0.  1.
</event>
<event>
 6    1  0.9216756E-006  0.1170751E+03  0.7561462E-02  0.1248002E+00
          1   -1    0    0  501    0  0.00000000000E+00  0.00000000000E+00  0.81189645210E+03  0.81189645210E+03  0.00000000000E+00 0. -1.
         -1   -1    0    0    0  501 -0.00000000000E+00 -0.00000000000E+00 -0.18407593373E+02  0.18407593373E+02  0.00000000000E+00 0.  1.
          5    1    1    2  502    0 -0.42646270692E+02  0.12243948693E+02  0.82903926664E+02  0.94123069116E+02  0.41800000000E+01 0.  1.
         -5    1    1    2    0  502  0.78864742827E+02  0.39056421167E+01  0.31943539489E+03  0.32907650419E+03  0.41800000000E+01 0.  1.
        -11    1    1    2    0    0 -0.68427678773E+02 -0.30906706361E+02  0.30149010674E+03  0.31069898001E+03  0.00000000000E+00 0. -1.
         11    1    1    2    0    0  0.32209206638E+02  0.14757115552E+02  0.89659430442E+02  0.96405492161E+02  0.00000000000E+00 0.  1.
</event>
<event>
 6    1  0.9216756E-006  0.1000428E+03  0.7561462E-02  0.1280206E+00
         -1   -1    0    0    0  501 -0.00000000000E+00  0.00000000000E+00  0.12084403412E+03  0.12084403412E+03  0.00000000000E+00 0.  1.
          1   -1    0    0  501    0  0.00000000000E+00 -0.00000000000E+00 -0.11952758849E+03  0.11952758849E+03  0.00000000000E+00 0. -1.
          5    1    1    2  502    0 -0.46002148939E+02  0.51785488547E+01  0.18842293264E+01  0.46519219634E+02  0.41800000000E+01 0. -1.
         -5    1    1    2    0  502  0.76578633618E+02 -0.42051128710E+02  0.17916598191E+01  0.87482952611E+02  0.41800000000E+01 0. -1.
        -11    1    1    2    0    0 -0.38180780605E+00  0.35928412339E+02  0.40367294155E+02  0.54041789643E+02  0.00000000000E+00 0.  1.
         11    1    1    2    0    0 -0.30194676874E+02  0.94416751689E+00 -0.42726737672E+02  0.52327660715E+02  0.00000000000E+00 0. -1.
</event>
<event>
 6    1  0.9216756E-006  0.9982536E+02  0.7561462E-02  0.1280664E+00
          2   -1    0    0  501    0  0.00000000000E+00  0.00000000000E+00  0.39959227655E+03  0.39959227655E+03  0.00000000000E+00 0. -1.
         -2   -1    0    0    0  501 -0.00000000000E+00 -0.00000000000E+00 -0.30312371666E+02  0.30312371666E+02  0.00000000000E+00 0.  1.
          5    1    1    2  502    0  0.87461920281E+02  0.32875720978E+02  0.90958778175E+02  0.13046598122E+03  0.41800000000E+01 0. -1.
         -5    1    1    2    0  502 -0.35030892840E+02  0.18764488816E+01  0.11349041256E+03  0.11886223394E+03  0.41800000000E+01 0.  1.
        -11    1    1    2    0    0 -0.33622479112E+02 -0.39017064232E+02  0.94214759370E+02  0.10737422077E+03  0.00000000000E+00 0.  1.
         11    1    1    2    0    0 -0.18808548330E+02  0.42648943722E+01  0.70615954779E+02  0.73202212286E+02  0.00000000000E+00 0. -1.
</event>
<event>
 6    1  0.9216756E-006  0.1087611E+03  0.7561462E-02  0.1262881E+00
         -4   -1    0    0    0  501 -0.00000000000E+00  0.00000000000E+00  0.20763174376E+03  0.20763174376E+03  0.00000000000E+00 0. -1.
          4   -1    0    0  501    0  0.00000000000E+00 -0.00000000000E+00 -0.71572974959E+02  0.71572974959E+02  0.00000000000E+00 0.  1.
          5    1    1    2  502    0 -0.14831019421E+02  0.59791850062E+02  0.73153254144E+02  0.95728237542E+02  0.41800000000E+01 0.  1.
         -5    1    1    2    0  502  0.26699189854E+02 -0.57734146777E+02  0.65466172362E+02  0.91374890241E+02  0.41800000000E+01 0.  1.
        -11    1    1    2    0    0  0.39474514964E+02 -0.82147783554E+01 -0.23858887879E+01  0.40390746222E+02  0.00000000000E+00 0. -1.
         11    1    1    2    0    0 -0.51342685397E+02  0.61570750699E+01 -0.17476891278E+00  0.51710844717E+02  0.00000000000E+00 0.  1.
</event>
<event>
 6    1  0.9216756E-006  0.1455535E+03  0.7561462E-02  0.1206046E+00
         -2   -1    0    0    0  501 -0.00000000000E+00  0.00000000000E+00  0.42644360982E+02  0.42644360982E+02  0.00000000000E+00 0.  1.
          2   -1    0    0  501    0  0.00000000000E+00 -0.00000000000E+00 -0.59285580406E+03  0.59285580406E+03  0.00000000000E+00 0. -1.
          5    1    1    2  502    0  0.57895759149E+02  0.73730339710E+02 -0.13604412722E+03  0.16526814234E+03  0.41800000000E+01 0. -1.
         -5    1    1    2    0  502  0.54505891100E+02 -0.52293574439E+02 -0.11562765185E+03  0.13817646820E+03  0.41800000000E+01 0. -1.
        -11    1    1    2    0    0 -0.39676982285E+02  0.12174272856E+02 -0.28408645176E+02  0.50294402905E+02  0.00000000000E+00 0.  1.
         11    1    1    2    0    0 -0.72724667963E+02 -0.33611038127E+02 -0.27013101884E+03  0.28176115160E+03  0.00000000000E+00 0. -1.
</event>
<event>
 6    1  0.9216756E-006  0.8719868E+02  0.7561462E-02  0.1309781E+00
         -2   -1    0    0    0  501 -0.00000000000E+00  0.00000000000E+00  0.50486995271E+02  0.50486995271E+02  0.00000000000E+00 0.  1.
          2   -1    0    0  501    0  0.00000000000E+00 -0.00000000000E+00 -0.27074300502E+03  0.27074300502E+03  0.00000000000E+00 0. -1.
          5    1    1    2  502    0  0.78251746539E+01  0.55867577224E+02 -0.14084612824E+02  0.58294667524E+02  0.41800000000E+01 0.  1.
         -5    1    1    2    0  502  0.34010382132E+02 -0.42917433927E+02 -0.11149162220E+03  0.12428381411E+03  0.41800000000E+01 0.  1.
        -11    1    1    2    0    0  0.87815393893E+01 -0.82955670396E+01  0.14108606979E+02  0.18573762608E+02  0.00000000000E+00 0.  1.
         11    1    1    2    0    0 -0.50617096175E+02 -0.46545762577E+01 -0.10878838170E+03  0.12007775605E+03  0.00000000000E+00 0. -1.
</event>
<event>
 6    1  0.9216756E-006  0.9487564E+02  0.7561462E-02  0.1291456E+00
          1   -1    0    0  501    0  0.00000000000E+00  0.00000000000E+00  0.16703600717E+03  0.16703600717E+03  0.00000000000E+00 0. -1.
         -1   -1    0    0    0  501 -0.00000000000E+00 -0.00000000000E+00 -0.74182851763E+02  0.74182851763E+02  0.00000000000E+00 0.  1.
          5    1    1    2  502    0  0.58009490862E+02  0.37064540513E+02 -0.10697644341E+01  0.68974618444E+02  0.41800000000E+01 0. -1.
         -5    1    1    2    0  502 -0.46357293857E+02 -0.32182397585E+02  0.50866971211E+01  0.56815951067E+02  0.41800000000E+01 0. -1.
        -11    1    1    2    0    0  0.24671392195E+02  0.75567839083E+01  0.98759237464E+01  0.27628182092E+02  0.00000000000E+00 0.  1.
         11    1    1    2    0    0 -0.36323589199E+02 -0.12438926837E+02  0.78960298975E+02  0.87800107332E+02  0.00000000000E+00 0. -1.
</event>
<event>
 6    1  0.9216756E-006  0.1135845E+03  0.7561462E-02  0.1254072E+00
         -1   -1    0    0    0  501 -0.00000000000E+00  0.00000000000E+00  0.38794681563E+02  0.38794681563E+02  0.00000000000E+00 0.  1.
          1   -1    0    0  501    0  0.00000000000E+00 -0.00000000000E+00 -0.50525349517E+03  0.50525349517E+03  0.00000000000E+00 0. -1.
          5    1    1    2  502    0  0.16112245791E+02  0.73404661309E+02 -0.15406654472E+03  0.17146959313E+03  0.41800000000E+01 0. -1.
         -5    1    1    2    0  502 -0.66104398740E+02 -0.54730205308E+01 -0.54524071801E+02  0.85965646000E+02  0.41800000000E+01 0. -1.
        -11    1    1    2    0    0  0.41668037672E+01 -0.14304253931E+02  0.39869369233E+01  0.15423021759E+02  0.00000000000E+00 0.  1.
         11    1    1    2    0    0  0.45825349182E+02 -0.53627386848E+02 -0.26185513401E+03  0.27118991585E+03  0.00000000000E+00 0. -1.
</event>
<event>
 6    1  0.9216756E-006  0.1684775E+03  0.7561462E-02  0.1179445E+00
         -1   -1    0    0    0  501 -0.00000000000E+00  0.00000000000E+00  0.77873312347E+02  0.77873312347E+02  0.00000000000E+00 0.  1.
          1   -1    0    0  501    0  0.00000000000E+00 -0.00000000000E+00 -0.51531773868E+03  0.51531773868E+03  0.00000000000E+00 0. -1.
          5    1    1    2  502    0  0.48375040856E+02 -0.10607899235E+03 -0.12726222278E+03  0.17264426704E+03  0.41800000000E+01 0.  1.
         -5    1    1    2    0  502  0.59110120637E+02 -0.13137363617E+01  0.42848570881E+01  0.59426969174E+02  0.41800000000E+01 0.  1.
        -11    1    1    2    0    0 -0.18870694886E+02  0.54834345626E+02 -0.47496955205E+02  0.74959117787E+02  0.00000000000E+00 0. -1.
         11    1    1    2    0    0 -0.88614466608E+02  0.52558383084E+02 -0.26697010544E+03  0.28616069703E+03  0.00000000000E+00 0.  1.
</event>
<event>
 6    1  0.9216756E-006  0.8580020E+02  0.7561462E-02  0.1313353E+00
         -4   -1    0    0    0  501 -0.00000000000E+00  0.00000000000E+00  0.87762438206E+03  0.87762438206E+03  0.00000000000E+00 0.  1.
          4   -1    0    0  501    0  0.00000000000E+00 -0.00000000000E+00 -0.14658186230E+02  0.14658186230E+02  0.00000000000E+00 0. -1.
          5    1    1    2  502    0 -0.53353226832E+01 -0.38157300545E+02  0.83130909110E+02  0.91720584944E+02  0.41800000000E+01 0. -1.
         -5    1    1    2    0  502  0.79577923836E+00  0.40882005303E+02  0.56104346309E+03  0.56254707492E+03  0.41800000000E+01 0.  1.
        -11    1    1    2    0    0  0.32554391081E+02  0.32992503191E+02  0.86245295838E+02  0.97910901843E+02  0.00000000000E+00 0.  1.
         11    1    1    2    0    0 -0.28014847636E+02 -0.35717207949E+02  0.13254652780E+03  0.14010400659E+03  0.00000000000E+00 0. -1.
</event>
<event>
 6    1  0.9216756E-006  0.1207325E+03  0.7561462E-02  0.1241893E+00
          2   -1    0    0  501    0  0.00000000000E+00  0.00000000000E+00  0.67700877383E+03  0.67700877383E+03  0.00000000000E+00 0. -1.
         -2   -1    0    0    0  501 -0.00000000000E+00 -0.00000000000E+00 -0.31595758769E+02  0.31595758769E+02  0.00000000000E+00 0.  1.
          5    1    1    2  502    0 -0.24722068580E+02  0.57405288900E+02  0.12435956399E+03  0.13924554364E+03  0.41800000000E+01 0.  1.
         -5    1    1    2    0  502  0.76016392294E+02 -0.36254158451E+01  0.69529733749E+02  0.10316730011E+03  0.41800000000E+01 0.  1.
        -11    1    1    2    0    0  0.17976336949E+02 -0.88211359086E+01  0.26473209475E+02  0.33193251554E+02  0.00000000000E+00 0.  1.
         11    1    1    2    0    0 -0.69270660663E+02 -0.44958737147E+02  0.42505050784E+03  0.43299843728E+03  0.00000000000E+00 0. -1.
</event>
<event>
 6    1  0.9216756E-006  0.2140776E+03  0.7561462E-02  0.1138377E+00
         -2   -1    0    0    0  501 -0.00000000000E+00  0.00000000000E+00  0.11714082723E+03  0.11714082723E+03  0.00000000000E+00 0.  1.
          2   -1    0    0  501    0  0.00000000000E+00 -0.00000000000E+00 -0.43504569751E+03  0.43504569751E+03  0.00000000000E+00 0. -1.
          5    1    1    2  502    0  0.50484951016E+02  0.40559360745E+02 -0.38565255286E+02  0.75488696759E+02  0.41800000000E+01 0. -1.
         -5    1    1    2    0  502 -0.74719711392E+02 -0.18727979326E+03 -0.80297203462E+02  0.21707572300E+03  0.41800000000E+01 0.  1.
        -11    1    1    2    0    0  0.41711636761E+02  0.13292807852E+03 -0.14456257924E+03  0.20076870776E+03  0.00000000000E+00 0. -1.
         11    1    1    2    0    0 -0.17476876384E+02  0.13792353996E+02 -0.54479832305E+02  0.58853397224E+02  0.00000000000E+00 0.  1.
</event>
<event>
 6    1  0.9216756E-006  0.1070726E+03  0.7561462E-02  0.1266089E+00
          1   -1    0    0  501    0  0.00000000000E+00  0.00000000000E+00  0.10190290808E+02  0.10190290808E+02  0.00000000000E+00 0. -1.
         -1   -1    0    0    0  501 -0.00000000000E+00 -0.00000000000E+00 -0.12088615476E+04  0.12088615476E+04  0.00000000000E+00 0.  1.
          5    1    1    2  502    0 -0.39712864967E+02 -0.36424505689E+02 -0.23076499926E+03  0.23701015494E+03  0.41800000000E+01 0. -1.
         -5    1    1    2    0  502  0.53296198358E+02  0.38496517982E+02 -0.53226084538E+03  0.53632224137E+03  0.41800000000E+01 0. -1.
        -11    1    1    2    0    0 -0.48610563293E+02 -0.22611772391E+02 -0.24462176956E+03  0.25042781246E+03  0.00000000000E+00 0. -1.
         11    1    1    2    0    0  0.35027229902E+02  0.20539760098E+02 -0.19102364257E+03  0.19529162962E+03  0.00000000000E+00 0.  1.
</event>
<event>
 6    1  0.9216756E-006  0.9001866E+02  0.7561462E-02  0.1302807E+00
         -1   -1    0    0    0  501 -0.00000000000E+00  0.00000000000E+00  0.27037403963E+03  0.27037403963E+03  0.00000000000E+00 0.  1.
          1   -1    0    0  501    0  0.00000000000E+00 -0.00000000000E+00 -0.11756332310E+03  0.11756332310E+03  0.00000000000E+00 0. -1.
          5    1    1    2  502    0 -0.22764625464E+02  0.75604108849E+02  0.63639265573E+02  0.10149698503E+03  0.41800000000E+01 0.  1.
         -5    1    1    2    0  502 -0.21414976372E+02 -0.27297912755E+02  0.15405498590E+03  0.15796894738E+03  0.41800000000E+01 0.  1.
        -11    1    1    2    0    0  0.46089837452E+01 -0.97023497342E+01  0.22578354895E+02  0.25003208420E+02  0.00000000000E+00 0.  1.
         11    1    1    2    0    0  0.39570618090E+02 -0.38603846360E+02 -0.87461889844E+02  0.10346822191E+03  0.00000000000E+00 0. -1.
</event>
<event>
 6    1  0.9216756E-006  0.9201089E+02  0.7561462E-02  0.1298054E+00
         -2   -1    0    0    0  501 -0.00000000000E+00  0.00000000000E+00  0.36241616506E+02  0.36241616506E+02  0.00000000000E+00 0. -1.
          2   -1    0    0  501    0  0.00000000000E+00 -0.00000000000E+00 -0.41670806713E+03  0.41670806713E+03  0.00000000000E+00 0.  1.
          5    1    1    2  502    0 -0.19466039504E+02  0.19988886889E+02 -0.13156144945E+03  0.13455247926E+03  0.41800000000E+01 0.  1.
         -5    1    1    2    0  502  0.65293284205E+01 -0.67212976298E+02 -0.25962507696E+02  0.72468893453E+02  0.41800000000E+01 0.  1.
        -11    1    1    2    0    0  0.36847223155E+01  0.66587979099E+02 -0.94247084036E+02  0.11545583133E+03  0.00000000000E+00 0. -1.
         11    1    1    2    0    0  0.92519887678E+01 -0.19363889690E+02 -0.12869540944E+03  0.13047247960E+03  0.00000000000E+00 0.  1.
</event>
<event>
 6    1  0.9216756E-006  0.1056314E+03  0.7561462E-02  0.1268881E+00
          1   -1    0    0  501    0  0.00000000000E+00  0.00000000000E+00  0.51884406100E+03  0.51884406100E+03  0.00000000000E+00 0. -1.
         -1   -1    0    0    0  501 -0.00000000000E+00 -0.00000000000E+00 -0.25514032714E+02  0.25514032714E+02  0.00000000000E+00 0.  1.
          5    1    1    2  502    0 -0.79674822654E+02 -0.48549870242E+01  0.11262706813E+03  0.13810857012E+03  0.41800000000E+01 0. -1.
         -5    1    1    2    0  502  0.41637538126E+02  0.60136838108E+01  0.14152477782E+03  0.14770438081E+03  0.41800000000E+01 0. -1.
        -11    1    1    2    0    0  0.55391055108E+02 -0.24001014532E+02  0.10307419515E+03  0.11945085764E+03  0.00000000000E+00 0.  1.
         11    1    1    2    0    0 -0.17353770580E+02  0.22842317745E+02  0.13610398718E+03  0.13909428514E+03  0.00000000000E+00 0. -1.
</event>
<event>
 6    1  0.9216756E-006  0.1895653E+03  0.7561462E-02  0.1158854E+00
         -2   -1    0    0    0  501 -0.00000000000E+00  0.00000000000E+00  0.21220469330E+02  0.21220469330E+02  0.00000000000E+00 0.  1.
          2   -1    0    0  501    0  0.00000000000E+00 -0.00000000000E+00 -0.20963734865E+04  0.20963734865E+04  0.00000000000E+00 0. -1.
          5    1    1    2  502    0  0.91667108280E+02 -0.13458274459E+03 -0.97428242511E+03  0.98780518837E+03  0.41800000000E+01 0. -1.
         -5    1    1    2    0  502 -0.28256817315E+02 -0.20339597117E+02 -0.49809944699E+03  0.49933223251E+03  0.41800000000E+01 0. -1.
        -11    1    1    2    0    0 -0.56813916061E+02  0.48934703147E+02 -0.19043115411E+03  0.20466179586E+03  0.00000000000E+00 0.  1.
         11    1    1    2    0    0 -0.65963749032E+01  0.10598763856E+03 -0.41233999091E+03  0.42579473904E+03  0.00000000000E+00 0. -1.
</event>
<event>
 6    1  0.9216756E-006  0.1254600E+03  0.7561462E-02  0.1234352E+00
         -1   -1    0    0    0  501 -0.00000000000E+00  0.00000000000E+00  0.10752855897E+03  0.10752855897E+03  0.00000000000E+00 0.  1.
          1   -1    0    0  501    0  0.00000000000E+00 -0.00000000000E+00 -0.17348329504E+03  0.17348329504E+03  0.00000000000E+00 0. -1.
          5    1    1    2  502    0 -0.11298758792E+02  0.30345958528E+02  0.14163733618E+02  0.35589645955E+02  0.41800000000E+01 0. -1.
         -5    1    1    2    0  502  0.13436800335E+02 -0.10959797386E+03 -0.22336358582E+02  0.11273264297E+03  0.41800000000E+01 0. -1.
        -11    1    1    2    0    0 -0.20713611948E+02  0.85655270043E+02 -0.20394355354E+02  0.90453351161E+02  0.00000000000E+00 0.  1.
         11    1    1    2    0    0  0.18575570405E+02 -0.64032547144E+01 -0.37387755753E+02  0.42236213929E+02  0.00000000000E+00 0. -1.
</event>
<event>
 6    1  0.9216756E-006  0.8629937E+02  0.7561462E-02  0.1312069E+00
         -1   -1    0    0    0  501 -0.00000000000E+00  0.00000000000E+00  0.25397363695E+03  0.25397363695E+03  0.00000000000E+00 0.  1.
          1   -1    0    0  501    0  0.00000000000E+00 -0.00000000000E+00 -0.69368898754E+02  0.69368898754E+02  0.00000000000E+00 0. -1.
          5    1    1    2  502    0  0.40482268929E+01 -0.72953960721E+02  0.33034167472E+02  0.80295685728E+02  0.41800000000E+01 0. -1.
         -5    1    1    2    0  502  0.64054584605E+01  0.20960017342E+02  0.13014127977E+03  0.13204005955E+03  0.41800000000E+01 0. -1.
        -11    1    1    2    0    0 -0.14443570904E-01  0.62377267487E+02  0.49285749083E+02  0.79498482819E+02  0.00000000000E+00 0.  1.
         11    1    1    2    0    0 -0.10439241783E+02 -0.10383324108E+02 -0.27856458132E+02  0.31508307606E+02  0.00000000000E+00 0. -1.
</event>
<event>
 6    1  0.9216756E-006  0.1126854E+03  0.7561462E-02  0.1255676E+00
          1   -1    0    0  501    0  0.00000000000E+00  0.00000000000E+00  0.45528826713E+03  0.45528826713E+03  0.00000000000E+00 0. -1.
         -1   -1    0    0    0  501 -0.00000000000E+00 -0.00000000000E+00 -0.37487460293E+02  0.37487460293E+02  0.00000000000E+00 0.  1.
          5    1    1    2  502    0  0.39250739076E+02  0.67172531486E+02  0.14553544820E+03  0.16507818931E+03  0.41800000000E+01 0. -1.
         -5    1    1    2    0  502 -0.45687550091E+02 -0.44639927415E+01  0.16153127818E+02  0.48843376243E+02  0.41800000000E+01 0. -1.
        -11    1    1    2    0    0 -0.91588891076E+01 -0.78580363042E+02  0.14161351201E+03  0.16221327161E+03  0.00000000000E+00 0.  1.
         11    1    1    2    0    0  0.15595700123E+02  0.15871824298E+02  0.11449871882E+03  0.11664089026E+03  0.00000000000E+00 0. -1.
</event>
<event>
 6    1  0.9216756E-006  0.1059520E+03  0.7561462E-02  0.1268255E+00
          2   -1    0    0  501    0  0.00000000000E+00  0.00000000000E+00  0.91884062989E+03  0.91884062989E+03  0.00000000000E+00 0. -1.
         -2   -1    0    0    0  501 -0.00000000000E+00 -0.00000000000E+00 -0.14071292218E+02  0.14071292218E+02  0.00000000000E+00 0.  1.
          5    1    1    2  502    0 -0.79361129183E+02  0.23139032020E+02  0.26003018568E+03  0.27288600824E+03  0.41800000000E+01 0. -1.
         -5    1    1    2    0  502  0.41049209627E+02 -0.64034538128E+01  0.27457843396E+03  0.27773518075E+03  0.41800000000E+01 0. -1.
        -11    1    1    2    0    0  0.54136425509E+02  0.11189096093E+02  0.30114093324E+03  0.30617284352E+03  0.00000000000E+00 0. -1.
         11    1    1    2    0    0 -0.15824505953E+02 -0.27924674300E+02  0.69019784799E+02  0.76117889600E+02  0.00000000000E+00 0.  1.
</event>
<event>
 6    1  0.9216756E-006  0.9148106E+02  0.7561462E-02  0.1299304E+00
          1   -1    0    0  501    0  0.00000000000E+00  0.00000000000E+00  0.23346338928E+02  0.23346338928E+02  0.00000000000E+00 0. -1.
         -1   -1    0    0    0  501 -0.00000000000E+00 -0.00000000000E+00 -0.49831829474E+03  0.49831829474E+03  0.00000000000E+00 0.  1.
          5    1    1    2  502    0 -0.20809966804E+02  0.45207496865E+02 -0.22913510589E+03  0.23451469387E+03  0.41800000000E+01 0.  1.
         -5    1    1    2    0  502  0.32871822388E+02 -0.51348662870E+02 -0.92598219273E+02  0.11094658399E+03  0.41800000000E+01 0.  1.
        -11    1    1    2    0    0  0.10184020975E+02 -0.28765305699E+02 -0.11787711993E+03  0.12176277140E+03  0.00000000000E+00 0.  1.
         11    1    1    2    0    0 -0.22245876558E+02  0.34906471704E+02 -0.35361510714E+02  0.54440584408E+02  0.00000000000E+00 0. -1.
</event>
<event>
 6    1  0.9216756E-006  0.1049964E+03  0.7561462E-02  0.1270127E+00
          1   -1    0    0  501    0  0.00000000000E+00  0.00000000000E+00  0.34689679458E+02  0.34689679458E+02  0.00000000000E+00 0. -1.
         -1   -1    0    0    0  501 -0.00000000000E+00 -0.00000000000E+00 -0.40607845011E+03  0.40607845011E+03  0.00000000000E+00 0.  1.
          5    1    1    2  502    0  0.71444531769E+02 -0.33402170524E+02 -0.11353500170E+03  0.13830291076E+03  0.41800000000E+01 0.  1.
         -5    1    1    2    0  502 -0.32954751290E+02  0.26807197223E+02 -0.15091160688E+03  0.15683248052E+03  0.41800000000E+01 0.  1.
        -11    1    1    2    0    0 -0.62363569411E+02  0.12795809764E+02 -0.42273930530E+02  0.76420106907E+02  0.00000000000E+00 0.  1.
         11    1    1    2    0    0  0.23873788933E+02 -0.62008364628E+01 -0.64668231553E+02  0.69212631384E+02  0.00000000000E+00 0. -1.
</event>
<event>
 6    1  0.9216756E-006  0.1000267E+03  0.7561462E-02  0.1280240E+00
         -3   -1    0    0    0  501 -0.00000000000E+00  0.00000000000E+00  0.29638535520E+03  0.29638535520E+03  0.00000000000E+00 0.  1.
          3   -1    0    0  501    0  0.00000000000E+00 -0.00000000000E+00 -0.63103030251E+02  0.63103030251E+02  0.00000000000E+00 0. -1.
          5    1    1    2  502    0  0.53350864570E+02 -0.44370379066E+02  0.54644342515E+02  0.88422405858E+02  0.41800000000E+01 0. -1.
         -5    1    1    2    0  502 -0.55592328223E+00  0.41271244098E+02  0.16235065760E+03  0.16756739856E+03  0.41800000000E+01 0. -1.
        -11    1    1    2    0    0 -0.41869984711E+02  0.35477383356E+02 -0.15291382782E+02  0.56969875697E+02  0.00000000000E+00 0. -1.
         11    1    1    2    0    0 -0.10924956576E+02 -0.32378248389E+02  0.31578707623E+02  0.46528705334E+02  0.00000000000E+00 0.  1.
</event>
<event>
 6    1  0.9216756E-006  0.1345413E+03  0.7561462E-02  0.1220869E+00
          2   -1    0    0  501    0  0.00000000000E+00  0.00000000000E+00  0.19144057825E+03  0.19144057825E+03  0.00000000000E+00 0. -1.
         -2   -1    0    0    0  501 -0.00000000000E+00 -0.00000000000E+00 -0.11615321801E+03  0.11615321801E+03  0.00000000000E+00 0.  1.
          5    1    1    2  502    0 -0.23813652981E+02 -0.34635700028E+02  0.11030035159E+02  0.43656109083E+02  0.41800000000E+01 0. -1.
         -5    1    1    2    0  502 -0.88970409114E+01  0.10296727064E+03  0.48436773088E+02  0.11421475188E+03  0.41800000000E+01 0. -1.
        -11    1    1    2    0    0 -0.34037895179E+02 -0.34916471238E+02  0.48012230288E+02  0.68431809337E+02  0.00000000000E+00 0. -1.
         11    1    1    2    0    0  0.66748589071E+02 -0.33415099370E+02 -0.32191678296E+02  0.81291125964E+02  0.00000000000E+00 0.  1.
</event>
<event>
 6    1  0.9216756E-006  0.1166929E+03  0.7561462E-02  0.1248655E+00
         -1   -1    0    0    0  501 -0.00000000000E+00  0.00000000000E+00  0.37531371745E+03  0.37531371745E+03  0.00000000000E+00 0.  1.
          1   -1    0    0  501    0  0.00000000000E+00 -0.00000000000E+00 -0.74743720348E+02  0.74743720348E+02  0.00000000000E+00 0. -1.
          5    1    1    2  502    0 -0.16178105726E+01  0.40865525942E+01 -0.12566379257E+02  0.13953619988E+02  0.41800000000E+01 0. -1.
         -5    1    1    2    0  502  0.98442361178E+02 -0.23460727613E+02  0.27524709848E+03  0.29329122360E+03  0.41800000000E+01 0. -1.
        -11    1    1    2    0    0 -0.92492601407E+02 -0.12973642270E+02  0.79050428145E+00  0.93401400449E+02  0.00000000000E+00 0. -1.
         11    1    1    2    0    0 -0.43319491978E+01  0.32347817288E+02  0.37098773591E+02  0.49411193763E+02  0.00000000000E+00 0.  1.
</event>
<event>
 6    1  0.9216756E-006  0.5952064E+02  0.7561462E-02  0.1399854E+00
         -2   -1    0    0    0  501 -0.00000000000E+00  0.00000000000E+00  0.86460407122E+03  0.86460407122E+03  0.00000000000E+00 0.  1.
          2   -1    0    0  501    0  0.00000000000E+00 -0.00000000000E+00 -0.38689974169E+02  0.38689974169E+02  0.00000000000E+00 0. -1.
          5    1    1    2  502    0 -0.11040074380E+02 -0.20767461962E+01  0.14127141723E+01  0.12069145720E+02  0.41800000000E+01 0. -1.
         -5    1    1    2    0  502 -0.36090111737E+02  0.32025365903E+01  0.78784772989E+03  0.78869149248E+03  0.41800000000E+01 0.  1.
        -11    1    1    2    0    0  0.32867075476E+02  0.24677303320E+02 -0.14423869660E+02  0.43557570702E+02  0.00000000000E+00 0. -1.
         11    1    1    2    0    0  0.14263110641E+02 -0.25803093714E+02  0.51077522645E+02  0.58975836492E+02  0.00000000000E+00 0.  1.
</event>
<event>
 6    1  0.9216756E-006  0.1130120E+03  0.7561462E-02  0.1255092E+00
         -2   -1    0    0    0  501 -0.00000000000E+00  0.00000000000E+00  0.92566313409E+03  0.92566313409E+03  0.00000000000E+00 0.  1.
          2   -1    0    0  501    0  0.00000000000E+00 -0.00000000000E+00 -0.18561382202E+02  0.18561382202E+02  0.00000000000E+00 0. -1.
          5    1    1    2  502    0  0.69307480600E+02  0.33647942883E+02  0.39908510839E+03  0.40647522319E+03  0.41800000000E+01 0. -1.
         -5    1    1    2    0  502 -0.50585676499E+02 -0.71960992888E+01  0.33401322618E+03  0.33792455101E+03  0.41800000000E+01 0. -1.
        -11    1    1    2    0    0 -0.56317362872E+02 -0.14541225741E+02  0.11471216413E+03  0.12861560250E+03  0.00000000000E+00 0. -1.
         11    1    1    2    0    0  0.37595558771E+02 -0.11910617853E+02  0.59291253185E+02  0.71209139591E+02  0.00000000000E+00 0.  1.
</event>
<event>
 6    1  0.9216756E-006  0.2136658E+03  0.7561462E-02  0.1138696E+00
         -1   -1    0    0    0  501 -0.00000000000E+00  0.00000000000E+00  0.10211449224E+03  0.10211449224E+03  0.00000000000E+00 0.  1.
          1   -1    0    0  501    0  0.00000000000E+00 -0.00000000000E+00 -0.47034893301E+03  0.47034893301E+03  0.00000000000E+00 0. -1.
          5    1    1    2  502    0  0.14460543746E+03  0.71425928321E+02 -0.14838775429E+03  0.21920035082E+03  0.41800000000E+01 0.  1.
         -5    1    1    2    0  502 -0.75717733676E+01  0.58491874674E+02 -0.17861262384E+02  0.61766724445E+02  0.41800000000E+01 0.  1.
        -11    1    1    2    0    0 -0.12896365253E+02  0.12486298987E+02 -0.51564072041E+01  0.18676520939E+02  0.00000000000E+00 0.  1.
         11    1    1    2    0    0 -0.12413729884E+03 -0.14240410198E+03 -0.19682901690E+03  0.27281982904E+03  0.00000000000E+00 0. -1.
</event>
<event>
 6    1  0.9216756E-006  0.8824427E+02  0.7561462E-02  0.1307160E+00
         -1   -1    0    0    0  501 -0.00000000000E+00  0.00000000000E+00  0.80608966139E+02  0.80608966139E+02  0.00000000000E+00 0.  1.
          1   -1    0    0  501    0  0.00000000000E+00 -0.00000000000E+00 -0.16276973500E+03  0.16276973500E+03  0.00000000000E+00 0. -1.
          5    1    1    2  502    0 -0.53701461325E+02  0.21871182548E+02 -0.38237804978E+02  0.69583027413E+02  0.41800000000E+01 0. -1.
         -5    1    1    2    0  502  0.44572726148E+02 -0.24316433473E+02  0.24650078075E+02  0.56596074088E+02  0.41800000000E+01 0. -1.
        -11    1    1    2    0    0  0.20224351094E+02  0.30863817952E+02  0.52966068764E+01  0.37278058964E+02  0.00000000000E+00 0.  1.
         11    1    1    2    0    0 -0.11095615917E+02 -0.28418567028E+02 -0.73869648832E+02  0.79921540670E+02  0.00000000000E+00 0. -1.
</event>
<event>
 6    1  0.9216756E-006  0.1128913E+03  0.7561462E-02  0.1255307E+00
         -1   -1    0    0    0  501 -0.00000000000E+00  0.00000000000E+00  0.35795037311E+02  0.35795037311E+02  0.00000000000E+00 0.  1.
          1   -1    0    0  501    0  0.00000000000E+00 -0.00000000000E+00 -0.52490375436E+03  0.52490375436E+03  0.00000000000E+00 0. -1.
          5    1    1    2  502    0 -0.68874889484E+02  0.47982414226E+02 -0.54945863675E+02  0.10041206507E+03  0.41800000000E+01 0.  1.
         -5    1    1    2    0  502  0.43182743998E+02 -0.17365470306E+01 -0.80477820321E+02  0.91443517750E+02  0.41800000000E+01 0.  1.
        -11    1    1    2    0    0  0.54679738229E+02 -0.42156527839E+02 -0.29842419286E+03  0.30630710977E+03  0.00000000000E+00 0. -1.
         11    1    1    2    0    0 -0.28987592744E+02 -0.40893393566E+01 -0.55260840193E+02  0.62536099081E+02  0.00000000000E+00 0.  1.
</event>
<event>
 6    1  0.9216756E-006  0.1157409E+03  0.7561462E-02  0.1250293E+00
         -2   -1    0    0    0  501 -0.00000000000E+00  0.00000000000E+00  0.26685396798E+02  0.26685396798E+02  0.00000000000E+00 0.  1.
          2   -1    0    0  501    0  0.00000000000E+00 -0.00000000000E+00 -0.57325082963E+03  0.57325082963E+03  0.00000000000E+00 0. -1.
          5    1    1    2  502    0  0.13428377155E+02  0.51435510876E+02 -0.83140295587E+02  0.98771019243E+02  0.41800000000E+01 0. -1.
         -5    1    1    2    0  502 -0.52089127193E+01 -0.73550736591E+02 -0.10938071833E+03  0.13197900427E+03  0.41800000000E+01 0. -1.
        -11    1    1    2    0    0  0.29234101949E+02  0.49788538381E+02 -0.21068558927E+03  0.21845353921E+03  0.00000000000E+00 0. -1.
         11    1    1    2    0    0 -0.37453566385E+02 -0.27673312666E+02 -0.14335882965E+03  0.15073266370E+03  0.00000000000E+00 0.  1.
</event>
<event>
 6    1  0.9216756E-006  0.2862189E+03  0.7561462E-02  0.1092340E+00
         -2   -1    0    0    0  501 -0.00000000000E+00  0.00000000000E+00  0.63824925640E+02  0.63824925640E+02  0.00000000000E+00 0.  1.
          2   -1    0    0  501    0  0.00000000000E+00 -0.00000000000E+00 -0.13657983485E+04  0.13657983485E+04  0.00000000000E+00 0. -1.
          5    1    1    2  502    0 -0.12069943548E+03 -0.20805043936E+03 -0.50870115021E+03  0.56271455612E+03  0.41800000000E+01 0.  1.
         -5    1    1    2    0  502  0.20758660228E+02 -0.44102174009E+02 -0.20921507701E+03  0.21485889457E+03  0.41800000000E+01 0.  1.
        -11    1    1    2    0    0  0.61154830243E+01  0.12386106004E+03 -0.18722015693E+03  0.22456702449E+03  0.00000000000E+00 0.  1.
         11    1    1    2    0    0  0.93825292232E+02  0.12829155333E+03 -0.39683703872E+03  0.42748279897E+03  0.00000000000E+00 0. -1.
</event>
<event>
 6    1  0.9216756E-006  0.1198789E+03  0.7561462E-02  0.1243297E+00
         -1   -1    0    0    0  501 -0.00000000000E+00  0.00000000000E+00  0.41892392521E+02  0.41892392521E+02  0.00000000000E+00 0.  1.
          1   -1    0    0  501    0  0.00000000000E+00 -0.00000000000E+00 -0.36503609946E+03  0.36503609946E+03  0.00000000000E+00 0. -1.
          5    1    1    2  502    0 -0.64547719615E+02  0.16292986704E+01 -0.71596776670E+02  0.96501987291E+02  0.41800000000E+01 0. -1.
         -5    1    1    2    0  502  0.54394282284E+02  0.39496483521E+02 -0.72597223448E+02  0.99027972856E+02  0.41800000000E+01 0. -1.
        -11    1    1    2    0    0  0.47786238083E+02 -0.49868720096E+02 -0.83102504485E+02  0.10805757746E+03  0.00000000000E+00 0.  1.
         11    1    1    2    0    0 -0.37632800752E+02  0.87429379041E+01 -0.95847202337E+02  0.10334095438E+03  0.00000000000E+00 0. -1.
</event>
<event>
 6    1  0.9216756E-006  0.8629730E+02  0.7561462E-02  0.1312074E+00
          1   -1    0    0  501    0  0.00000000000E+00  0.00000000000E+00  0.32609009831E+03  0.32609009831E+03  0.00000000000E+00 0. -1.
         -1   -1    0    0    0  501 -0.00000000000E+00 -0.00000000000E+00 -0.37381575963E+02  0.37381575963E+02  0.00000000000E+00 0.  1.
          5    1    1    2  502    0 -0.35793509255E+02  0.42655730783E+02  0.18560849852E+02  0.58844406877E+02  0.41800000000E+01 0.  1.
         -5    1    1    2    0  502  0.27941682268E+02 -0.43278399672E+02  0.10565399030E+03  0.11761800692E+03  0.41800000000E+01 0.  1.
        -11    1    1    2    0    0 -0.26091400668E+02 -0.12177980892E+02  0.13650690372E+02  0.31865431976E+02  0.00000000000E+00 0.  1.
         11    1    1    2    0    0  0.33943227655E+02  0.12800649781E+02  0.15084299183E+03  0.15514382850E+03  0.00000000000E+00 0. -1.
</event>
<event>
 6    1  0.9216756E-006  0.1051373E+03  0.7561462E-02  0.1269849E+00
         -2   -1    0    0    0  501 -0.00000000000E+00  0.00000000000E+00  0.30560835608E+02  0.30560835608E+02  0.00000000000E+00 0.  1.
          2   -1    0    0  501    0  0.00000000000E+00 -0.00000000000E+00 -0.77753720556E+03  0.77753720556E+03  0.00000000000E+00 0. -1.
          5    1    1    2  502    0  0.65350233499E+01  0.38259575426E+02 -0.15520191520E+03  0.16003627253E+03  0.41800000000E+01 0. -1.
         -5    1    1    2    0  502 -0.53293629777E+02  0.15012431870E+02 -0.12027012984E+02  0.56812899299E+02  0.41800000000E+01 0.  1.
        -11    1    1    2    0    0  0.93643543527E+01 -0.72886089722E+02 -0.38953142354E+03  0.39640232483E+03  0.00000000000E+00 0.  1.
         11    1    1    2    0    0  0.37394252074E+02  0.19614082426E+02 -0.19021601823E+03  0.19484654451E+03  0.00000000000E+00 0. -1.
</event>
<event>
 6    1  0.9216756E-006  0.9909757E+02  0.7561462E-02  0.1282205E+00
          1   -1    0    0  501    0  0.00000000000E+00  0.00000000000E+00  0.41154626400E+03  0.41154626400E+03  0.00000000000E+00 0. -1.
         -1   -1    0    0    0  501 -0.00000000000E+00 -0.00000000000E+00 -0.32362519465E+02  0.32362519465E+02  0.00000000000E+00 0.  1.
          5    1    1    2  502    0  0.22575973771E+02 -0.33887025763E+02  0.49083736002E+02  0.63911584605E+02  0.41800000000E+01 0. -1.
         -5    1    1    2    0  502  0.77792856935E+01  0.80554963265E+02  0.14208956107E+03  0.16357424967E+03  0.41800000000E+01 0.  1.
        -11    1    1    2    0    0 -0.42585663269E+02 -0.47708589179E+02  0.19288951168E+03  0.20321420205E+03  0.00000000000E+00 0. -1.
         11    1    1    2    0    0  0.12230403804E+02  0.10406516764E+01 -0.48790642205E+01  0.13208747132E+02  0.00000000000E+00 0.  1.
</event>
<event>
 6    1  0.9216756E-006  0.7274942E+02  0.7561462E-02  0.1350985E+00
         -2   -1    0    0    0  501 -0.00000000000E+00  0.00000000000E+00  0.17424985033E+03  0.17424985033E+03  0.00000000000E+00 0.  1.
          2   -1    0    0  501    0  0.00000000000E+00 -0.00000000000E+00 -0.11584930722E+03  0.11584930722E+03  0.00000000000E+00 0. -1.
          5    1    1    2  502    0 -0.81219211578E+01  0.21009933410E+02 -0.27678003378E+02  0.35929475034E+02  0.41800000000E+01 0. -1.
         -5    1    1    2    0  502 -0.33452137520E+02  0.17806579037E+02  0.12978224589E+03  0.13526649072E+03  0.41800000000E+01 0. -1.
        -11    1    1    2    0    0  0.14358093064E+02 -0.52197019270E+02  0.12026490700E+02  0.55455569023E+02  0.00000000000E+00 0.  1.
         11    1    1    2    0    0  0.27215965613E+02  0.13380506824E+02 -0.55730190100E+02  0.63447622774E+02  0.00000000000E+00 0. -1.
</event>
<event>
 6    1  0.9216756E-006  0.2495218E+03  0.7561462E-02  0.1113607E+00
         -1   -1    0    0    0  501 -0.00000000000E+00  0.00000000000E+00  0.11136676466E+04  0.11136676466E+04  0.00000000000E+00 0.  1.
          1   -1    0    0  501    0  0.00000000000E+00 -0.00000000000E+00 -0.86151588281E+02  0.86151588281E+02  0.00000000000E+00 0. -1.
          5    1    1    2  502    0  0.50548725083E+02 -0.74423544911E+02  0.16499433258E+03  0.18797510428E+03  0.41800000000E+01 0. -1.
         -5    1    1    2    0  502  0.15073366016E+03 -0.51395291771E+02  0.68904072115E+03  0.70721757622E+03  0.41800000000E+01 0. -1.
        -11    1    1    2    0    0 -0.25295053060E+02  0.53926895619E+02  0.51592211528E+02  0.78801688248E+02  0.00000000000E+00 0.  1.
         11    1    1    2    0    0 -0.17598733218E+03  0.71891941064E+02  0.12188879302E+03  0.22582486608E+03  0.00000000000E+00 0. -1.
</event>
<event>
 6    1  0.9216756E-006  0.1243005E+03  0.7561462E-02  0.1236167E+00
         -2   -1    0    0    0  501 -0.00000000000E+00  0.00000000000E+00  0.38374846714E+02  0.38374846714E+02  0.00000000000E+00 0.  1.
          2   -1    0    0  501    0  0.00000000000E+00 -0.00000000000E+00 -0.57672603077E+03  0.57672603077E+03  0.00000000000E+00 0. -1.
          5    1    1    2  502    0  0.12197033601E+02 -0.10300606958E+03 -0.12959307380E+03  0.16604473848E+03  0.41800000000E+01 0.  1.
         -5    1    1    2    0  502 -0.71512254289E+01  0.18510322213E+02 -0.15338890977E+03  0.15472363134E+03  0.41800000000E+01 0.  1.
        -11    1    1    2    0    0 -0.27865819383E+02 -0.82010919270E+01 -0.94696127139E+01  0.30552174450E+02  0.00000000000E+00 0.  1.
         11    1    1    2    0    0  0.22820011212E+02  0.92696839296E+02 -0.24589958777E+03  0.26378033322E+03  0.00000000000E+00 0. -1.
</event>
<event>
 6    1  0.9216756E-006  0.9085607E+02  0.7561462E-02  0.1300792E+00
          2   -1    0    0  501    0  0.00000000000E+00  0.00000000000E+00  0.27889438210E+03  0.27889438210E+03  0.00000000000E+00 0. -1.
         -2   -1    0    0    0  501 -0.00000000000E+00 -0.00000000000E+00 -0.46741714708E+02  0.46741714708E+02  0.00000000000E+00 0.  1.
          5    1    1    2  502    0 -0.53005873318E+02 -0.45454816948E+02  0.10141010040E+03  0.12319595713E+03  0.41800000000E+01 0.  1.
         -5    1    1    2    0  502  0.21459053270E+02  0.53144821810E+02  0.53985740672E+02  0.78846659082E+02  0.41800000000E+01 0.  1.
        -11    1    1    2    0    0  0.21846538662E+02  0.17055471885E+02 -0.12543254491E+02  0.30421926401E+02  0.00000000000E+00 0.  1.
         11    1    1    2    0    0  0.97002813858E+01 -0.24745476747E+02  0.89300080811E+02  0.93171554195E+02  0.00000000000E+00 0. -1.
</event>
<event>
 6    1  0.9216756E-006  0.9575071E+02  0.7561462E-02  0.1289494E+00
          1   -1    0    0  501    0  0.00000000000E+00  0.00000000000E+00  0.10952248652E+03  0.10952248652E+03  0.00000000000E+00 0. -1.
         -1   -1    0    0    0  501 -0.00000000000E+00 -0.00000000000E+00 -0.19493254142E+03  0.19493254142E+03  0.00000000000E+00 0.  1.
          5    1    1    2  502    0 -0.40262906516E+02  0.21335702172E+02 -0.13282229736E+03  0.14048326912E+03  0.41800000000E+01 0. -1.
         -5    1    1    2    0  502  0.50724549062E+02  0.58613397235E+01 -0.11112149143E+02  0.52424111241E+02  0.41800000000E+01 0. -1.
        -11    1    1    2    0    0 -0.50311438575E+02 -0.19297702377E+02  0.27950911137E+02  0.60703340945E+02  0.00000000000E+00 0.  1.
         11    1    1    2    0    0  0.39849796029E+02 -0.78993395180E+01  0.30573480469E+02  0.50844306627E+02  0.00000000000E+00 0. -1.
</event>
<event>
 6    1  0.9216756E-006  0.1266106E+03  0.7561462E-02  0.1232573E+00
          2   -1    0    0  501    0  0.00000000000E+00  0.00000000000E+00  0.45167611771E+03  0.45167611771E+03  0.00000000000E+00 0. -1.
         -2   -1    0    0    0  501 -0.00000000000E+00 -0.00000000000E+00 -0.43639243610E+02  0.43639243610E+02  0.00000000000E+00 0.  1.
          5    1    1    2  502    0 -0.36647522885E+02  0.67418970715E+02  0.75803385074E+02  0.10794435666E+03  0.41800000000E+01 0. -1.
         -5    1    1    2    0  502 -0.47104927768E+02 -0.55622580271E+02  0.99860529433E+02  0.12370264102E+03  0.41800000000E+01 0. -1.
        -11    1    1    2    0    0  0.46492641516E+02 -0.36113469765E+02  0.54190029309E+02  0.80014421763E+02  0.00000000000E+00 0.  1.
         11    1    1    2    0    0  0.37259809137E+02  0.24317079321E+02  0.17818293029E+03  0.18365394188E+03  0.00000000000E+00 0. -1.
</event>
<event>
 6    1  0.9216756E-006  0.1219050E+03  0.7561462E-02  0.1239987E+00
         -4   -1    0    0    0  501 -0.00000000000E+00  0.00000000000E+00  0.14520274051E+03  0.14520274051E+03  0.00000000000E+00 0.  1.
          4   -1    0    0  501    0  0.00000000000E+00 -0.00000000000E+00 -0.11198616908E+03  0.11198616908E+03  0.00000000000E+00 0. -1.
          5    1    1    2  502    0 -0.13255779875E+02 -0.92455455406E+02  0.71395953259E+01  0.93766588697E+02  0.41800000000E+01 0. -1.
         -5    1    1    2    0  502  0.24493701387E+02  0.30623180504E+02  0.34254122034E+02  0.52235408184E+02  0.41800000000E+01 0. -1.
        -11    1    1    2    0    0 -0.51434145621E+02  0.39849730548E+02 -0.42206935164E+01  0.65201891187E+02  0.00000000000E+00 0. -1.
         11    1    1    2    0    0  0.40196224109E+02  0.21982544354E+02 -0.39564524063E+01  0.45985021524E+02  0.00000000000E+00 0.  1.
</event>
<event>
 6    1  0.9216756E-006  0.1315829E+03  0.7561462E-02  0.1225126E+00
          1   -1    0    0  501    0  0.00000000000E+00  0.00000000000E+00  0.13177049693E+03  0.13177049693E+03  0.00000000000E+00 0. -1.
         -1   -1    0    0    0  501 -0.00000000000E+00 -0.00000000000E+00 -0.26830806467E+03  0.26830806467E+03  0.00000000000E+00 0.  1.
          5    1    1    2  502    0 -0.88396700206E+02 -0.15569445692E+02 -0.26133543445E+02  0.93577875267E+02  0.41800000000E+01 0. -1.
         -5    1    1    2    0  502 -0.38935336681E+02  0.13496053449E+02 -0.15814990928E+03  0.16348385274E+03  0.41800000000E+01 0.  1.
        -11    1    1    2    0    0  0.11798826009E+03 -0.78657461127E+01  0.32659435363E+02  0.12267737444E+03  0.00000000000E+00 0. -1.
         11    1    1    2    0    0  0.93437767996E+01  0.99391383557E+01  0.15086449629E+02  0.20339459151E+02  0.00000000000E+00 0.  1.
</event>
<event>
 6    1  0.9216756E-006  0.1796874E+03  0.7561462E-02  0.1168106E+00
         -1   -1    0    0    0  501 -0.00000000000E+00  0.00000000000E+00  0.16789728214E+03  0.16789728214E+03  0.00000000000E+00 0.  1.
          1   -1    0    0  501    0  0.00000000000E+00 -0.00000000000E+00 -0.24502893903E+03  0.24502893903E+03  0.00000000000E+00 0. -1.
          5    1    1    2  502    0 -0.76853604919E+01 -0.67117204559E+02  0.51151533225E+02  0.84839469971E+02  0.41800000000E+01 0. -1.
         -5    1    1    2    0  502 -0.10362270622E+03 -0.51507167982E+02 -0.35087837453E+02  0.12099290200E+03  0.41800000000E+01 0. -1.
        -11    1    1    2    0    0  0.16484392811E+02  0.64795107826E+02 -0.53502434124E+01  0.67072843305E+02  0.00000000000E+00 0.  1.
         11    1    1    2    0    0  0.94823673898E+02  0.53829264716E+02 -0.87845109253E+02  0.14002100589E+03  0.00000000000E+00 0. -1.
</event>
<event>
 6    1  0.9216756E-006  0.2114800E+03  0.7561462E-02  0.1140399E+00
         -3   -1    0    0    0  501 -0.00000000000E+00  0.00000000000E+00  0.42769763489E+03  0.42769763489E+03  0.00000000000E+00 0.  1.
          3   -1    0    0  501    0  0.00000000000E+00 -0.00000000000E+00 -0.11001864784E+03  0.11001864784E+03  0.00000000000E+00 0. -1.
          5    1    1    2  502    0 -0.83244935728E+02  0.81721158268E+02  0.61284260814E+02  0.13183815857E+03  0.41800000000E+01 0.  1.
         -5    1    1    2    0  502  0.40634867026E+02  0.98233563933E+02  0.64828468875E+02  0.12458422163E+03  0.41800000000E+01 0.  1.
        -11    1    1    2    0    0  0.62964485852E+02 -0.10748795399E+03  0.84934171709E+02  0.15077135091E+03  0.00000000000E+00 0.  1.
         11    1    1    2    0    0 -0.20354417150E+02 -0.72466768212E+02  0.10663208565E+03  0.13052255162E+03  0.00000000000E+00 0. -1.
</event>
<event>
 6    1  0.9216756E-006  0.8008669E+02  0.7561462E-02  0.1328806E+00
          3   -1    0    0  501    0  0.00000000000E+00  0.00000000000E+00  0.30675793041E+03  0.30675793041E+03  0.00000000000E+00 0. -1.
         -3   -1    0    0    0  501 -0.00000000000E+00 -0.00000000000E+00 -0.50712800719E+02  0.50712800719E+02  0.00000000000E+00 0.  1.
          5    1    1    2  502    0  0.37064253640E+02  0.88000695983E+01  0.12321415988E+03  0.12903643562E+03  0.41800000000E+01 0. -1.
         -5    1    1    2    0  502  0.13083281206E+02 -0.19836017884E+02 -0.27535897758E+02  0.36610625752E+02  0.41800000000E+01 0. -1.
        -11    1    1    2    0    0 -0.40119346428E+02 -0.33379539632E+02  0.49331543101E+02  0.71814739215E+02  0.00000000000E+00 0.  1.
         11    1    1    2    0    0 -0.10028188418E+02  0.44415487918E+02  0.11103532446E+03  0.12000893054E+03  0.00000000000E+00 0. -1.
</event>
<event>
 6    1  0.9216756E-006  0.9915234E+02  0.7561462E-02  0.1282089E+00
         -1   -1    0    0    0  501 -0.00000000000E+00  0.00000000000E+00  0.13346196914E+03  0.13346196914E+03  0.00000000000E+00 0.  1.
          1   -1    0    0  501    0  0.00000000000E+00 -0.00000000000E+00 -0.10128683484E+03  0.10128683484E+03  0.00000000000E+00 0. -1.
          5    1    1    2  502    0 -0.44810892891E+02  0.28703338706E+01  0.38818055103E+02  0.59502678429E+02  0.41800000000E+01 0. -1.
         -5    1    1    2    0  502  0.66142516916E+02 -0.24565323655E+02  0.23565692829E+02  0.74505717557E+02  0.41800000000E+01 0.  1.
        -11    1    1    2    0    0  0.37976894970E+01  0.46830668203E+02  0.89796365155E+01  0.47834796977E+02  0.00000000000E+00 0.  1.
         11    1    1    2    0    0 -0.25129313522E+02 -0.25135678419E+02 -0.39188250143E+02  0.52905611015E+02  0.00000000000E+00 0. -1.
</event>
<event>
 6    1  0.9216756E-006  0.1181454E+03  0.7561462E-02  0.1246188E+00
         -1   -1    0    0    0  501 -0.00000000000E+00  0.00000000000E+00  0.23693304893E+03  0.23693304893E+03  0.00000000000E+00 0.  1.
          1   -1    0    0  501    0  0.00000000000E+00 -0.00000000000E+00 -0.98986218483E+02  0.98986218483E+02  0.00000000000E+00 0. -1.
          5    1    1    2  502    0  0.28690850170E+02  0.74527172144E+01 -0.48375255234E+01  0.30324609323E+02  0.41800000000E+01 0. -1.
         -5    1    1    2    0  502 -0.63428651134E+02  0.64191718676E+02  0.16376714286E+03  0.18703186898E+03  0.41800000000E+01 0. -1.
        -11    1    1    2    0    0  0.62856019063E+02 -0.45251439557E+02 -0.79584051669E+01  0.77858256642E+02  0.00000000000E+00 0. -1.
         11    1    1    2    0    0 -0.28118218100E+02 -0.26392996333E+02 -0.13024381725E+02  0.40704532473E+02  0.00000000000E+00 0.  1.
</event>
<event>
 6    1  0.9216756E-006  0.1197879E+03  0.7561462E-02  0.1243447E+00
          2   -1    0    0  501    0  0.00000000000E+00  0.00000000000E+00  0.42894432016E+03  0.42894432016E+03  0.00000000000E+00 0. -1.
         -2   -1    0    0    0  501 -0.00000000000E+00 -0.00000000000E+00 -0.65418784806E+02  0.65418784806E+02  0.00000000000E+00 0.  1.
          5    1    1    2  502    0 -0.11975983687E+02  0.87210996066E+01 -0.29353028363E+02  0.33144448068E+02  0.41800000000E+01 0.  1.
         -5    1    1    2    0  502  0.93837266612E+02  0.20433953220E+02  0.87209246513E+02  0.12979177218E+03  0.41800000000E+01 0.  1.
        -11    1    1    2    0    0  0.74276273928E+01  0.23329478726E+02  0.62021850591E+02  0.66679413443E+02  0.00000000000E+00 0. -1.
         11    1    1    2    0    0 -0.89288910318E+02 -0.52484531552E+02  0.24364746662E+03  0.26474747127E+03  0.00000000000E+00 0.  1.
</event>
<event>
 6    1  0.9216756E-006  0.1856491E+03  0.7561462E-02  0.1162445E+00
          2   -1    0    0  501    0  0.00000000000E+00  0.00000000000E+00  0.58159853488E+03  0.58159853488E+03  0.00000000000E+00 0. -1.
         -2   -1    0    0    0  501 -0.00000000000E+00 -0.00000000000E+00 -0.60756732467E+02  0.60756732467E+02  0.00000000000E+00 0.  1.
          5    1    1    2  502    0 -0.60837751295E+01 -0.25861849630E+02  0.22485920131E+02  0.35056191896E+02  0.41800000000E+01 0.  1.
         -5    1    1    2    0  502 -0.94856730555E+02  0.13967841607E+03  0.21904675496E+03  0.27659864878E+03  0.41800000000E+01 0.  1.
        -11    1    1    2    0    0 -0.23480239194E+01 -0.58107474090E+02  0.11392947528E+03  0.12791370958E+03  0.00000000000E+00 0.  1.
         11    1    1    2    0    0  0.10328852960E+03 -0.55709092352E+02  0.16537965204E+03  0.20278671709E+03  0.00000000000E+00 0. -1.
</event>
<event>
 6    1  0.9216756E-006  0.1078488E+03  0.7561462E-02  0.1264606E+00
         -2   -1    0    0    0  501 -0.00000000000E+00  0.00000000000E+00  0.38353212955E+03  0.38353212955E+03  0.00000000000E+00 0.  1.
          2   -1    0    0  501    0  0.00000000000E+00 -0.00000000000E+00 -0.34557470978E+02  0.34557470978E+02  0.00000000000E+00 0. -1.
          5    1    1    2  502    0  0.49776548242E+02  0.27813409167E+02  0.62692965391E+02  0.84847927458E+02  0.41800000000E+01 0. -1.
         -5    1    1    2    0  502 -0.28619017657E+02 -0.56130104568E+02  0.17537826196E+03  0.18639915230E+03  0.41800000000E+01 0. -1.
        -11    1    1    2    0    0  0.28529934505E+02  0.35100180703E+02  0.42839609872E+02  0.62299374172E+02  0.00000000000E+00 0.  1.
         11    1    1    2    0    0 -0.49687465090E+02 -0.67834853020E+01  0.68063821347E+02  0.84543146595E+02  0.00000000000E+00 0. -1.
</event>
<event>
 6    1  0.9216756E-006  0.1135030E+03  0.7561462E-02  0.1254217E+00
          2   -1    0    0  501    0  0.00000000000E+00  0.00000000000E+00  0.29019009678E+03  0.29019009678E+03  0.00000000000E+00 0. -1.
         -2   -1    0    0    0  501 -0.00000000000E+00 -0.00000000000E+00 -0.61434275502E+02  0.61434275502E+02  0.00000000000E+00 0.  1.
          5    1    1    2  502    0 -0.37754907866E+02 -0.68761898300E+02  0.47565346477E+02  0.91834450569E+02  0.41800000000E+01 0.  1.
         -5    1    1    2    0  502  0.37546312241E+02  0.26726113874E+02 -0.56640369930E+01  0.46621501914E+02  0.41800000000E+01 0.  1.
        -11    1    1    2    0    0 -0.25685104978E+02  0.63527023556E+02  0.13415072173E+03  0.15063805456E+03  0.00000000000E+00 0. -1.
         11    1    1    2    0    0  0.25893700604E+02 -0.21491239130E+02  0.52703790062E+02  0.62530365241E+02  0.00000000000E+00 0.  1.
</event>
<event>
 6    1  0.9216756E-006  0.9993715E+02  0.7561462E-02  0.1280428E+00
         -2   -1    0    0    0  501 -0.00000000000E+00  0.00000000000E+00  0.59278092814E+02  0.59278092814E+02  0.00000000000E+00 0.  1.
          2   -1    0    0  501    0  0.00000000000E+00 -0.00000000000E+00 -0.59904561552E+03  0.59904561552E+03  0.00000000000E+00 0. -1.
          5    1    1    2  502    0  0.18418072654E+02 -0.45438135849E+02 -0.23362559779E+03  0.23875142289E+03  0.41800000000E+01 0. -1.
         -5    1    1    2    0  502 -0.52678503980E+02  0.35458451367E+02  0.29207595798E+02  0.70020587025E+02  0.41800000000E+01 0.  1.
        -11    1    1    2    0    0 -0.26547074842E+01  0.39606689878E+02 -0.74236620176E+02  0.84183211688E+02  0.00000000000E+00 0. -1.
         11    1    1    2    0    0  0.36915138811E+02 -0.29627005397E+02 -0.26111290054E+03  0.26536848673E+03  0.00000000000E+00 0.  1.
</event>
<event>
 6    1  0.9216756E-006  0.1416554E+03  0.7561462E-02  0.1211119E+00
         -2   -1    0    0    0  501 -0.00000000000E+00  0.00000000000E+00  0.16311337365E+03  0.16311337365E+03  0.00000000000E+00 0.  1.
          2   -1    0    0  501    0  0.00000000000E+00 -0.00000000000E+00 -0.14422226070E+03  0.14422226070E+03  0.00000000000E+00 0. -1.
          5    1    1    2  502    0  0.15696467301E+02 -0.30003232478E+02  0.32996399126E+00  0.34119705759E+02  0.41800000000E+01 0.  1.
         -5    1    1    2    0  502 -0.10966944053E+03  0.49072578143E+02  0.63124279749E+02  0.13578531292E+03  0.41800000000E+01 0.  1.
        -11    1    1    2    0    0  0.42991667934E+02  0.34424520882E+02 -0.10527979063E+02  0.56072894458E+02  0.00000000000E+00 0.  1.
         11    1    1    2    0    0  0.50981305292E+02 -0.53493866547E+02 -0.34035151732E+02  0.81357721212E+02  0.00000000000E+00 0. -1.
</event>
<event>
 6    1  0.9216756E-006  0.2890790E+03  0.7561462E-02  0.1090831E+00
         -2   -1    0    0    0  501 -0.00000000000E+00  0.00000000000E+00  0.40729970994E+03  0.40729970994E+03  0.00000000000E+00 0.  1.
          2   -1    0    0  501    0  0.00000000000E+00 -0.00000000000E+00 -0.29588185194E+03  0.29588185194E+03  0.00000000000E+00 0. -1.
          5    1    1    2  502    0 -0.54494621743E+02  0.20404826828E+02  0.61719115994E+02  0.84927866074E+02  0.41800000000E+01 0. -1.
         -5    1    1    2    0  502 -0.18504396639E+03 -0.15810556960E+03  0.17472552720E+03  0.29964165747E+03  0.41800000000E+01 0. -1.
        -11    1    1    2    0    0  0.16177207527E+03  0.89053570168E+02 -0.30990689920E+02  0.18724626981E+03  0.00000000000E+00 0.  1.
         11    1    1    2    0    0  0.77766512860E+02  0.48647172606E+02 -0.94036095274E+02  0.13136576852E+03  0.00000000000E+00 0. -1.
</event>
<event>
 6    1  0.9216756E-006  0.2567779E+03  0.7561462E-02  0.1109095E+00
         -2   -1    0    0    0  501 -0.00000000000E+00  0.00000000000E+00  0.83768529155E+03  0.83768529155E+03  0.00000000000E+00 0.  1.
          2   -1    0    0  501    0  0.00000000000E+00 -0.00000000000E+00 -0.10039025839E+03  0.10039025839E+03  0.00000000000E+00 0. -1.
          5    1    1    2  502    0  0.51760098322E+02  0.77850392560E+01  0.13624823629E+03  0.14601633096E+03  0.41800000000E+01 0.  1.
         -5    1    1    2    0  502  0.94685905958E+02 -0.18865241935E+03  0.45737599720E+03  0.50375135864E+03  0.41800000000E+01 0.  1.
        -11    1    1    2    0    0 -0.28662565091E+02 -0.57620421479E+01  0.15258176829E+02  0.32978109822E+02  0.00000000000E+00 0. -1.
         11    1    1    2    0    0 -0.11778343919E+03  0.18662942224E+03  0.12841262285E+03  0.25532975052E+03  0.00000000000E+00 0.  1.
</event>
<event>
 6    1  0.9216756E-006  0.1156366E+03  0.7561462E-02  0.1250474E+00
          2   -1    0    0  501    0  0.00000000000E+00  0.00000000000E+00  0.85570338135E+02  0.85570338135E+02  0.00000000000E+00 0. -1.
         -2   -1    0    0    0  501 -0.00000000000E+00 -0.00000000000E+00 -0.21719337327E+03  0.21719337327E+03  0.00000000000E+00 0.  1.
          5    1    1    2  502    0  0.80045583312E+02 -0.46431485304E+02 -0.33752305778E+02  0.98589394869E+02  0.41800000000E+01 0. -1.
         -5    1    1    2    0  502 -0.14715271452E+02  0.17524219005E+02 -0.84923999317E+02  0.88052231804E+02  0.41800000000E+01 0. -1.
        -11    1    1    2    0    0 -0.80841070998E+02 -0.19269326140E+01 -0.81235705197E+01  0.81271054056E+02  0.00000000000E+00 0. -1.
         11    1    1    2    0    0  0.15510759139E+02  0.30834198913E+02 -0.48231595248E+01  0.34851030680E+02  0.00000000000E+00 0.  1.
</event>
<event>
 6    1  0.9216756E-006  0.2230500E+03  0.7561462E-02  0.1131629E+00
         -1   -1    0    0    0  501 -0.00000000000E+00  0.00000000000E+00  0.37754269508E+03  0.37754269508E+03  0.00000000000E+00 0.  1.
          1   -1    0    0  501    0  0.00000000000E+00 -0.00000000000E+00 -0.13413232082E+03  0.13413232082E+03  0.00000000000E+00 0. -1.
          5    1    1    2  502    0  0.22247584833E+02  0.66946566724E+02  0.63118397290E+02  0.94753376211E+02  0.41800000000E+01 0. -1.
         -5    1    1    2    0  502  0.15897683691E+03  0.68527973911E+01  0.81392329348E+02  0.17878137259E+03  0.41800000000E+01 0. -1.
        -11    1    1    2    0    0 -0.11895957299E+03  0.95267064519E+00  0.47356202556E+02  0.12804256131E+03  0.00000000000E+00 0. -1.
         11    1    1    2    0    0 -0.62264848759E+02 -0.74752034760E+02  0.51543445071E+02  0.11009770580E+03  0.00000000000E+00 0.  1.
</event>
<event>
 6    1  0.9216756E-006  0.1657183E+03  0.7561462E-02  0.1182388E+00
          1   -1    0    0  501    0  0.00000000000E+00  0.00000000000E+00  0.72086757867E+03  0.72086757867E+03  0.00000000000E+00 0. -1.
         -1   -1    0    0    0  501 -0.00000000000E+00 -0.00000000000E+00 -0.51639213236E+02  0.51639213236E+02  0.00000000000E+00 0.  1.
          5    1    1    2  502    0  0.17044207180E+02  0.10518999132E+03  0.34848865354E+03  0.36444101487E+03  0.41800000000E+01 0. -1.
         -5    1    1    2    0  502 -0.75755123830E+02  0.26426250543E+02  0.93673394457E+02  0.12340730421E+03  0.41800000000E+01 0.  1.
        -11    1    1    2    0    0  0.32941243711E+02 -0.61792678519E+02  0.18796558813E+03  0.20058545056E+03  0.00000000000E+00 0. -1.
         11    1    1    2    0    0  0.25769672938E+02 -0.69823563341E+02  0.39100729317E+02  0.84073022273E+02  0.00000000000E+00 0.  1.
</event>
<event>
 6    1  0.9216756E-006  0.1012584E+03  0.7561462E-02  0.1277672E+00
         -2   -1    0    0    0  501 -0.00000000000E+00  0.00000000000E+00  0.30536779286E+03  0.30536779286E+03  0.00000000000E+00 0.  1.
          2   -1    0    0  501    0  0.00000000000E+00 -0.00000000000E+00 -0.42655618944E+02  0.42655618944E+02  0.00000000000E+00 0. -1.
          5    1    1    2  502    0  0.38419147541E+02 -0.41656399332E+02  0.27254705186E+02  0.63020455869E+02  0.41800000000E+01 0.  1.
         -5    1    1    2    0  502 -0.61806232524E+01  0.49545718573E+02  0.13848091247E+03  0.14726647225E+03  0.41800000000E+01 0.  1.
        -11    1    1    2    0    0 -0.41687684276E+02 -0.42607470702E+02  0.45777822055E+02  0.75158955368E+02  0.00000000000E+00 0. -1.
         11    1    1    2    0    0  0.94491599872E+01  0.34718151461E+02  0.51198734208E+02  0.62577528313E+02  0.00000000000E+00 0.  1.
</event>
<event>
 6    1  0.9216756E-006  0.1215830E+03  0.7561462E-02  0.1240508E+00
          2   -1    0    0  501    0  0.00000000000E+00  0.00000000000E+00  0.34620878652E+03  0.34620878652E+03  0.00000000000E+00 0. -1.
         -2   -1    0    0    0  501 -0.00000000000E+00 -0.00000000000E+00 -0.43196091224E+02  0.43196091224E+02  0.00000000000E+00 0.  1.
          5    1    1    2  502    0  0.38730461501E+02  0.62612220877E+02  0.85994310920E+02  0.11328209374E+03  0.41800000000E+01 0. -1.
         -5    1    1    2    0  502  0.17114763481E+02 -0.60731798619E+02  0.70330723666E+02  0.94578800922E+02  0.41800000000E+01 0. -1.
        -11    1    1    2    0    0 -0.42177458301E+02 -0.44571044442E+02  0.95367167701E+02  0.11340375949E+03  0.00000000000E+00 0. -1.
         11    1    1    2    0    0 -0.13667766681E+02  0.42690622185E+02  0.51320493010E+02  0.68140223594E+02  0.00000000000E+00 0.  1.
</event>
<event>
 6    1  0.9216756E-006  0.1670010E+03  0.7561462E-02  0.1181012E+00
         -2   -1    0    0    0  501 -0.00000000000E+00  0.00000000000E+00  0.12297380471E+03  0.12297380471E+03  0.00000000000E+00 0.  1.
          2   -1    0    0  501    0  0.00000000000E+00 -0.00000000000E+00 -0.23563714986E+03  0.23563714986E+03  0.00000000000E+00 0. -1.
          5    1    1    2  502    0  0.64814886780E+02 -0.13382631781E+03 -0.41187012886E+02  0.15435120769E+03  0.41800000000E+01 0. -1.
         -5    1    1    2    0  502 -0.24971440797E+02  0.12176478824E+02  0.42080233419E+01  0.28408086041E+02  0.41800000000E+01 0. -1.
        -11    1    1    2    0    0  0.11906751803E+02  0.10057248883E+03 -0.36703915924E+02  0.10772081364E+03  0.00000000000E+00 0.  1.
         11    1    1    2    0    0 -0.51750197785E+02  0.21077350154E+02 -0.38980439686E+02  0.68130847187E+02  0.00000000000E+00 0. -1.
</event>
<event>
 6    1  0.9216756E-006  0.1123077E+03  0.7561462E-02  0.1256355E+00
          1   -1    0    0  501    0  0.00000000000E+00  0.00000000000E+00  0.47659257689E+02  0.47659257689E+02  0.00000000000E+00 0. -1.
         -1   -1    0    0    0  501 -0.00000000000E+00 -0.00000000000E+00 -0.47036643609E+03  0.47036643609E+03  0.00000000000E+00 0.  1.
          5    1    1    2  502    0  0.97165318170E+02  0.44044379199E+01 -0.25026338740E+03  0.26853255594E+03  0.41800000000E+01 0. -1.
         -5    1    1    2    0  502  0.67932831647E+01  0.23720573364E+01  0.15240996744E+02  0.17364784304E+02  0.41800000000E+01 0. -1.
        -11    1    1    2    0    0  0.15223962786E+00 -0.14538505426E+02  0.28969254301E+01  0.14825096758E+02  0.00000000000E+00 0. -1.
         11    1    1    2    0    0 -0.10411084096E+03  0.77620101696E+01 -0.19058171317E+03  0.21730325677E+03  0.00000000000E+00 0.  1.
</event>
<event>
 6    1  0.9216756E-006  0.1668308E+03  0.7561462E-02  0.1181194E+00
          1   -1    0    0  501    0  0.00000000000E+00  0.00000000000E+00  0.31108012502E+03  0.31108012502E+03  0.00000000000E+00 0. -1.
         -1   -1    0    0    0  501 -0.00000000000E+00 -0.00000000000E+00 -0.99852545852E+02  0.99852545852E+02  0.00000000000E+00 0.  1.
          5    1    1    2  502    0 -0.12638784199E+03 -0.68584358297E+02  0.35113296534E+02  0.14808145326E+03  0.41800000000E+01 0. -1.
         -5    1    1    2    0  502  0.28885886056E+02 -0.18339145252E+02  0.24720985355E+02  0.42418370769E+02  0.41800000000E+01 0. -1.
        -11    1    1    2    0    0  0.82627289345E+02  0.10390812004E+03  0.14577663642E+03  0.19716742652E+03  0.00000000000E+00 0. -1.
         11    1    1    2    0    0  0.14874666594E+02 -0.16984616487E+02  0.56166608591E+01  0.23265420321E+02  0.00000000000E+00 0.  1.
</event>
<event>
 6    1  0.9216756E-006  0.2765296E+03  0.7561462E-02  0.1097600E+00
         -2   -1    0    0    0  501 -0.00000000000E+00  0.00000000000E+00  0.37146267275E+02  0.37146267275E+02  0.00000000000E+00 0.  1.
          2   -1    0    0  501    0  0.00000000000E+00 -0.00000000000E+00 -0.21229531992E+04  0.21229531992E+04  0.00000000000E+00 0. -1.
          5    1    1    2  502    0 -0.20093317687E+03 -0.44841681616E+02 -0.82323683611E+03  0.84859959858E+03  0.41800000000E+01 0. -1.
         -5    1    1    2    0  502 -0.31318872313E+02 -0.68162952418E+02 -0.18468298976E+03  0.19937988603E+03  0.41800000000E+01 0. -1.
        -11    1    1    2    0    0  0.26349091350E+02  0.50279835738E+02 -0.17719407521E+03  0.18606471129E+03  0.00000000000E+00 0. -1.
         11    1    1    2    0    0  0.20590295783E+03  0.62724798296E+02 -0.90069303081E+03  0.92605527055E+03  0.00000000000E+00 0.  1.
</event>
<event>
 6    1  0.9216756E-006  0.1101494E+03  0.7561462E-02  0.1260293E+00
          2   -1    0    0  501    0  0.00000000000E+00  0.00000000000E+00  0.58189404020E+02  0.58189404020E+02  0.00000000000E+00 0. -1.
         -2   -1    0    0    0  501 -0.00000000000E+00 -0.00000000000E+00 -0.32634806632E+03  0.32634806632E+03  0.00000000000E+00 0.  1.
          5    1    1    2  502    0 -0.33552412518E+02 -0.11024271930E+02 -0.19927775262E+02  0.40766255460E+02  0.41800000000E+01 0. -1.
         -5    1    1    2    0  502  0.10270940325E+03  0.12237594016E+02 -0.13342575725E+03  0.16887535439E+03  0.41800000000E+01 0. -1.
        -11    1    1    2    0    0 -0.69437030082E+02  0.98638834900E+01 -0.13484681806E+03  0.15199493967E+03  0.00000000000E+00 0.  1.
         11    1    1    2    0    0  0.28003935397E+00 -0.11077205576E+02  0.20041688274E+02  0.22900920818E+02  0.00000000000E+00 0. -1.
</event>
<event>
 6    1  0.9216756E-006  0.1569736E+03  0.7561462E-02  0.1192156E+00
          2   -1    0    0  501    0  0.00000000000E+00  0.00000000000E+00  0.10943186773E+04  0.10943186773E+04  0.00000000000E+00 0. -1.
         -2   -1    0    0    0  501 -0.00000000000E+00 -0.00000000000E+00 -0.30025057012E+02  0.30025057012E+02  0.00000000000E+00 0.  1.
          5    1    1    2  502    0  0.10977821895E+03  0.15712586029E+02  0.29976254737E+03  0.31964542844E+03  0.41800000000E+01 0. -1.
         -5    1    1    2    0  502  0.11286414041E+02 -0.46237133819E+02  0.36094467699E+02  0.59879367767E+02  0.41800000000E+01 0. -1.
        -11    1    1    2    0    0 -0.11290365672E+03  0.57718378863E+02  0.60784689151E+03  0.62093195318E+03  0.00000000000E+00 0. -1.
         11    1    1    2    0    0 -0.81609762682E+01 -0.27193831073E+02  0.12058971368E+03  0.12388698490E+03  0.00000000000E+00 0.  1.
</event>
<event>
 6    1  0.9216756E-006  0.1060029E+03  0.7561462E-02  0.1268156E+00
          2   -1    0    0  501    0  0.00000000000E+00  0.00000000000E+00  0.28557239165E+02  0.28557239165E+02  0.00000000000E+00 0.  1.
         -2   -1    0    0    0  501 -0.00000000000E+00 -0.00000000000E+00 -0.83940638758E+03  0.83940638758E+03  0.00000000000E+00 0. -1.
          5    1    1    2  502    0 -0.53727375146E+02 -0.50022912178E+02 -0.64591064319E+03  0.65008226708E+03  0.41800000000E+01 0. -1.
         -5    1    1    2    0  502  0.25037772279E+02 -0.74473386249E+01 -0.28717879757E+02  0.39045382711E+02  0.41800000000E+01 0. -1.
        -11    1    1    2    0    0  0.57135879320E+02  0.11990970806E+02 -0.47968608743E+02  0.75559774426E+02  0.00000000000E+00 0.  1.
         11    1    1    2    0    0 -0.28446276453E+02  0.45479279997E+02 -0.88252016717E+02  0.10327620252E+03  0.00000000000E+00 0. -1.
</event>
<event>
 6    1  0.9216756E-006  0.1441596E+03  0.7561462E-02  0.1207839E+00
         -2   -1    0    0    0  501 -0.00000000000E+00  0.00000000000E+00  0.74300289340E+02  0.74300289340E+02  0.00000000000E+00 0.  1.
          2   -1    0    0  501    0  0.00000000000E+00 -0.00000000000E+00 -0.30844078606E+03  0.30844078606E+03  0.00000000000E+00 0. -1.
          5    1    1    2  502    0 -0.31042924775E+02  0.11563138630E+02 -0.43519374150E+01  0.33671666321E+02  0.41800000000E+01 0.  1.
         -5    1    1    2    0  502  0.11618530733E+03  0.43246902015E+02 -0.85418147455E+02  0.15060893894E+03  0.41800000000E+01 0.  1.
        -11    1    1    2    0    0 -0.24096381586E+02  0.22098404935E+02 -0.14804065432E+02  0.35890604057E+02  0.00000000000E+00 0.  1.
         11    1    1    2    0    0 -0.61046000965E+02 -0.76908445580E+02 -0.12956634642E+03  0.16256986609E+03  0.00000000000E+00 0. -1.
</event>
<event>
 6    1  0.9216756E-006  0.1187519E+03  0.7561462E-02  0.1245170E+00
         -1   -1    0    0    0  501 -0.00000000000E+00  0.00000000000E+00  0.13118981146E+03  0.13118981146E+03  0.00000000000E+00 0.  1.
          1   -1    0    0  501    0  0.00000000000E+00 -0.00000000000E+00 -0.30055302737E+03  0.30055302737E+03  0.00000000000E+00 0. -1.
          5    1    1    2  502    0 -0.90352658076E+02  0.14662894230E+02  0.81625382856E+02  0.12271421603E+03  0.41800000000E+01 0. -1.
         -5    1    1    2    0  502  0.55968912045E+02  0.35352377089E+01 -0.24005886583E+02  0.61145498704E+02  0.41800000000E+01 0.  1.
        -11    1    1    2    0    0 -0.25418417821E+02  0.42301255514E+01 -0.12441089425E+03  0.12705140903E+03  0.00000000000E+00 0. -1.
         11    1    1    2    0    0  0.59802163853E+02 -0.22428257490E+02 -0.10257181793E+03  0.12083171508E+03  0.00000000000E+00 0.  1.
</event>
<event>
 6    1  0.9216756E-006  0.1060980E+03  0.7561462E-02  0.1267971E+00
         -1   -1    0    0    0  501 -0.00000000000E+00  0.00000000000E+00  0.59679524467E+02  0.59679524467E+02  0.00000000000E+00 0.  1.
          1   -1    0    0  501    0  0.00000000000E+00 -0.00000000000E+00 -0.22185786152E+03  0.22185786152E+03  0.00000000000E+00 0. -1.
          5    1    1    2  502    0  0.75142774172E+02  0.32334406392E+01 -0.26187457014E+02  0.79750529488E+02  0.41800000000E+01 0. -1.
         -5    1    1    2    0  502 -0.48786003385E+02  0.18297894728E+02 -0.39901879299E+02  0.65761078529E+02  0.41800000000E+01 0. -1.
        -11    1    1    2    0    0  0.13348497692E+02  0.21964519592E+02 -0.30076022457E+01  0.25877947809E+02  0.00000000000E+00 0.  1.
         11    1    1    2    0    0 -0.39705268479E+02 -0.43495854959E+02 -0.93081398493E+02  0.11014783016E+03  0.00000000000E+00 0. -1.
</event>
<event>
 6    1  0.9216756E-006  0.1252156E+03  0.7561462E-02  0.1234733E+00
         -1   -1    0    0    0  501 -0.00000000000E+00  0.00000000000E+00  0.27068981093E+02  0.27068981093E+02  0.00000000000E+00 0.  1.
          1   -1    0    0  501    0  0.00000000000E+00 -0.00000000000E+00 -0.73001187292E+03  0.73001187292E+03  0.00000000000E+00 0. -1.
          5    1    1    2  502    0 -0.51824171148E+02 -0.64614969318E+02 -0.15588158149E+03  0.17657117212E+03  0.41800000000E+01 0. -1.
         -5    1    1    2    0  502 -0.34427924091E+02  0.57863004074E+02 -0.17711244421E+03  0.18952493106E+03  0.41800000000E+01 0. -1.
        -11    1    1    2    0    0  0.56306627188E+02 -0.20127321030E+02 -0.32582945112E+03  0.33127085071E+03  0.00000000000E+00 0. -1.
         11    1    1    2    0    0  0.29945468052E+02  0.26879286275E+02 -0.44119415012E+02  0.59713900127E+02  0.00000000000E+00 0.  1.
</event>
<event>
 6    1  0.9216756E-006  0.6333026E+02  0.7561462E-02  0.1384365E+00
          1   -1    0    0  501    0  0.00000000000E+00  0.00000000000E+00  0.40887511691E+03  0.40887511691E+03  0.00000000000E+00 0. -1.
         -1   -1    0    0    0  501 -0.00000000000E+00 -0.00000000000E+00 -0.59064232963E+02  0.59064232963E+02  0.00000000000E+00 0.  1.
          5    1    1    2  502    0  0.18504840071E+02  0.25490167962E+01 -0.49922380182E+02  0.53466279427E+02  0.41800000000E+01 0.  1.
         -5    1    1    2    0  502  0.98343384385E+01 -0.57554224001E+01  0.76630200753E+02  0.77585431409E+02  0.41800000000E+01 0.  1.
        -11    1    1    2    0    0  0.18327446307E+02  0.34588911738E+02  0.13242355588E+03  0.13808796564E+03  0.00000000000E+00 0.  1.
         11    1    1    2    0    0 -0.46666624816E+02 -0.31382506134E+02  0.19067950750E+03  0.19879967339E+03  0.00000000000E+00 0. -1.
</event>
<event>
 6    1  0.9216756E-006  0.1157943E+03  0.7561462E-02  0.1250201E+00
          2   -1    0    0  501    0  0.00000000000E+00  0.00000000000E+00  0.34101067689E+03  0.34101067689E+03  0.00000000000E+00 0. -1.
         -2   -1    0    0    0  501 -0.00000000000E+00 -0.00000000000E+00 -0.57459929036E+02  0.57459929036E+02  0.00000000000E+00 0.  1.
          5    1    1    2  502    0  0.26494399079E+02 -0.17563976353E+02  0.86927380291E+01  0.33218707716E+02  0.41800000000E+01 0. -1.
         -5    1    1    2    0  502 -0.73436624968E+02  0.85711138799E+02  0.10505590198E+03  0.15425158716E+03  0.41800000000E+01 0.  1.
        -11    1    1    2    0    0  0.44197145697E+02 -0.44301102243E+02  0.30444428374E+02  0.69590506297E+02  0.00000000000E+00 0.  1.
         11    1    1    2    0    0  0.27450801925E+01 -0.23846060203E+02  0.13935767946E+03  0.14140980475E+03  0.00000000000E+00 0. -1.
</event>
<event>
 6    1  0.9216756E-006  0.1244838E+03  0.7561462E-02  0.1235878E+00
          2   -1    0    0  501    0  0.00000000000E+00  0.00000000000E+00  0.23260854184E+02  0.23260854184E+02  0.00000000000E+00 0. -1.
         -2   -1    0    0    0  501 -0.00000000000E+00 -0.00000000000E+00 -0.97321080950E+03  0.97321080950E+03  0.00000000000E+00 0.  1.
          5    1    1    2  502    0  0.10073874089E+02  0.35711492209E+02 -0.18445871210E+03  0.18820011287E+03  0.41800000000E+01 0.  1.
         -5    1    1    2    0  502 -0.55770751529E+02 -0.90646501500E+02 -0.59600117431E+03  0.60544366967E+03  0.41800000000E+01 0.  1.
        -11    1    1    2    0    0  0.67362106483E+02  0.36192129871E+02 -0.14941626433E+03  0.16784738217E+03  0.00000000000E+00 0.  1.
         11    1    1    2    0    0 -0.21665229044E+02  0.18742879421E+02 -0.20073804575E+02  0.34980498976E+02  0.00000000000E+00 0. -1.
</event>
<event>
 6    1  0.9216756E-006  0.7632239E+02  0.7561462E-02  0.1339824E+00
          1   -1    0    0  501    0  0.00000000000E+00  0.00000000000E+00  0.38344122041E+03  0.38344122041E+03  0.00000000000E+00 0. -1.
         -1   -1    0    0    0  501 -0.00000000000E+00 -0.00000000000E+00 -0.36626647234E+02  0.36626647234E+02  0.00000000000E+00 0.  1.
          5    1    1    2  502    0 -0.16464036793E+02  0.48295688708E+02  0.64770950278E+01  0.51603906978E+02  0.41800000000E+01 0.  1.
         -5    1    1    2    0  502  0.35007471924E+02 -0.25613656718E+02  0.12432095202E+03  0.13173744347E+03  0.41800000000E+01 0.  1.
        -11    1    1    2    0    0 -0.16727608015E+01  0.15781593184E+02 -0.78952351511E+00  0.15889624272E+02  0.00000000000E+00 0.  1.
         11    1    1    2    0    0 -0.16870674329E+02 -0.38463625175E+02  0.21680604964E+03  0.22083689292E+03  0.00000000000E+00 0. -1.
</event>
<event>
 6    1  0.9216756E-006  0.1304263E+03  0.7561462E-02  0.1226825E+00
         -2   -1    0    0    0  501 -0.00000000000E+00  0.00000000000E+00  0.16974538969E+03  0.16974538969E+03  0.00000000000E+00 0.  1.
          2   -1    0    0  501    0  0.00000000000E+00 -0.00000000000E+00 -0.11125289817E+03  0.11125289817E+03  0.00000000000E+00 0. -1.
          5    1    1    2  502    0  0.33328262831E+02  0.10314975892E+03  0.53555923042E+02  0.12098080493E+03  0.41800000000E+01 0. -1.
         -5    1    1    2    0  502 -0.11819337729E+02 -0.33777876927E+02  0.21913939749E+02  0.42170307912E+02  0.41800000000E+01 0. -1.
        -11    1    1    2    0    0  0.18912774688E+02  0.14105239520E+02 -0.67265882999E+01  0.24533605900E+02  0.00000000000E+00 0.  1.
         11    1    1    2    0    0 -0.40421699790E+02 -0.83477121511E+02 -0.10250782973E+02  0.93313569117E+02  0.00000000000E+00 0. -1.
</event>
<event>
 6    1  0.9216756E-006  0.7163456E+02  0.7561462E-02  0.1354621E+00
          1   -1    0    0  501    0  0.00000000000E+00  0.00000000000E+00  0.30985745214E+03  0.30985745214E+03  0.00000000000E+00 0. -1.
         -1   -1    0    0    0  501 -0.00000000000E+00 -0.00000000000E+00 -0.43945709255E+02  0.43945709255E+02  0.00000000000E+00 0.  1.
          5    1    1    2  502    0 -0.54372429872E+02  0.22286684137E+02  0.12896371267E+02  0.60306270088E+02  0.41800000000E+01 0.  1.
         -5    1    1    2    0  502  0.93159598797E+01  0.15908391919E+01  0.15428338512E+03  0.15462908265E+03  0.41800000000E+01 0.  1.
        -11    1    1    2    0    0  0.25633092389E+02 -0.40852398671E+02  0.13886625831E+02  0.50187770219E+02  0.00000000000E+00 0.  1.
         11    1    1    2    0    0  0.19423377603E+02  0.16974875342E+02  0.84845360673E+02  0.88680038442E+02  0.00000000000E+00 0. -1.
</event>
<event>
 6    1  0.9216756E-006  0.1168215E+03  0.7561462E-02  0.1248435E+00
         -1   -1    0    0    0  501 -0.00000000000E+00  0.00000000000E+00  0.20933897747E+02  0.20933897747E+02  0.00000000000E+00 0.  1.
          1   -1    0    0  501    0  0.00000000000E+00 -0.00000000000E+00 -0.73942586245E+03  0.73942586245E+03  0.00000000000E+00 0. -1.
          5    1    1    2  502    0 -0.17774169814E+02  0.90956240869E+02 -0.18266504972E+03  0.20487301348E+03  0.41800000000E+01 0.  1.
         -5    1    1    2    0  502  0.96498359363E+01 -0.36988869074E+02 -0.14652234455E+03  0.15148453921E+03  0.41800000000E+01 0.  1.
        -11    1    1    2    0    0  0.47080934611E+02 -0.37207936670E+02 -0.28788883556E+03  0.29407656588E+03  0.00000000000E+00 0.  1.
         11    1    1    2    0    0 -0.38956600733E+02 -0.16759435126E+02 -0.10141573487E+03  0.10992564162E+03  0.00000000000E+00 0. -1.
</event>
<event>
 6    1  0.9216756E-006  0.9513608E+02  0.7561462E-02  0.1290870E+00
          2   -1    0    0  501    0  0.00000000000E+00  0.00000000000E+00  0.45968500467E+02  0.45968500467E+02  0.00000000000E+00 0. -1.
         -2   -1    0    0    0  501 -0.00000000000E+00 -0.00000000000E+00 -0.27648236490E+03  0.27648236490E+03  0.00000000000E+00 0.  1.
          5    1    1    2  502    0  0.34236943704E+02 -0.39887404495E+02 -0.25712877163E+02  0.58666837340E+02  0.41800000000E+01 0.  1.
         -5    1    1    2    0  502 -0.18862560121E+02  0.45549493249E+02 -0.14780185194E+03  0.15586344134E+03  0.41800000000E+01 0.  1.
        -11    1    1    2    0    0 -0.39330114072E+02 -0.33267074918E+02 -0.47700714866E+02  0.70206227254E+02  0.00000000000E+00 0.  1.
         11    1    1    2    0    0  0.23955730488E+02  0.27604986164E+02 -0.92984204655E+01  0.37714359434E+02  0.00000000000E+00 0. -1.
</event>
<event>
 6    1  0.9216756E-006  0.7650192E+02  0.7561462E-02  0.1339282E+00
          1   -1    0    0  501    0  0.00000000000E+00  0.00000000000E+00  0.22603711856E+03  0.22603711856E+03  0.00000000000E+00 0. -1.
         -1   -1    0    0    0  501 -0.00000000000E+00 -0.00000000000E+00 -0.73400918537E+02  0.73400918537E+02  0.00000000000E+00 0.  1.
          5    1    1    2  502    0  0.23628229884E+02 -0.10079922723E+02  0.54760245229E+02  0.60630478697E+02  0.41800000000E+01 0.  1.
         -5    1    1    2    0  502 -0.38496481896E+02  0.32044341340E+02 -0.45201537745E+02  0.67597857546E+02  0.41800000000E+01 0.  1.
        -11    1    1    2    0    0  0.42807883152E+02 -0.29301078844E+01  0.12645613183E+03  0.13353746167E+03  0.00000000000E+00 0. -1.
         11    1    1    2    0    0 -0.27939631140E+02 -0.19034310733E+02  0.16621360713E+02  0.37672239186E+02  0.00000000000E+00 0.  1.
</event>
<event>
 6    1  0.9216756E-006  0.1064429E+03  0.7561462E-02  0.1267302E+00
         -2   -1    0    0    0  501 -0.00000000000E+00  0.00000000000E+00  0.21572398018E+02  0.21572398018E+02  0.00000000000E+00 0.  1.
          2   -1    0    0  501    0  0.00000000000E+00 -0.00000000000E+00 -0.56016404079E+03  0.56016404079E+03  0.00000000000E+00 0. -1.
          5    1    1    2  502    0 -0.51137241257E+02  0.25352396401E+02 -0.96377091086E+02  0.11208825778E+03  0.41800000000E+01 0. -1.
         -5    1    1    2    0  502  0.58640667938E+02 -0.18092051903E+02 -0.21530802367E+03  0.22392201261E+03  0.41800000000E+01 0. -1.
        -11    1    1    2    0    0 -0.48942056185E+02  0.87570310512E+01 -0.12709018590E+03  0.13646950505E+03  0.00000000000E+00 0.  1.
         11    1    1    2    0    0  0.41438629503E+02 -0.16017375549E+02 -0.99816342121E+02  0.10925666336E+03  0.00000000000E+00 0. -1.
</event>
<event>
 6    1  0.9216756E-006  0.1105035E+03  0.7561462E-02  0.1259640E+00
          1   -1    0    0  501    0  0.00000000000E+00  0.00000000000E+00  0.24876735402E+03  0.24876735402E+03  0.00000000000E+00 0. -1.
         -1   -1    0    0    0  501 -0.00000000000E+00 -0.00000000000E+00 -0.82857422920E+02  0.82857422920E+02  0.00000000000E+00 0.  1.
          5    1    1    2  502    0  0.75512404653E+02  0.43916317106E+02  0.19248708308E+01  0.87475389067E+02  0.41800000000E+01 0. -1.
         -5    1    1    2    0  502 -0.47700113072E+02  0.27334894478E+02  0.29280261882E+02  0.62428386004E+02  0.41800000000E+01 0. -1.
        -11    1    1    2    0    0 -0.29730028612E+02 -0.59542990828E+02  0.14897386519E+03  0.16316388959E+03  0.00000000000E+00 0. -1.
         11    1    1    2    0    0  0.19177370314E+01 -0.11708220755E+02 -0.14269066801E+02  0.18557112274E+02  0.00000000000E+00 0.  1.
</event>
<event>
 6    1  0.9216756E-006  0.1275658E+03  0.7561462E-02  0.1231113E+00
         -2   -1    0    0    0  501 -0.00000000000E+00  0.00000000000E+00  0.56761747955E+02  0.56761747955E+02  0.00000000000E+00 0.  1.
          2   -1    0    0  501    0  0.00000000000E+00 -0.00000000000E+00 -0.39964350740E+03  0.39964350740E+03  0.00000000000E+00 0. -1.
          5    1    1    2  502    0 -0.14284250759E+02  0.74106491756E+02 -0.46268595623E+02  0.88623175755E+02  0.41800000000E+01 0. -1.
         -5    1    1    2    0  502 -0.58064753646E+02 -0.40496208433E+01 -0.17718537684E+03  0.18654770224E+03  0.41800000000E+01 0. -1.
        -11    1    1    2    0    0  0.69396099270E+02 -0.21653026246E+02 -0.28306110954E+02  0.78012230175E+02  0.00000000000E+00 0.  1.
         11    1    1    2    0    0  0.29529051352E+01 -0.48403844666E+02 -0.91121676020E+02  0.10322214718E+03  0.00000000000E+00 0. -1.
</event>
<event>
 6    1  0.9216756E-006  0.1054285E+03  0.7561462E-02  0.1269278E+00
         -3   -1    0    0    0  501 -0.00000000000E+00  0.00000000000E+00  0.10474694776E+04  0.10474694776E+04  0.00000000000E+00 0.  1.
          3   -1    0    0  501    0  0.00000000000E+00 -0.00000000000E+00 -0.16779088719E+02  0.16779088719E+02  0.00000000000E+00 0. -1.
          5    1    1    2  502    0 -0.32698705286E+02  0.18752789924E+02  0.11570390713E+03  0.12176099122E+03  0.41800000000E+01 0. -1.
         -5    1    1    2    0  502  0.97266789240E+02 -0.88310925841E+00  0.60436601796E+03  0.61215795693E+03  0.41800000000E+01 0. -1.
        -11    1    1    2    0    0 -0.42838711415E+02 -0.28427116716E+02  0.29924078914E+03  0.30362527241E+03  0.00000000000E+00 0.  1.
         11    1    1    2    0    0 -0.21729372540E+02  0.10557436050E+02  0.11379674640E+02  0.26704345748E+02  0.00000000000E+00 0. -1.
</event>
<event>
 6    1  0.9216756E-006  0.2113087E+03  0.7561462E-02  0.1140534E+00
          1   -1    0    0  501    0  0.00000000000E+00  0.00000000000E+00  0.21610176349E+03  0.21610176349E+03  0.00000000000E+00 0. -1.
         -1   -1    0    0    0  501 -0.00000000000E+00 -0.00000000000E+00 -0.22703649394E+03  0.22703649394E+03  0.00000000000E+00 0.  1.
          5    1    1    2  502    0 -0.14223310872E+03 -0.12102150355E+03 -0.34497819912E+02  0.18995797829E+03  0.41800000000E+01 0.  1.
         -5    1    1    2    0  502 -0.28822566047E+02  0.30493702630E+02  0.45864446352E+01  0.42415965014E+02  0.41800000000E+01 0.  1.
        -11    1    1    2    0    0  0.13738315045E+03  0.75695884555E+02  0.47850995657E+02  0.16399303263E+03  0.00000000000E+00 0. -1.
         11    1    1    2    0    0  0.33672524318E+02  0.14831916362E+02 -0.28874350823E+02  0.46771281492E+02  0.00000000000E+00 0.  1.
</event>
<event>
 6    1  0.9216756E-006  0.1785612E+03  0.7561462E-02  0.1169203E+00
         -1   -1    0    0    0  501 -0.00000000000E+00  0.00000000000E+00  0.87198746181E+02  0.87198746181E+02  0.00000000000E+00 0.  1.
          1   -1    0    0  501    0  0.00000000000E+00 -0.00000000000E+00 -0.37086352317E+03  0.37086352317E+03  0.00000000000E+00 0. -1.
          5    1    1    2  502    0 -0.20603956247E+01 -0.51390839223E+02 -0.45256332564E+02  0.68635789668E+02  0.41800000000E+01 0.  1.
         -5    1    1    2    0  502  0.13639074054E+03  0.63929549119E+01 -0.84858389513E+02  0.16081580348E+03  0.41800000000E+01 0.  1.
        -11    1    1    2    0    0 -0.98357386429E+02  0.73691850524E+02 -0.11896188839E+03  0.17104559389E+03  0.00000000000E+00 0.  1.
         11    1    1    2    0    0 -0.35972958485E+02 -0.28693966213E+02 -0.34588166527E+02  0.57565082324E+02  0.00000000000E+00 0. -1.
</event>
<event>
 6    1  0.9216756E-006  0.1389661E+03  0.7561462E-02  0.1214727E+00
          1   -1    0    0  501    0  0.00000000000E+00  0.00000000000E+00  0.81762151245E+02  0.81762151245E+02  0.00000000000E+00 0. -1.
         -1   -1    0    0    0  501 -0.00000000000E+00 -0.00000000000E+00 -0.32977321707E+03  0.32977321707E+03  0.00000000000E+00 0.  1.
          5    1    1    2  502    0 -0.57386458480E+02 -0.91335621931E+02 -0.14161956470E+03  0.17807014055E+03  0.41800000000E+01 0.  1.
         -5    1    1    2    0  502 -0.32884112591E+02  0.42453788806E+02 -0.72585201029E+02  0.90386795791E+02  0.41800000000E+01 0.  1.
        -11    1    1    2    0    0  0.31102116604E+02  0.47696346990E+02 -0.56008817857E+02  0.79870337743E+02  0.00000000000E+00 0.  1.
         11    1    1    2    0    0  0.59168454467E+02  0.11854861343E+01  0.22202517760E+02  0.63208094231E+02  0.00000000000E+00 0. -1.
</event>
<event>
 6    1  0.9216756E-006  0.9204435E+02  0.7561462E-02  0.1297975E+00
          1   -1    0    0  501    0  0.00000000000E+00  0.00000000000E+00  0.25167619891E+03  0.25167619891E+03  0.00000000000E+00 0. -1.
         -1   -1    0    0    0  501 -0.00000000000E+00 -0.00000000000E+00 -0.10390868087E+03  0.10390868087E+03  0.00000000000E+00 0.  1.
          5    1    1    2  502    0  0.25644928903E+02 -0.39640300950E+02 -0.72467383922E+02  0.86591050175E+02  0.41800000000E+01 0. -1.
         -5    1    1    2    0  502 -0.27281212737E+02  0.36684964361E+02  0.22294145212E+02  0.51034816443E+02  0.41800000000E+01 0.  1.
        -11    1    1    2    0    0  0.27091544379E+02  0.38492495685E+02  0.91661293751E+02  0.10304085002E+03  0.00000000000E+00 0. -1.
         11    1    1    2    0    0 -0.25455260545E+02 -0.35537159096E+02  0.10627946300E+03  0.11491816315E+03  0.00000000000E+00 0.  1.
</event>
<event>
 6    1  0.9216756E-006  0.7971760E+02  0.7561462E-02  0.1329855E+00
          1   -1    0    0  501    0  0.00000000000E+00  0.00000000000E+00  0.24955171718E+03  0.24955171718E+03  0.00000000000E+00 0. -1.
         -1   -1    0    0    0  501 -0.00000000000E+00 -0.00000000000E+00 -0.55748869169E+02  0.55748869169E+02  0.00000000000E+00 0.  1.
          5    1    1    2  502    0 -0.80625593788E+01 -0.51788425499E+02 -0.15179110865E+02  0.54725895936E+02  0.41800000000E+01 0.  1.
         -5    1    1    2    0  502  0.86564545422E+01  0.87900583620E+01  0.10351964582E+03  0.10433594204E+03  0.41800000000E+01 0.  1.
        -11    1    1    2    0    0 -0.35993808929E+02  0.45879582965E+02  0.36857020426E+02  0.68985001043E+02  0.00000000000E+00 0. -1.
         11    1    1    2    0    0  0.35399913766E+02 -0.28812158282E+01  0.68605292629E+02  0.77253747326E+02  0.00000000000E+00 0.  1.
</event>
<event>
 6    1  0.9216756E-006  0.2477042E+03  0.7561462E-02  0.1114764E+00
          4   -1    0    0  501    0  0.00000000000E+00  0.00000000000E+00  0.20176308653E+03  0.20176308653E+03  0.00000000000E+00 0. -1.
         -4   -1    0    0    0  501 -0.00000000000E+00 -0.00000000000E+00 -0.38653300831E+03  0.38653300831E+03  0.00000000000E+00 0.  1.
          5    1    1    2  502    0  0.22942026477E+02  0.23230362943E+03 -0.19306558935E+03  0.30295726929E+03  0.41800000000E+01 0. -1.
         -5    1    1    2    0  502  0.18732569401E+02 -0.10715172126E+02 -0.34733063565E+02  0.41104527423E+02  0.41800000000E+01 0. -1.
        -11    1    1    2    0    0 -0.47784414431E+02 -0.53408638103E+02  0.59807185779E+01  0.71913850413E+02  0.00000000000E+00 0.  1.
         11    1    1    2    0    0  0.61098185519E+01 -0.16817981920E+03  0.37048012546E+02  0.17232044772E+03  0.00000000000E+00 0. -1.
</event>
<event>
 6    1  0.9216756E-006  0.1157479E+03  0.7561462E-02  0.1250281E+00
         -2   -1    0    0    0  501 -0.00000000000E+00  0.00000000000E+00  0.54756260214E+02  0.54756260214E+02  0.00000000000E+00 0.  1.
          2   -1    0    0  501    0  0.00000000000E+00 -0.00000000000E+00 -0.31563603447E+03  0.31563603447E+03  0.00000000000E+00 0. -1.
          5    1    1    2  502    0  0.36864051351E+02  0.25751589658E+01 -0.10652095644E+02  0.38685000547E+02  0.41800000000E+01 0. -1.
         -5    1    1    2    0  502 -0.80649419378E+02 -0.62995655930E+02 -0.11163859536E+03  0.15150389397E+03  0.41800000000E+01 0. -1.
        -11    1    1    2    0    0  0.29900053788E+02  0.11545867757E-01 -0.17159093938E+01  0.29949251992E+02  0.00000000000E+00 0.  1.
         11    1    1    2    0    0  0.13885314239E+02  0.60408951097E+02 -0.13687317385E+03  0.15025414818E+03  0.00000000000E+00 0. -1.
</event>
<event>
 6    1  0.9216756E-006  0.1461856E+03  0.7561462E-02  0.1205240E+00
          1   -1    0    0  501    0  0.00000000000E+00  0.00000000000E+00  0.62785789397E+02  0.62785789397E+02  0.00000000000E+00 0. -1.
         -1   -1    0    0    0  501 -0.00000000000E+00 -0.00000000000E+00 -0.46937462051E+03  0.46937462051E+03  0.00000000000E+00 0.  1.
          5    1    1    2  502    0  0.57291479953E+01  0.91713594090E+01  0.15187557594E+02  0.19106838457E+02  0.41800000000E+01 0. -1.
         -5    1    1    2    0  502  0.27341871175E+02  0.11854960301E+03 -0.24814697709E+03  0.27639822889E+03  0.41800000000E+01 0. -1.
        -11    1    1    2    0    0  0.29071197522E+02 -0.22175471732E+02 -0.26172591530E+02  0.44965438053E+02  0.00000000000E+00 0.  1.
         11    1    1    2    0    0 -0.62142216692E+02 -0.10554549069E+03 -0.14745682008E+03  0.19168990450E+03  0.00000000000E+00 0. -1.
</event>
<event>
 6    1  0.9216756E-006  0.2028247E+03  0.7561462E-02  0.1147377E+00
         -2   -1    0    0    0  501 -0.00000000000E+00  0.00000000000E+00  0.44703184272E+03  0.44703184272E+03  0.00000000000E+00 0.  1.
          2   -1    0    0  501    0  0.00000000000E+00 -0.00000000000E+00 -0.11329712613E+03  0.11329712613E+03  0.00000000000E+00 0. -1.
          5    1    1    2  502    0  0.16313343835E+03  0.61144216017E+02  0.25488859566E+03  0.30876658248E+03  0.41800000000E+01 0. -1.
         -5    1    1    2    0  502 -0.12249216681E+02  0.36761594842E+02  0.23567726882E+02  0.45545233725E+02  0.41800000000E+01 0. -1.
        -11    1    1    2    0    0 -0.86715031446E+01  0.10480532793E+02 -0.86559619594E+01  0.16123343693E+02  0.00000000000E+00 0. -1.
         11    1    1    2    0    0 -0.14221271852E+03 -0.10838634365E+03  0.63934356016E+02  0.18989380895E+03  0.00000000000E+00 0.  1.
</event>
<event>
 6    1  0.9216756E-006  0.1293050E+03  0.7561462E-02  0.1228491E+00
         -2   -1    0    0    0  501 -0.00000000000E+00  0.00000000000E+00  0.11345137522E+02  0.11345137522E+02  0.00000000000E+00 0. -1.
          2   -1    0    0  501    0  0.00000000000E+00 -0.00000000000E+00 -0.15041700753E+04  0.15041700753E+04  0.00000000000E+00 0.  1.
          5    1    1    2  502    0  0.38945945387E+02 -0.22496146981E+02 -0.20012142604E+03  0.20515584527E+03  0.41800000000E+01 0. -1.
         -5    1    1    2    0  502 -0.24645803380E+02  0.94374618633E+02 -0.63355688059E+03  0.64103492698E+03  0.41800000000E+01 0. -1.
        -11    1    1    2    0    0 -0.22659497308E+02 -0.91615656029E+02 -0.55886001584E+03  0.56677279271E+03  0.00000000000E+00 0.  1.
         11    1    1    2    0    0  0.83593553007E+01  0.19737184378E+02 -0.10028661527E+03  0.10255164782E+03  0.00000000000E+00 0. -1.
</event>
<event>
 6    1  0.9216756E-006  0.8706054E+02  0.7561462E-02  0.1310130E+00
          1   -1    0    0  501    0  0.00000000000E+00  0.00000000000E+00  0.21944987128E+02  0.21944987128E+02  0.00000000000E+00 0. -1.
         -1   -1    0    0    0  501 -0.00000000000E+00 -0.00000000000E+00 -0.73915407807E+03  0.73915407807E+03  0.00000000000E+00 0.  1.
          5    1    1    2  502    0  0.76373040178E+02 -0.74540561053E+01 -0.41228528105E+03  0.41938649190E+03  0.41800000000E+01 0. -1.
         -5    1    1    2    0  502 -0.49750029555E+01  0.19115515424E+02 -0.64954649070E+01  0.21208890794E+02  0.41800000000E+01 0.  1.
        -11    1    1    2    0    0 -0.85588705459E+01 -0.11383146354E+02  0.12604546403E+01  0.14297518380E+02  0.00000000000E+00 0. -1.
         11    1    1    2    0    0 -0.62839166677E+02 -0.27831296516E+00 -0.29968879963E+03  0.30620616413E+03  0.00000000000E+00 0.  1.
</event>
<event>
 6    1  0.9216756E-006  0.1162806E+03  0.7561462E-02  0.1249362E+00
         -1   -1    0    0    0  501 -0.00000000000E+00  0.00000000000E+00  0.46648394902E+02  0.46648394902E+02  0.00000000000E+00 0.  1.
          1   -1    0    0  501    0  0.00000000000E+00 -0.00000000000E+00 -0.30601584535E+03  0.30601584535E+03  0.00000000000E+00 0. -1.
          5    1    1    2  502    0  0.68018406408E+02  0.80809177027E+01 -0.68029932105E+02  0.96629958622E+02  0.41800000000E+01 0.  1.
         -5    1    1    2    0  502 -0.43633692624E+02 -0.47549035568E+02 -0.56539123696E+02  0.85900842974E+02  0.41800000000E+01 0.  1.
        -11    1    1    2    0    0 -0.57677571826E+02  0.27387271117E+02 -0.10897267755E+03  0.12630047254E+03  0.00000000000E+00 0. -1.
         11    1    1    2    0    0  0.33292858042E+02  0.12080846749E+02 -0.25825717090E+02  0.43832966110E+02  0.00000000000E+00 0.  1.
</event>
<event>
 6    1  0.9216756E-006  0.1311620E+03  0.7561462E-02  0.1225742E+00
          4   -1    0    0  501    0  0.00000000000E+00  0.00000000000E+00  0.14204420315E+03  0.14204420315E+03  0.00000000000E+00 0. -1.
         -4   -1    0    0    0  501 -0.00000000000E+00 -0.00000000000E+00 -0.15917249139E+03  0.15917249139E+03  0.00000000000E+00 0.  1.
          5    1    1    2  502    0 -0.18996187352E+02 -0.10297760378E+03 -0.29240674529E+02  0.10880133943E+03  0.41800000000E+01 0. -1.
         -5    1    1    2    0  502 -0.48310110391E+02  0.26978438428E+02 -0.35831993328E+01  0.55605886590E+02  0.41800000000E+01 0. -1.
        -11    1    1    2    0    0  0.30621547666E+02  0.42308730851E+02 -0.37225256347E+02  0.64136008589E+02  0.00000000000E+00 0.  1.
         11    1    1    2    0    0  0.36684750077E+02  0.33690434499E+02  0.52920841967E+02  0.72673459939E+02  0.00000000000E+00 0. -1.
</event>
<event>
 6    1  0.9216756E-006  0.1107016E+03  0.7561462E-02  0.1259276E+00
          2   -1    0    0  501    0  0.00000000000E+00  0.00000000000E+00  0.26121578926E+02  0.26121578926E+02  0.00000000000E+00 0.  1.
         -2   -1    0    0    0  501 -0.00000000000E+00 -0.00000000000E+00 -0.51379014254E+03  0.51379014254E+03  0.00000000000E+00 0. -1.
          5    1    1    2  502    0 -0.72426089186E+02  0.80532405189E+01 -0.15520094262E+03  0.17150859474E+03  0.41800000000E+01 0.  1.
         -5    1    1    2    0  502  0.46739975239E+02 -0.21346948753E+02 -0.60241944870E+02  0.79289859553E+02  0.41800000000E+01 0.  1.
        -11    1    1    2    0    0  0.47914719789E+02  0.39782562481E+02 -0.18874623753E+03  0.19875516303E+03  0.00000000000E+00 0.  1.
         11    1    1    2    0    0 -0.22228605841E+02 -0.26488854247E+02 -0.83479438598E+02  0.90358104150E+02  0.00000000000E+00 0. -1.
</event>
<event>
 6    1  0.9216756E-006  0.1242907E+03  0.7561462E-02  0.1236182E+00
          3   -1    0    0  501    0  0.00000000000E+00  0.00000000000E+00  0.37015304794E+03  0.37015304794E+03  0.00000000000E+00 0. -1.
         -3   -1    0    0    0  501 -0.00000000000E+00 -0.00000000000E+00 -0.43631804667E+02  0.43631804667E+02  0.00000000000E+00 0.  1.
          5    1    1    2  502    0 -0.54550313195E+02  0.53165570196E+02  0.75515437895E+02  0.10734229495E+03  0.41800000000E+01 0. -1.
         -5    1    1    2    0  502  0.18175934215E+02 -0.70728878515E+02  0.77326473923E+02  0.10644150887E+03  0.41800000000E+01 0.  1.
        -11    1    1    2    0    0  0.33027605458E+01 -0.36024738678E+02  0.65705068652E+02  0.75005640258E+02  0.00000000000E+00 0.  1.
         11    1    1    2    0    0  0.33071618434E+02  0.53588046997E+02  0.10797426280E+03  0.12499540853E+03  0.00000000000E+00 0. -1.
</event>
<event>
 6    1  0.9216756E-006  0.1220664E+03  0.7561462E-02  0.1239726E+00
         -2   -1    0    0    0  501 -0.00000000000E+00  0.00000000000E+00  0.16851839668E+02  0.16851839668E+02  0.00000000000E+00 0.  1.
          2   -1    0    0  501    0  0.00000000000E+00 -0.00000000000E+00 -0.95794259269E+03  0.95794259269E+03  0.00000000000E+00 0. -1.
          5    1    1    2  502    0 -0.15314399887E+02 -0.46593901622E+02 -0.25508514398E+03  0.25979111916E+03  0.41800000000E+01 0. -1.
         -5    1    1    2    0  502  0.62847532620E+02  0.43505125469E+02 -0.18598690452E+03  0.20112461150E+03  0.41800000000E+01 0. -1.
        -11    1    1    2    0    0 -0.67798128939E+02 -0.34187307269E+02 -0.30677903975E+03  0.31603597500E+03  0.00000000000E+00 0.  1.
         11    1    1    2    0    0  0.20264996207E+02  0.37276083422E+02 -0.19323966477E+03  0.19784272670E+03  0.00000000000E+00 0. -1.
</event>
<event>
 6    1  0.9216756E-006  0.1662342E+03  0.7561462E-02  0.1181833E+00
         -1   -1    0    0    0  501 -0.00000000000E+00  0.00000000000E+00  0.46808434580E+03  0.46808434580E+03  0.00000000000E+00 0.  1.
          1   -1    0    0  501    0  0.00000000000E+00 -0.00000000000E+00 -0.67007688928E+02  0.67007688928E+02  0.00000000000E+00 0. -1.
          5    1    1    2  502    0  0.32764117978E+02 -0.13660671425E+03  0.23699501505E+03  0.27553401127E+03  0.41800000000E+01 0. -1.
         -5    1    1    2    0  502  0.10370759965E+02  0.15791646592E+02 -0.25765058800E+01  0.19520234294E+02  0.41800000000E+01 0. -1.
        -11    1    1    2    0    0  0.25742907990E+02  0.95956324353E+02  0.10127089767E+03  0.14186651547E+03  0.00000000000E+00 0.  1.
         11    1    1    2    0    0 -0.68877785934E+02  0.24858743304E+02  0.65387250022E+02  0.98171273696E+02  0.00000000000E+00 0. -1.
</event>
<event>
 6    1  0.9216756E-006  0.1415928E+03  0.7561462E-02  0.1211202E+00
          3   -1    0    0  501    0  0.00000000000E+00  0.00000000000E+00  0.21423578039E+03  0.21423578039E+03  0.00000000000E+00 0. -1.
         -3   -1    0    0    0  501 -0.00000000000E+00 -0.00000000000E+00 -0.10887467217E+03  0.10887467217E+03  0.00000000000E+00 0.  1.
          5    1    1    2  502    0  0.26096178289E+02 -0.86792147224E+01 -0.14562447728E+02  0.31398671522E+02  0.41800000000E+01 0. -1.
         -5    1    1    2    0  502 -0.51467899178E+02  0.11289965328E+03  0.69619961420E+02  0.14233653004E+03  0.41800000000E+01 0. -1.
        -11    1    1    2    0    0  0.43959932710E+02 -0.26548112437E+02  0.46724497240E+02  0.69429508137E+02  0.00000000000E+00 0. -1.
         11    1    1    2    0    0 -0.18588211821E+02 -0.77672326122E+02  0.35790972796E+01  0.79945742858E+02  0.00000000000E+00 0.  1.
</event>
<event>
 6    1  0.9216756E-006  0.9426228E+02  0.7561462E-02  0.1292846E+00
         -1   -1    0    0    0  501 -0.00000000000E+00  0.00000000000E+00  0.14640688175E+03  0.14640688175E+03  0.00000000000E+00 0.  1.
          1   -1    0    0  501    0  0.00000000000E+00 -0.00000000000E+00 -0.10024205327E+03  0.10024205327E+03  0.00000000000E+00 0. -1.
          5    1    1    2  502    0  0.23229823731E+02 -0.42829362163E+02  0.17125664045E+02  0.51814474260E+02  0.41800000000E+01 0.  1.
         -5    1    1    2    0  502 -0.71860278356E+02  0.37639370885E+02 -0.14568331659E+02  0.82524726799E+02  0.41800000000E+01 0.  1.
        -11    1    1    2    0    0  0.19187134955E+02 -0.13552582456E+02  0.66528338483E+02  0.70553798341E+02  0.00000000000E+00 0.  1.
         11    1    1    2    0    0  0.29443319670E+02  0.18742573735E+02 -0.22920842388E+02  0.41755935616E+02  0.00000000000E+00 0. -1.
</event>
<event>
 6    1  0.9216756E-006  0.1414638E+03  0.7561462E-02  0.1211373E+00
         -1   -1    0    0    0  501 -0.00000000000E+00  0.00000000000E+00  0.22203438918E+03  0.22203438918E+03  0.00000000000E+00 0.  1.
          1   -1    0    0  501    0  0.00000000000E+00 -0.00000000000E+00 -0.24165049977E+03  0.24165049977E+03  0.00000000000E+00 0. -1.
          5    1    1    2  502    0 -0.11908438397E+03 -0.17010474687E+02  0.15860072140E+03  0.19910325960E+03  0.41800000000E+01 0.  1.
         -5    1    1    2    0  502 -0.16200473866E+02 -0.15769638997E+02 -0.22600389574E+02  0.32239523515E+02  0.41800000000E+01 0.  1.
        -11    1    1    2    0    0  0.26203204849E+02  0.10545837742E+02  0.12354367899E+02  0.30829418487E+02  0.00000000000E+00 0.  1.
         11    1    1    2    0    0  0.10908165298E+03  0.22234275942E+02 -0.16797081032E+03  0.20151268735E+03  0.00000000000E+00 0. -1.
</event>
<event>
 6    1  0.9216756E-006  0.6124254E+02  0.7561462E-02  0.1392690E+00
         -1   -1    0    0    0  501 -0.00000000000E+00  0.00000000000E+00  0.12454619893E+03  0.12454619893E+03  0.00000000000E+00 0.  1.
          1   -1    0    0  501    0  0.00000000000E+00 -0.00000000000E+00 -0.10070047669E+03  0.10070047669E+03  0.00000000000E+00 0. -1.
          5    1    1    2  502    0 -0.20444099133E+02 -0.13657884194E+02 -0.47241663875E+02  0.53420466075E+02  0.41800000000E+01 0.  1.
         -5    1    1    2    0  502 -0.34692551324E+01  0.48681810307E+01  0.77411768272E+02  0.77754673073E+02  0.41800000000E+01 0.  1.
        -11    1    1    2    0    0 -0.23216811138E+02 -0.23567830666E+02  0.10100325585E+02  0.34590165346E+02  0.00000000000E+00 0.  1.
         11    1    1    2    0    0  0.47130165404E+02  0.32357533829E+02 -0.16424707736E+02  0.59481371123E+02  0.00000000000E+00 0. -1.
</event>
<event>
 6    1  0.9216756E-006  0.1396152E+03  0.7561462E-02  0.1213848E+00
          2   -1    0    0  501    0  0.00000000000E+00  0.00000000000E+00  0.17603352279E+03  0.17603352279E+03  0.00000000000E+00 0. -1.
         -2   -1    0    0    0  501 -0.00000000000E+00 -0.00000000000E+00 -0.17733530377E+03  0.17733530377E+03  0.00000000000E+00 0.  1.
          5    1    1    2  502    0 -0.94113890861E+02  0.70658981589E+02 -0.77163440266E+02  0.14078986130E+03  0.41800000000E+01 0.  1.
         -5    1    1    2    0  502  0.39700387124E+02  0.13639059148E+02 -0.19765611350E+02  0.46586440777E+02  0.41800000000E+01 0.  1.
        -11    1    1    2    0    0  0.67742428269E+02 -0.55585210691E+02  0.10118242690E+03  0.13385303787E+03  0.00000000000E+00 0. -1.
         11    1    1    2    0    0 -0.13328924532E+02 -0.28712830046E+02 -0.55551562540E+01  0.32139486608E+02  0.00000000000E+00 0.  1.
</event>
<event>
 6    1  0.9216756E-006  0.1534818E+03  0.7561462E-02  0.1196259E+00
          2   -1    0    0  501    0  0.00000000000E+00  0.00000000000E+00  0.77683987590E+03  0.77683987590E+03  0.00000000000E+00 0. -1.
         -2   -1    0    0    0  501 -0.00000000000E+00 -0.00000000000E+00 -0.35095286798E+02  0.35095286798E+02  0.00000000000E+00 0.  1.
          5    1    1    2  502    0 -0.30652364136E+02 -0.70699947309E+02  0.10089618796E+03  0.12702583643E+03  0.41800000000E+01 0. -1.
         -5    1    1    2    0  502 -0.76550307200E+02  0.89948550563E+01  0.31961546598E+03  0.32880446384E+03  0.41800000000E+01 0. -1.
        -11    1    1    2    0    0  0.63547925792E+02 -0.14129005585E+02  0.15828223566E+03  0.17114681942E+03  0.00000000000E+00 0. -1.
         11    1    1    2    0    0  0.43654745545E+02  0.75834097837E+02  0.16295069950E+03  0.18495804300E+03  0.00000000000E+00 0.  1.
</event>
<event>
 6    1  0.9216756E-006  0.1079303E+03  0.7561462E-02  0.1264451E+00
         -2   -1    0    0    0  501 -0.00000000000E+00  0.00000000000E+00  0.23620458298E+03  0.23620458298E+03  0.00000000000E+00 0.  1.
          2   -1    0    0  501    0  0.00000000000E+00 -0.00000000000E+00 -0.88524233377E+02  0.88524233377E+02  0.00000000000E+00 0. -1.
          5    1    1    2  502    0 -0.40595326125E+02  0.32134058369E+02  0.47943425178E+02  0.70686792460E+02  0.41800000000E+01 0. -1.
         -5    1    1    2    0  502  0.39944908569E+02 -0.58213031297E+02  0.13587899584E+03  0.15318265778E+03  0.41800000000E+01 0. -1.
        -11    1    1    2    0    0 -0.25014286000E+00 -0.33553790872E+02 -0.61894602257E+01  0.34120798221E+02  0.00000000000E+00 0. -1.
         11    1    1    2    0    0  0.90056041587E+00  0.59632763800E+02 -0.29952611192E+02  0.66738567896E+02  0.00000000000E+00 0.  1.
</event>
<event>
 6    1  0.9216756E-006  0.1198871E+03  0.7561462E-02  0.1243283E+00
          1   -1    0    0  501    0  0.00000000000E+00  0.00000000000E+00  0.26808984404E+03  0.26808984404E+03  0.00000000000E+00 0. -1.
         -1   -1    0    0    0  501 -0.00000000000E+00 -0.00000000000E+00 -0.77142391968E+02  0.77142391968E+02  0.00000000000E+00 0.  1.
          5    1    1    2  502    0  0.72607520181E+02  0.58034690266E+02  0.19558905527E+02  0.95078391060E+02  0.41800000000E+01 0. -1.
         -5    1    1    2    0  502  0.83129500037E+01 -0.53982908709E+02  0.26949768146E+02  0.61049340485E+02  0.41800000000E+01 0. -1.
        -11    1    1    2    0    0 -0.28929633342E+02  0.19485426246E+02  0.11837754566E+01  0.34899954808E+02  0.00000000000E+00 0.  1.
         11    1    1    2    0    0 -0.51990836843E+02 -0.23537207803E+02  0.14325500294E+03  0.15420454965E+03  0.00000000000E+00 0. -1.
</event>
<event>
 6    1  0.9216756E-006  0.7534547E+02  0.7561462E-02  0.1342805E+00
          1   -1    0    0  501    0  0.00000000000E+00  0.00000000000E+00  0.14147886512E+03  0.14147886512E+03  0.00000000000E+00 0. -1.
         -1   -1    0    0    0  501 -0.00000000000E+00 -0.00000000000E+00 -0.13824810656E+03  0.13824810656E+03  0.00000000000E+00 0.  1.
          5    1    1    2  502    0 -0.25713347609E+02 -0.18499617765E+02 -0.10694588598E+03  0.11161678651E+03  0.41800000000E+01 0. -1.
         -5    1    1    2    0  502 -0.18973517409E+02 -0.48268091563E+00  0.35410926828E+02  0.40393483170E+02  0.41800000000E+01 0. -1.
        -11    1    1    2    0    0  0.23793804643E+02 -0.34487092009E+02  0.14130303566E+02  0.44217305814E+02  0.00000000000E+00 0.  1.
         11    1    1    2    0    0  0.20893060376E+02  0.53469390689E+02  0.60635414151E+02  0.83499396176E+02  0.00000000000E+00 0. -1.
</event>
<event>
 6    1  0.9216756E-006  0.7700108E+02  0.7561462E-02  0.1337784E+00
          1   -1    0    0  501    0  0.00000000000E+00  0.00000000000E+00  0.95331095270E+02  0.95331095270E+02  0.00000000000E+00 0. -1.
         -1   -1    0    0    0  501 -0.00000000000E+00 -0.00000000000E+00 -0.14592846707E+03  0.14592846707E+03  0.00000000000E+00 0.  1.
          5    1    1    2  502    0 -0.12708310303E+02 -0.10394993956E+02 -0.74608586279E+02  0.76507977340E+02  0.41800000000E+01 0.  1.
         -5    1    1    2    0  502  0.24901390113E+01 -0.35765521306E+02  0.47784299039E+02  0.59884763849E+02  0.41800000000E+01 0.  1.
        -11    1    1    2    0    0 -0.39704997801E+02  0.23517126212E+02 -0.29992795665E+01  0.46244326718E+02  0.00000000000E+00 0. -1.
         11    1    1    2    0    0  0.49923169093E+02  0.22643389050E+02 -0.20773804998E+02  0.58622494437E+02  0.00000000000E+00 0.  1.
</event>
<event>
 6    1  0.9216756E-006  0.8943678E+02  0.7561462E-02  0.1304221E+00
          1   -1    0    0  501    0  0.00000000000E+00  0.00000000000E+00  0.14456268268E+03  0.14456268268E+03  0.00000000000E+00 0. -1.
         -1   -1    0    0    0  501 -0.00000000000E+00 -0.00000000000E+00 -0.27432772278E+03  0.27432772278E+03  0.00000000000E+00 0.  1.
          5    1    1    2  502    0  0.16157317216E+02  0.70383172300E+02 -0.38484439862E+02  0.81935183859E+02  0.41800000000E+01 0.  1.
         -5    1    1    2    0  502  0.22786287278E+02 -0.16387033116E+01 -0.18271892370E+03  0.18418897284E+03  0.41800000000E+01 0.  1.
        -11    1    1    2    0    0  0.54396625087E+00 -0.22492036563E+02 -0.17162001773E+02  0.28297030107E+02  0.00000000000E+00 0.  1.
         11    1    1    2    0    0 -0.39487570745E+02 -0.46252432425E+02  0.10860032524E+03  0.12446921865E+03  0.00000000000E+00 0. -1.
</event>
<event>
 6    1  0.9216756E-006  0.8968351E+02  0.7561462E-02  0.1303620E+00
          1   -1    0    0  501    0  0.00000000000E+00  0.00000000000E+00  0.60411068504E+02  0.60411068504E+02  0.00000000000E+00 0. -1.
         -1   -1    0    0    0  501 -0.00000000000E+00 -0.00000000000E+00 -0.61689465129E+03  0.61689465129E+03  0.00000000000E+00 0.  1.
          5    1    1    2  502    0  0.28828331115E+02  0.35556878902E+02 -0.51970123445E+02  0.69381052479E+02  0.41800000000E+01 0. -1.
         -5    1    1    2    0  502  0.47035385852E+02 -0.16219961406E+02 -0.48284412294E+03  0.48541872041E+03  0.41800000000E+01 0. -1.
        -11    1    1    2    0    0 -0.21763065778E+02  0.75805724323E+01  0.33514066093E+02  0.40672948461E+02  0.00000000000E+00 0. -1.
         11    1    1    2    0    0 -0.54100651190E+02 -0.26917489928E+02 -0.55183402498E+02  0.81832998445E+02  0.00000000000E+00 0.  1.
</event>
<event>
 6    1  0.9216756E-006  0.1325280E+03  0.7561462E-02  0.1223752E+00
         -2   -1    0    0    0  501 -0.00000000000E+00  0.00000000000E+00  0.38931651390E+03  0.38931651390E+03  0.00000000000E+00 0.  1.
          2   -1    0    0  501    0  0.00000000000E+00 -0.00000000000E+00 -0.50393451195E+02  0.50393451195E+02  0.00000000000E+00 0. -1.
          5    1    1    2  502    0  0.10931848800E+03  0.29700146055E+02  0.17484079623E+03  0.20837323946E+03  0.41800000000E+01 0.  1.
         -5    1    1    2    0  502 -0.23504101986E+02 -0.12149231521E+02  0.44753085860E+01  0.27157824355E+02  0.41800000000E+01 0.  1.
        -11    1    1    2    0    0  0.20956512708E+01  0.26499353713E+02  0.52079000048E+02  0.58470759764E+02  0.00000000000E+00 0.  1.
         11    1    1    2    0    0 -0.87910037284E+02 -0.44050268247E+02  0.10752795783E+03  0.14570814151E+03  0.00000000000E+00 0. -1.
</event>
<event>
 6    1  0.9216756E-006  0.1163551E+03  0.7561462E-02  0.1249234E+00
         -2   -1    0    0    0  501 -0.00000000000E+00  0.00000000000E+00  0.74357182769E+02  0.74357182769E+02  0.00000000000E+00 0.  1.
          2   -1    0    0  501    0  0.00000000000E+00 -0.00000000000E+00 -0.29774942436E+03  0.29774942436E+03  0.00000000000E+00 0. -1.
          5    1    1    2  502    0  0.78618700825E+02  0.38122225560E+01 -0.68954948927E+01  0.79123027053E+02  0.41800000000E+01 0. -1.
         -5    1    1    2    0  502 -0.28329880901E+02 -0.57812321758E+02 -0.27466385395E+02  0.70119337031E+02  0.41800000000E+01 0. -1.
        -11    1    1    2    0    0 -0.37550457086E+02  0.39861274836E+01 -0.13820440903E+02  0.40211075917E+02  0.00000000000E+00 0.  1.
         11    1    1    2    0    0 -0.12738362837E+02  0.50013971719E+02 -0.17520992040E+03  0.18265316713E+03  0.00000000000E+00 0. -1.
</event>
<event>
 6    1  0.9216756E-006  0.1578725E+03  0.7561462E-02  0.1191120E+00
         -2   -1    0    0    0  501 -0.00000000000E+00  0.00000000000E+00  0.26446798440E+02  0.26446798440E+02  0.00000000000E+00 0.  1.
          2   -1    0    0  501    0  0.00000000000E+00 -0.00000000000E+00 -0.11161418618E+04  0.11161418618E+04  0.00000000000E+00 0. -1.
          5    1    1    2  502    0 -0.71546734262E+02  0.67053165343E+02 -0.19316089703E+03  0.21666487188E+03  0.41800000000E+01 0.  1.
         -5    1    1    2    0  502 -0.56693890120E+02 -0.31597443036E+02 -0.36102450565E+03  0.36683615098E+03  0.41800000000E+01 0.  1.
        -11    1    1    2    0    0  0.35917367026E+02 -0.47396414600E+02 -0.12888761848E+03  0.14194539644E+03  0.00000000000E+00 0.  1.
         11    1    1    2    0    0  0.92323257356E+02  0.11940692293E+02 -0.40662204220E+03  0.41714224095E+03  0.00000000000E+00 0. -1.
</event>
<event>
 6    1  0.9216756E-006  0.1260217E+03  0.7561462E-02  0.1233481E+00
         -1   -1    0    0    0  501 -0.00000000000E+00  0.00000000000E+00  0.20998460131E+02  0.20998460131E+02  0.00000000000E+00 0.  1.
          1   -1    0    0  501    0  0.00000000000E+00 -0.00000000000E+00 -0.91615665029E+03  0.91615665029E+03  0.00000000000E+00 0. -1.
          5    1    1    2  502    0  0.56071772450E+02  0.18705330939E+02 -0.35219039627E+03  0.35714070154E+03  0.41800000000E+01 0.  1.
         -5    1    1    2    0  502 -0.29382951971E+02  0.62581229902E+02 -0.11750270636E+03  0.13639694499E+03  0.41800000000E+01 0.  1.
        -11    1    1    2    0    0  0.25948891196E+02 -0.62434759464E+02 -0.19221620099E+03  0.20376091889E+03  0.00000000000E+00 0. -1.
         11    1    1    2    0    0 -0.52637711674E+02 -0.18851801376E+02 -0.23324888655E+03  0.23985654500E+03  0.00000000000E+00 0.  1.
</event>
<event>
 6    1  0.1205982E-005  0.2991727E+03  0.7561462E-02  0.1085655E+00
          2   -1    0    0  501    0  0.00000000000E+00  0.00000000000E+00  0.14182236051E+04  0.14182236051E+04  0.00000000000E+00 0. -1.
         -2   -1    0    0    0  501 -0.00000000000E+00 -0.00000000000E+00 -0.77642451977E+02  0.77642451977E+02  0.00000000000E+00 0.  1.
          5    1    1    2  502    0 -0.10693466404E+03 -0.39650023047E+02  0.87145271056E+02  0.14359288760E+03  0.41800000000E+01 0.  1.
         -5    1    1    2    0  502 -0.18702151624E+03  0.28812167782E+02  0.35071501670E+03  0.39852940154E+03  0.41800000000E+01 0.  1.
        -11    1    1    2    0    0  0.18513787141E+03  0.17244270589E+02  0.42758950853E+03  0.46626836061E+03  0.00000000000E+00 0. -1.
         11    1    1    2    0    0  0.10881830887E+03 -0.64064153243E+01  0.47513135680E+03  0.48747540729E+03  0.00000000000E+00 0.  1.
</event>
<event>
 6    1  0.9216756E-006  0.9096681E+02  0.7561462E-02  0.1300527E+00
          4   -1    0    0  501    0  0.00000000000E+00  0.00000000000E+00  0.81222057275E+02  0.81222057275E+02  0.00000000000E+00 0.  1.
         -4   -1    0    0    0  501 -0.00000000000E+00 -0.00000000000E+00 -0.41180187896E+03  0.41180187896E+03  0.00000000000E+00 0. -1.
          5    1    1    2  502    0  0.26915010935E+02 -0.25647039517E+02 -0.46897690255E+02  0.59992117823E+02  0.41800000000E+01 0. -1.
         -5    1    1    2    0  502 -0.37642655069E+02  0.78144983883E+02 -0.31130732387E+03  0.32319240443E+03  0.41800000000E+01 0. -1.
        -11    1    1    2    0    0  0.15908417909E+02 -0.24519584282E+02  0.59998336718E+02  0.66738955510E+02  0.00000000000E+00 0.  1.
         11    1    1    2    0    0 -0.51807737748E+01 -0.27978360084E+02 -0.32373144279E+02  0.43100458471E+02  0.00000000000E+00 0. -1.
</event>
<event>
 6    1  0.9216756E-006  0.9677027E+02  0.7561462E-02  0.1287238E+00
          2   -1    0    0  501    0  0.00000000000E+00  0.00000000000E+00  0.25205872824E+03  0.25205872824E+03  0.00000000000E+00 0.  1.
         -2   -1    0    0    0  501 -0.00000000000E+00 -0.00000000000E+00 -0.63521488464E+02  0.63521488464E+02  0.00000000000E+00 0. -1.
          5    1    1    2  502    0 -0.23588770999E+02 -0.66397183440E+02  0.66485910246E+02  0.96968369829E+02  0.41800000000E+01 0.  1.
         -5    1    1    2    0  502 -0.14683519950E+02  0.39799702117E+02 -0.16310408785E+02  0.45641251971E+02  0.41800000000E+01 0.  1.
        -11    1    1    2    0    0  0.15516936066E+02  0.47165965476E+02  0.13282373598E+03  0.14180108760E+03  0.00000000000E+00 0.  1.
         11    1    1    2    0    0  0.22755354882E+02 -0.20568484154E+02  0.55380023409E+01  0.31169507313E+02  0.00000000000E+00 0. -1.
</event>
<event>
 6    1  0.9216756E-006  0.7367356E+02  0.7561462E-02  0.1348028E+00
          2   -1    0    0  501    0  0.00000000000E+00  0.00000000000E+00  0.91799014653E+02  0.91799014653E+02  0.00000000000E+00 0. -1.
         -2   -1    0    0    0  501 -0.00000000000E+00 -0.00000000000E+00 -0.14930496597E+03  0.14930496597E+03  0.00000000000E+00 0.  1.
          5    1    1    2  502    0 -0.59175758946E+02 -0.24120104269E+01  0.13933803890E+02  0.60985338664E+02  0.41800000000E+01 0. -1.
         -5    1    1    2    0  502  0.32245751170E+02  0.31313462327E+02 -0.66406866606E+02  0.80297358137E+02  0.41800000000E+01 0. -1.
        -11    1    1    2    0    0  0.48080285164E+01 -0.17093635102E+02  0.42510560723E+02  0.46070134276E+02  0.00000000000E+00 0. -1.
         11    1    1    2    0    0  0.22121979259E+02 -0.11807816798E+02 -0.47543449326E+02  0.53751149547E+02  0.00000000000E+00 0.  1.
</event>
<event>
 6    1  0.9216756E-006  0.7865856E+02  0.7561462E-02  0.1332902E+00
         -2   -1    0    0    0  501 -0.00000000000E+00  0.00000000000E+00  0.69843511864E+02  0.69843511864E+02  0.00000000000E+00 0.  1.
          2   -1    0    0  501    0  0.00000000000E+00 -0.00000000000E+00 -0.17229475931E+03  0.17229475931E+03  0.00000000000E+00 0. -1.
          5    1    1    2  502    0  0.39118304575E+02 -0.26707031559E+02 -0.83229294069E+02  0.95854551685E+02  0.41800000000E+01 0.  1.
         -5    1    1    2    0  502 -0.45339849356E+02  0.10941430226E+02  0.12999224309E+02  0.48599064473E+02  0.41800000000E+01 0.  1.
        -11    1    1    2    0    0  0.25639780623E+01  0.39168373354E+02 -0.53152217984E+02  0.66074909998E+02  0.00000000000E+00 0. -1.
         11    1    1    2    0    0  0.36575667194E+01 -0.23402772020E+02  0.20931040294E+02  0.31609745022E+02  0.00000000000E+00 0.  1.
</event>
<event>
 6    1  0.9216756E-006  0.1199656E+03  0.7561462E-02  0.1243154E+00
          2   -1    0    0  501    0  0.00000000000E+00  0.00000000000E+00  0.15485269625E+02  0.15485269625E+02  0.00000000000E+00 0. -1.
         -2   -1    0    0    0  501 -0.00000000000E+00 -0.00000000000E+00 -0.12724787890E+04  0.12724787890E+04  0.00000000000E+00 0.  1.
          5    1    1    2  502    0  0.49864764854E+02 -0.62732532112E+02 -0.39649210135E+03  0.40453099287E+03  0.41800000000E+01 0.  1.
         -5    1    1    2    0  502  0.19458372583E+02  0.52243111930E+02 -0.53839125596E+03  0.54128604997E+03  0.41800000000E+01 0.  1.
        -11    1    1    2    0    0 -0.77514272697E+02 -0.13275706151E+02 -0.29444929275E+03  0.30477055771E+03  0.00000000000E+00 0.  1.
         11    1    1    2    0    0  0.81911352610E+01  0.23765126333E+02 -0.27660869319E+02  0.37376458072E+02  0.00000000000E+00 0. -1.
</event>
<event>
 6    1  0.9216756E-006  0.1083178E+03  0.7561462E-02  0.1263717E+00
         -4   -1    0    0    0  501 -0.00000000000E+00  0.00000000000E+00  0.14909952528E+03  0.14909952528E+03  0.00000000000E+00 0.  1.
          4   -1    0    0  501    0  0.00000000000E+00 -0.00000000000E+00 -0.13249618923E+03  0.13249618923E+03  0.00000000000E+00 0. -1.
          5    1    1    2  502    0  0.20616810888E+02 -0.17193467875E+02 -0.15742867533E+02  0.31400294695E+02  0.41800000000E+01 0.  1.
         -5    1    1    2    0  502 -0.69583062460E+02  0.66413674165E+02  0.81115025988E+02  0.12589558586E+03  0.41800000000E+01 0.  1.
        -11    1    1    2    0    0  0.15081070375E+02 -0.56541850363E+02  0.66874834111E+01  0.58899422412E+02  0.00000000000E+00 0.  1.
         11    1    1    2    0    0  0.33885181198E+02  0.73216440725E+01 -0.55456305811E+02  0.65400411550E+02  0.00000000000E+00 0. -1.
</event>
<event>
 6    1  0.9216756E-006  0.1421987E+03  0.7561462E-02  0.1210401E+00
         -2   -1    0    0    0  501 -0.00000000000E+00  0.00000000000E+00  0.77045689143E+02  0.77045689143E+02  0.00000000000E+00 0.  1.
          2   -1    0    0  501    0  0.00000000000E+00 -0.00000000000E+00 -0.44103113664E+03  0.44103113664E+03  0.00000000000E+00 0. -1.
          5    1    1    2  502    0  0.11857888166E+03  0.55258453194E+02 -0.49701266589E+02  0.14000762881E+03  0.41800000000E+01 0.  1.
         -5    1    1    2    0  502 -0.32409609855E+02  0.18789878507E+02 -0.78142944137E+01  0.38496466623E+02  0.41800000000E+01 0.  1.
        -11    1    1    2    0    0 -0.32600648627E+02 -0.42782551324E+02 -0.24990481046E+03  0.25562778268E+03  0.00000000000E+00 0. -1.
         11    1    1    2    0    0 -0.53568623179E+02 -0.31265780377E+02 -0.56565076042E+02  0.83944947672E+02  0.00000000000E+00 0.  1.
</event>
<event>
 6    1  0.9216756E-006  0.1062796E+03  0.7561462E-02  0.1267619E+00
         -1   -1    0    0    0  501 -0.00000000000E+00  0.00000000000E+00  0.46321930424E+02  0.46321930424E+02  0.00000000000E+00 0.  1.
          1   -1    0    0  501    0  0.00000000000E+00 -0.00000000000E+00 -0.52849056629E+03  0.52849056629E+03  0.00000000000E+00 0. -1.
          5    1    1    2  502    0 -0.37208062469E+01 -0.61476756114E+02 -0.17710900452E+02  0.64221369779E+02  0.41800000000E+01 0. -1.
         -5    1    1    2    0  502  0.34652348846E+02  0.41716495075E+02 -0.23597723593E+02  0.59290608030E+02  0.41800000000E+01 0.  1.
        -11    1    1    2    0    0  0.30937832285E+02  0.15003632929E+02 -0.16588058026E+03  0.16940668634E+03  0.00000000000E+00 0.  1.
         11    1    1    2    0    0 -0.61869374883E+02  0.47566281104E+01 -0.27497943156E+03  0.28189383256E+03  0.00000000000E+00 0. -1.
</event>
<event>
 6    1  0.9216756E-006  0.8552603E+02  0.7561462E-02  0.1314063E+00
          4   -1    0    0  501    0  0.00000000000E+00  0.00000000000E+00  0.36319775267E+02  0.36319775267E+02  0.00000000000E+00 0.  1.
         -4   -1    0    0    0  501 -0.00000000000E+00 -0.00000000000E+00 -0.33724869811E+03  0.33724869811E+03  0.00000000000E+00 0. -1.
          5    1    1    2  502    0 -0.42343181685E+02 -0.59094673750E+02 -0.11570656984E+03  0.13671359919E+03  0.41800000000E+01 0.  1.
         -5    1    1    2    0  502  0.25400653887E+02  0.47095354969E+02 -0.71659742879E+02  0.89530759111E+02  0.41800000000E+01 0.  1.
        -11    1    1    2    0    0 -0.61668914540E+01  0.19351828188E+02  0.91223995402E+01  0.22265263929E+02  0.00000000000E+00 0.  1.
         11    1    1    2    0    0  0.23109419252E+02 -0.73525094072E+01 -0.12268500966E+03  0.12505885114E+03  0.00000000000E+00 0. -1.
</event>
<event>
 6    1  0.9216756E-006  0.9599544E+02  0.7561462E-02  0.1288950E+00
          1   -1    0    0  501    0  0.00000000000E+00  0.00000000000E+00  0.60722111999E+02  0.60722111999E+02  0.00000000000E+00 0. -1.
         -1   -1    0    0    0  501 -0.00000000000E+00 -0.00000000000E+00 -0.29628431671E+03  0.29628431671E+03  0.00000000000E+00 0.  1.
          5    1    1    2  502    0  0.27279619063E+01 -0.71673663383E+02 -0.47685330118E+01  0.72005326928E+02  0.41800000000E+01 0.  1.
         -5    1    1    2    0  502 -0.46270599825E+02  0.17675539228E+02 -0.80231260570E+02  0.94381781440E+02  0.41800000000E+01 0.  1.
        -11    1    1    2    0    0  0.24333390312E+02  0.20485913191E+02 -0.14857410180E+03  0.15194094329E+03  0.00000000000E+00 0.  1.
         11    1    1    2    0    0  0.19209247606E+02  0.33512210964E+02 -0.19883093331E+01  0.38678377051E+02  0.00000000000E+00 0. -1.
</event>
<event>
 6    1  0.9216756E-006  0.7620209E+02  0.7561462E-02  0.1340188E+00
         -2   -1    0    0    0  501 -0.00000000000E+00  0.00000000000E+00  0.36151145289E+02  0.36151145289E+02  0.00000000000E+00 0.  1.
          2   -1    0    0  501    0  0.00000000000E+00 -0.00000000000E+00 -0.41673327796E+03  0.41673327796E+03  0.00000000000E+00 0. -1.
          5    1    1    2  502    0 -0.11055095800E+02 -0.31058057662E+02 -0.22948168244E+03  0.23187525324E+03  0.41800000000E+01 0.  1.
         -5    1    1    2    0  502  0.41728079663E+01 -0.26472783535E+02  0.86385156684E+01  0.28466066595E+02  0.41800000000E+01 0.  1.
        -11    1    1    2    0    0  0.37028319471E+02  0.47607676132E+02 -0.50111134438E+02  0.78413730074E+02  0.00000000000E+00 0.  1.
         11    1    1    2    0    0 -0.30146031636E+02  0.99231650647E+01 -0.10962783146E+03  0.11412937334E+03  0.00000000000E+00 0. -1.
</event>
<event>
 6    1  0.9216756E-006  0.1151216E+03  0.7561462E-02  0.1251369E+00
         -2   -1    0    0    0  501 -0.00000000000E+00  0.00000000000E+00  0.41046404212E+02  0.41046404212E+02  0.00000000000E+00 0.  1.
          2   -1    0    0  501    0  0.00000000000E+00 -0.00000000000E+00 -0.49895828330E+03  0.49895828330E+03  0.00000000000E+00 0. -1.
          5    1    1    2  502    0 -0.26221897075E+02  0.58975157829E+02 -0.45288410095E+02  0.78956757888E+02  0.41800000000E+01 0.  1.
         -5    1    1    2    0  502  0.77783219889E+02  0.10870357835E+02 -0.14291030413E+03  0.16312333188E+03  0.41800000000E+01 0.  1.
        -11    1    1    2    0    0 -0.37510724949E+02 -0.47585929544E+02 -0.26416235436E+03  0.27102255374E+03  0.00000000000E+00 0. -1.
         11    1    1    2    0    0 -0.14050597864E+02 -0.22259586121E+02 -0.55508105078E+01  0.26902044010E+02  0.00000000000E+00 0.  1.
</event>
<event>
 6    1  0.9216756E-006  0.8107883E+02  0.7561462E-02  0.1326017E+00
          2   -1    0    0  501    0  0.00000000000E+00  0.00000000000E+00  0.10343914136E+04  0.10343914136E+04  0.00000000000E+00 0. -1.
         -2   -1    0    0    0  501 -0.00000000000E+00 -0.00000000000E+00 -0.15269337670E+02  0.15269337670E+02  0.00000000000E+00 0.  1.
          5    1    1    2  502    0 -0.38872110885E+02 -0.19031352476E+02  0.46956896514E+03  0.47157790322E+03  0.41800000000E+01 0. -1.
         -5    1    1    2    0  502  0.18375938221E+02 -0.89014318902E+01  0.99249555774E+00  0.20865474896E+02  0.41800000000E+01 0.  1.
        -11    1    1    2    0    0 -0.21610640613E+02 -0.23126261806E+02  0.17475905695E+03  0.17760228534E+03  0.00000000000E+00 0.  1.
         11    1    1    2    0    0  0.42106813277E+02  0.51059046172E+02  0.37380155832E+03  0.37961508785E+03  0.00000000000E+00 0. -1.
</event>
<event>
 6    1  0.9216756E-006  0.1209945E+03  0.7561462E-02  0.1241465E+00
          1   -1    0    0  501    0  0.00000000000E+00  0.00000000000E+00  0.16392222468E+03  0.16392222468E+03  0.00000000000E+00 0. -1.
         -1   -1    0    0    0  501 -0.00000000000E+00 -0.00000000000E+00 -0.12144279847E+03  0.12144279847E+03  0.00000000000E+00 0.  1.
          5    1    1    2  502    0 -0.61303247801E+02  0.26594063385E+02  0.57688663888E+02  0.88378655452E+02  0.41800000000E+01 0. -1.
         -5    1    1    2    0  502  0.44113407588E+02  0.57178298989E+02 -0.38220682571E+01  0.72439155227E+02  0.41800000000E+01 0. -1.
        -11    1    1    2    0    0 -0.20895253546E+01 -0.83387629008E+02 -0.38017063686E+02  0.91668751050E+02  0.00000000000E+00 0.  1.
         11    1    1    2    0    0  0.19279365568E+02 -0.38473336657E+00  0.26629894265E+02  0.32878461415E+02  0.00000000000E+00 0. -1.
</event>
<event>
 6    1  0.9216756E-006  0.6665939E+02  0.7561462E-02  0.1371836E+00
         -1   -1    0    0    0  501 -0.00000000000E+00  0.00000000000E+00  0.26783860733E+02  0.26783860733E+02  0.00000000000E+00 0.  1.
          1   -1    0    0  501    0  0.00000000000E+00 -0.00000000000E+00 -0.46718041726E+03  0.46718041726E+03  0.00000000000E+00 0. -1.
          5    1    1    2  502    0  0.86645076949E+01  0.14511407866E+02  0.13513013503E+02  0.22039251025E+02  0.41800000000E+01 0. -1.
         -5    1    1    2    0  502 -0.16363513343E+02 -0.19261938994E+02 -0.20675041189E+03  0.20833144765E+03  0.41800000000E+01 0. -1.
        -11    1    1    2    0    0 -0.32431797864E+02 -0.24487747438E+02 -0.89349352901E+02  0.98156905773E+02  0.00000000000E+00 0.  1.
         11    1    1    2    0    0  0.40130803512E+02  0.29238278566E+02 -0.15780980524E+03  0.16543667355E+03  0.00000000000E+00 0. -1.
</event>
<event>
 6    1  0.9216756E-006  0.8365200E+02  0.7561462E-02  0.1318996E+00
         -1   -1    0    0    0  501 -0.00000000000E+00  0.00000000000E+00  0.85151346595E+02  0.85151346595E+02  0.00000000000E+00 0.  1.
          1   -1    0    0  501    0  0.00000000000E+00 -0.00000000000E+00 -0.17208817838E+03  0.17208817838E+03  0.00000000000E+00 0. -1.
          5    1    1    2  502    0 -0.24651054833E+02  0.65042590935E+02 -0.88998349391E+02  0.11303270206E+03  0.41800000000E+01 0.  1.
         -5    1    1    2    0  502  0.33094127436E+01 -0.16076612829E+02  0.30614186316E+02  0.34987290500E+02  0.41800000000E+01 0.  1.
        -11    1    1    2    0    0  0.42664799169E+02 -0.35111334294E+02  0.16344301116E+02  0.57621411498E+02  0.00000000000E+00 0.  1.
         11    1    1    2    0    0 -0.21323157080E+02 -0.13854643811E+02 -0.44896969825E+02  0.51598120919E+02  0.00000000000E+00 0. -1.
</event>
<event>
 6    1  0.9216756E-006  0.1177815E+03  0.7561462E-02  0.1246802E+00
          1   -1    0    0  501    0  0.00000000000E+00  0.00000000000E+00  0.19364197532E+03  0.19364197532E+03  0.00000000000E+00 0. -1.
         -1   -1    0    0    0  501 -0.00000000000E+00 -0.00000000000E+00 -0.12736614547E+03  0.12736614547E+03  0.00000000000E+00 0.  1.
          5    1    1    2  502    0  0.30695502678E+02  0.88007384133E+02  0.72979275882E+02  0.11845235605E+03  0.41800000000E+01 0.  1.
         -5    1    1    2    0  502  0.24308418987E+02  0.10666160831E+02 -0.44992406779E+02  0.52406634011E+02  0.41800000000E+01 0.  1.
        -11    1    1    2    0    0 -0.39457819752E+02 -0.88258990063E+02 -0.11120433795E+02  0.97315121714E+02  0.00000000000E+00 0.  1.
         11    1    1    2    0    0 -0.15546101912E+02 -0.10414554901E+02  0.49409394543E+02  0.52834009006E+02  0.00000000000E+00 0. -1.
</event>
<event>
 6    1  0.9216756E-006  0.1952701E+03  0.7561462E-02  0.1153792E+00
         -1   -1    0    0    0  501 -0.00000000000E+00  0.00000000000E+00  0.81744698292E+02  0.81744698292E+02  0.00000000000E+00 0.  1.
          1   -1    0    0  501    0  0.00000000000E+00 -0.00000000000E+00 -0.52907017980E+03  0.52907017980E+03  0.00000000000E+00 0. -1.
          5    1    1    2  502    0 -0.56501715756E+02  0.98810690734E+02 -0.18327883082E+03  0.21578831922E+03  0.41800000000E+01 0. -1.
         -5    1    1    2    0  502  0.51035908983E+02  0.76001960968E+02 -0.64068675463E+02  0.11181784139E+03  0.41800000000E+01 0. -1.
        -11    1    1    2    0    0 -0.26501569584E+02 -0.55940105366E+02 -0.12389573015E+03  0.13849830514E+03  0.00000000000E+00 0.  1.
         11    1    1    2    0    0  0.31967376357E+02 -0.11887254634E+03 -0.76082245082E+02  0.14471041234E+03  0.00000000000E+00 0. -1.
</event>
<event>
 6    1  0.9216756E-006  0.9972836E+02  0.7561462E-02  0.1280868E+00
          1   -1    0    0  501    0  0.00000000000E+00  0.00000000000E+00  0.46564029023E+03  0.46564029023E+03  0.00000000000E+00 0. -1.
         -1   -1    0    0    0  501 -0.00000000000E+00 -0.00000000000E+00 -0.34844859878E+02  0.34844859878E+02  0.00000000000E+00 0.  1.
          5    1    1    2  502    0  0.59818299606E+02 -0.47556226276E+02  0.39809942183E+02  0.86267766413E+02  0.41800000000E+01 0. -1.
         -5    1    1    2    0  502 -0.11302410967E+02  0.14293122416E+02  0.13648341171E+03  0.13775787424E+03  0.41800000000E+01 0. -1.
        -11    1    1    2    0    0 -0.30930960767E+02  0.62714158050E+02  0.13370577437E+03  0.15088745492E+03  0.00000000000E+00 0.  1.
         11    1    1    2    0    0 -0.17584927871E+02 -0.29451054191E+02  0.12079630210E+03  0.12557205454E+03  0.00000000000E+00 0. -1.
</event>
<event>
 6    1  0.9216756E-006  0.1959661E+03  0.7561462E-02  0.1153188E+00
          3   -1    0    0  501    0  0.00000000000E+00  0.00000000000E+00  0.67611564193E+02  0.67611564193E+02  0.00000000000E+00 0. -1.
         -3   -1    0    0    0  501 -0.00000000000E+00 -0.00000000000E+00 -0.71243841814E+03  0.71243841814E+03  0.00000000000E+00 0.  1.
          5    1    1    2  502    0 -0.17650171446E+02 -0.18521618936E+03 -0.44992276330E+03  0.48689273016E+03  0.41800000000E+01 0.  1.
         -5    1    1    2    0  502 -0.15438652684E+02  0.16537270562E+02 -0.28426794114E+02  0.36570320452E+02  0.41800000000E+01 0.  1.
        -11    1    1    2    0    0  0.51329361201E+02  0.11024548409E+03 -0.15017523550E+03  0.19323915608E+03  0.00000000000E+00 0.  1.
         11    1    1    2    0    0 -0.18240537071E+02  0.58433434707E+02 -0.16302061031E+02  0.63347775636E+02  0.00000000000E+00 0. -1.
</event>
<event>
 6    1  0.9216756E-006  0.1175334E+03  0.7561462E-02  0.1247222E+00
          1   -1    0    0  501    0  0.00000000000E+00  0.00000000000E+00  0.54545956708E+03  0.54545956708E+03  0.00000000000E+00 0. -1.
         -1   -1    0    0    0  501 -0.00000000000E+00 -0.00000000000E+00 -0.29889678669E+02  0.29889678669E+02  0.00000000000E+00 0.  1.
          5    1    1    2  502    0  0.84895032575E+02  0.37930015655E+00  0.95966950436E+02  0.12819687360E+03  0.41800000000E+01 0. -1.
         -5    1    1    2    0  502 -0.50090252679E+02 -0.15141966061E+02  0.20100450524E+03  0.20774647067E+03  0.41800000000E+01 0.  1.
        -11    1    1    2    0    0 -0.64281048068E+02  0.20645286246E+02  0.14772613143E+03  0.16242318459E+03  0.00000000000E+00 0.  1.
         11    1    1    2    0    0  0.29476268173E+02 -0.58826203419E+01  0.70872301304E+02  0.76982716889E+02  0.00000000000E+00 0. -1.
</event>
<event>
 6    1  0.9216756E-006  0.1584546E+03  0.7561462E-02  0.1190453E+00
         -2   -1    0    0    0  501 -0.00000000000E+00  0.00000000000E+00  0.23185149804E+03  0.23185149804E+03  0.00000000000E+00 0. -1.
          2   -1    0    0  501    0  0.00000000000E+00 -0.00000000000E+00 -0.15474783996E+03  0.15474783996E+03  0.00000000000E+00 0.  1.
          5    1    1    2  502    0 -0.13019710140E+03 -0.25431052283E+02 -0.22751698875E+02  0.13465933252E+03  0.41800000000E+01 0. -1.
         -5    1    1    2    0  502 -0.17716051742E+02 -0.20689337973E+02  0.62631706746E+02  0.68425947454E+02  0.41800000000E+01 0. -1.
        -11    1    1    2    0    0  0.36836502673E+02  0.13265600830E+01 -0.28777608384E+02  0.46763644374E+02  0.00000000000E+00 0.  1.
         11    1    1    2    0    0  0.11107665046E+03  0.44793830174E+02  0.66001258584E+02  0.13675041366E+03  0.00000000000E+00 0. -1.
</event>
<event>
 6    1  0.9216756E-006  0.9975332E+02  0.7561462E-02  0.1280816E+00
          2   -1    0    0  501    0  0.00000000000E+00  0.00000000000E+00  0.21206772378E+03  0.21206772378E+03  0.00000000000E+00 0. -1.
         -2   -1    0    0    0  501 -0.00000000000E+00 -0.00000000000E+00 -0.85481676124E+02  0.85481676124E+02  0.00000000000E+00 0.  1.
          5    1    1    2  502    0  0.31159522824E+02 -0.75336505298E+02 -0.15209922993E+02  0.83038057845E+02  0.41800000000E+01 0.  1.
         -5    1    1    2    0  502  0.25804260278E+02  0.25646074406E+02  0.59169867138E+02  0.69585390407E+02  0.41800000000E+01 0.  1.
        -11    1    1    2    0    0 -0.50527016893E+02  0.26238124199E+02 -0.19057013789E+01  0.56965342932E+02  0.00000000000E+00 0.  1.
         11    1    1    2    0    0 -0.64367662087E+01  0.23452306693E+02  0.84531804887E+02  0.87960608717E+02  0.00000000000E+00 0. -1.
</event>
<event>
 6    1  0.9216756E-006  0.9373055E+02  0.7561462E-02  0.1294061E+00
          1   -1    0    0  501    0  0.00000000000E+00  0.00000000000E+00  0.36568180705E+03  0.36568180705E+03  0.00000000000E+00 0. -1.
         -1   -1    0    0    0  501 -0.00000000000E+00 -0.00000000000E+00 -0.41442436368E+02  0.41442436368E+02  0.00000000000E+00 0.  1.
          5    1    1    2  502    0  0.16561260167E+02 -0.40154322331E+01 -0.15676059821E+02  0.23528924451E+02  0.41800000000E+01 0.  1.
         -5    1    1    2    0  502 -0.66533050779E+02  0.23685277412E+02  0.15960120199E+03  0.17457850752E+03  0.41800000000E+01 0.  1.
        -11    1    1    2    0    0  0.50459782877E+02 -0.48703643272E+02  0.15638383840E+03  0.17138885456E+03  0.00000000000E+00 0.  1.
         11    1    1    2    0    0 -0.48799226397E+00  0.29033798093E+02  0.23930390117E+02  0.37627956885E+02  0.00000000000E+00 0. -1.
</event>
<event>
 6    1  0.9216756E-006  0.1727262E+03  0.7561462E-02  0.1175034E+00
          1   -1    0    0  501    0  0.00000000000E+00  0.00000000000E+00  0.26881860558E+03  0.26881860558E+03  0.00000000000E+00 0. -1.
         -1   -1    0    0    0  501 -0.00000000000E+00 -0.00000000000E+00 -0.18841479032E+03  0.18841479032E+03  0.00000000000E+00 0.  1.
          5    1    1    2  502    0  0.10563692467E+03  0.69855132951E+02  0.93099554474E+01  0.12705529160E+03  0.41800000000E+01 0.  1.
         -5    1    1    2    0  502  0.29246068812E+02  0.19235235633E+02 -0.83072166925E+02  0.90242917442E+02  0.41800000000E+01 0.  1.
        -11    1    1    2    0    0 -0.15030755219E+02  0.17516088082E+02  0.14584105780E+02  0.27302620489E+02  0.00000000000E+00 0.  1.
         11    1    1    2    0    0 -0.11985223826E+03 -0.10660645667E+03  0.13958192096E+03  0.21263256636E+03  0.00000000000E+00 0. -1.
</event>
<event>
 6    1  0.9216756E-006  0.1374233E+03  0.7561462E-02  0.1216839E+00
         -1   -1    0    0    0  501 -0.00000000000E+00  0.00000000000E+00  0.58838697592E+03  0.58838697592E+03  0.00000000000E+00 0.  1.
          1   -1    0    0  501    0  0.00000000000E+00 -0.00000000000E+00 -0.42129877646E+02  0.42129877646E+02  0.00000000000E+00 0. -1.
          5    1    1    2  502    0  0.82256573926E+00 -0.36812521563E+02  0.69136580211E+01  0.37697605036E+02  0.41800000000E+01 0.  1.
         -5    1    1    2    0  502 -0.84048757128E+02 -0.42674343058E+02  0.28365717623E+03  0.29893838689E+03  0.41800000000E+01 0.  1.
        -11    1    1    2    0    0 -0.16959968461E+02  0.26282876333E+01  0.18897654415E+02  0.25527823418E+02  0.00000000000E+00 0.  1.
         11    1    1    2    0    0  0.10018615985E+03  0.76858576988E+02  0.23678860960E+03  0.26835303822E+03  0.00000000000E+00 0. -1.
</event>
<event>
 6    1  0.9216756E-006  0.9562051E+02  0.7561462E-02  0.1289785E+00
          1   -1    0    0  501    0  0.00000000000E+00  0.00000000000E+00  0.81753511645E+03  0.81753511645E+03  0.00000000000E+00 0. -1.
         -1   -1    0    0    0  501 -0.00000000000E+00 -0.00000000000E+00 -0.21172767474E+02  0.21172767474E+02  0.00000000000E+00 0.  1.
          5    1    1    2  502    0 -0.16476502252E+02  0.10657569671E+02  0.33184487665E+03  0.33245082866E+03  0.41800000000E+01 0.  1.
         -5    1    1    2    0  502 -0.29563994916E+02 -0.74611103132E+02  0.13357767306E+03  0.15588878615E+03  0.41800000000E+01 0.  1.
        -11    1    1    2    0    0  0.12253802433E+02  0.54314179271E+02  0.29462030872E+03  0.29983547497E+03  0.00000000000E+00 0. -1.
         11    1    1    2    0    0  0.33786694735E+02  0.96393541902E+01  0.36319490549E+02  0.50532794144E+02  0.00000000000E+00 0.  1.
</event>
<event>
 6    1  0.9216756E-006  0.1068378E+03  0.7561462E-02  0.1266540E+00
          2   -1    0    0  501    0  0.00000000000E+00  0.00000000000E+00  0.18090121352E+03  0.18090121352E+03  0.00000000000E+00 0. -1.
         -2   -1    0    0    0  501 -0.00000000000E+00 -0.00000000000E+00 -0.11081436865E+03  0.11081436865E+03  0.00000000000E+00 0.  1.
          5    1    1    2  502    0 -0.61061477755E+01  0.81025450746E+02 -0.60343781936E+02  0.10129784365E+03  0.41800000000E+01 0. -1.
         -5    1    1    2    0  502  0.14171436919E+02 -0.10940233964E+02  0.39735613782E+02  0.43782527864E+02  0.41800000000E+01 0. -1.
        -11    1    1    2    0    0  0.34662716413E+02 -0.35353433248E+01  0.18011588732E+02  0.39222696111E+02  0.00000000000E+00 0.  1.
         11    1    1    2    0    0 -0.42728005557E+02 -0.66549873457E+02  0.72683424285E+02  0.10741251455E+03  0.00000000000E+00 0. -1.
</event>
<event>
 6    1  0.9216756E-006  0.2154496E+03  0.7561462E-02  0.1137322E+00
          2   -1    0    0  501    0  0.00000000000E+00  0.00000000000E+00  0.85890601707E+03  0.85890601707E+03  0.00000000000E+00 0. -1.
         -2   -1    0    0    0  501 -0.00000000000E+00 -0.00000000000E+00 -0.62053903142E+02  0.62053903142E+02  0.00000000000E+00 0.  1.
          5    1    1    2  502    0 -0.38450856248E+02 -0.82804356369E+02  0.92569968545E+02  0.13008343959E+03  0.41800000000E+01 0.  1.
         -5    1    1    2    0  502  0.84251579567E+02 -0.10354983957E+03  0.22144489336E+03  0.25860435249E+03  0.41800000000E+01 0.  1.
        -11    1    1    2    0    0 -0.43189710887E+02  0.37874328726E+02  0.55532488393E+02  0.79897892150E+02  0.00000000000E+00 0.  1.
         11    1    1    2    0    0 -0.26110124318E+01  0.14847986721E+03  0.42730476364E+03  0.45237423598E+03  0.00000000000E+00 0. -1.
</event>
<event>
 6    1  0.9216756E-006  0.1284295E+03  0.7561462E-02  0.1229805E+00
         -1   -1    0    0    0  501 -0.00000000000E+00  0.00000000000E+00  0.24714927569E+02  0.24714927569E+02  0.00000000000E+00 0.  1.
          1   -1    0    0  501    0  0.00000000000E+00 -0.00000000000E+00 -0.85063512979E+03  0.85063512979E+03  0.00000000000E+00 0. -1.
          5    1    1    2  502    0  0.39174271923E+02  0.55663002915E+02 -0.19486924673E+03  0.20645699115E+03  0.41800000000E+01 0. -1.
         -5    1    1    2    0  502  0.39314273223E+02 -0.57493674204E+02 -0.84834188328E+02  0.10984282663E+03  0.41800000000E+01 0. -1.
        -11    1    1    2    0    0 -0.54567292047E+01  0.37301967058E+02 -0.18896521569E+03  0.19268903804E+03  0.00000000000E+00 0.  1.
         11    1    1    2    0    0 -0.73031815942E+02 -0.35471295769E+02 -0.35725155147E+03  0.36636120154E+03  0.00000000000E+00 0. -1.
</event>
<event>
 6    1  0.9216756E-006  0.8934424E+02  0.7561462E-02  0.1304448E+00
         -1   -1    0    0    0  501 -0.00000000000E+00  0.00000000000E+00  0.52702661818E+03  0.52702661818E+03  0.00000000000E+00 0.  1.
          1   -1    0    0  501    0  0.00000000000E+00 -0.00000000000E+00 -0.38297640271E+02  0.38297640271E+02  0.00000000000E+00 0. -1.
          5    1    1    2  502    0  0.56197443829E+02  0.57454072588E+02  0.13776056511E+03  0.15954488036E+03  0.41800000000E+01 0.  1.
         -5    1    1    2    0  502 -0.33863228986E+02  0.23384754590E+01  0.26065122410E+03  0.26288537382E+03  0.41800000000E+01 0.  1.
        -11    1    1    2    0    0 -0.12178136643E+02 -0.25728925320E+02  0.10166994183E+03  0.10557964616E+03  0.00000000000E+00 0.  1.
         11    1    1    2    0    0 -0.10156078200E+02 -0.34063622726E+02 -0.11352753134E+02  0.37314358113E+02  0.00000000000E+00 0. -1.
</event>
<event>
 6    1  0.9216756E-006  0.1293591E+03  0.7561462E-02  0.1228410E+00
          2   -1    0    0  501    0  0.00000000000E+00  0.00000000000E+00  0.70607035979E+03  0.70607035979E+03  0.00000000000E+00 0. -1.
         -2   -1    0    0    0  501 -0.00000000000E+00 -0.00000000000E+00 -0.31542559274E+02  0.31542559274E+02  0.00000000000E+00 0.  1.
          5    1    1    2  502    0  0.45610370601E+02  0.89606170105E+02  0.11064380594E+03  0.14956301622E+03  0.41800000000E+01 0. -1.
         -5    1    1    2    0  502 -0.40987154412E+02 -0.84425935897E+01  0.10073561252E+03  0.10916208245E+03  0.41800000000E+01 0. -1.
        -11    1    1    2    0    0  0.39117029975E+02 -0.36122322915E+02  0.14187458997E+03  0.15153667386E+03  0.00000000000E+00 0. -1.
         11    1    1    2    0    0 -0.43740246164E+02 -0.45041253601E+02  0.32127379209E+03  0.32735114654E+03  0.00000000000E+00 0.  1.
</event>
<event>
 6    1  0.9216756E-006  0.1581613E+03  0.7561462E-02  0.1190788E+00
         -2   -1    0    0    0  501 -0.00000000000E+00  0.00000000000E+00  0.13804820014E+03  0.13804820014E+03  0.00000000000E+00 0.  1.
          2   -1    0    0  501    0  0.00000000000E+00 -0.00000000000E+00 -0.29234605929E+03  0.29234605929E+03  0.00000000000E+00 0. -1.
          5    1    1    2  502    0 -0.73066755423E+01  0.72504379945E+02 -0.21030030643E+02  0.75960563502E+02  0.41800000000E+01 0. -1.
         -5    1    1    2    0  502  0.75950585264E+02  0.45388243293E+02  0.55022138330E+02  0.10427603818E+03  0.41800000000E+01 0.  1.
        -11    1    1    2    0    0 -0.51586844280E+02 -0.12578967321E+03 -0.12698594340E+03  0.18603675500E+03  0.00000000000E+00 0.  1.
         11    1    1    2    0    0 -0.17057065441E+02  0.78970499766E+01 -0.61304023442E+02  0.64120902754E+02  0.00000000000E+00 0. -1.
</event>
<event>
 6    1  0.9216756E-006  0.1083632E+03  0.7561462E-02  0.1263631E+00
         -4   -1    0    0    0  501 -0.00000000000E+00  0.00000000000E+00  0.30133868139E+03  0.30133868139E+03  0.00000000000E+00 0.  1.
          4   -1    0    0  501    0  0.00000000000E+00 -0.00000000000E+00 -0.70021427274E+02  0.70021427274E+02  0.00000000000E+00 0. -1.
          5    1    1    2  502    0 -0.48038275373E+02  0.36423730453E+02  0.64922457401E+02  0.88694768256E+02  0.41800000000E+01 0. -1.
         -5    1    1    2    0  502 -0.91180211484E+01 -0.80502998558E+02  0.14412823689E+03  0.16539133035E+03  0.41800000000E+01 0. -1.
        -11    1    1    2    0    0  0.51634455581E+02  0.29243781776E+02  0.55002882500E+02  0.80911265340E+02  0.00000000000E+00 0.  1.
         11    1    1    2    0    0  0.55218409406E+01  0.14835486330E+02 -0.32736322668E+02  0.36362744724E+02  0.00000000000E+00 0. -1.
</event>
<event>
 6    1  0.9216756E-006  0.1369445E+03  0.7561462E-02  0.1217501E+00
         -1   -1    0    0    0  501 -0.00000000000E+00  0.00000000000E+00  0.30401064031E+02  0.30401064031E+02  0.00000000000E+00 0.  1.
          1   -1    0    0  501    0  0.00000000000E+00 -0.00000000000E+00 -0.91561243569E+03  0.91561243569E+03  0.00000000000E+00 0. -1.
          5    1    1    2  502    0 -0.11805892105E+03  0.56596707498E+02 -0.20288213328E+03  0.24149477954E+03  0.41800000000E+01 0. -1.
         -5    1    1    2    0  502  0.29309117605E+02  0.75197442374E+01 -0.93061011417E+02  0.97945878801E+02  0.41800000000E+01 0. -1.
        -11    1    1    2    0    0  0.11310997263E+02  0.74958509993E+00 -0.30834528703E+01  0.11747689922E+02  0.00000000000E+00 0.  1.
         11    1    1    2    0    0  0.77438806178E+02 -0.64866036836E+02 -0.58618477409E+03  0.59482515146E+03  0.00000000000E+00 0. -1.
</event>
<event>
 6    1  0.9216756E-006  0.1532645E+03  0.7561462E-02  0.1196518E+00
         -1   -1    0    0    0  501 -0.00000000000E+00  0.00000000000E+00  0.26563764228E+02  0.26563764228E+02  0.00000000000E+00 0.  1.
          1   -1    0    0  501    0  0.00000000000E+00 -0.00000000000E+00 -0.10214326940E+04  0.10214326940E+04  0.00000000000E+00 0. -1.
          5    1    1    2  502    0 -0.47659203289E+02  0.60945111550E+02 -0.25576653945E+03  0.26724464706E+03  0.41800000000E+01 0. -1.
         -5    1    1    2    0  502 -0.67214055534E+02 -0.49265907105E+02 -0.13084777989E+03  0.15518850720E+03  0.41800000000E+01 0. -1.
        -11    1    1    2    0    0  0.98599213074E+02  0.28186288174E+02 -0.40322144329E+03  0.41605745275E+03  0.00000000000E+00 0.  1.
         11    1    1    2    0    0  0.16274045748E+02 -0.39865492619E+02 -0.20503316714E+03  0.20950585122E+03  0.00000000000E+00 0. -1.
</event>
<event>
 6    1  0.9216756E-006  0.8406626E+02  0.7561462E-02  0.1317893E+00
          2   -1    0    0  501    0  0.00000000000E+00  0.00000000000E+00  0.48792555014E+02  0.48792555014E+02  0.00000000000E+00 0. -1.
         -2   -1    0    0    0  501 -0.00000000000E+00 -0.00000000000E+00 -0.35843898184E+03  0.35843898184E+03  0.00000000000E+00 0.  1.
          5    1    1    2  502    0 -0.34740655313E+02 -0.49390626528E+01 -0.21690365507E+03  0.21976345341E+03  0.41800000000E+01 0. -1.
         -5    1    1    2    0  502  0.55335974549E+02 -0.24951672097E+02 -0.56281430579E+02  0.82883821388E+02  0.41800000000E+01 0. -1.
        -11    1    1    2    0    0 -0.43015674185E+02  0.19035898635E+02  0.13345226868E+02  0.48895896992E+02  0.00000000000E+00 0. -1.
         11    1    1    2    0    0  0.22420354949E+02  0.10854836116E+02 -0.49806568041E+02  0.55688365061E+02  0.00000000000E+00 0.  1.
</event>
<event>
 6    1  0.9216756E-006  0.1379669E+03  0.7561462E-02  0.1216091E+00
          2   -1    0    0  501    0  0.00000000000E+00  0.00000000000E+00  0.87519490934E+03  0.87519490934E+03  0.00000000000E+00 0. -1.
         -2   -1    0    0    0  501 -0.00000000000E+00 -0.00000000000E+00 -0.25340681734E+02  0.25340681734E+02  0.00000000000E+00 0.  1.
          5    1    1    2  502    0 -0.37493273025E+02  0.34870217475E+02  0.27176928787E+03  0.27658216830E+03  0.41800000000E+01 0. -1.
         -5    1    1    2    0  502 -0.54397356731E+02 -0.77004331216E+02  0.17120879202E+03  0.19549593937E+03  0.41800000000E+01 0.  1.
        -11    1    1    2    0    0  0.58054392447E+01 -0.22055088673E+02  0.38485660765E+02  0.44735625017E+02  0.00000000000E+00 0.  1.
         11    1    1    2    0    0  0.86085190512E+02  0.64189202414E+02  0.36839048695E+03  0.38372185839E+03  0.00000000000E+00 0. -1.
</event>
<event>
 6    1  0.9216756E-006  0.1086603E+03  0.7561462E-02  0.1263071E+00
         -2   -1    0    0    0  501 -0.00000000000E+00  0.00000000000E+00  0.10547862418E+03  0.10547862418E+03  0.00000000000E+00 0.  1.
          2   -1    0    0  501    0  0.00000000000E+00 -0.00000000000E+00 -0.14620996991E+03  0.14620996991E+03  0.00000000000E+00 0. -1.
          5    1    1    2  502    0 -0.66634213173E+02 -0.24735709441E+02  0.36326736961E+02  0.79931707757E+02  0.41800000000E+01 0. -1.
         -5    1    1    2    0  502  0.51555969001E+02  0.41000565340E+01 -0.31496823832E+01  0.51982894325E+02  0.41800000000E+01 0. -1.
        -11    1    1    2    0    0 -0.19458585966E+02 -0.28295871131E+02 -0.25797759958E+02  0.42951336530E+02  0.00000000000E+00 0. -1.
         11    1    1    2    0    0  0.34536830137E+02  0.48931524038E+02 -0.48110640342E+02  0.76822655478E+02  0.00000000000E+00 0.  1.
</event>
<event>
 6    1  0.9216756E-006  0.9387768E+02  0.7561462E-02  0.1293724E+00
         -2   -1    0    0    0  501 -0.00000000000E+00  0.00000000000E+00  0.66542489885E+02  0.66542489885E+02  0.00000000000E+00 0. -1.
          2   -1    0    0  501    0  0.00000000000E+00 -0.00000000000E+00 -0.21023916280E+03  0.21023916280E+03  0.00000000000E+00 0.  1.
          5    1    1    2  502    0  0.45902731595E+02  0.40371327626E+02  0.23314475857E+02  0.65558691618E+02  0.41800000000E+01 0. -1.
         -5    1    1    2    0  502 -0.18527453398E+02 -0.31202879510E+02 -0.56140022744E+02  0.66978061877E+02  0.41800000000E+01 0. -1.
        -11    1    1    2    0    0 -0.22255070862E+02  0.37175334219E+02 -0.69560787815E+02  0.81951185805E+02  0.00000000000E+00 0.  1.
         11    1    1    2    0    0 -0.51202073345E+01 -0.46343782335E+02 -0.41310338217E+02  0.62293713390E+02  0.00000000000E+00 0. -1.
</event>
<event>
 6    1  0.9216756E-006  0.1859993E+03  0.7561462E-02  0.1162120E+00
         -1   -1    0    0    0  501 -0.00000000000E+00  0.00000000000E+00  0.67508727600E+02  0.67508727600E+02  0.00000000000E+00 0.  1.
          1   -1    0    0  501    0  0.00000000000E+00 -0.00000000000E+00 -0.58244491520E+03  0.58244491520E+03  0.00000000000E+00 0. -1.
          5    1    1    2  502    0 -0.10795254253E+03  0.53587379990E+02 -0.17924289031E+03  0.21603436036E+03  0.41800000000E+01 0. -1.
         -5    1    1    2    0  502 -0.56405246676E+02 -0.64781101537E+02 -0.11288239312E+03  0.14190859750E+03  0.41800000000E+01 0. -1.
        -11    1    1    2    0    0  0.11484244813E+03  0.14641133424E+02 -0.21148500936E+03  0.24109968864E+03  0.00000000000E+00 0. -1.
         11    1    1    2    0    0  0.49515341077E+02 -0.34474118777E+01 -0.11325894822E+02  0.50910996298E+02  0.00000000000E+00 0.  1.
</event>
<event>
 6    1  0.9216756E-006  0.1212153E+03  0.7561462E-02  0.1241106E+00
         -1   -1    0    0    0  501 -0.00000000000E+00  0.00000000000E+00  0.20473685010E+03  0.20473685010E+03  0.00000000000E+00 0.  1.
          1   -1    0    0  501    0  0.00000000000E+00 -0.00000000000E+00 -0.24804434471E+03  0.24804434471E+03  0.00000000000E+00 0. -1.
          5    1    1    2  502    0  0.15387726594E+02 -0.60241086267E+02  0.27806338763E+02  0.68238079396E+02  0.41800000000E+01 0. -1.
         -5    1    1    2    0  502 -0.26939733282E+02  0.81741294586E+02  0.13367281214E+03  0.15903861662E+03  0.41800000000E+01 0.  1.
        -11    1    1    2    0    0 -0.14043939029E+02 -0.52154281846E+02 -0.10646738596E+03  0.11938427707E+03  0.00000000000E+00 0. -1.
         11    1    1    2    0    0  0.25595945717E+02  0.30654073526E+02 -0.98319259551E+02  0.10612022173E+03  0.00000000000E+00 0.  1.
</event>
<event>
 6    1  0.9216756E-006  0.1428385E+03  0.7561462E-02  0.1209560E+00
         -1   -1    0    0    0  501 -0.00000000000E+00  0.00000000000E+00  0.84094477066E+03  0.84094477066E+03  0.00000000000E+00 0.  1.
          1   -1    0    0  501    0  0.00000000000E+00 -0.00000000000E+00 -0.21180341862E+03  0.21180341862E+03  0.00000000000E+00 0. -1.
          5    1    1    2  502    0  0.57593778358E+02  0.49220722931E+01  0.10958994398E+03  0.12397055426E+03  0.41800000000E+01 0. -1.
         -5    1    1    2    0  502  0.50314444932E+02 -0.64842834129E+02  0.69238439195E+03  0.69724440129E+03  0.41800000000E+01 0.  1.
        -11    1    1    2    0    0 -0.10993738363E+03  0.27854034912E+02 -0.16174354588E+03  0.19754252761E+03  0.00000000000E+00 0. -1.
         11    1    1    2    0    0  0.20291603355E+01  0.32066726924E+02 -0.11089438013E+02  0.33990706123E+02  0.00000000000E+00 0.  1.
</event>
<event>
 6    1  0.9216756E-006  0.1062384E+03  0.7561462E-02  0.1267699E+00
         -2   -1    0    0    0  501 -0.00000000000E+00  0.00000000000E+00  0.32525372137E+02  0.32525372137E+02  0.00000000000E+00 0.  1.
          2   -1    0    0  501    0  0.00000000000E+00 -0.00000000000E+00 -0.38565700190E+03  0.38565700190E+03  0.00000000000E+00 0. -1.
          5    1    1    2  502    0  0.64126217763E+02 -0.15039556306E+02 -0.14042883927E+03  0.15516472330E+03  0.41800000000E+01 0. -1.
         -5    1    1    2    0  502 -0.51042358040E+02 -0.64701032076E+01 -0.37583945925E+02  0.63853033923E+02  0.41800000000E+01 0. -1.
        -11    1    1    2    0    0 -0.38883946462E+02 -0.21701758918E+02 -0.80746371026E+02  0.92211192739E+02  0.00000000000E+00 0.  1.
         11    1    1    2    0    0  0.25800086739E+02  0.43211418432E+02 -0.94372473539E+02  0.10695342407E+03  0.00000000000E+00 0. -1.
</event>
<event>
 6    1  0.9216756E-006  0.1289699E+03  0.7561462E-02  0.1228992E+00
         -3   -1    0    0    0  501 -0.00000000000E+00  0.00000000000E+00  0.39687352246E+03  0.39687352246E+03  0.00000000000E+00 0.  1.
          3   -1    0    0  501    0  0.00000000000E+00 -0.00000000000E+00 -0.62120654648E+02  0.62120654648E+02  0.00000000000E+00 0. -1.
          5    1    1    2  502    0  0.69439441790E+02 -0.17177666466E+02  0.20564093753E+03  0.21776725165E+03  0.41800000000E+01 0.  1.
         -5    1    1    2    0  502  0.40754772216E+02  0.31522484077E+02  0.60193696368E+01  0.52041557160E+02  0.41800000000E+01 0.  1.
        -11    1    1    2    0    0 -0.50546776005E+02  0.31327857487E+02  0.22379652029E+02  0.63539436920E+02  0.00000000000E+00 0. -1.
         11    1    1    2    0    0 -0.59647438001E+02 -0.45672675098E+02  0.10071290862E+03  0.12564593138E+03  0.00000000000E+00 0.  1.
</event>
<event>
 6    1  0.9216756E-006  0.1639731E+03  0.7561462E-02  0.1184283E+00
          3   -1    0    0  501    0  0.00000000000E+00  0.00000000000E+00  0.63940490546E+03  0.63940490546E+03  0.00000000000E+00 0. -1.
         -3   -1    0    0    0  501 -0.00000000000E+00 -0.00000000000E+00 -0.47559323242E+02  0.47559323242E+02  0.00000000000E+00 0.  1.
          5    1    1    2  502    0  0.22555072355E+02 -0.21899363729E+02  0.28360836614E+02  0.42545538827E+02  0.41800000000E+01 0. -1.
         -5    1    1    2    0  502 -0.14460519988E+03 -0.92654935496E+01  0.18396838829E+03  0.23421860193E+03  0.41800000000E+01 0. -1.
        -11    1    1    2    0    0 -0.22441239633E+01  0.26805703699E+02  0.36564391691E+02  0.45393133654E+02  0.00000000000E+00 0.  1.
         11    1    1    2    0    0  0.12429425148E+03  0.43591535787E+01  0.34295196562E+03  0.36480695429E+03  0.00000000000E+00 0. -1.
</event>
<event>
 6    1  0.9216756E-006  0.9563547E+02  0.7561462E-02  0.1289751E+00
          1   -1    0    0  501    0  0.00000000000E+00  0.00000000000E+00  0.49011188970E+02  0.49011188970E+02  0.00000000000E+00 0. -1.
         -1   -1    0    0    0  501 -0.00000000000E+00 -0.00000000000E+00 -0.36123330300E+03  0.36123330300E+03  0.00000000000E+00 0.  1.
          5    1    1    2  502    0  0.26923544120E+02  0.24105196107E+02 -0.21336171787E+03  0.21644082970E+03  0.41800000000E+01 0.  1.
         -5    1    1    2    0  502 -0.63676702074E+02 -0.59930666423E+00 -0.61233200754E+02  0.88442404027E+02  0.41800000000E+01 0.  1.
        -11    1    1    2    0    0  0.62233443353E+02 -0.13370213508E+02 -0.66650212268E+01  0.64001457708E+02  0.00000000000E+00 0. -1.
         11    1    1    2    0    0 -0.25480285399E+02 -0.10135675934E+02 -0.30962174176E+02  0.41359800536E+02  0.00000000000E+00 0.  1.
</event>
<event>
 6    1  0.9216756E-006  0.1145726E+03  0.7561462E-02  0.1252329E+00
         -4   -1    0    0    0  501 -0.00000000000E+00  0.00000000000E+00  0.99241921699E+02  0.99241921699E+02  0.00000000000E+00 0.  1.
          4   -1    0    0  501    0  0.00000000000E+00 -0.00000000000E+00 -0.18686013572E+03  0.18686013572E+03  0.00000000000E+00 0. -1.
          5    1    1    2  502    0 -0.81216915884E+02 -0.12133136985E+02 -0.43732642733E+02  0.93131181025E+02  0.41800000000E+01 0.  1.
         -5    1    1    2    0  502  0.24686893342E+02 -0.37148317997E+02  0.29145933024E+02  0.53445280847E+02  0.41800000000E+01 0.  1.
        -11    1    1    2    0    0  0.23596591141E+02 -0.16338861155E+02  0.83773442113E+01  0.29898785817E+02  0.00000000000E+00 0.  1.
         11    1    1    2    0    0  0.32933431400E+02  0.65620316137E+02 -0.81408848523E+02  0.10962680973E+03  0.00000000000E+00 0. -1.
</event>
<event>
 6    1  0.9216756E-006  0.1784960E+03  0.7561462E-02  0.1169267E+00
         -2   -1    0    0    0  501 -0.00000000000E+00  0.00000000000E+00  0.34241521866E+03  0.34241521866E+03  0.00000000000E+00 0.  1.
          2   -1    0    0  501    0  0.00000000000E+00 -0.00000000000E+00 -0.36166793676E+03  0.36166793676E+03  0.00000000000E+00 0. -1.
          5    1    1    2  502    0 -0.45079468255E+02 -0.97079411968E+02  0.84108520317E+02  0.13619209330E+03  0.41800000000E+01 0. -1.
         -5    1    1    2    0  502 -0.39997688628E+02  0.12697191956E+03  0.19896696824E+03  0.23943059600E+03  0.41800000000E+01 0.  1.
        -11    1    1    2    0    0  0.34249499306E+02 -0.51178778629E+02 -0.89676213974E+02  0.10878473669E+03  0.00000000000E+00 0.  1.
         11    1    1    2    0    0  0.50827657577E+02  0.21286271037E+02 -0.21265199268E+03  0.21967572943E+03  0.00000000000E+00 0. -1.
</event>
<event>
 6    1  0.9216756E-006  0.1545349E+03  0.7561462E-02  0.1195009E+00
         -2   -1    0    0    0  501 -0.00000000000E+00  0.00000000000E+00  0.15089294602E+03  0.15089294602E+03  0.00000000000E+00 0.  1.
          2   -1    0    0  501    0  0.00000000000E+00 -0.00000000000E+00 -0.16311457630E+03  0.16311457630E+03  0.00000000000E+00 0. -1.
          5    1    1    2  502    0 -0.58409407369E+02 -0.14827502809E+01  0.17732858487E+02  0.61202811109E+02  0.41800000000E+01 0. -1.
         -5    1    1    2    0  502  0.23413932917E+02 -0.10340657935E+03 -0.50624667063E+01  0.10622727464E+03  0.41800000000E+01 0. -1.
        -11    1    1    2    0    0  0.28893193483E+02 -0.90544087548E+01 -0.69840730203E+01  0.31073722395E+02  0.00000000000E+00 0. -1.
         11    1    1    2    0    0  0.61022809685E+01  0.11394373839E+03 -0.17907949037E+02  0.11550371418E+03  0.00000000000E+00 0.  1.
</event>
<event>
 6    1  0.9216756E-006  0.1022202E+03  0.7561462E-02  0.1275695E+00
          3   -1    0    0  501    0  0.00000000000E+00  0.00000000000E+00  0.18353864583E+02  0.18353864583E+02  0.00000000000E+00 0. -1.
         -3   -1    0    0    0  501 -0.00000000000E+00 -0.00000000000E+00 -0.67011896682E+03  0.67011896682E+03  0.00000000000E+00 0.  1.
          5    1    1    2  502    0 -0.44030246151E+02  0.29906055588E+02 -0.27676903556E+03  0.28187161294E+03  0.41800000000E+01 0. -1.
         -5    1    1    2    0  502  0.28487885073E+02 -0.51744697516E+02 -0.10232982225E+03  0.11822833094E+03  0.41800000000E+01 0. -1.
        -11    1    1    2    0    0 -0.36779969687E+02  0.69053572861E+01 -0.14158485843E+03  0.14644699473E+03  0.00000000000E+00 0.  1.
         11    1    1    2    0    0  0.52322330765E+02  0.14933284641E+02 -0.13108138600E+03  0.14192589278E+03  0.00000000000E+00 0. -1.
</event>
<event>
 6    1  0.9216756E-006  0.1020014E+03  0.7561462E-02  0.1276143E+00
         -1   -1    0    0    0  501 -0.00000000000E+00  0.00000000000E+00  0.18515062664E+02  0.18515062664E+02  0.00000000000E+00 0.  1.
          1   -1    0    0  501    0  0.00000000000E+00 -0.00000000000E+00 -0.79703411462E+03  0.79703411462E+03  0.00000000000E+00 0. -1.
          5    1    1    2  502    0  0.25087141352E+02 -0.25750106572E+02 -0.22754041815E+03  0.23040083971E+03  0.41800000000E+01 0. -1.
         -5    1    1    2    0  502 -0.68039299557E+02  0.18435573087E+02 -0.95747890240E+02  0.11897204514E+03  0.41800000000E+01 0. -1.
        -11    1    1    2    0    0  0.48166012883E+02 -0.31810764471E+02 -0.32533127974E+03  0.33041236525E+03  0.00000000000E+00 0. -1.
         11    1    1    2    0    0 -0.52138546776E+01  0.39125297956E+02 -0.12989946382E+03  0.13576392718E+03  0.00000000000E+00 0.  1.
</event>
<event>
 6    1  0.9216756E-006  0.1035603E+03  0.7561462E-02  0.1272982E+00
         -2   -1    0    0    0  501 -0.00000000000E+00  0.00000000000E+00  0.45440726467E+03  0.45440726467E+03  0.00000000000E+00 0.  1.
          2   -1    0    0  501    0  0.00000000000E+00 -0.00000000000E+00 -0.46734738690E+02  0.46734738690E+02  0.00000000000E+00 0. -1.
          5    1    1    2  502    0  0.62794971169E+01  0.26526463893E+02  0.22082034654E+03  0.22253580210E+03  0.41800000000E+01 0.  1.
         -5    1    1    2    0  502 -0.24415228959E+02 -0.80492629168E+02  0.13757087842E+03  0.16130215667E+03  0.41800000000E+01 0.  1.
        -11    1    1    2    0    0 -0.21871879610E+02  0.50660871084E+02  0.19139963486E+01  0.55213823982E+02  0.00000000000E+00 0. -1.
         11    1    1    2    0    0  0.40007611453E+02  0.33052941902E+01  0.47367304672E+02  0.62090220613E+02  0.00000000000E+00 0.  1.
</event>
<event>
 6    1  0.9216756E-006  0.6223668E+02  0.7561462E-02  0.1388678E+00
         -1   -1    0    0    0  501 -0.00000000000E+00  0.00000000000E+00  0.47691629704E+02  0.47691629704E+02  0.00000000000E+00 0.  1.
          1   -1    0    0  501    0  0.00000000000E+00 -0.00000000000E+00 -0.23814046522E+03  0.23814046522E+03  0.00000000000E+00 0. -1.
          5    1    1    2  502    0 -0.10208663217E+02  0.42442409864E+02 -0.11348110653E+03  0.12165939708E+03  0.41800000000E+01 0. -1.
         -5    1    1    2    0  502 -0.46149020346E+01 -0.19091898035E+02  0.24806117090E+02  0.31915728669E+02  0.41800000000E+01 0.  1.
        -11    1    1    2    0    0 -0.20515230820E+02 -0.87224802966E+01 -0.89280427594E+02  0.92021470915E+02  0.00000000000E+00 0. -1.
         11    1    1    2    0    0  0.35338796071E+02 -0.14628031532E+02 -0.12493418477E+02  0.40235498251E+02  0.00000000000E+00 0.  1.
</event>
<event>
 6    1  0.9216756E-006  0.1107061E+03  0.7561462E-02  0.1259268E+00
         -4   -1    0    0    0  501 -0.00000000000E+00  0.00000000000E+00  0.77058289706E+02  0.77058289706E+02  0.00000000000E+00 0.  1.
          4   -1    0    0  501    0  0.00000000000E+00 -0.00000000000E+00 -0.24025382419E+03  0.24025382419E+03  0.00000000000E+00 0. -1.
          5    1    1    2  502    0  0.12705820308E+02 -0.10270531160E+03 -0.84788107465E+02  0.13385183775E+03  0.41800000000E+01 0. -1.
         -5    1    1    2    0  502  0.93701426218E+01  0.25480001442E+02  0.13963832745E+02  0.30813812993E+02  0.41800000000E+01 0. -1.
        -11    1    1    2    0    0 -0.21612621875E+02  0.11195823680E+02  0.13528391447E+02  0.27847248828E+02  0.00000000000E+00 0.  1.
         11    1    1    2    0    0 -0.46334105509E+00  0.66029486482E+02 -0.10589965121E+03  0.12479921433E+03  0.00000000000E+00 0. -1.
</event>
<event>
 6    1  0.9216756E-006  0.1132178E+03  0.7561462E-02  0.1254724E+00
          2   -1    0    0  501    0  0.00000000000E+00  0.00000000000E+00  0.81372748258E+03  0.81372748258E+03  0.00000000000E+00 0.  1.
         -2   -1    0    0    0  501 -0.00000000000E+00 -0.00000000000E+00 -0.17165362282E+02  0.17165362282E+02  0.00000000000E+00 0. -1.
          5    1    1    2  502    0 -0.20236721249E+02 -0.50104745911E+02  0.10845881366E+03  0.12124684372E+03  0.41800000000E+01 0. -1.
         -5    1    1    2    0  502  0.73358779125E+02  0.28439981794E+02  0.27974922966E+03  0.29063283871E+03  0.41800000000E+01 0. -1.
        -11    1    1    2    0    0  0.65437783799E+01  0.32200266899E+02  0.16401528811E+03  0.16727430453E+03  0.00000000000E+00 0. -1.
         11    1    1    2    0    0 -0.59665836256E+02 -0.10535502782E+02  0.24433878886E+03  0.25173885790E+03  0.00000000000E+00 0.  1.
</event>
<event>
 6    1  0.9216756E-006  0.1790407E+03  0.7561462E-02  0.1168735E+00
         -2   -1    0    0    0  501 -0.00000000000E+00  0.00000000000E+00  0.46876979350E+03  0.46876979350E+03  0.00000000000E+00 0.  1.
          2   -1    0    0  501    0  0.00000000000E+00 -0.00000000000E+00 -0.79566709087E+02  0.79566709087E+02  0.00000000000E+00 0. -1.
          5    1    1    2  502    0  0.10374900034E+03  0.14100691480E+03  0.21037912550E+03  0.27372185506E+03  0.41800000000E+01 0. -1.
         -5    1    1    2    0  502 -0.24131827113E+02 -0.47514183491E+01  0.45529350076E+02  0.51916424901E+02  0.41800000000E+01 0. -1.
        -11    1    1    2    0    0 -0.51648389976E+02 -0.80503008083E+02  0.26882583057E+02  0.99352724015E+02  0.00000000000E+00 0. -1.
         11    1    1    2    0    0 -0.27968783251E+02 -0.55752488369E+02  0.10641202578E+03  0.12334549860E+03  0.00000000000E+00 0.  1.
</event>
<event>
 6    1  0.9216756E-006  0.1181393E+03  0.7561462E-02  0.1246198E+00
         -2   -1    0    0    0  501 -0.00000000000E+00  0.00000000000E+00  0.13328211955E+02  0.13328211955E+02  0.00000000000E+00 0.  1.
          2   -1    0    0  501    0  0.00000000000E+00 -0.00000000000E+00 -0.13854440878E+04  0.13854440878E+04  0.00000000000E+00 0. -1.
          5    1    1    2  502    0 -0.18178395531E+02  0.15719768415E+02 -0.37275162417E+02  0.44547450166E+02  0.41800000000E+01 0.  1.
         -5    1    1    2    0  502  0.96463186535E+02 -0.12397276400E+02 -0.76785410869E+03  0.77400015727E+03  0.41800000000E+01 0.  1.
        -11    1    1    2    0    0 -0.72964164231E+02 -0.36048371641E+02 -0.48511876424E+03  0.49189782453E+03  0.00000000000E+00 0. -1.
         11    1    1    2    0    0 -0.53206267728E+01  0.32725879625E+02 -0.81867840544E+02  0.88326867837E+02  0.00000000000E+00 0.  1.
</event>
<event>
 6    1  0.9216756E-006  0.1365912E+03  0.7561462E-02  0.1217991E+00
         -2   -1    0    0    0  501 -0.00000000000E+00  0.00000000000E+00  0.11829224293E+03  0.11829224293E+03  0.00000000000E+00 0. -1.
          2   -1    0    0  501    0  0.00000000000E+00 -0.00000000000E+00 -0.24135000130E+03  0.24135000130E+03  0.00000000000E+00 0.  1.
          5    1    1    2  502    0  0.11073399913E+03  0.55201342505E+01 -0.97628375412E+02  0.14778789710E+03  0.41800000000E+01 0.  1.
         -5    1    1    2    0  502  0.18259467987E+02  0.90555737720E+01  0.37376092696E+02  0.42776819572E+02  0.41800000000E+01 0.  1.
        -11    1    1    2    0    0 -0.24312367881E+01  0.11881881405E+02 -0.34702228212E+02  0.36760504090E+02  0.00000000000E+00 0. -1.
         11    1    1    2    0    0 -0.12656223032E+03 -0.26457589427E+02 -0.28103247435E+02  0.13231702347E+03  0.00000000000E+00 0.  1.
</event>
<event>
 6    1  0.9216756E-006  0.1006048E+03  0.7561462E-02  0.1279029E+00
          1   -1    0    0  501    0  0.00000000000E+00  0.00000000000E+00  0.21276160840E+02  0.21276160840E+02  0.00000000000E+00 0. -1.
         -1   -1    0    0    0  501 -0.00000000000E+00 -0.00000000000E+00 -0.63304255430E+03  0.63304255430E+03  0.00000000000E+00 0.  1.
          5    1    1    2  502    0 -0.27767002661E+02 -0.64045783781E+02 -0.34761250806E+03  0.35457692680E+03  0.41800000000E+01 0.  1.
         -5    1    1    2    0  502  0.21277478909E+02  0.23497640885E+02 -0.24928856281E+02  0.40543686455E+02  0.41800000000E+01 0.  1.
        -11    1    1    2    0    0  0.37335805609E+02  0.54001886955E+02 -0.14588583961E+03  0.15997763710E+03  0.00000000000E+00 0. -1.
         11    1    1    2    0    0 -0.30846281858E+02 -0.13453744059E+02 -0.93339189508E+02  0.99220464782E+02  0.00000000000E+00 0.  1.
</event>
<event>
 6    1  0.9216756E-006  0.1673960E+03  0.7561462E-02  0.1180591E+00
          3   -1    0    0  501    0  0.00000000000E+00  0.00000000000E+00  0.41435849846E+02  0.41435849846E+02  0.00000000000E+00 0. -1.
         -3   -1    0    0    0  501 -0.00000000000E+00 -0.00000000000E+00 -0.89210800783E+03  0.89210800783E+03  0.00000000000E+00 0.  1.
          5    1    1    2  502    0  0.90385198299E+02 -0.42646742612E+02 -0.17282163136E+03  0.19968229113E+03  0.41800000000E+01 0.  1.
         -5    1    1    2    0  502  0.61077479758E+02  0.37774040693E+02 -0.38685961846E+03  0.39349100813E+03  0.41800000000E+01 0.  1.
        -11    1    1    2    0    0 -0.87763736464E+02 -0.26697170020E+02 -0.22655138954E+03  0.24441919816E+03  0.00000000000E+00 0.  1.
         11    1    1    2    0    0 -0.63698941593E+02  0.31569871939E+02 -0.64439518629E+02  0.95951360259E+02  0.00000000000E+00 0. -1.
</event>
<event>
 6    1  0.9216756E-006  0.1253079E+03  0.7561462E-02  0.1234589E+00
          2   -1    0    0  501    0  0.00000000000E+00  0.00000000000E+00  0.54441458884E+03  0.54441458884E+03  0.00000000000E+00 0. -1.
         -2   -1    0    0    0  501 -0.00000000000E+00 -0.00000000000E+00 -0.33113208153E+02  0.33113208153E+02  0.00000000000E+00 0.  1.
          5    1    1    2  502    0 -0.96803597614E+02 -0.30241781631E+02  0.19369323308E+03  0.21867794313E+03  0.41800000000E+01 0.  1.
         -5    1    1    2    0  502  0.34212055623E+02 -0.76177796639E+01  0.23481122084E+02  0.42394938510E+02  0.41800000000E+01 0.  1.
        -11    1    1    2    0    0 -0.48863878095E+01  0.45629221863E+02  0.85323976117E+02  0.96881802079E+02  0.00000000000E+00 0.  1.
         11    1    1    2    0    0  0.67477929800E+02 -0.77696605679E+01  0.20880304940E+03  0.21957311327E+03  0.00000000000E+00 0. -1.
</event>
<event>
 6    1  0.9216756E-006  0.1095220E+03  0.7561462E-02  0.1261458E+00
         -1   -1    0    0    0  501 -0.00000000000E+00  0.00000000000E+00  0.61943669623E+02  0.61943669623E+02  0.00000000000E+00 0.  1.
          1   -1    0    0  501    0  0.00000000000E+00 -0.00000000000E+00 -0.24613337368E+03  0.24613337368E+03  0.00000000000E+00 0. -1.
          5    1    1    2  502    0 -0.13719034901E+02  0.61409170743E+02 -0.83739964143E+02  0.10482915704E+03  0.41800000000E+01 0. -1.
         -5    1    1    2    0  502  0.60577606749E+02 -0.27607606537E+02 -0.27037840066E+02  0.71974603671E+02  0.41800000000E+01 0. -1.
        -11    1    1    2    0    0  0.64618123520E+01 -0.35350648145E+02  0.51598854061E+01  0.36304927497E+02  0.00000000000E+00 0. -1.
         11    1    1    2    0    0 -0.53320384201E+02  0.15490839390E+01 -0.78571785257E+02  0.94968355103E+02  0.00000000000E+00 0.  1.
</event>
<event>
 6    1  0.9216756E-006  0.2549770E+03  0.7561462E-02  0.1110199E+00
         -2   -1    0    0    0  501 -0.00000000000E+00  0.00000000000E+00  0.63653756449E+02  0.63653756449E+02  0.00000000000E+00 0.  1.
          2   -1    0    0  501    0  0.00000000000E+00 -0.00000000000E+00 -0.15819242380E+04  0.15819242380E+04  0.00000000000E+00 0. -1.
          5    1    1    2  502    0 -0.19451719842E+02  0.13502696024E+01  0.62919798674E+01  0.20910620351E+02  0.41800000000E+01 0. -1.
         -5    1    1    2    0  502 -0.16268484545E+03 -0.16531970814E+03 -0.34011862343E+03  0.41169784459E+03  0.41800000000E+01 0. -1.
        -11    1    1    2    0    0  0.15099609802E+03  0.85299011522E+02 -0.88339731709E+03  0.90025916425E+03  0.00000000000E+00 0.  1.
         11    1    1    2    0    0  0.31140467275E+02  0.78670427018E+02 -0.30104652086E+03  0.31271036521E+03  0.00000000000E+00 0. -1.
</event>
<event>
 6    1  0.9216756E-006  0.1245005E+03  0.7561462E-02  0.1235852E+00
          2   -1    0    0  501    0  0.00000000000E+00  0.00000000000E+00  0.85066574154E+02  0.85066574154E+02  0.00000000000E+00 0. -1.
         -2   -1    0    0    0  501 -0.00000000000E+00 -0.00000000000E+00 -0.28165459297E+03  0.28165459297E+03  0.00000000000E+00 0.  1.
          5    1    1    2  502    0 -0.18147420706E+01  0.19720126022E+02 -0.71717365778E+02  0.74518652787E+02  0.41800000000E+01 0.  1.
         -5    1    1    2    0  502  0.40174858455E+02 -0.11697202514E+03 -0.74330049931E+02  0.14435685865E+03  0.41800000000E+01 0.  1.
        -11    1    1    2    0    0 -0.13671363679E+02  0.22927242215E+02 -0.63112126088E+02  0.68525214919E+02  0.00000000000E+00 0.  1.
         11    1    1    2    0    0 -0.24688752705E+02  0.74324656903E+02  0.12571522977E+02  0.79320440770E+02  0.00000000000E+00 0. -1.
</event>
<event>
 6    1  0.9216756E-006  0.2725385E+03  0.7561462E-02  0.1099835E+00
          1   -1    0    0  501    0  0.00000000000E+00  0.00000000000E+00  0.41814860335E+03  0.41814860335E+03  0.00000000000E+00 0. -1.
         -1   -1    0    0    0  501 -0.00000000000E+00 -0.00000000000E+00 -0.23079963004E+03  0.23079963004E+03  0.00000000000E+00 0.  1.
          5    1    1    2  502    0  0.28746778359E+02 -0.20322183539E+02 -0.27016551259E+02  0.44572803948E+02  0.41800000000E+01 0. -1.
         -5    1    1    2    0  502 -0.79650726332E+02 -0.22828232196E+03 -0.25210647020E+02  0.24312569969E+03  0.41800000000E+01 0. -1.
        -11    1    1    2    0    0 -0.23844264869E+02  0.77645428545E+02  0.50677422604E+02  0.95736945339E+02  0.00000000000E+00 0. -1.
         11    1    1    2    0    0  0.74748212843E+02  0.17095907696E+03  0.18889874898E+03  0.26551278441E+03  0.00000000000E+00 0.  1.
</event>
<event>
 6    1  0.9216756E-006  0.1588414E+03  0.7561462E-02  0.1190011E+00
         -2   -1    0    0    0  501 -0.00000000000E+00  0.00000000000E+00  0.12178150896E+03  0.12178150896E+03  0.00000000000E+00 0.  1.
          2   -1    0    0  501    0  0.00000000000E+00 -0.00000000000E+00 -0.28913681473E+03  0.28913681473E+03  0.00000000000E+00 0. -1.
          5    1    1    2  502    0 -0.16233505332E+02 -0.35478839589E+02 -0.57841784126E+02  0.69895773440E+02  0.41800000000E+01 0. -1.
         -5    1    1    2    0  502 -0.12989404909E+03  0.13300611887E+02  0.54078893243E+01  0.13075200929E+03  0.41800000000E+01 0. -1.
        -11    1    1    2    0    0  0.12221003003E+03  0.18257617535E+02 -0.37480611274E+02  0.12912562975E+03  0.00000000000E+00 0.  1.
         11    1    1    2    0    0  0.23917524401E+02  0.39206101666E+01 -0.77440799692E+02  0.81144911205E+02  0.00000000000E+00 0. -1.
</event>
<event>
 6    1  0.9216756E-006  0.1096876E+03  0.7561462E-02  0.1261149E+00
         -1   -1    0    0    0  501 -0.00000000000E+00  0.00000000000E+00  0.57592891374E+02  0.57592891374E+02  0.00000000000E+00 0.  1.
          1   -1    0    0  501    0  0.00000000000E+00 -0.00000000000E+00 -0.22932040589E+03  0.22932040589E+03  0.00000000000E+00 0. -1.
          5    1    1    2  502    0 -0.56823345348E+02 -0.18641315465E+02 -0.70302329662E+02  0.92391997352E+02  0.41800000000E+01 0.  1.
         -5    1    1    2    0  502  0.59705669618E+02 -0.20564408945E+02 -0.18488155421E+02  0.65931374858E+02  0.41800000000E+01 0.  1.
        -11    1    1    2    0    0 -0.14927370772E+02  0.65520732668E+02 -0.69523654067E+02  0.96691940111E+02  0.00000000000E+00 0. -1.
         11    1    1    2    0    0  0.12045046502E+02 -0.26315008257E+02 -0.13413375366E+02  0.31897984944E+02  0.00000000000E+00 0.  1.
</event>
<event>
 6    1  0.9216756E-006  0.9346719E+02  0.7561462E-02  0.1294666E+00
         -1   -1    0    0    0  501 -0.00000000000E+00  0.00000000000E+00  0.17942770005E+03  0.17942770005E+03  0.00000000000E+00 0.  1.
          1   -1    0    0  501    0  0.00000000000E+00 -0.00000000000E+00 -0.88908894969E+02  0.88908894969E+02  0.00000000000E+00 0. -1.
          5    1    1    2  502    0  0.19004604291E+02  0.55095075214E+02 -0.99743952958E+00  0.58438938925E+02  0.41800000000E+01 0.  1.
         -5    1    1    2    0  502  0.24403610111E+02 -0.45027848345E+02  0.83031021170E+02  0.97645615311E+02  0.41800000000E+01 0.  1.
        -11    1    1    2    0    0  0.14085086189E+02  0.87999391053E+01 -0.34323380494E+02  0.38130342638E+02  0.00000000000E+00 0. -1.
         11    1    1    2    0    0 -0.57493300591E+02 -0.18867165975E+02  0.42808603930E+02  0.74121698141E+02  0.00000000000E+00 0.  1.
</event>
<event>
 6    1  0.9216756E-006  0.1100362E+03  0.7561462E-02  0.1260503E+00
          2   -1    0    0  501    0  0.00000000000E+00  0.00000000000E+00  0.51141242882E+03  0.51141242882E+03  0.00000000000E+00 0. -1.
         -2   -1    0    0    0  501 -0.00000000000E+00 -0.00000000000E+00 -0.25792788632E+02  0.25792788632E+02  0.00000000000E+00 0.  1.
          5    1    1    2  502    0  0.37220098004E+02 -0.24994183947E+02  0.13828033727E+03  0.14542685104E+03  0.41800000000E+01 0. -1.
         -5    1    1    2    0  502 -0.48826468799E+02  0.61000213661E+02  0.10783599729E+03  0.13323334731E+03  0.41800000000E+01 0. -1.
        -11    1    1    2    0    0 -0.16443414457E+00 -0.65262279622E+02  0.17426389926E+03  0.18608358006E+03  0.00000000000E+00 0. -1.
         11    1    1    2    0    0  0.11770804939E+02  0.29256249907E+02  0.65239406351E+02  0.72461439046E+02  0.00000000000E+00 0.  1.
</event>
<event>
 6    1  0.9216756E-006  0.1280512E+03  0.7561462E-02  0.1230376E+00
          2   -1    0    0  501    0  0.00000000000E+00  0.00000000000E+00  0.10657951122E+03  0.10657951122E+03  0.00000000000E+00 0. -1.
         -2   -1    0    0    0  501 -0.00000000000E+00 -0.00000000000E+00 -0.18473585057E+03  0.18473585057E+03  0.00000000000E+00 0.  1.
          5    1    1    2  502    0 -0.68002417250E+02 -0.68395124386E+01 -0.72967237097E+02  0.10006396840E+03  0.41800000000E+01 0. -1.
         -5    1    1    2    0  502  0.11444419204E+02 -0.60194131186E+02  0.15198144466E+02  0.63267401997E+02  0.41800000000E+01 0. -1.
        -11    1    1    2    0    0  0.50959118423E+02 -0.74673370402E+01 -0.54123044295E+01  0.51786928005E+02  0.00000000000E+00 0. -1.
         11    1    1    2    0    0  0.55988796231E+01  0.74500980665E+02 -0.14974942289E+02  0.76197063393E+02  0.00000000000E+00 0.  1.
</event>
<event>
 6    1  0.9216756E-006  0.1584847E+03  0.7561462E-02  0.1190418E+00
          2   -1    0    0  501    0  0.00000000000E+00  0.00000000000E+00  0.27631163314E+03  0.27631163314E+03  0.00000000000E+00 0.  1.
         -2   -1    0    0    0  501 -0.00000000000E+00 -0.00000000000E+00 -0.10751314480E+03  0.10751314480E+03  0.00000000000E+00 0. -1.
          5    1    1    2  502    0  0.51641460189E+02 -0.11772239482E+03  0.29702188201E+02  0.13200414780E+03  0.41800000000E+01 0. -1.
         -5    1    1    2    0  502  0.24265282674E+02  0.94155559707E+01  0.71660352740E+02  0.76355321965E+02  0.41800000000E+01 0. -1.
        -11    1    1    2    0    0  0.88913107785E+01  0.67140129048E+02  0.28014524794E+02  0.73291649834E+02  0.00000000000E+00 0.  1.
         11    1    1    2    0    0 -0.84798053641E+02  0.41166709805E+02  0.39421422599E+02  0.10217365833E+03  0.00000000000E+00 0. -1.
</event>
<event>
 6    1  0.9216756E-006  0.1313821E+03  0.7561462E-02  0.1225419E+00
          2   -1    0    0  501    0  0.00000000000E+00  0.00000000000E+00  0.49793859448E+03  0.49793859448E+03  0.00000000000E+00 0. -1.
         -2   -1    0    0    0  501 -0.00000000000E+00 -0.00000000000E+00 -0.37612208275E+02  0.37612208275E+02  0.00000000000E+00 0.  1.
          5    1    1    2  502    0 -0.66255914489E+02  0.47304362841E+02  0.95174665656E+02  0.12531256254E+03  0.41800000000E+01 0.  1.
         -5    1    1    2    0  502 -0.94738983722E+01 -0.63852197419E+02  0.10062479746E+03  0.11962307524E+03  0.41800000000E+01 0.  1.
        -11    1    1    2    0    0  0.83835621970E+02  0.39166658777E+02  0.17546860584E+03  0.19837255432E+03  0.00000000000E+00 0.  1.
         11    1    1    2    0    0 -0.81058091089E+01 -0.22618824199E+02  0.89058317242E+02  0.92242610650E+02  0.00000000000E+00 0. -1.
</event>
<event>
 6    1  0.9216756E-006  0.1442484E+03  0.7561462E-02  0.1207724E+00
         -4   -1    0    0    0  501 -0.00000000000E+00  0.00000000000E+00  0.11349032364E+03  0.11349032364E+03  0.00000000000E+00 0.  1.
          4   -1    0    0  501    0  0.00000000000E+00 -0.00000000000E+00 -0.20647432299E+03  0.20647432299E+03  0.00000000000E+00 0. -1.
          5    1    1    2  502    0  0.52325520401E+02  0.28574234646E+02 -0.35269103582E+01  0.59869512003E+02  0.41800000000E+01 0.  1.
         -5    1    1    2    0  502  0.17075857370E+02 -0.97225658327E+02  0.15491338751E+01  0.98814400559E+02  0.41800000000E+01 0.  1.
        -11    1    1    2    0    0  0.11578517457E+02 -0.11266008018E+02 -0.95792867550E+00  0.16183406023E+02  0.00000000000E+00 0.  1.
         11    1    1    2    0    0 -0.80979895228E+02  0.79917431699E+02 -0.90048294189E+02  0.14509732805E+03  0.00000000000E+00 0. -1.
</event>
<event>
 6    1  0.9216756E-006  0.1800418E+03  0.7561462E-02  0.1167763E+00
         -1   -1    0    0    0  501 -0.00000000000E+00  0.00000000000E+00  0.11387518395E+03  0.11387518395E+03  0.00000000000E+00 0.  1.
          1   -1    0    0  501    0  0.00000000000E+00 -0.00000000000E+00 -0.37200777993E+03  0.37200777993E+03  0.00000000000E+00 0. -1.
          5    1    1    2  502    0  0.10533511842E+03  0.40390385686E+02 -0.12404946599E+02  0.11357035497E+03  0.41800000000E+01 0.  1.
         -5    1    1    2    0  502  0.37157765715E+02 -0.69528736731E+02 -0.84271224590E+01  0.79394165889E+02  0.41800000000E+01 0.  1.
        -11    1    1    2    0    0 -0.93226898687E+02  0.59293181169E+02 -0.18225310789E+03  0.21312703092E+03  0.00000000000E+00 0.  1.
         11    1    1    2    0    0 -0.49265985449E+02 -0.30154830125E+02 -0.55047419029E+02  0.79791412093E+02  0.00000000000E+00 0. -1.
</event>
<event>
 6    1  0.9216756E-006  0.1016090E+03  0.7561462E-02  0.1276948E+00
         -1   -1    0    0    0  501 -0.00000000000E+00  0.00000000000E+00  0.63895989507E+02  0.63895989507E+02  0.00000000000E+00 0.  1.
          1   -1    0    0  501    0  0.00000000000E+00 -0.00000000000E+00 -0.34339404922E+03  0.34339404922E+03  0.00000000000E+00 0. -1.
          5    1    1    2  502    0  0.53688749212E+02  0.50090168343E+01 -0.40598693397E+02  0.67626166142E+02  0.41800000000E+01 0. -1.
         -5    1    1    2    0  502 -0.53293978102E+02  0.32857262747E+02  0.17388625761E+02  0.65112859890E+02  0.41800000000E+01 0. -1.
        -11    1    1    2    0    0 -0.32834579641E+02  0.43762777477E+01 -0.16962864379E+03  0.17283268852E+03  0.00000000000E+00 0. -1.
         11    1    1    2    0    0  0.32439808531E+02 -0.42242557329E+02 -0.86659348288E+02  0.10171832417E+03  0.00000000000E+00 0.  1.
</event>
<event>
 6    1  0.9216756E-006  0.3223098E+03  0.7561462E-02  0.1074591E+00
          2   -1    0    0  501    0  0.00000000000E+00  0.00000000000E+00  0.18049286871E+04  0.18049286871E+04  0.00000000000E+00 0. -1.
         -2   -1    0    0    0  501 -0.00000000000E+00 -0.00000000000E+00 -0.60956716766E+02  0.60956716766E+02  0.00000000000E+00 0.  1.
          5    1    1    2  502    0  0.16371497109E+02 -0.28082409508E+03  0.89119295301E+03  0.93454403330E+03  0.41800000000E+01 0. -1.
         -5    1    1    2    0  502 -0.45814901016E+02  0.26459797476E+03  0.54478322743E+03  0.60738565236E+03  0.41800000000E+01 0.  1.
        -11    1    1    2    0    0  0.54404055812E+02  0.33930770944E+02  0.15172328476E+03  0.16471506805E+03  0.00000000000E+00 0.  1.
         11    1    1    2    0    0 -0.24960651905E+02 -0.17704650631E+02  0.15627250510E+03  0.15924065011E+03  0.00000000000E+00 0. -1.
</event>
<event>
 6    1  0.9216756E-006  0.1077067E+03  0.7561462E-02  0.1264877E+00
         -2   -1    0    0    0  501 -0.00000000000E+00  0.00000000000E+00  0.63775709863E+02  0.63775709863E+02  0.00000000000E+00 0.  1.
          2   -1    0    0  501    0  0.00000000000E+00 -0.00000000000E+00 -0.40290918565E+03  0.40290918565E+03  0.00000000000E+00 0. -1.
          5    1    1    2  502    0 -0.58779332399E+01 -0.16840785218E+02 -0.60049747389E+02  0.62782216490E+02  0.41800000000E+01 0. -1.
         -5    1    1    2    0  502  0.71896008569E+02  0.75644836813E+02 -0.77766701586E+01  0.10473359720E+03  0.41800000000E+01 0. -1.
        -11    1    1    2    0    0 -0.47421828052E+02 -0.23910100743E+02 -0.45523098761E+02  0.69949090160E+02  0.00000000000E+00 0.  1.
         11    1    1    2    0    0 -0.18596247277E+02 -0.34893950851E+02 -0.22578395948E+03  0.22921999166E+03  0.00000000000E+00 0. -1.
</event>
<event>
 6    1  0.9216756E-006  0.1160202E+03  0.7561462E-02  0.1249811E+00
         -1   -1    0    0    0  501 -0.00000000000E+00  0.00000000000E+00  0.53401966589E+02  0.53401966589E+02  0.00000000000E+00 0.  1.
          1   -1    0    0  501    0  0.00000000000E+00 -0.00000000000E+00 -0.36927139214E+03  0.36927139214E+03  0.00000000000E+00 0. -1.
          5    1    1    2  502    0  0.22643809424E+01  0.99023090247E+02 -0.20380667131E+03  0.22663920997E+03  0.41800000000E+01 0. -1.
         -5    1    1    2    0  502  0.10891592869E+01 -0.71978534586E+01  0.13075439053E+02  0.15538174564E+02  0.41800000000E+01 0.  1.
        -11    1    1    2    0    0 -0.18653081322E+02  0.10256463743E+02 -0.45592311714E+01  0.21769682592E+02  0.00000000000E+00 0. -1.
         11    1    1    2    0    0  0.15299541092E+02 -0.10208170053E+03 -0.12057896212E+03  0.15872629160E+03  0.00000000000E+00 0.  1.
</event>
<event>
 6    1  0.9216756E-006  0.1347078E+03  0.7561462E-02  0.1220633E+00
          2   -1    0    0  501    0  0.00000000000E+00  0.00000000000E+00  0.99515564776E+02  0.99515564776E+02  0.00000000000E+00 0. -1.
         -2   -1    0    0    0  501 -0.00000000000E+00 -0.00000000000E+00 -0.19356022904E+03  0.19356022904E+03  0.00000000000E+00 0.  1.
          5    1    1    2  502    0 -0.66065850753E+02  0.30498732076E+02 -0.18709165112E+02  0.75248751173E+02  0.41800000000E+01 0.  1.
         -5    1    1    2    0  502  0.54225565126E+02  0.54288682715E+02 -0.46027486072E+02  0.89574967811E+02  0.41800000000E+01 0.  1.
        -11    1    1    2    0    0  0.43781775452E+02 -0.73980294303E+02 -0.37123433194E+02  0.93638010973E+02  0.00000000000E+00 0. -1.
         11    1    1    2    0    0 -0.31941489825E+02 -0.10807120488E+02  0.78154201113E+01  0.34614063861E+02  0.00000000000E+00 0.  1.
</event>
<event>
 6    1  0.9216756E-006  0.8671654E+02  0.7561462E-02  0.1311004E+00
         -2   -1    0    0    0  501 -0.00000000000E+00  0.00000000000E+00  0.42078310367E+02  0.42078310367E+02  0.00000000000E+00 0.  1.
          2   -1    0    0  501    0  0.00000000000E+00 -0.00000000000E+00 -0.43000115395E+03  0.43000115395E+03  0.00000000000E+00 0. -1.
          5    1    1    2  502    0 -0.17342759226E+02 -0.22479958467E+01 -0.14760929371E+03  0.14870037247E+03  0.41800000000E+01 0.  1.
         -5    1    1    2    0  502 -0.46245133900E+02 -0.13526178404E+02  0.89712442293E+01  0.49188672828E+02  0.41800000000E+01 0.  1.
        -11    1    1    2    0    0  0.29700789256E+02  0.50488657441E+02 -0.18232742233E+03  0.19150595381E+03  0.00000000000E+00 0. -1.
         11    1    1    2    0    0  0.33887103869E+02 -0.34714483190E+02 -0.66957371779E+02  0.82684465212E+02  0.00000000000E+00 0.  1.
</event>
<event>
 6    1  0.9216756E-006  0.1037669E+03  0.7561462E-02  0.1272568E+00
          1   -1    0    0  501    0  0.00000000000E+00  0.00000000000E+00  0.12173756399E+03  0.12173756399E+03  0.00000000000E+00 0. -1.
         -1   -1    0    0    0  501 -0.00000000000E+00 -0.00000000000E+00 -0.99732729370E+02  0.99732729370E+02  0.00000000000E+00 0.  1.
          5    1    1    2  502    0  0.61805479670E+02 -0.47519485776E+01 -0.14200078595E+02  0.63730785062E+02  0.41800000000E+01 0. -1.
         -5    1    1    2    0  502 -0.61190965615E+02 -0.76290973310E+01  0.68817531645E+01  0.62188168695E+02  0.41800000000E+01 0. -1.
        -11    1    1    2    0    0  0.94854999025E+00 -0.35589929400E+02 -0.58056866123E+01  0.36072826598E+02  0.00000000000E+00 0.  1.
         11    1    1    2    0    0 -0.15630640446E+01  0.47970975308E+02  0.35128846660E+02  0.59478513002E+02  0.00000000000E+00 0. -1.
</event>
<event>
 6    1  0.9216756E-006  0.1371823E+03  0.7561462E-02  0.1217171E+00
          2   -1    0    0  501    0  0.00000000000E+00  0.00000000000E+00  0.48131961289E+03  0.48131961289E+03  0.00000000000E+00 0. -1.
         -2   -1    0    0    0  501 -0.00000000000E+00 -0.00000000000E+00 -0.42902602145E+02  0.42902602145E+02  0.00000000000E+00 0.  1.
          5    1    1    2  502    0 -0.10182433831E+03 -0.47169229772E+02  0.12096751119E+03  0.16505678802E+03  0.41800000000E+01 0. -1.
         -5    1    1    2    0  502  0.37413950923E+02 -0.60547697310E+01  0.40304470872E+02  0.55483211267E+02  0.41800000000E+01 0. -1.
        -11    1    1    2    0    0  0.63821614660E+02  0.77080733211E+02  0.21645177194E+03  0.23846594622E+03  0.00000000000E+00 0.  1.
         11    1    1    2    0    0  0.58877272625E+00 -0.23856733709E+02  0.60693256745E+02  0.65216269526E+02  0.00000000000E+00 0. -1.
</event>
<event>
 6    1  0.9216756E-006  0.3746088E+03  0.7561462E-02  0.1052945E+00
          1   -1    0    0  501    0  0.00000000000E+00  0.00000000000E+00  0.12892449856E+04  0.12892449856E+04  0.00000000000E+00 0. -1.
         -1   -1    0    0    0  501 -0.00000000000E+00 -0.00000000000E+00 -0.11438446886E+03  0.11438446886E+03  0.00000000000E+00 0.  1.
          5    1    1    2  502    0  0.24498900935E+03  0.24836689583E+03  0.48164189533E+03  0.59472860818E+03  0.41800000000E+01 0.  1.
         -5    1    1    2    0  502 -0.54805175282E+01  0.30842006301E+02  0.99015502930E+02  0.10393655587E+03  0.41800000000E+01 0.  1.
        -11    1    1    2    0    0 -0.59898480547E+02 -0.53827008169E+02  0.69724362348E+02  0.10652070918E+03  0.00000000000E+00 0.  1.
         11    1    1    2    0    0 -0.17961001127E+03 -0.22538189396E+03  0.52447875615E+03  0.59844358124E+03  0.00000000000E+00 0. -1.
</event>
<event>
 6    1  0.9216756E-006  0.1620565E+03  0.7561462E-02  0.1186394E+00
          2   -1    0    0  501    0  0.00000000000E+00  0.00000000000E+00  0.34772416425E+03  0.34772416425E+03  0.00000000000E+00 0. -1.
         -2   -1    0    0    0  501 -0.00000000000E+00 -0.00000000000E+00 -0.89750485544E+02  0.89750485544E+02  0.00000000000E+00 0.  1.
          5    1    1    2  502    0 -0.13884510214E+03 -0.53181996256E+02  0.65046914812E+02  0.16234180189E+03  0.41800000000E+01 0.  1.
         -5    1    1    2    0  502  0.10045115778E+02  0.30348587748E+02  0.13091434614E+02  0.34796539908E+02  0.41800000000E+01 0.  1.
        -11    1    1    2    0    0  0.70774283879E+02 -0.16953385778E+02  0.38208578617E+02  0.82196788427E+02  0.00000000000E+00 0.  1.
         11    1    1    2    0    0  0.58025702480E+02  0.39786794286E+02  0.14162675067E+03  0.15813951958E+03  0.00000000000E+00 0. -1.
</event>
<event>
 6    1  0.9216756E-006  0.1008909E+03  0.7561462E-02  0.1278433E+00
         -2   -1    0    0    0  501 -0.00000000000E+00  0.00000000000E+00  0.29920235634E+02  0.29920235634E+02  0.00000000000E+00 0.  1.
          2   -1    0    0  501    0  0.00000000000E+00 -0.00000000000E+00 -0.45848043300E+03  0.45848043300E+03  0.00000000000E+00 0. -1.
          5    1    1    2  502    0  0.55100145944E+02 -0.46452259249E+02 -0.60145556031E+02  0.93961687844E+02  0.41800000000E+01 0.  1.
         -5    1    1    2    0  502 -0.26086223882E+02  0.14181193373E+02 -0.16119134220E+03  0.16395645313E+03  0.41800000000E+01 0.  1.
        -11    1    1    2    0    0  0.24813797920E+02 -0.14118117524E+02 -0.43849393423E+02  0.52324135093E+02  0.00000000000E+00 0. -1.
         11    1    1    2    0    0 -0.53827719982E+02  0.46389183400E+02 -0.16337390571E+03  0.17815839256E+03  0.00000000000E+00 0.  1.
</event>
<event>
 6    1  0.9216756E-006  0.7158435E+02  0.7561462E-02  0.1354787E+00
          2   -1    0    0  501    0  0.00000000000E+00  0.00000000000E+00  0.23388449746E+03  0.23388449746E+03  0.00000000000E+00 0. -1.
         -2   -1    0    0    0  501 -0.00000000000E+00 -0.00000000000E+00 -0.64409084722E+02  0.64409084722E+02  0.00000000000E+00 0.  1.
          5    1    1    2  502    0  0.60692565088E+01  0.47423504078E+02 -0.25481856592E+02  0.54338034828E+02  0.41800000000E+01 0. -1.
         -5    1    1    2    0  502  0.25245304777E+02 -0.45423746920E+01  0.94633704116E+02  0.98137500151E+02  0.41800000000E+01 0. -1.
        -11    1    1    2    0    0  0.42322072160E+00 -0.36885380693E+02 -0.35313706385E+01  0.37056456971E+02  0.00000000000E+00 0.  1.
         11    1    1    2    0    0 -0.31737782008E+02 -0.59957486927E+01  0.10385493585E+03  0.10876159023E+03  0.00000000000E+00 0. -1.
</event>
<event>
 6    1  0.9216756E-006  0.9818225E+02  0.7561462E-02  0.1284166E+00
         -1   -1    0    0    0  501 -0.00000000000E+00  0.00000000000E+00  0.31374906145E+02  0.31374906145E+02  0.00000000000E+00 0.  1.
          1   -1    0    0  501    0  0.00000000000E+00 -0.00000000000E+00 -0.37082134992E+03  0.37082134992E+03  0.00000000000E+00 0. -1.
          5    1    1    2  502    0 -0.60694486150E+02 -0.58511365850E+01 -0.43495368930E+02  0.75015838106E+02  0.41800000000E+01 0.  1.
         -5    1    1    2    0  502  0.50804873343E+02  0.12813441641E+00 -0.12623537551E+03  0.13613961218E+03  0.41800000000E+01 0.  1.
        -11    1    1    2    0    0  0.44418447957E+02 -0.11210486771E+02 -0.11809590715E+03  0.12667011020E+03  0.00000000000E+00 0. -1.
         11    1    1    2    0    0 -0.34528835149E+02  0.16933488939E+02 -0.51619792188E+02  0.64370695584E+02  0.00000000000E+00 0.  1.
</event>
<event>
 6    1  0.9216756E-006  0.1293389E+03  0.7561462E-02  0.1228440E+00
         -4   -1    0    0    0  501 -0.00000000000E+00  0.00000000000E+00  0.11967825559E+02  0.11967825559E+02  0.00000000000E+00 0. -1.
          4   -1    0    0  501    0  0.00000000000E+00 -0.00000000000E+00 -0.14348233171E+04  0.14348233171E+04  0.00000000000E+00 0.  1.
          5    1    1    2  502    0  0.36090875615E+02 -0.11892107123E+02 -0.29417826020E+03  0.29665180715E+03  0.41800000000E+01 0.  1.
         -5    1    1    2    0  502 -0.10160718915E+03 -0.21730175308E+02 -0.50331418585E+03  0.51394441672E+03  0.41800000000E+01 0.  1.
        -11    1    1    2    0    0  0.59139841326E+02 -0.20022646001E+02 -0.30767889787E+03  0.31395020525E+03  0.00000000000E+00 0.  1.
         11    1    1    2    0    0  0.63764722070E+01  0.53644928432E+02 -0.31768414764E+03  0.32224471354E+03  0.00000000000E+00 0. -1.
</event>
<event>
 6    1  0.9216756E-006  0.2270483E+03  0.7561462E-02  0.1128735E+00
          2   -1    0    0  501    0  0.00000000000E+00  0.00000000000E+00  0.19629975745E+04  0.19629975745E+04  0.00000000000E+00 0. -1.
         -2   -1    0    0    0  501 -0.00000000000E+00 -0.00000000000E+00 -0.26488469749E+02  0.26488469749E+02  0.00000000000E+00 0.  1.
          5    1    1    2  502    0  0.34333625831E+02 -0.17185653581E+03  0.72771410234E+03  0.74853106409E+03  0.41800000000E+01 0.  1.
         -5    1    1    2    0  502  0.59381213638E+02 -0.57182283117E+01  0.32236872030E+03  0.32786870985E+03  0.41800000000E+01 0.  1.
        -11    1    1    2    0    0 -0.46693652931E+02  0.16331082028E+03  0.68017633978E+03  0.70106388756E+03  0.00000000000E+00 0. -1.
         11    1    1    2    0    0 -0.47021186537E+02  0.14263943833E+02  0.20624994233E+03  0.21202238275E+03  0.00000000000E+00 0.  1.
</event>
<event>
 6    1  0.9216756E-006  0.9562652E+02  0.7561462E-02  0.1289771E+00
          1   -1    0    0  501    0  0.00000000000E+00  0.00000000000E+00  0.74422408821E+02  0.74422408821E+02  0.00000000000E+00 0. -1.
         -1   -1    0    0    0  501 -0.00000000000E+00 -0.00000000000E+00 -0.20338589136E+03  0.20338589136E+03  0.00000000000E+00 0.  1.
          5    1    1    2  502    0 -0.48221013343E+02 -0.26475600256E+02 -0.22368540286E+02  0.59531903474E+02  0.41800000000E+01 0.  1.
         -5    1    1    2    0  502  0.42782608885E+02  0.25148636471E+02 -0.12082567702E+03  0.13068711553E+03  0.41800000000E+01 0.  1.
        -11    1    1    2    0    0  0.45826332379E+02 -0.85239069747E+00  0.50311103975E+01  0.46109558456E+02  0.00000000000E+00 0. -1.
         11    1    1    2    0    0 -0.40387927921E+02  0.21793544826E+01  0.91996243728E+01  0.41479722712E+02  0.00000000000E+00 0.  1.
</event>
<event>
 6    1  0.9216756E-006  0.1477414E+03  0.7561462E-02  0.1203276E+00
          2   -1    0    0  501    0  0.00000000000E+00  0.00000000000E+00  0.13829247067E+03  0.13829247067E+03  0.00000000000E+00 0. -1.
         -2   -1    0    0    0  501 -0.00000000000E+00 -0.00000000000E+00 -0.20029182912E+03  0.20029182912E+03  0.00000000000E+00 0.  1.
          5    1    1    2  502    0 -0.98289833823E+02  0.92354430191E+02 -0.20924269242E+02  0.13654863475E+03  0.41800000000E+01 0.  1.
         -5    1    1    2    0  502  0.17721555668E+02 -0.24796477882E+01 -0.46314056353E+02  0.49826362543E+02  0.41800000000E+01 0.  1.
        -11    1    1    2    0    0 -0.12383023964E+02  0.67986980330E+00 -0.16490314924E+02  0.20633273898E+02  0.00000000000E+00 0.  1.
         11    1    1    2    0    0  0.92951302119E+02 -0.90554652206E+02  0.21729282071E+02  0.13157602860E+03  0.00000000000E+00 0. -1.
</event>
<event>
 6    1  0.9216756E-006  0.9006099E+02  0.7561462E-02  0.1302704E+00
          3   -1    0    0  501    0  0.00000000000E+00  0.00000000000E+00  0.16286664578E+03  0.16286664578E+03  0.00000000000E+00 0. -1.
         -3   -1    0    0    0  501 -0.00000000000E+00 -0.00000000000E+00 -0.67769969855E+02  0.67769969855E+02  0.00000000000E+00 0.  1.
          5    1    1    2  502    0 -0.73780127988E+02  0.27345039012E+02 -0.88015390579E+01  0.79285546818E+02  0.41800000000E+01 0. -1.
         -5    1    1    2    0  502  0.34676030323E+02  0.19399374021E+02  0.53685897619E+02  0.66920929420E+02  0.41800000000E+01 0. -1.
        -11    1    1    2    0    0  0.18452509313E+02 -0.27686072663E+02  0.44813401564E+02  0.55814466576E+02  0.00000000000E+00 0. -1.
         11    1    1    2    0    0  0.20651588352E+02 -0.19058340370E+02  0.53989158011E+01  0.28615672820E+02  0.00000000000E+00 0.  1.
</event>
<event>
 6    1  0.9216756E-006  0.8835702E+02  0.7561462E-02  0.1306880E+00
         -2   -1    0    0    0  501 -0.00000000000E+00  0.00000000000E+00  0.11093485275E+03  0.11093485275E+03  0.00000000000E+00 0. -1.
          2   -1    0    0  501    0  0.00000000000E+00 -0.00000000000E+00 -0.13526947556E+03  0.13526947556E+03  0.00000000000E+00 0.  1.
          5    1    1    2  502    0 -0.30756613110E+02 -0.39080691221E+01  0.56248857503E+02  0.64363410604E+02  0.41800000000E+01 0.  1.
         -5    1    1    2    0  502 -0.45285059890E+01  0.49293462822E+02 -0.53929256571E+02  0.73322506489E+02  0.41800000000E+01 0.  1.
        -11    1    1    2    0    0  0.42818132966E+02  0.65125765355E+01 -0.34656400556E+02  0.55469561593E+02  0.00000000000E+00 0.  1.
         11    1    1    2    0    0 -0.75330138679E+01 -0.51897970236E+02  0.80021768223E+01  0.53048849624E+02  0.00000000000E+00 0. -1.
</event>
<event>
 6    1  0.9216756E-006  0.1058643E+03  0.7561462E-02  0.1268426E+00
          1   -1    0    0  501    0  0.00000000000E+00  0.00000000000E+00  0.48415155363E+03  0.48415155363E+03  0.00000000000E+00 0. -1.
         -1   -1    0    0    0  501 -0.00000000000E+00 -0.00000000000E+00 -0.26998510341E+02  0.26998510341E+02  0.00000000000E+00 0.  1.
          5    1    1    2  502    0 -0.11692168289E+02 -0.69124096065E+02  0.20624567382E+03  0.21787518865E+03  0.41800000000E+01 0. -1.
         -5    1    1    2    0  502  0.16088203694E+02  0.52521634497E+02  0.73667275429E+02  0.91987457066E+02  0.41800000000E+01 0.  1.
        -11    1    1    2    0    0  0.22539980885E+02 -0.26991051569E+02  0.11715173137E+03  0.12231555815E+03  0.00000000000E+00 0.  1.
         11    1    1    2    0    0 -0.26936016290E+02  0.43593513137E+02  0.60088362670E+02  0.78971860112E+02  0.00000000000E+00 0. -1.
</event>
<event>
 6    1  0.9216756E-006  0.7582117E+02  0.7561462E-02  0.1341347E+00
         -1   -1    0    0    0  501 -0.00000000000E+00  0.00000000000E+00  0.12327709640E+03  0.12327709640E+03  0.00000000000E+00 0.  1.
          1   -1    0    0  501    0  0.00000000000E+00 -0.00000000000E+00 -0.95886244606E+02  0.95886244606E+02  0.00000000000E+00 0. -1.
          5    1    1    2  502    0 -0.28453922491E+02  0.24459851622E+02 -0.36820991618E+02  0.52736779104E+02  0.41800000000E+01 0. -1.
         -5    1    1    2    0  502  0.37876317329E+02 -0.23688096313E+02  0.59856250043E+02  0.74806312505E+02  0.41800000000E+01 0. -1.
        -11    1    1    2    0    0 -0.13757722075E+02 -0.33390472970E+02  0.32299365775E+02  0.48450465749E+02  0.00000000000E+00 0.  1.
         11    1    1    2    0    0  0.43353272377E+01  0.32618717660E+02 -0.27943772405E+02  0.43169783649E+02  0.00000000000E+00 0. -1.
</event>
<event>
 6    1  0.9216756E-006  0.1053094E+03  0.7561462E-02  0.1269511E+00
          3   -1    0    0  501    0  0.00000000000E+00  0.00000000000E+00  0.16612339379E+03  0.16612339379E+03  0.00000000000E+00 0. -1.
         -3   -1    0    0    0  501 -0.00000000000E+00 -0.00000000000E+00 -0.17168512982E+03  0.17168512982E+03  0.00000000000E+00 0.  1.
          5    1    1    2  502    0 -0.47456932711E+02 -0.23550663171E+02 -0.12292535758E+03  0.13392128335E+03  0.41800000000E+01 0. -1.
         -5    1    1    2    0  502  0.78087978670E+01  0.41341167572E+02  0.60407950756E+01  0.42708700115E+02  0.41800000000E+01 0. -1.
        -11    1    1    2    0    0  0.10586024261E+02  0.44881519807E+02  0.32776008406E+02  0.56574565459E+02  0.00000000000E+00 0.  1.
         11    1    1    2    0    0  0.29062110583E+02 -0.62672024209E+02  0.78546818071E+02  0.10460397468E+03  0.00000000000E+00 0. -1.
</event>
<event>
 6    1  0.9216756E-006  0.1026657E+03  0.7561462E-02  0.1274788E+00
          2   -1    0    0  501    0  0.00000000000E+00  0.00000000000E+00  0.34405826135E+02  0.34405826135E+02  0.00000000000E+00 0. -1.
         -2   -1    0    0    0  501 -0.00000000000E+00 -0.00000000000E+00 -0.57453581566E+03  0.57453581566E+03  0.00000000000E+00 0.  1.
          5    1    1    2  502    0 -0.66729691709E+02 -0.28607519528E+02 -0.39164766644E+03  0.39834232634E+03  0.41800000000E+01 0. -1.
         -5    1    1    2    0  502  0.29268760737E+01 -0.16106098448E+02  0.31379329854E+01  0.17184063378E+02  0.41800000000E+01 0. -1.
        -11    1    1    2    0    0  0.82949827378E+02  0.21633716571E+02 -0.13262259914E+03  0.15791594396E+03  0.00000000000E+00 0. -1.
         11    1    1    2    0    0 -0.19147011743E+02  0.23079901406E+02 -0.18997656932E+02  0.35499308113E+02  0.00000000000E+00 0.  1.
</event>
<event>
 6    1  0.9216756E-006  0.1292489E+03  0.7561462E-02  0.1228574E+00
          2   -1    0    0  501    0  0.00000000000E+00  0.00000000000E+00  0.39973638877E+03  0.39973638877E+03  0.00000000000E+00 0. -1.
         -2   -1    0    0    0  501 -0.00000000000E+00 -0.00000000000E+00 -0.59259601426E+02  0.59259601426E+02  0.00000000000E+00 0.  1.
          5    1    1    2  502    0  0.90176485568E+02 -0.59840890617E+02  0.90580256757E+02  0.14119131012E+03  0.41800000000E+01 0.  1.
         -5    1    1    2    0  502  0.42180194779E+01  0.45823153475E+02  0.16220023970E+02  0.48970548907E+02  0.41800000000E+01 0.  1.
        -11    1    1    2    0    0 -0.64502164186E+02  0.28797778945E+02  0.22284437455E+03  0.23377223215E+03  0.00000000000E+00 0. -1.
         11    1    1    2    0    0 -0.29892340859E+02 -0.14780041803E+02  0.10832132072E+02  0.35061899021E+02  0.00000000000E+00 0.  1.
</event>
<event>
 6    1  0.9216756E-006  0.1178334E+03  0.7561462E-02  0.1246715E+00
         -1   -1    0    0    0  501 -0.00000000000E+00  0.00000000000E+00  0.66058380252E+02  0.66058380252E+02  0.00000000000E+00 0. -1.
          1   -1    0    0  501    0  0.00000000000E+00 -0.00000000000E+00 -0.21628816853E+03  0.21628816853E+03  0.00000000000E+00 0.  1.
          5    1    1    2  502    0 -0.74427099803E+02 -0.24889787988E+02 -0.47065426463E+02  0.91605248208E+02  0.41800000000E+01 0. -1.
         -5    1    1    2    0  502  0.52056642625E+02 -0.23600859681E+02 -0.40369181519E+02  0.70100198541E+02  0.41800000000E+01 0. -1.
        -11    1    1    2    0    0 -0.23855967180E+02  0.47928985248E+02 -0.18577918060E+02  0.56669514171E+02  0.00000000000E+00 0. -1.
         11    1    1    2    0    0  0.46226424358E+02  0.56166242077E+00 -0.44217262238E+02  0.63971587861E+02  0.00000000000E+00 0.  1.
</event>
<event>
 6    1  0.9216756E-006  0.1165124E+03  0.7561462E-02  0.1248964E+00
         -1   -1    0    0    0  501 -0.00000000000E+00  0.00000000000E+00  0.24091893652E+03  0.24091893652E+03  0.00000000000E+00 0.  1.
          1   -1    0    0  501    0  0.00000000000E+00 -0.00000000000E+00 -0.66506791757E+02  0.66506791757E+02  0.00000000000E+00 0. -1.
          5    1    1    2  502    0  0.57793507948E+02  0.62836007861E+02  0.32427565404E+02  0.91419214845E+02  0.41800000000E+01 0. -1.
         -5    1    1    2    0  502 -0.37899887292E+02 -0.43248888917E+02  0.88852838254E+02  0.10592056984E+03  0.41800000000E+01 0.  1.
        -11    1    1    2    0    0  0.58837320094E+01  0.31833669264E+02  0.39317830443E+02  0.50930271862E+02  0.00000000000E+00 0. -1.
         11    1    1    2    0    0 -0.25777352665E+02 -0.51420788208E+02  0.13813910664E+02  0.59155671733E+02  0.00000000000E+00 0.  1.
</event>
<event>
 6    1  0.9216756E-006  0.1813150E+03  0.7561462E-02  0.1166536E+00
         -2   -1    0    0    0  501 -0.00000000000E+00  0.00000000000E+00  0.68020818977E+02  0.68020818977E+02  0.00000000000E+00 0.  1.
          2   -1    0    0  501    0  0.00000000000E+00 -0.00000000000E+00 -0.76714842460E+03  0.76714842460E+03  0.00000000000E+00 0. -1.
          5    1    1    2  502    0 -0.68717877575E+02 -0.35159852082E+02 -0.50323248335E+01  0.77467145230E+02  0.41800000000E+01 0.  1.
         -5    1    1    2    0  502 -0.27252439854E+02 -0.97528327932E+02 -0.14726269473E+03  0.17876868822E+03  0.41800000000E+01 0.  1.
        -11    1    1    2    0    0 -0.15693845560E+02  0.18587205829E+02 -0.13624182429E+03  0.13839658845E+03  0.00000000000E+00 0. -1.
         11    1    1    2    0    0  0.11166416299E+03  0.11410097419E+03 -0.41059076177E+03  0.44053682168E+03  0.00000000000E+00 0.  1.
</event>
<event>
 6    1  0.9216756E-006  0.1182620E+03  0.7561462E-02  0.1245992E+00
         -2   -1    0    0    0  501 -0.00000000000E+00  0.00000000000E+00  0.13419355711E+03  0.13419355711E+03  0.00000000000E+00 0.  1.
          2   -1    0    0  501    0  0.00000000000E+00 -0.00000000000E+00 -0.17535742739E+03  0.17535742739E+03  0.00000000000E+00 0. -1.
          5    1    1    2  502    0 -0.45358364585E+02 -0.42535569512E+02 -0.38227013433E+02  0.73112467251E+02  0.41800000000E+01 0. -1.
         -5    1    1    2    0  502 -0.45694711213E+02 -0.62855816606E+01  0.69820674895E+02  0.83784928313E+02  0.41800000000E+01 0.  1.
        -11    1    1    2    0    0 -0.99627761336E+01  0.20790593240E+02 -0.33594843907E+02  0.40744560529E+02  0.00000000000E+00 0. -1.
         11    1    1    2    0    0  0.10101585193E+03  0.28030557932E+02 -0.39162687834E+02  0.11190902840E+03  0.00000000000E+00 0.  1.
</event>
<event>
 6    1  0.2692105E-005  0.2544071E+03  0.7561462E-02  0.1110551E+00
         -1   -1    0    0    0  501 -0.00000000000E+00  0.00000000000E+00  0.47569816988E+02  0.47569816988E+02  0.00000000000E+00 0.  1.
          1   -1    0    0  501    0  0.00000000000E+00 -0.00000000000E+00 -0.17656918896E+04  0.17656918896E+04  0.00000000000E+00 0. -1.
          5    1    1    2  502    0 -0.40990391267E+02  0.95612351470E+02 -0.22329180561E+03  0.24637093331E+03  0.41800000000E+01 0.  1.
         -5    1    1    2    0  502 -0.15293068235E+03  0.31634104282E+02 -0.23230507913E+03  0.27994933890E+03  0.41800000000E+01 0.  1.
        -11    1    1    2    0    0  0.13898786930E+03 -0.38699788869E+02 -0.67490433641E+03  0.69015300099E+03  0.00000000000E+00 0.  1.
         11    1    1    2    0    0  0.54933204319E+02 -0.88546666884E+02 -0.58762085151E+03  0.59678843344E+03  0.00000000000E+00 0. -1.
</event>
<event>
 6    1  0.9216756E-006  0.9615864E+02  0.7561462E-02  0.1288588E+00
          2   -1    0    0  501    0  0.00000000000E+00  0.00000000000E+00  0.37887598352E+03  0.37887598352E+03  0.00000000000E+00 0. -1.
         -2   -1    0    0    0  501 -0.00000000000E+00 -0.00000000000E+00 -0.39531873168E+02  0.39531873168E+02  0.00000000000E+00 0.  1.
          5    1    1    2  502    0 -0.68239810122E+02  0.33441862925E+02  0.48692651186E+02  0.90351959364E+02  0.41800000000E+01 0. -1.
         -5    1    1    2    0  502  0.12031385187E+02 -0.33945885604E+02  0.12963417732E+03  0.13460895107E+03  0.41800000000E+01 0. -1.
        -11    1    1    2    0    0  0.46062675332E+02  0.25730346664E+02  0.32244053956E+02  0.61834454907E+02  0.00000000000E+00 0.  1.
         11    1    1    2    0    0  0.10145749603E+02 -0.25226323985E+02  0.12877322789E+03  0.13161249135E+03  0.00000000000E+00 0. -1.
</event>
<event>
 6    1  0.9216756E-006  0.1074060E+03  0.7561462E-02  0.1265450E+00
         -1   -1    0    0    0  501 -0.00000000000E+00  0.00000000000E+00  0.35925439138E+03  0.35925439138E+03  0.00000000000E+00 0.  1.
          1   -1    0    0  501    0  0.00000000000E+00 -0.00000000000E+00 -0.58742228248E+02  0.58742228248E+02  0.00000000000E+00 0. -1.
          5    1    1    2  502    0  0.26989050900E+02 -0.31425064162E+02  0.19984970442E+03  0.20414044255E+03  0.41800000000E+01 0.  1.
         -5    1    1    2    0  502  0.28870995140E+02  0.65178879473E+02  0.68036105771E+02  0.98631662148E+02  0.41800000000E+01 0.  1.
        -11    1    1    2    0    0 -0.75933627579E+02 -0.26558673792E+02  0.53776796801E+01  0.80623807834E+02  0.00000000000E+00 0. -1.
         11    1    1    2    0    0  0.20073581540E+02 -0.71951415189E+01  0.27248673259E+02  0.34600707099E+02  0.00000000000E+00 0.  1.
</event>
<event>
 6    1  0.9216756E-006  0.1025111E+03  0.7561462E-02  0.1275102E+00
          2   -1    0    0  501    0  0.00000000000E+00  0.00000000000E+00  0.11548451382E+04  0.11548451382E+04  0.00000000000E+00 0. -1.
         -2   -1    0    0    0  501 -0.00000000000E+00 -0.00000000000E+00 -0.10794546926E+02  0.10794546926E+02  0.00000000000E+00 0.  1.
          5    1    1    2  502    0 -0.49249658158E+01 -0.60454154373E+02  0.23718744596E+03  0.24485570647E+03  0.41800000000E+01 0.  1.
         -5    1    1    2    0  502 -0.31534590053E+01  0.54315084404E+02  0.49631925607E+03  0.49930987276E+03  0.41800000000E+01 0.  1.
        -11    1    1    2    0    0 -0.39707739804E+02 -0.64795035646E+01  0.11520311703E+03  0.12202641821E+03  0.00000000000E+00 0.  1.
         11    1    1    2    0    0  0.47786164625E+02  0.12618573533E+02  0.29534077221E+03  0.29944768768E+03  0.00000000000E+00 0. -1.
</event>
<event>
 6    1  0.9216756E-006  0.1420980E+03  0.7561462E-02  0.1210534E+00
          2   -1    0    0  501    0  0.00000000000E+00  0.00000000000E+00  0.34561774294E+03  0.34561774294E+03  0.00000000000E+00 0. -1.
         -2   -1    0    0    0  501 -0.00000000000E+00 -0.00000000000E+00 -0.83382268337E+02  0.83382268337E+02  0.00000000000E+00 0.  1.
          5    1    1    2  502    0 -0.61993018763E+02  0.93559250066E+02 -0.12228992157E+01  0.11231845588E+03  0.41800000000E+01 0. -1.
         -5    1    1    2    0  502 -0.22946431270E+02 -0.26407299245E+02  0.48114856158E+02  0.59635525860E+02  0.41800000000E+01 0. -1.
        -11    1    1    2    0    0 -0.96926127786E+01 -0.35602998146E+02  0.34498691486E+02  0.50514155776E+02  0.00000000000E+00 0. -1.
         11    1    1    2    0    0  0.94632062811E+02 -0.31548952674E+02  0.18084482617E+03  0.20653187376E+03  0.00000000000E+00 0.  1.
</event>
<event>
 6    1  0.9216756E-006  0.1080925E+03  0.7561462E-02  0.1264144E+00
          1   -1    0    0  501    0  0.00000000000E+00  0.00000000000E+00  0.22335264992E+02  0.22335264992E+02  0.00000000000E+00 0. -1.
         -1   -1    0    0    0  501 -0.00000000000E+00 -0.00000000000E+00 -0.97070948037E+03  0.97070948037E+03  0.00000000000E+00 0.  1.
          5    1    1    2  502    0  0.21401846873E+02 -0.14056520328E+01 -0.50149360234E+03  0.50196944180E+03  0.41800000000E+01 0. -1.
         -5    1    1    2    0  502 -0.56750486714E+02 -0.58897482272E+02 -0.25027442241E+03  0.26333304022E+03  0.41800000000E+01 0. -1.
        -11    1    1    2    0    0  0.57875127709E+01  0.77847166818E+02 -0.11296444759E+03  0.13731221033E+03  0.00000000000E+00 0. -1.
         11    1    1    2    0    0  0.29561127070E+02 -0.17544032514E+02 -0.83641743030E+02  0.90430053011E+02  0.00000000000E+00 0.  1.
</event>
<event>
 6    1  0.9216756E-006  0.1191146E+03  0.7561462E-02  0.1244565E+00
         -3   -1    0    0    0  501 -0.00000000000E+00  0.00000000000E+00  0.99171028078E+03  0.99171028078E+03  0.00000000000E+00 0.  1.
          3   -1    0    0  501    0  0.00000000000E+00 -0.00000000000E+00 -0.37658061642E+02  0.37658061642E+02  0.00000000000E+00 0. -1.
          5    1    1    2  502    0  0.11159901893E+02 -0.47698848102E+02  0.68978976193E+03  0.69153966740E+03  0.41800000000E+01 0.  1.
         -5    1    1    2    0  502  0.60575378164E+02 -0.19606593202E+02  0.14705473016E+03  0.16030084529E+03  0.41800000000E+01 0.  1.
        -11    1    1    2    0    0 -0.19115883019E+02  0.70006168451E+02  0.96898914391E+02  0.12106064685E+03  0.00000000000E+00 0. -1.
         11    1    1    2    0    0 -0.52619397038E+02 -0.27007271470E+01  0.20308812650E+02  0.56467182886E+02  0.00000000000E+00 0.  1.
</event>
<event>
 6    1  0.9216756E-006  0.1133039E+03  0.7561462E-02  0.1254571E+00
          1   -1    0    0  501    0  0.00000000000E+00  0.00000000000E+00  0.20047966711E+03  0.20047966711E+03  0.00000000000E+00 0. -1.
         -1   -1    0    0    0  501 -0.00000000000E+00 -0.00000000000E+00 -0.10600089039E+03  0.10600089039E+03  0.00000000000E+00 0.  1.
          5    1    1    2  502    0  0.50972809863E+02 -0.75234456112E+02  0.70396416790E+02  0.11502859918E+03  0.41800000000E+01 0.  1.
         -5    1    1    2    0  502  0.32678653409E+01  0.11049110541E+01 -0.42334186813E+02  0.42679685395E+02  0.41800000000E+01 0.  1.
        -11    1    1    2    0    0 -0.52653769446E+02  0.95357534995E+02  0.42953752610E+02  0.11709186044E+03  0.00000000000E+00 0.  1.
         11    1    1    2    0    0 -0.15869057577E+01 -0.21227989938E+02  0.23462794137E+02  0.31680412488E+02  0.00000000000E+00 0. -1.
</event>
<event>
 6    1  0.9216756E-006  0.1006311E+03  0.7561462E-02  0.1278974E+00
         -2   -1    0    0    0  501 -0.00000000000E+00  0.00000000000E+00  0.38087290007E+02  0.38087290007E+02  0.00000000000E+00 0.  1.
          2   -1    0    0  501    0  0.00000000000E+00 -0.00000000000E+00 -0.38404974286E+03  0.38404974286E+03  0.00000000000E+00 0. -1.
          5    1    1    2  502    0  0.23995228398E+02 -0.51742559088E+02 -0.67272456482E+02  0.88295635272E+02  0.41800000000E+01 0. -1.
         -5    1    1    2    0  502 -0.46282822504E+02  0.48735601451E+02 -0.42401779424E+02  0.79577897724E+02  0.41800000000E+01 0. -1.
        -11    1    1    2    0    0 -0.22846807926E+02  0.18094008410E+02 -0.27326651229E+02  0.39951415997E+02  0.00000000000E+00 0.  1.
         11    1    1    2    0    0  0.45134402032E+02 -0.15087050773E+02 -0.20896156572E+03  0.21431208388E+03  0.00000000000E+00 0. -1.
</event>
<event>
 6    1  0.9216756E-006  0.8633938E+02  0.7561462E-02  0.1311967E+00
         -2   -1    0    0    0  501 -0.00000000000E+00  0.00000000000E+00  0.76121231934E+03  0.76121231934E+03  0.00000000000E+00 0. -1.
          2   -1    0    0  501    0  0.00000000000E+00 -0.00000000000E+00 -0.25122849885E+02  0.25122849885E+02  0.00000000000E+00 0.  1.
          5    1    1    2  502    0  0.36289035729E+01 -0.17174622570E+02  0.13628097309E+01  0.18096028623E+02  0.41800000000E+01 0.  1.
         -5    1    1    2    0  502 -0.60560141752E+02 -0.37986931426E+02  0.48671024231E+03  0.49195006870E+03  0.41800000000E+01 0.  1.
        -11    1    1    2    0    0  0.40225130276E+02  0.21894339450E+02  0.29168396949E+02  0.54297500736E+02  0.00000000000E+00 0.  1.
         11    1    1    2    0    0  0.16706107903E+02  0.33267214546E+02  0.21884802047E+03  0.22199157116E+03  0.00000000000E+00 0. -1.
</event>
<event>
 6    1  0.9216756E-006  0.1502078E+03  0.7561462E-02  0.1200218E+00
         -2   -1    0    0    0  501 -0.00000000000E+00  0.00000000000E+00  0.56101270356E+02  0.56101270356E+02  0.00000000000E+00 0.  1.
          2   -1    0    0  501    0  0.00000000000E+00 -0.00000000000E+00 -0.52202321062E+03  0.52202321062E+03  0.00000000000E+00 0. -1.
          5    1    1    2  502    0  0.89902753927E+02  0.24460117931E+02 -0.15520250209E+03  0.18106930051E+03  0.41800000000E+01 0. -1.
         -5    1    1    2    0  502 -0.29998411373E+02  0.61960721048E+02 -0.17429716905E+02  0.71135807221E+02  0.41800000000E+01 0.  1.
        -11    1    1    2    0    0  0.23667240730E+02 -0.13354441566E+02 -0.31721242283E+02  0.41769804947E+02  0.00000000000E+00 0.  1.
         11    1    1    2    0    0 -0.83571583284E+02 -0.73066397413E+02 -0.26156847899E+03  0.28414956830E+03  0.00000000000E+00 0. -1.
</event>
<event>
 6    1  0.9216756E-006  0.9997372E+02  0.7561462E-02  0.1280351E+00
          3   -1    0    0  501    0  0.00000000000E+00  0.00000000000E+00  0.18230775976E+03  0.18230775976E+03  0.00000000000E+00 0. -1.
         -3   -1    0    0    0  501 -0.00000000000E+00 -0.00000000000E+00 -0.10297566000E+03  0.10297566000E+03  0.00000000000E+00 0.  1.
          5    1    1    2  502    0  0.13623205663E+02  0.23283274467E+01  0.62618350804E+02  0.64261521135E+02  0.41800000000E+01 0.  1.
         -5    1    1    2    0  502  0.50378265234E+02 -0.48124087365E+02 -0.47308722841E+02  0.84317762360E+02  0.41800000000E+01 0.  1.
        -11    1    1    2    0    0 -0.73476846137E+02  0.47964486770E+01  0.21103177483E+02  0.76597630107E+02  0.00000000000E+00 0.  1.
         11    1    1    2    0    0  0.94753752398E+01  0.40999311241E+02  0.42919294317E+02  0.60106506160E+02  0.00000000000E+00 0. -1.
</event>
<event>
 6    1  0.9216756E-006  0.1345279E+03  0.7561462E-02  0.1220888E+00
          1   -1    0    0  501    0  0.00000000000E+00  0.00000000000E+00  0.44243677519E+03  0.44243677519E+03  0.00000000000E+00 0. -1.
         -1   -1    0    0    0  501 -0.00000000000E+00 -0.00000000000E+00 -0.70170603174E+02  0.70170603174E+02  0.00000000000E+00 0.  1.
          5    1    1    2  502    0  0.90765609740E+02 -0.58587047523E+01  0.14600118637E+03  0.17206550832E+03  0.41800000000E+01 0.  1.
         -5    1    1    2    0  502  0.38115488347E+02  0.25686228447E+02 -0.17822364297E+02  0.49474052320E+02  0.41800000000E+01 0.  1.
        -11    1    1    2    0    0 -0.69672736097E+02 -0.85135122297E+00  0.46100799985E+02  0.83548181987E+02  0.00000000000E+00 0.  1.
         11    1    1    2    0    0 -0.59208361991E+02 -0.18976172472E+02  0.19798654996E+03  0.20751963574E+03  0.00000000000E+00 0. -1.
</event>
<event>
 6    1  0.9216756E-006  0.4366225E+03  0.7561462E-02  0.1031788E+00
          2   -1    0    0  501    0  0.00000000000E+00  0.00000000000E+00  0.48759441032E+03  0.48759441032E+03  0.00000000000E+00 0. -1.
         -2   -1    0    0    0  501 -0.00000000000E+00 -0.00000000000E+00 -0.41231883286E+03  0.41231883286E+03  0.00000000000E+00 0.  1.
          5    1    1    2  502    0  0.14716610366E+03 -0.16195899861E+02 -0.53937320589E+02  0.15762891927E+03  0.41800000000E+01 0. -1.
         -5    1    1    2    0  502  0.27909384548E+03  0.78309009951E+02  0.30749091782E+02  0.29152813701E+03  0.41800000000E+01 0. -1.
        -11    1    1    2    0    0 -0.21667732973E+03 -0.62980701646E+02  0.18378984905E+02  0.22639218424E+03  0.00000000000E+00 0.  1.
         11    1    1    2    0    0 -0.20958261941E+03  0.86759155638E+00  0.80084821366E+02  0.22436400265E+03  0.00000000000E+00 0. -1.
</event>
<event>
 6    1  0.9216756E-006  0.8688603E+02  0.7561462E-02  0.1310573E+00
          2   -1    0    0  501    0  0.00000000000E+00  0.00000000000E+00  0.49814323463E+03  0.49814323463E+03  0.00000000000E+00 0.  1.
         -2   -1    0    0    0  501 -0.00000000000E+00 -0.00000000000E+00 -0.33554241446E+02  0.33554241446E+02  0.00000000000E+00 0. -1.
          5    1    1    2  502    0 -0.28943796483E+02 -0.49199454058E+02  0.13854937755E+02  0.58887701048E+02  0.41800000000E+01 0.  1.
         -5    1    1    2    0  502 -0.13474588025E+02  0.31586725492E+02  0.14206073275E+03  0.14621220859E+03  0.41800000000E+01 0.  1.
        -11    1    1    2    0    0 -0.18804769661E+02  0.40811240712E+01  0.10535602774E+02  0.21937954816E+02  0.00000000000E+00 0. -1.
         11    1    1    2    0    0  0.61223154169E+02  0.13531604495E+02  0.29813771991E+03  0.30465961163E+03  0.00000000000E+00 0.  1.
</event>
<event>
 6    1  0.9216756E-006  0.2226410E+03  0.7561462E-02  0.1131929E+00
          1   -1    0    0  501    0  0.00000000000E+00  0.00000000000E+00  0.38555922723E+03  0.38555922723E+03  0.00000000000E+00 0. -1.
         -1   -1    0    0    0  501 -0.00000000000E+00 -0.00000000000E+00 -0.16616952876E+03  0.16616952876E+03  0.00000000000E+00 0.  1.
          5    1    1    2  502    0 -0.11981668952E+03  0.15348035109E+03  0.66872419253E+02  0.20591660962E+03  0.41800000000E+01 0.  1.
         -5    1    1    2    0  502 -0.11745559676E+02  0.15960527916E+02 -0.39025085040E+02  0.43967332030E+02  0.41800000000E+01 0.  1.
        -11    1    1    2    0    0  0.14373973369E+03 -0.15713126120E+03  0.16188770414E+03  0.26750508974E+03  0.00000000000E+00 0.  1.
         11    1    1    2    0    0 -0.12177484491E+02 -0.12309617810E+02  0.29654660110E+02  0.34339724597E+02  0.00000000000E+00 0. -1.
</event>
<event>
 6    1  0.9216756E-006  0.1280196E+03  0.7561462E-02  0.1230424E+00
         -2   -1    0    0    0  501 -0.00000000000E+00  0.00000000000E+00  0.29330097984E+03  0.29330097984E+03  0.00000000000E+00 0. -1.
          2   -1    0    0  501    0  0.00000000000E+00 -0.00000000000E+00 -0.93686460906E+02  0.93686460906E+02  0.00000000000E+00 0.  1.
          5    1    1    2  502    0 -0.46542403908E+02  0.72614475593E+02  0.15252633226E+03  0.17527353440E+03  0.41800000000E+01 0.  1.
         -5    1    1    2    0  502 -0.43404966219E+02 -0.45577446609E+02  0.49186467549E+02  0.79987972358E+02  0.41800000000E+01 0.  1.
        -11    1    1    2    0    0  0.67536511217E+02 -0.42122215441E+02 -0.36847563062E+02  0.87710913144E+02  0.00000000000E+00 0.  1.
         11    1    1    2    0    0  0.22410858911E+02  0.15085186457E+02  0.34749282185E+02  0.44015020845E+02  0.00000000000E+00 0. -1.
</event>
<event>
 6    1  0.9216756E-006  0.1186337E+03  0.7561462E-02  0.1245368E+00
         -1   -1    0    0    0  501 -0.00000000000E+00  0.00000000000E+00  0.45670940120E+03  0.45670940120E+03  0.00000000000E+00 0.  1.
          1   -1    0    0  501    0  0.00000000000E+00 -0.00000000000E+00 -0.54091786183E+02  0.54091786183E+02  0.00000000000E+00 0. -1.
          5    1    1    2  502    0  0.40225557402E+02  0.36781917578E+02  0.28538069217E+03  0.29056946982E+03  0.41800000000E+01 0.  1.
         -5    1    1    2    0  502 -0.21316593274E+02  0.52787718838E+02  0.39563749175E+02  0.69452883725E+02  0.41800000000E+01 0.  1.
        -11    1    1    2    0    0  0.21695995743E+02 -0.81214238733E+02  0.34329881970E+02  0.90802035221E+02  0.00000000000E+00 0. -1.
         11    1    1    2    0    0 -0.40604959870E+02 -0.83553976830E+01  0.43343291697E+02  0.59976798611E+02  0.00000000000E+00 0.  1.
</event>
<event>
 6    1  0.9216756E-006  0.1184956E+03  0.7561462E-02  0.1245600E+00
         -2   -1    0    0    0  501 -0.00000000000E+00  0.00000000000E+00  0.25435536891E+03  0.25435536891E+03  0.00000000000E+00 0.  1.
          2   -1    0    0  501    0  0.00000000000E+00 -0.00000000000E+00 -0.64680704359E+02  0.64680704359E+02  0.00000000000E+00 0. -1.
          5    1    1    2  502    0 -0.25311696379E+02  0.32129492793E+02  0.21409886698E+02  0.46355602996E+02  0.41800000000E+01 0. -1.
         -5    1    1    2    0  502  0.87293842112E+02 -0.35288491883E+02  0.11724779565E+03  0.15043274416E+03  0.41800000000E+01 0. -1.
        -11    1    1    2    0    0 -0.15205404604E+02 -0.36983028969E+02  0.45177580021E+02  0.60332101716E+02  0.00000000000E+00 0. -1.
         11    1    1    2    0    0 -0.46776741129E+02  0.40142028059E+02  0.58394021860E+01  0.61915624403E+02  0.00000000000E+00 0.  1.
</event>
<event>
 6    1  0.9216756E-006  0.3040037E+03  0.7561462E-02  0.1083256E+00
          1   -1    0    0  501    0  0.00000000000E+00  0.00000000000E+00  0.19851942732E+04  0.19851942732E+04  0.00000000000E+00 0. -1.
         -1   -1    0    0    0  501 -0.00000000000E+00 -0.00000000000E+00 -0.65005200108E+02  0.65005200108E+02  0.00000000000E+00 0.  1.
          5    1    1    2  502    0  0.67245996474E+02  0.15418348062E+02  0.38637702842E+02  0.79183925008E+02  0.41800000000E+01 0.  1.
         -5    1    1    2    0  502  0.19777345600E+03  0.12220649305E+03  0.45836443315E+03  0.51396905823E+03  0.41800000000E+01 0.  1.
        -11    1    1    2    0    0 -0.15032142751E+03 -0.11546694684E+03  0.10114657868E+04  0.10290734596E+04  0.00000000000E+00 0. -1.
         11    1    1    2    0    0 -0.11469802496E+03 -0.22157894274E+02  0.41172115031E+03  0.42797303048E+03  0.00000000000E+00 0.  1.
</event>
<event>
 6    1  0.9216756E-006  0.1066633E+03  0.7561462E-02  0.1266877E+00
          2   -1    0    0  501    0  0.00000000000E+00  0.00000000000E+00  0.17373642274E+03  0.17373642274E+03  0.00000000000E+00 0. -1.
         -2   -1    0    0    0  501 -0.00000000000E+00 -0.00000000000E+00 -0.97789461584E+02  0.97789461584E+02  0.00000000000E+00 0.  1.
          5    1    1    2  502    0 -0.15341651261E+02  0.32710227438E+02  0.22233597336E+02  0.42627813608E+02  0.41800000000E+01 0. -1.
         -5    1    1    2    0  502  0.44360912854E+02 -0.74804315394E+02 -0.32351325452E+02  0.92885181000E+02  0.41800000000E+01 0. -1.
        -11    1    1    2    0    0 -0.97337127708E+01  0.61654518255E+02  0.88653050078E+02  0.10842226743E+03  0.00000000000E+00 0. -1.
         11    1    1    2    0    0 -0.19285548823E+02 -0.19560430299E+02 -0.25883608043E+01  0.27590622294E+02  0.00000000000E+00 0.  1.
</event>
<event>
 6    1  0.9216756E-006  0.1482301E+03  0.7561462E-02  0.1202665E+00
          2   -1    0    0  501    0  0.00000000000E+00  0.00000000000E+00  0.98017475583E+03  0.98017475583E+03  0.00000000000E+00 0. -1.
         -2   -1    0    0    0  501 -0.00000000000E+00 -0.00000000000E+00 -0.32729921904E+02  0.32729921904E+02  0.00000000000E+00 0.  1.
          5    1    1    2  502    0  0.50439867544E+02 -0.79473209992E+02  0.99909136050E+02  0.13732981909E+03  0.41800000000E+01 0.  1.
         -5    1    1    2    0  502  0.21096919119E+02 -0.35880599222E+02  0.30266890323E+03  0.30554612545E+03  0.41800000000E+01 0.  1.
        -11    1    1    2    0    0 -0.38442904494E+02  0.12088769180E+03  0.48588218796E+03  0.50216848917E+03  0.00000000000E+00 0.  1.
         11    1    1    2    0    0 -0.33093882168E+02 -0.55338825898E+01  0.58984606690E+02  0.67860244030E+02  0.00000000000E+00 0. -1.
</event>
<event>
 6    1  0.9216756E-006  0.1142681E+03  0.7561462E-02  0.1252864E+00
          1   -1    0    0  501    0  0.00000000000E+00  0.00000000000E+00  0.63125413996E+02  0.63125413996E+02  0.00000000000E+00 0. -1.
         -1   -1    0    0    0  501 -0.00000000000E+00 -0.00000000000E+00 -0.26872286312E+03  0.26872286312E+03  0.00000000000E+00 0.  1.
          5    1    1    2  502    0  0.80717137765E+02  0.28790759657E+02 -0.38720272051E+02  0.94132332587E+02  0.41800000000E+01 0. -1.
         -5    1    1    2    0  502 -0.81969355464E+01 -0.44897178450E+02 -0.86194432369E+02  0.97621201368E+02  0.41800000000E+01 0. -1.
        -11    1    1    2    0    0 -0.73341446687E+02 -0.71004935865E+01 -0.88895848092E+02  0.11546365930E+03  0.00000000000E+00 0.  1.
         11    1    1    2    0    0  0.82124446904E+00  0.23206912380E+02  0.82131033898E+01  0.24631083857E+02  0.00000000000E+00 0. -1.
</event>
<event>
 6    1  0.9216756E-006  0.8984805E+02  0.7561462E-02  0.1303220E+00
          2   -1    0    0  501    0  0.00000000000E+00  0.00000000000E+00  0.21476514207E+03  0.21476514207E+03  0.00000000000E+00 0.  1.
         -2   -1    0    0    0  501 -0.00000000000E+00 -0.00000000000E+00 -0.84180769727E+02  0.84180769727E+02  0.00000000000E+00 0. -1.
          5    1    1    2  502    0 -0.14420232608E+02 -0.39150938100E+02 -0.31794011008E+02  0.52621959281E+02  0.41800000000E+01 0.  1.
         -5    1    1    2    0  502  0.53632296775E+02  0.48177470814E+02  0.31488580031E+02  0.78781311387E+02  0.41800000000E+01 0.  1.
        -11    1    1    2    0    0  0.96808980553E+01 -0.13323184523E+02 -0.93667101246E+01  0.18946300208E+02  0.00000000000E+00 0. -1.
         11    1    1    2    0    0 -0.48892962223E+02  0.42966518093E+01  0.14025651344E+03  0.14859634092E+03  0.00000000000E+00 0.  1.
</event>
<event>
 6    1  0.9216756E-006  0.1101038E+03  0.7561462E-02  0.1260378E+00
          1   -1    0    0  501    0  0.00000000000E+00  0.00000000000E+00  0.26290144490E+03  0.26290144490E+03  0.00000000000E+00 0. -1.
         -1   -1    0    0    0  501 -0.00000000000E+00 -0.00000000000E+00 -0.49699964620E+02  0.49699964620E+02  0.00000000000E+00 0.  1.
          5    1    1    2  502    0  0.38318231441E+02 -0.34243424388E+02  0.44033122297E+02  0.67803298104E+02  0.41800000000E+01 0.  1.
         -5    1    1    2    0  502 -0.49038574183E+02  0.56419728830E+02  0.39616596648E+02  0.84704868155E+02  0.41800000000E+01 0.  1.
        -11    1    1    2    0    0 -0.39887977206E+02 -0.15227061697E+02  0.65112591293E+02  0.77862466429E+02  0.00000000000E+00 0.  1.
         11    1    1    2    0    0  0.50608319948E+02 -0.69492427446E+01  0.64439170042E+02  0.82230776832E+02  0.00000000000E+00 0. -1.
</event>
<event>
 6    1  0.9216756E-006  0.9641482E+02  0.7561462E-02  0.1288021E+00
         -2   -1    0    0    0  501 -0.00000000000E+00  0.00000000000E+00  0.90040059456E+02  0.90040059456E+02  0.00000000000E+00 0.  1.
          2   -1    0    0  501    0  0.00000000000E+00 -0.00000000000E+00 -0.14960518258E+03  0.14960518258E+03  0.00000000000E+00 0. -1.
          5    1    1    2  502    0  0.42682297725E+02 -0.64528172302E+02  0.18276838419E+01  0.77501460554E+02  0.41800000000E+01 0. -1.
         -5    1    1    2    0  502 -0.15372696267E+02  0.48428693227E+02 -0.87595497686E+01  0.51728717656E+02  0.41800000000E+01 0. -1.
        -11    1    1    2    0    0 -0.71266184975E+01  0.35598281058E+02  0.13374103232E+02  0.38689700733E+02  0.00000000000E+00 0.  1.
         11    1    1    2    0    0 -0.20182982960E+02 -0.19498801984E+02 -0.66007360429E+02  0.71725363093E+02  0.00000000000E+00 0. -1.
</event>
<event>
 6    1  0.9216756E-006  0.1704506E+03  0.7561462E-02  0.1177379E+00
          1   -1    0    0  501    0  0.00000000000E+00  0.00000000000E+00  0.15178449031E+03  0.15178449031E+03  0.00000000000E+00 0. -1.
         -1   -1    0    0    0  501 -0.00000000000E+00 -0.00000000000E+00 -0.29531208551E+03  0.29531208551E+03  0.00000000000E+00 0.  1.
          5    1    1    2  502    0  0.11107244134E+02 -0.17026810525E+02 -0.42052665492E+02  0.46895439265E+02  0.41800000000E+01 0. -1.
         -5    1    1    2    0  502 -0.62661302242E+02  0.15784112790E+03 -0.14093772713E+03  0.22072873801E+03  0.41800000000E+01 0. -1.
        -11    1    1    2    0    0  0.57796232307E+01 -0.26695084251E+02  0.49049798610E+02  0.56141912254E+02  0.00000000000E+00 0. -1.
         11    1    1    2    0    0  0.45774434877E+02 -0.11411923313E+03 -0.95870011966E+01  0.12333048629E+03  0.00000000000E+00 0.  1.
</event>
<event>
 6    1  0.9216756E-006  0.1080632E+03  0.7561462E-02  0.1264199E+00
         -2   -1    0    0    0  501 -0.00000000000E+00  0.00000000000E+00  0.30664309469E+02  0.30664309469E+02  0.00000000000E+00 0.  1.
          2   -1    0    0  501    0  0.00000000000E+00 -0.00000000000E+00 -0.51194633030E+03  0.51194633030E+03  0.00000000000E+00 0. -1.
          5    1    1    2  502    0  0.70569299759E+02  0.45556044504E+02 -0.22687379627E+03  0.24195985430E+03  0.41800000000E+01 0. -1.
         -5    1    1    2    0  502 -0.18058853194E+02  0.76759023094E+01  0.13036475146E+01  0.20105062840E+02  0.41800000000E+01 0.  1.
        -11    1    1    2    0    0  0.16699160504E+02 -0.37410484627E+02 -0.12839058797E+03  0.13476850300E+03  0.00000000000E+00 0.  1.
         11    1    1    2    0    0 -0.69209607069E+02 -0.15821462186E+02 -0.12732128409E+03  0.14577721962E+03  0.00000000000E+00 0. -1.
</event>
<event>
 6    1  0.9216756E-006  0.8549979E+02  0.7561462E-02  0.1314131E+00
         -3   -1    0    0    0  501 -0.00000000000E+00  0.00000000000E+00  0.31246353699E+03  0.31246353699E+03  0.00000000000E+00 0.  1.
          3   -1    0    0  501    0  0.00000000000E+00 -0.00000000000E+00 -0.61189017405E+02  0.61189017405E+02  0.00000000000E+00 0. -1.
          5    1    1    2  502    0 -0.10035217132E+02  0.33475830410E+02  0.20113819183E+03  0.20419446961E+03  0.41800000000E+01 0. -1.
         -5    1    1    2    0  502 -0.10652678165E+02 -0.54599681667E+02  0.38635015583E+02  0.67858246509E+02  0.41800000000E+01 0. -1.
        -11    1    1    2    0    0  0.30951006756E+02  0.44662103926E+02  0.36740995859E+02  0.65593971697E+02  0.00000000000E+00 0.  1.
         11    1    1    2    0    0 -0.10263111460E+02 -0.23538252669E+02 -0.25239683689E+02  0.36005866582E+02  0.00000000000E+00 0. -1.
</event>
<event>
 6    1  0.9216756E-006  0.1067115E+03  0.7561462E-02  0.1266784E+00
          2   -1    0    0  501    0  0.00000000000E+00  0.00000000000E+00  0.33370368159E+02  0.33370368159E+02  0.00000000000E+00 0. -1.
         -2   -1    0    0    0  501 -0.00000000000E+00 -0.00000000000E+00 -0.59388734031E+03  0.59388734031E+03  0.00000000000E+00 0.  1.
          5    1    1    2  502    0 -0.19917683521E+02  0.80317347774E+01 -0.29132065749E+03  0.29214109735E+03  0.41800000000E+01 0.  1.
         -5    1    1    2    0  502  0.78259661695E+02 -0.26542813592E+02 -0.15928526810E+03  0.17949474821E+03  0.41800000000E+01 0.  1.
        -11    1    1    2    0    0 -0.57077619294E+02  0.50845832428E+02 -0.87886791530E+02  0.11647850199E+03  0.00000000000E+00 0.  1.
         11    1    1    2    0    0 -0.12643588801E+01 -0.32334753614E+02 -0.22024255036E+02  0.39143360925E+02  0.00000000000E+00 0. -1.
</event>
<event>
 6    1  0.9216756E-006  0.1169794E+03  0.7561462E-02  0.1248165E+00
          3   -1    0    0  501    0  0.00000000000E+00  0.00000000000E+00  0.24109825880E+03  0.24109825880E+03  0.00000000000E+00 0. -1.
         -3   -1    0    0    0  501 -0.00000000000E+00 -0.00000000000E+00 -0.60801350024E+02  0.60801350024E+02  0.00000000000E+00 0.  1.
          5    1    1    2  502    0 -0.32227538638E+01  0.38474245431E+02  0.10847270371E+02  0.40321078588E+02  0.41800000000E+01 0. -1.
         -5    1    1    2    0  502  0.19989325259E+01 -0.95122733305E+02  0.79555080846E+02  0.12409195547E+03  0.41800000000E+01 0. -1.
        -11    1    1    2    0    0 -0.98595190564E+01  0.76510766594E+02  0.51154716462E+02  0.92563019274E+02  0.00000000000E+00 0. -1.
         11    1    1    2    0    0  0.11083340394E+02 -0.19862278720E+02  0.38739841092E+02  0.44923555493E+02  0.00000000000E+00 0.  1.
</event>
<event>
 6    1  0.9216756E-006  0.9739239E+02  0.7561462E-02  0.1285877E+00
         -1   -1    0    0    0  501 -0.00000000000E+00  0.00000000000E+00  0.15447493186E+03  0.15447493186E+03  0.00000000000E+00 0.  1.
          1   -1    0    0  501    0  0.00000000000E+00 -0.00000000000E+00 -0.13342235459E+03  0.13342235459E+03  0.00000000000E+00 0. -1.
          5    1    1    2  502    0 -0.40191933121E+02  0.81342742181E+02  0.74130390227E+02  0.11723830581E+03  0.41800000000E+01 0.  1.
         -5    1    1    2    0  502 -0.29327495395E+01 -0.43298045547E+02  0.12223227696E+02  0.45279150427E+02  0.41800000000E+01 0.  1.
        -11    1    1    2    0    0  0.24724429626E+02 -0.96843940246E+01  0.20248474875E+02  0.33392898088E+02  0.00000000000E+00 0.  1.
         11    1    1    2    0    0  0.18400253035E+02 -0.28360302609E+02 -0.85549515521E+02  0.91986932125E+02  0.00000000000E+00 0. -1.
</event>
<event>
 6    1  0.9216756E-006  0.4140834E+03  0.7561462E-02  0.1039009E+00
          2   -1    0    0  501    0  0.00000000000E+00  0.00000000000E+00  0.16602489951E+04  0.16602489951E+04  0.00000000000E+00 0. -1.
         -2   -1    0    0    0  501 -0.00000000000E+00 -0.00000000000E+00 -0.10687411409E+03  0.10687411409E+03  0.00000000000E+00 0.  1.
          5    1    1    2  502    0  0.21697826091E+03  0.20926902734E+02  0.48009769463E+03  0.52728433483E+03  0.41800000000E+01 0. -1.
         -5    1    1    2    0  502  0.18054440566E+03 -0.96103849550E+02  0.39054651139E+03  0.44088125643E+03  0.41800000000E+01 0. -1.
        -11    1    1    2    0    0 -0.19834208520E+03  0.51999143594E+02  0.42960336257E+03  0.47602788031E+03  0.00000000000E+00 0.  1.
         11    1    1    2    0    0 -0.19918058137E+03  0.23177803221E+02  0.25312731239E+03  0.32292963759E+03  0.00000000000E+00 0. -1.
</event>
<event>
 6    1  0.9216756E-006  0.9939583E+02  0.7561462E-02  0.1281572E+00
          2   -1    0    0  501    0  0.00000000000E+00  0.00000000000E+00  0.99782203650E+02  0.99782203650E+02  0.00000000000E+00 0. -1.
         -2   -1    0    0    0  501 -0.00000000000E+00 -0.00000000000E+00 -0.13857833879E+03  0.13857833879E+03  0.00000000000E+00 0.  1.
          5    1    1    2  502    0  0.24736669098E+02  0.71622279041E+02 -0.96873868565E+01  0.76504715653E+02  0.41800000000E+01 0. -1.
         -5    1    1    2    0  502 -0.11239518729E+02 -0.43119358491E+02 -0.45450758938E+02  0.63787535977E+02  0.41800000000E+01 0. -1.
        -11    1    1    2    0    0  0.26368284745E+02 -0.27742306475E+02 -0.20813316920E+02  0.43567375066E+02  0.00000000000E+00 0.  1.
         11    1    1    2    0    0 -0.39865435114E+02 -0.76061407483E+00  0.37155327570E+02  0.54500915748E+02  0.00000000000E+00 0. -1.
</event>
<event>
 6    1  0.9216756E-006  0.6242757E+02  0.7561462E-02  0.1387918E+00
          1   -1    0    0  501    0  0.00000000000E+00  0.00000000000E+00  0.51234587626E+02  0.51234587626E+02  0.00000000000E+00 0. -1.
         -1   -1    0    0    0  501 -0.00000000000E+00 -0.00000000000E+00 -0.28075650914E+03  0.28075650914E+03  0.00000000000E+00 0.  1.
          5    1    1    2  502    0 -0.14756765283E+02  0.69145851935E+00 -0.18966164875E+03  0.19028203710E+03  0.41800000000E+01 0. -1.
         -5    1    1    2    0  502 -0.99142569393E+01 -0.27437909102E+02  0.10460224332E+02  0.31273311939E+02  0.41800000000E+01 0. -1.
        -11    1    1    2    0    0 -0.24805480639E+02  0.24978058320E+01  0.11644795211E+02  0.27516398005E+02  0.00000000000E+00 0.  1.
         11    1    1    2    0    0  0.49476502860E+02  0.24248644751E+02 -0.61965292309E+02  0.82919349723E+02  0.00000000000E+00 0. -1.
</event>
<event>
 6    1  0.9216756E-006  0.9992405E+02  0.7561462E-02  0.1280456E+00
         -1   -1    0    0    0  501 -0.00000000000E+00  0.00000000000E+00  0.10339792600E+03  0.10339792600E+03  0.00000000000E+00 0.  1.
          1   -1    0    0  501    0  0.00000000000E+00 -0.00000000000E+00 -0.19606732611E+03  0.19606732611E+03  0.00000000000E+00 0. -1.
          5    1    1    2  502    0 -0.24175504117E+02 -0.16516158701E+02 -0.32880309239E+02  0.44224717446E+02  0.41800000000E+01 0. -1.
         -5    1    1    2    0  502  0.23326402751E+02  0.65415175475E+02  0.62030873653E+02  0.93212488079E+02  0.41800000000E+01 0. -1.
        -11    1    1    2    0    0  0.23417399646E+02 -0.67502897919E+02 -0.10844635273E+03  0.12986772984E+03  0.00000000000E+00 0.  1.
         11    1    1    2    0    0 -0.22568298281E+02  0.18603881145E+02 -0.13373611794E+02  0.32160316749E+02  0.00000000000E+00 0. -1.
</event>
<event>
 6    1  0.9216756E-006  0.1598253E+03  0.7561462E-02  0.1188894E+00
          2   -1    0    0  501    0  0.00000000000E+00  0.00000000000E+00  0.11561098849E+04  0.11561098849E+04  0.00000000000E+00 0. -1.
         -2   -1    0    0    0  501 -0.00000000000E+00 -0.00000000000E+00 -0.26082854429E+02  0.26082854429E+02  0.00000000000E+00 0.  1.
          5    1    1    2  502    0  0.56886546859E+02  0.17852455020E+02  0.77681327004E+02  0.98013521153E+02  0.41800000000E+01 0.  1.
         -5    1    1    2    0  502  0.63123819843E+02 -0.75718958128E+02  0.44155765959E+03  0.45244736312E+03  0.41800000000E+01 0.  1.
        -11    1    1    2    0    0 -0.71792797641E+02 -0.15475143015E+02  0.26704009604E+03  0.27695504823E+03  0.00000000000E+00 0. -1.
         11    1    1    2    0    0 -0.48217569061E+02  0.73341646123E+02  0.34374794783E+03  0.35477680683E+03  0.00000000000E+00 0.  1.
</event>
<event>
 6    1  0.9216756E-006  0.9898843E+02  0.7561462E-02  0.1282438E+00
         -2   -1    0    0    0  501 -0.00000000000E+00  0.00000000000E+00  0.60261469095E+03  0.60261469095E+03  0.00000000000E+00 0.  1.
          2   -1    0    0  501    0  0.00000000000E+00 -0.00000000000E+00 -0.20709336582E+02  0.20709336582E+02  0.00000000000E+00 0. -1.
          5    1    1    2  502    0 -0.55871165677E+02 -0.27644019992E+02  0.28896986411E+03  0.29564646753E+03  0.41800000000E+01 0.  1.
         -5    1    1    2    0  502  0.25739951132E+02  0.41035250232E+02  0.64692041743E+02  0.80925703647E+02  0.41800000000E+01 0.  1.
        -11    1    1    2    0    0 -0.12343126502E+02 -0.36497551968E+02  0.14918021411E+03  0.15407517760E+03  0.00000000000E+00 0.  1.
         11    1    1    2    0    0  0.42474341047E+02  0.23106321729E+02  0.79063234408E+02  0.92676678762E+02  0.00000000000E+00 0. -1.
</event>
<event>
 6    1  0.9216756E-006  0.1380546E+03  0.7561462E-02  0.1215971E+00
          1   -1    0    0  501    0  0.00000000000E+00  0.00000000000E+00  0.60642723897E+03  0.60642723897E+03  0.00000000000E+00 0. -1.
         -1   -1    0    0    0  501 -0.00000000000E+00 -0.00000000000E+00 -0.46310148794E+02  0.46310148794E+02  0.00000000000E+00 0.  1.
          5    1    1    2  502    0 -0.46196554229E+01 -0.31397686334E+02  0.17147119424E+03  0.17443336486E+03  0.41800000000E+01 0. -1.
         -5    1    1    2    0  502 -0.53828178906E+02 -0.74457931679E+02  0.45582331469E+02  0.10264832087E+03  0.41800000000E+01 0.  1.
        -11    1    1    2    0    0 -0.15841637183E+02  0.65893719698E+02  0.13256962499E+03  0.14888802919E+03  0.00000000000E+00 0.  1.
         11    1    1    2    0    0  0.74289471512E+02  0.39961898316E+02  0.21049393948E+03  0.22676767285E+03  0.00000000000E+00 0. -1.
</event>
<event>
 6    1  0.9216756E-006  0.7813185E+02  0.7561462E-02  0.1334438E+00
         -2   -1    0    0    0  501 -0.00000000000E+00  0.00000000000E+00  0.32889385907E+02  0.32889385907E+02  0.00000000000E+00 0.  1.
          2   -1    0    0  501    0  0.00000000000E+00 -0.00000000000E+00 -0.39584877816E+03  0.39584877816E+03  0.00000000000E+00 0. -1.
          5    1    1    2  502    0 -0.30287292687E+02  0.40233800533E+02 -0.18450332282E+03  0.19129826799E+03  0.41800000000E+01 0.  1.
         -5    1    1    2    0  502  0.33060080005E+02 -0.11432658303E+02 -0.22158131659E+01  0.35299529654E+02  0.41800000000E+01 0.  1.
        -11    1    1    2    0    0  0.30668950281E+02 -0.10749040627E+02 -0.13787705723E+02  0.35301943500E+02  0.00000000000E+00 0.  1.
         11    1    1    2    0    0 -0.33441737599E+02 -0.18052101603E+02 -0.16245255054E+03  0.16683842292E+03  0.00000000000E+00 0. -1.
</event>
<event>
 6    1  0.9216756E-006  0.1102294E+03  0.7561462E-02  0.1260146E+00
          2   -1    0    0  501    0  0.00000000000E+00  0.00000000000E+00  0.20999080422E+03  0.20999080422E+03  0.00000000000E+00 0. -1.
         -2   -1    0    0    0  501 -0.00000000000E+00 -0.00000000000E+00 -0.80137812478E+02  0.80137812478E+02  0.00000000000E+00 0.  1.
          5    1    1    2  502    0 -0.62122932983E+02  0.68559225605E+02  0.30414589683E+01  0.92662554954E+02  0.41800000000E+01 0.  1.
         -5    1    1    2    0  502  0.23307092914E+02 -0.68690467103E+01  0.60709555862E+02  0.65525010155E+02  0.41800000000E+01 0.  1.
        -11    1    1    2    0    0  0.38336007238E+01  0.16813915258E+02 -0.74819142628E+01  0.18798491478E+02  0.00000000000E+00 0.  1.
         11    1    1    2    0    0  0.34982239345E+02 -0.78504094153E+02  0.73583891177E+02  0.11314256011E+03  0.00000000000E+00 0. -1.
</event>
<event>
 6    1  0.9216756E-006  0.1672575E+03  0.7561462E-02  0.1180738E+00
          2   -1    0    0  501    0  0.00000000000E+00  0.00000000000E+00  0.12658519531E+04  0.12658519531E+04  0.00000000000E+00 0. -1.
         -2   -1    0    0    0  501 -0.00000000000E+00 -0.00000000000E+00 -0.26256345927E+02  0.26256345927E+02  0.00000000000E+00 0.  1.
          5    1    1    2  502    0  0.64528758392E+01 -0.15461233342E+02  0.26300878787E+03  0.26357500686E+03  0.41800000000E+01 0.  1.
         -5    1    1    2    0  502  0.11553666931E+03  0.99093566636E+02  0.43839082434E+03  0.46408215239E+03  0.41800000000E+01 0.  1.
        -11    1    1    2    0    0 -0.12826568293E+03 -0.62018430480E+02  0.50202100044E+03  0.52184619958E+03  0.00000000000E+00 0. -1.
         11    1    1    2    0    0  0.62761377805E+01 -0.21613902814E+02  0.36174994524E+02  0.42604940196E+02  0.00000000000E+00 0.  1.
</event>
<event>
 6    1  0.9216756E-006  0.1021309E+03  0.7561462E-02  0.1275878E+00
         -2   -1    0    0    0  501 -0.00000000000E+00  0.00000000000E+00  0.11111576237E+03  0.11111576237E+03  0.00000000000E+00 0.  1.
          2   -1    0    0  501    0  0.00000000000E+00 -0.00000000000E+00 -0.11981292607E+03  0.11981292607E+03  0.00000000000E+00 0. -1.
          5    1    1    2  502    0 -0.79130150429E+02 -0.36422395930E+01 -0.18755610832E+02  0.81511299547E+02  0.41800000000E+01 0.  1.
         -5    1    1    2    0  502  0.45625984088E+02 -0.12326414684E+02  0.12676803540E+02  0.49110535234E+02  0.41800000000E+01 0.  1.
        -11    1    1    2    0    0 -0.14686113145E+02 -0.14369575917E+02  0.28716452264E+02  0.35310073095E+02  0.00000000000E+00 0.  1.
         11    1    1    2    0    0  0.48190279486E+02  0.30338230195E+02 -0.31334808676E+02  0.64996780559E+02  0.00000000000E+00 0. -1.
</event>
<event>
 6    1  0.9216756E-006  0.9629546E+02  0.7561462E-02  0.1288285E+00
          1   -1    0    0  501    0  0.00000000000E+00  0.00000000000E+00  0.19794449323E+02  0.19794449323E+02  0.00000000000E+00 0. -1.
         -1   -1    0    0    0  501 -0.00000000000E+00 -0.00000000000E+00 -0.11065320050E+04  0.11065320050E+04  0.00000000000E+00 0.  1.
          5    1    1    2  502    0  0.93212573743E+00  0.41841425111E+02 -0.61973739093E+02  0.74898534371E+02  0.41800000000E+01 0. -1.
         -5    1    1    2    0  502 -0.39726950644E+01  0.42563441726E+02 -0.73419162801E+03  0.73544697152E+03  0.41800000000E+01 0. -1.
        -11    1    1    2    0    0 -0.31796505530E+02 -0.42688338895E+02 -0.22299442717E+03  0.22925929990E+03  0.00000000000E+00 0.  1.
         11    1    1    2    0    0  0.34837074857E+02 -0.41716527942E+02 -0.67577761403E+02  0.86721648533E+02  0.00000000000E+00 0. -1.
</event>
<event>
 6    1  0.9216756E-006  0.7429203E+02  0.7561462E-02  0.1346078E+00
         -1   -1    0    0    0  501 -0.00000000000E+00  0.00000000000E+00  0.53110766830E+02  0.53110766830E+02  0.00000000000E+00 0.  1.
          1   -1    0    0  501    0  0.00000000000E+00 -0.00000000000E+00 -0.23041110555E+03  0.23041110555E+03  0.00000000000E+00 0. -1.
          5    1    1    2  502    0  0.15602646710E+02 -0.37059560681E+02 -0.10392553641E+03  0.11151162782E+03  0.41800000000E+01 0.  1.
         -5    1    1    2    0  502 -0.61607547174E+01  0.24070311936E+02  0.26429551279E+02  0.36514769562E+02  0.41800000000E+01 0.  1.
        -11    1    1    2    0    0 -0.41338114051E+02 -0.11317839220E+02 -0.22495466618E+02  0.48404330140E+02  0.00000000000E+00 0.  1.
         11    1    1    2    0    0  0.31896222059E+02  0.24307087965E+02 -0.77308886978E+02  0.87091144858E+02  0.00000000000E+00 0. -1.
</event>
<event>
 6    1  0.9216756E-006  0.9587941E+02  0.7561462E-02  0.1289208E+00
         -1   -1    0    0    0  501 -0.00000000000E+00  0.00000000000E+00  0.57076838745E+02  0.57076838745E+02  0.00000000000E+00 0.  1.
          1   -1    0    0  501    0  0.00000000000E+00 -0.00000000000E+00 -0.28934908560E+03  0.28934908560E+03  0.00000000000E+00 0. -1.
          5    1    1    2  502    0  0.39944354369E+02 -0.45823349859E+02 -0.96110302627E+02  0.11379803825E+03  0.41800000000E+01 0. -1.
         -5    1    1    2    0  502 -0.39815759586E+02 -0.11828271490E+02  0.16959705751E+02  0.45058925165E+02  0.41800000000E+01 0. -1.
        -11    1    1    2    0    0 -0.33952366324E+02  0.31667051046E+02 -0.25417667351E+02  0.52930360990E+02  0.00000000000E+00 0.  1.
         11    1    1    2    0    0  0.33823771541E+02  0.25984570303E+02 -0.12770398263E+03  0.13463859994E+03  0.00000000000E+00 0. -1.
</event>
<event>
 6    1  0.9216756E-006  0.7112958E+02  0.7561462E-02  0.1356293E+00
         -2   -1    0    0    0  501 -0.00000000000E+00  0.00000000000E+00  0.26086819154E+03  0.26086819154E+03  0.00000000000E+00 0.  1.
          2   -1    0    0  501    0  0.00000000000E+00 -0.00000000000E+00 -0.58451984874E+02  0.58451984874E+02  0.00000000000E+00 0. -1.
          5    1    1    2  502    0 -0.82329805289E+01 -0.43727668386E+02  0.14235118637E+03  0.14920195579E+03  0.41800000000E+01 0. -1.
         -5    1    1    2    0  502  0.34120286083E+02 -0.80889308239E+01 -0.15095705852E+02  0.38405435285E+02  0.41800000000E+01 0. -1.
        -11    1    1    2    0    0 -0.29584673401E+02  0.39232270670E+02  0.95564444777E+02  0.10745690796E+03  0.00000000000E+00 0.  1.
         11    1    1    2    0    0  0.36973678474E+01  0.12584328540E+02 -0.20403718627E+02  0.24255877383E+02  0.00000000000E+00 0. -1.
</event>
<event>
 6    1  0.9216756E-006  0.1181207E+03  0.7561462E-02  0.1246230E+00
          4   -1    0    0  501    0  0.00000000000E+00  0.00000000000E+00  0.47263811051E+02  0.47263811051E+02  0.00000000000E+00 0. -1.
         -4   -1    0    0    0  501 -0.00000000000E+00 -0.00000000000E+00 -0.46091252819E+03  0.46091252819E+03  0.00000000000E+00 0.  1.
          5    1    1    2  502    0  0.36346012865E+01  0.69336930648E+02 -0.17910305521E+03  0.19213588177E+03  0.41800000000E+01 0.  1.
         -5    1    1    2    0  502 -0.66942336669E+02 -0.33058056947E+02 -0.16132589595E+03  0.17781346595E+03  0.41800000000E+01 0.  1.
        -11    1    1    2    0    0 -0.10268837463E+02 -0.10236554069E+01  0.14908055573E+02  0.18131382027E+02  0.00000000000E+00 0. -1.
         11    1    1    2    0    0  0.73576572845E+02 -0.35255218294E+02 -0.88127821543E+02  0.12009560949E+03  0.00000000000E+00 0.  1.
</event>
<event>
 6    1  0.9216756E-006  0.1581153E+03  0.7561462E-02  0.1190841E+00
          1   -1    0    0  501    0  0.00000000000E+00  0.00000000000E+00  0.10751618051E+02  0.10751618051E+02  0.00000000000E+00 0. -1.
         -1   -1    0    0    0  501 -0.00000000000E+00 -0.00000000000E+00 -0.32370583180E+04  0.32370583180E+04  0.00000000000E+00 0.  1.
          5    1    1    2  502    0  0.12288371685E+02 -0.11882512295E+03 -0.13749150279E+04  0.13801011631E+04  0.41800000000E+01 0. -1.
         -5    1    1    2    0  502 -0.44231498557E+02  0.23920739956E+01 -0.11080900652E+04  0.11089829631E+04  0.41800000000E+01 0. -1.
        -11    1    1    2    0    0 -0.26520568900E+02  0.77634329470E+02 -0.39817054067E+03  0.40653438864E+03  0.00000000000E+00 0.  1.
         11    1    1    2    0    0  0.58463695772E+02  0.38798719480E+02 -0.34513106616E+03  0.35219142122E+03  0.00000000000E+00 0. -1.
</event>
<event>
 6    1  0.9216756E-006  0.8830172E+02  0.7561462E-02  0.1307017E+00
         -2   -1    0    0    0  501 -0.00000000000E+00  0.00000000000E+00  0.47407919643E+02  0.47407919643E+02  0.00000000000E+00 0. -1.
          2   -1    0    0  501    0  0.00000000000E+00 -0.00000000000E+00 -0.40569252171E+03  0.40569252171E+03  0.00000000000E+00 0.  1.
          5    1    1    2  502    0  0.82614355216E+01 -0.42051258621E+02 -0.13981934289E+03  0.14629928474E+03  0.41800000000E+01 0. -1.
         -5    1    1    2    0  502 -0.34068165468E+01 -0.25809782501E+02  0.25217464422E+02  0.36484848686E+02  0.41800000000E+01 0. -1.
        -11    1    1    2    0    0 -0.84506510431E+01 -0.18711182855E+02 -0.10350085400E+03  0.10551752767E+03  0.00000000000E+00 0.  1.
         11    1    1    2    0    0  0.35960320683E+01  0.86572223977E+02 -0.14018186960E+03  0.16479878026E+03  0.00000000000E+00 0. -1.
</event>
<event>
 6    1  0.9216756E-006  0.1047784E+03  0.7561462E-02  0.1270557E+00
          2   -1    0    0  501    0  0.00000000000E+00  0.00000000000E+00  0.63506916916E+03  0.63506916916E+03  0.00000000000E+00 0. -1.
         -2   -1    0    0    0  501 -0.00000000000E+00 -0.00000000000E+00 -0.21904038227E+02  0.21904038227E+02  0.00000000000E+00 0.  1.
          5    1    1    2  502    0 -0.35284743535E+02  0.33415470085E+02  0.21842703093E+03  0.22380671797E+03  0.41800000000E+01 0. -1.
         -5    1    1    2    0  502  0.66589475637E+02 -0.19265693982E+01  0.90707422191E+02  0.11261961985E+03  0.41800000000E+01 0. -1.
        -11    1    1    2    0    0  0.22536297884E+02  0.11345680363E+02  0.36922316803E+02  0.44719868775E+02  0.00000000000E+00 0.  1.
         11    1    1    2    0    0 -0.53841029986E+02 -0.42834581049E+02  0.26710836101E+03  0.27582700079E+03  0.00000000000E+00 0. -1.
</event>
<event>
 6    1  0.9216756E-006  0.1091898E+03  0.7561462E-02  0.1262078E+00
          1   -1    0    0  501    0  0.00000000000E+00  0.00000000000E+00  0.37901575007E+03  0.37901575007E+03  0.00000000000E+00 0. -1.
         -1   -1    0    0    0  501 -0.00000000000E+00 -0.00000000000E+00 -0.37886679077E+02  0.37886679077E+02  0.00000000000E+00 0.  1.
          5    1    1    2  502    0  0.85549183779E+02 -0.83389152780E+01  0.86614013253E+02  0.12209692889E+03  0.41800000000E+01 0. -1.
         -5    1    1    2    0  502 -0.35214164546E+02  0.23374889166E+02  0.99690343247E+02  0.10836078518E+03  0.41800000000E+01 0. -1.
        -11    1    1    2    0    0  0.18919881703E+02 -0.68158889799E+01  0.86519832950E+02  0.88826233512E+02  0.00000000000E+00 0. -1.
         11    1    1    2    0    0 -0.69254900936E+02 -0.82200849084E+01  0.68304881539E+02  0.97618481558E+02  0.00000000000E+00 0.  1.
</event>
<event>
 6    1  0.9216756E-006  0.1666577E+03  0.7561462E-02  0.1181379E+00
         -2   -1    0    0    0  501 -0.00000000000E+00  0.00000000000E+00  0.15777848667E+03  0.15777848667E+03  0.00000000000E+00 0. -1.
          2   -1    0    0  501    0  0.00000000000E+00 -0.00000000000E+00 -0.24385374841E+03  0.24385374841E+03  0.00000000000E+00 0.  1.
          5    1    1    2  502    0 -0.11566125226E+00 -0.10252660719E+03  0.47366154450E+02  0.11301656315E+03  0.41800000000E+01 0. -1.
         -5    1    1    2    0  502  0.58076729531E+02 -0.43970947842E+02 -0.49488879001E+02  0.88164461729E+02  0.41800000000E+01 0. -1.
        -11    1    1    2    0    0 -0.35492609466E+02  0.79185992126E+02  0.46900192370E+01  0.86903066437E+02  0.00000000000E+00 0. -1.
         11    1    1    2    0    0 -0.22468458812E+02  0.67311562908E+02 -0.88642556425E+02  0.11354814376E+03  0.00000000000E+00 0.  1.
</event>
<event>
 6    1  0.9216756E-006  0.9145180E+02  0.7561462E-02  0.1299374E+00
          1   -1    0    0  501    0  0.00000000000E+00  0.00000000000E+00  0.13236092934E+03  0.13236092934E+03  0.00000000000E+00 0. -1.
         -1   -1    0    0    0  501 -0.00000000000E+00 -0.00000000000E+00 -0.12300782063E+03  0.12300782063E+03  0.00000000000E+00 0.  1.
          5    1    1    2  502    0 -0.14060421996E+02  0.47466104769E+02  0.63701791542E+01  0.50087704590E+02  0.41800000000E+01 0. -1.
         -5    1    1    2    0  502  0.60609926637E+02 -0.45646127649E+02 -0.47170831084E+02  0.89440996649E+02  0.41800000000E+01 0. -1.
        -11    1    1    2    0    0 -0.11800652247E+02  0.14621601223E+02  0.70069610893E+02  0.72545137580E+02  0.00000000000E+00 0. -1.
         11    1    1    2    0    0 -0.34748852394E+02 -0.16441578343E+02 -0.19915850252E+02  0.43294911160E+02  0.00000000000E+00 0.  1.
</event>
<event>
 6    1  0.9216756E-006  0.1225271E+03  0.7561462E-02  0.1238985E+00
         -1   -1    0    0    0  501 -0.00000000000E+00  0.00000000000E+00  0.40810889613E+03  0.40810889613E+03  0.00000000000E+00 0.  1.
          1   -1    0    0  501    0  0.00000000000E+00 -0.00000000000E+00 -0.46553261282E+02  0.46553261282E+02  0.00000000000E+00 0. -1.
          5    1    1    2  502    0 -0.46910383617E+02  0.87950166183E+02  0.96897868993E+02  0.13907726356E+03  0.41800000000E+01 0. -1.
         -5    1    1    2    0  502 -0.24149552357E+02 -0.40859551185E+02  0.86215291906E+02  0.98505090024E+02  0.41800000000E+01 0. -1.
        -11    1    1    2    0    0  0.38887829717E+02  0.20100595235E+01  0.14366644808E+03  0.14885009890E+03  0.00000000000E+00 0.  1.
         11    1    1    2    0    0  0.32172106258E+02 -0.49100674521E+02  0.34776025867E+02  0.68229704928E+02  0.00000000000E+00 0. -1.
</event>
<event>
 6    1  0.9216756E-006  0.1589767E+03  0.7561462E-02  0.1189857E+00
         -1   -1    0    0    0  501 -0.00000000000E+00  0.00000000000E+00  0.89306366695E+02  0.89306366695E+02  0.00000000000E+00 0.  1.
          1   -1    0    0  501    0  0.00000000000E+00 -0.00000000000E+00 -0.28846075010E+03  0.28846075010E+03  0.00000000000E+00 0. -1.
          5    1    1    2  502    0 -0.88349138281E+02 -0.20085048916E+02 -0.56921088137E+02  0.10708156751E+03  0.41800000000E+01 0. -1.
         -5    1    1    2    0  502  0.53517069219E+02  0.77703094178E+02 -0.62559591460E+02  0.11328293087E+03  0.41800000000E+01 0.  1.
        -11    1    1    2    0    0  0.30730383493E+02  0.31261988573E+02 -0.11520962221E+02  0.45325500214E+02  0.00000000000E+00 0.  1.
         11    1    1    2    0    0  0.41016855695E+01 -0.88880033835E+02 -0.68152741584E+02  0.11207711820E+03  0.00000000000E+00 0. -1.
</event>
<event>
 6    1  0.9216756E-006  0.1460205E+03  0.7561462E-02  0.1205450E+00
         -2   -1    0    0    0  501 -0.00000000000E+00  0.00000000000E+00  0.54171961164E+02  0.54171961164E+02  0.00000000000E+00 0. -1.
          2   -1    0    0  501    0  0.00000000000E+00 -0.00000000000E+00 -0.59218043425E+03  0.59218043425E+03  0.00000000000E+00 0.  1.
          5    1    1    2  502    0  0.49184612275E+02  0.11465912327E+03 -0.67050270946E+02  0.14170057116E+03  0.41800000000E+01 0. -1.
         -5    1    1    2    0  502  0.16296879706E+02 -0.47387521428E+01 -0.10529647044E+03  0.10673735591E+03  0.41800000000E+01 0. -1.
        -11    1    1    2    0    0 -0.37588005918E+02 -0.11534309914E+03 -0.23807155809E+03  0.26719834483E+03  0.00000000000E+00 0. -1.
         11    1    1    2    0    0 -0.27893486063E+02  0.54227280073E+01 -0.12759017360E+03  0.13071612350E+03  0.00000000000E+00 0.  1.
</event>
<event>
 6    1  0.9216756E-006  0.1337695E+03  0.7561462E-02  0.1221967E+00
         -1   -1    0    0    0  501 -0.00000000000E+00  0.00000000000E+00  0.29032201678E+02  0.29032201678E+02  0.00000000000E+00 0.  1.
          1   -1    0    0  501    0  0.00000000000E+00 -0.00000000000E+00 -0.73856775415E+03  0.73856775415E+03  0.00000000000E+00 0. -1.
          5    1    1    2  502    0  0.59680449015E+02  0.88215601575E+02 -0.21638816603E+03  0.24121579375E+03  0.41800000000E+01 0. -1.
         -5    1    1    2    0  502 -0.50419876122E+02  0.80497183881E+01 -0.11996963276E+03  0.13044978750E+03  0.41800000000E+01 0. -1.
        -11    1    1    2    0    0 -0.30828749096E+02 -0.51307718296E+02 -0.87985954177E+02  0.10641626690E+03  0.00000000000E+00 0.  1.
         11    1    1    2    0    0  0.21568176202E+02 -0.44957601667E+02 -0.28519179950E+03  0.28951810768E+03  0.00000000000E+00 0. -1.
</event>
<event>
 6    1  0.9216756E-006  0.9439353E+02  0.7561462E-02  0.1292548E+00
         -4   -1    0    0    0  501 -0.00000000000E+00  0.00000000000E+00  0.93724421090E+02  0.93724421090E+02  0.00000000000E+00 0.  1.
          4   -1    0    0  501    0  0.00000000000E+00 -0.00000000000E+00 -0.14536362246E+03  0.14536362246E+03  0.00000000000E+00 0. -1.
          5    1    1    2  502    0  0.41395722081E+02 -0.38983408034E+02  0.38136539002E+02  0.68594314018E+02  0.41800000000E+01 0. -1.
         -5    1    1    2    0  502 -0.20830038638E+02  0.48530620404E+02 -0.26212333964E+02  0.59107279402E+02  0.41800000000E+01 0. -1.
        -11    1    1    2    0    0  0.13957549507E+02  0.25832230712E+02 -0.53370561144E+02  0.60914153762E+02  0.00000000000E+00 0. -1.
         11    1    1    2    0    0 -0.34523232950E+02 -0.35379443082E+02 -0.10192845266E+02  0.50472296369E+02  0.00000000000E+00 0.  1.
</event>
<event>
 6    1  0.9216756E-006  0.1595881E+03  0.7561462E-02  0.1189163E+00
          1   -1    0    0  501    0  0.00000000000E+00  0.00000000000E+00  0.63644920686E+02  0.63644920686E+02  0.00000000000E+00 0. -1.
         -1   -1    0    0    0  501 -0.00000000000E+00 -0.00000000000E+00 -0.52117534079E+03  0.52117534079E+03  0.00000000000E+00 0.  1.
          5    1    1    2  502    0  0.56185825233E+02 -0.18795081662E+02 -0.22124277024E+03  0.22907627078E+03  0.41800000000E+01 0.  1.
         -5    1    1    2    0  502  0.72632779421E+02  0.67932289722E+02 -0.93305029101E+02  0.13643173197E+03  0.41800000000E+01 0.  1.
        -11    1    1    2    0    0 -0.11122223006E+03 -0.34382378083E+01 -0.12447533381E+03  0.16696201564E+03  0.00000000000E+00 0.  1.
         11    1    1    2    0    0 -0.17596374592E+02 -0.45698970252E+02 -0.18507286957E+02  0.52350243088E+02  0.00000000000E+00 0. -1.
</event>
<event>
 6    1  0.9216756E-006  0.1069109E+03  0.7561462E-02  0.1266400E+00
          1   -1    0    0  501    0  0.00000000000E+00  0.00000000000E+00  0.29664628311E+02  0.29664628311E+02  0.00000000000E+00 0. -1.
         -1   -1    0    0    0  501 -0.00000000000E+00 -0.00000000000E+00 -0.42165929195E+03  0.42165929195E+03  0.00000000000E+00 0.  1.
          5    1    1    2  502    0 -0.74018637203E+02  0.16876627660E+02 -0.16789691665E+03  0.18431067857E+03  0.41800000000E+01 0. -1.
         -5    1    1    2    0  502  0.50633434716E+02 -0.23823990834E+01 -0.81889437564E+02  0.96399029669E+02  0.41800000000E+01 0. -1.
        -11    1    1    2    0    0 -0.12997476997E+02 -0.40285343071E+02 -0.36537488006E+02  0.55918076723E+02  0.00000000000E+00 0. -1.
         11    1    1    2    0    0  0.36382679484E+02  0.25791114493E+02 -0.10567082142E+03  0.11469613530E+03  0.00000000000E+00 0.  1.
</event>
<event>
 6    1  0.9216756E-006  0.8696222E+02  0.7561462E-02  0.1310379E+00
         -1   -1    0    0    0  501 -0.00000000000E+00  0.00000000000E+00  0.15753939496E+03  0.15753939496E+03  0.00000000000E+00 0.  1.
          1   -1    0    0  501    0  0.00000000000E+00 -0.00000000000E+00 -0.80840336019E+02  0.80840336019E+02  0.00000000000E+00 0. -1.
          5    1    1    2  502    0  0.39968506854E+02  0.80018575417E+00  0.82934843952E+02  0.92161719704E+02  0.41800000000E+01 0. -1.
         -5    1    1    2    0  502 -0.49479315964E+02  0.36819081152E+01 -0.13102718009E+02  0.51487015595E+02  0.41800000000E+01 0. -1.
        -11    1    1    2    0    0 -0.96326637220E+01 -0.41317337950E+02  0.25205535746E+02  0.49348046140E+02  0.00000000000E+00 0.  1.
         11    1    1    2    0    0  0.19143472832E+02  0.36835244080E+02 -0.18338602746E+02  0.45382949543E+02  0.00000000000E+00 0. -1.
</event>
<event>
 6    1  0.9216756E-006  0.1263407E+03  0.7561462E-02  0.1232989E+00
         -2   -1    0    0    0  501 -0.00000000000E+00  0.00000000000E+00  0.40841907856E+02  0.40841907856E+02  0.00000000000E+00 0.  1.
          2   -1    0    0  501    0  0.00000000000E+00 -0.00000000000E+00 -0.54619014296E+03  0.54619014296E+03  0.00000000000E+00 0. -1.
          5    1    1    2  502    0 -0.99228499393E+01  0.17693892392E+02 -0.33699225336E+01  0.20984888772E+02  0.41800000000E+01 0. -1.
         -5    1    1    2    0  502  0.19800321364E+02 -0.11976380820E+03 -0.28189167889E+03  0.30694594557E+03  0.41800000000E+01 0. -1.
        -11    1    1    2    0    0  0.16232372468E+02  0.40231910293E+02 -0.16973319352E+03  0.17518976427E+03  0.00000000000E+00 0. -1.
         11    1    1    2    0    0 -0.26109843893E+02  0.61838005511E+02 -0.50353440156E+02  0.83911452193E+02  0.00000000000E+00 0.  1.
</event>
<event>
 6    1  0.3355072E-005  0.3380428E+03  0.7561462E-02  0.1067633E+00
          2   -1    0    0  501    0  0.00000000000E+00  0.00000000000E+00  0.74756847708E+03  0.74756847708E+03  0.00000000000E+00 0. -1.
         -2   -1    0    0    0  501 -0.00000000000E+00 -0.00000000000E+00 -0.19889197364E+03  0.19889197364E+03  0.00000000000E+00 0.  1.
          5    1    1    2  502    0  0.16929174818E+02 -0.88511950264E+02 -0.46456887214E+02  0.10147254343E+03  0.41800000000E+01 0. -1.
         -5    1    1    2    0  502 -0.50975414600E+02 -0.37960495557E+02  0.39050666220E+02  0.74712241626E+02  0.41800000000E+01 0.  1.
        -11    1    1    2    0    0 -0.21421958845E+03  0.16570845531E+03  0.21080951290E+03  0.34320544134E+03  0.00000000000E+00 0.  1.
         11    1    1    2    0    0  0.24826582823E+03 -0.39236009490E+02  0.34527321153E+03  0.42707022433E+03  0.00000000000E+00 0. -1.
</event>
<event>
 6    1  0.9216756E-006  0.1150016E+03  0.7561462E-02  0.1251578E+00
          1   -1    0    0  501    0  0.00000000000E+00  0.00000000000E+00  0.87716873194E+03  0.87716873194E+03  0.00000000000E+00 0. -1.
         -1   -1    0    0    0  501 -0.00000000000E+00 -0.00000000000E+00 -0.23897679917E+02  0.23897679917E+02  0.00000000000E+00 0.  1.
          5    1    1    2  502    0 -0.21811775959E+02 -0.69934683706E+01  0.15134359520E+03  0.15312419266E+03  0.41800000000E+01 0.  1.
         -5    1    1    2    0  502  0.10051224728E+03  0.24519748753E+02  0.14120740512E+03  0.17510263731E+03  0.41800000000E+01 0.  1.
        -11    1    1    2    0    0 -0.88495697462E+02 -0.23677917397E+02  0.54817122902E+03  0.55577318086E+03  0.00000000000E+00 0. -1.
         11    1    1    2    0    0  0.97952261380E+01  0.61516370152E+01  0.12548822681E+02  0.17066401019E+02  0.00000000000E+00 0.  1.
</event>
<event>
 6    1  0.9216756E-006  0.1174133E+03  0.7561462E-02  0.1247426E+00
          2   -1    0    0  501    0  0.00000000000E+00  0.00000000000E+00  0.75676421602E+03  0.75676421602E+03  0.00000000000E+00 0. -1.
         -2   -1    0    0    0  501 -0.00000000000E+00 -0.00000000000E+00 -0.18680241853E+02  0.18680241853E+02  0.00000000000E+00 0.  1.
          5    1    1    2  502    0 -0.35030509980E+02 -0.82708889983E+02  0.24416382024E+03  0.26019481284E+03  0.41800000000E+01 0. -1.
         -5    1    1    2    0  502  0.13071411349E+02  0.41414120670E+02  0.11835391695E+03  0.12613926131E+03  0.41800000000E+01 0. -1.
        -11    1    1    2    0    0 -0.19815798547E+02 -0.19312150601E+02  0.12043065611E+03  0.12356847480E+03  0.00000000000E+00 0.  1.
         11    1    1    2    0    0  0.41774897178E+02  0.60606919915E+02  0.25513558086E+03  0.26554190893E+03  0.00000000000E+00 0. -1.
</event>
<event>
 6    1  0.9216756E-006  0.2381173E+03  0.7561462E-02  0.1121053E+00
          2   -1    0    0  501    0  0.00000000000E+00  0.00000000000E+00  0.63616173199E+03  0.63616173199E+03  0.00000000000E+00 0.  1.
         -2   -1    0    0    0  501 -0.00000000000E+00 -0.00000000000E+00 -0.14962065429E+03  0.14962065429E+03  0.00000000000E+00 0. -1.
          5    1    1    2  502    0 -0.87303070167E+02  0.98160818945E+01 -0.39964138845E+02  0.96606347193E+02  0.41800000000E+01 0.  1.
         -5    1    1    2    0  502 -0.11945664311E+03  0.96551684018E+02  0.70910794161E+02  0.16922745167E+03  0.41800000000E+01 0.  1.
        -11    1    1    2    0    0  0.17254299653E+03 -0.10117720752E+03  0.30009957280E+03  0.36064895198E+03  0.00000000000E+00 0. -1.
         11    1    1    2    0    0  0.34216716744E+02 -0.51905583898E+01  0.15549484959E+03  0.15929963544E+03  0.00000000000E+00 0.  1.
</event>
<event>
 6    1  0.9216756E-006  0.9521557E+02  0.7561462E-02  0.1290691E+00
          2   -1    0    0  501    0  0.00000000000E+00  0.00000000000E+00  0.74236824850E+02  0.74236824850E+02  0.00000000000E+00 0. -1.
         -2   -1    0    0    0  501 -0.00000000000E+00 -0.00000000000E+00 -0.18090931957E+03  0.18090931957E+03  0.00000000000E+00 0.  1.
          5    1    1    2  502    0 -0.61505318925E+02 -0.95074761064E+01 -0.41561540063E+02  0.74954188478E+02  0.41800000000E+01 0. -1.
         -5    1    1    2    0  502  0.59612333094E+02  0.13486504972E+02 -0.66364286502E+02  0.90317257466E+02  0.41800000000E+01 0. -1.
        -11    1    1    2    0    0 -0.20600087485E+02 -0.27426721512E+02 -0.29421232101E+02  0.45190679964E+02  0.00000000000E+00 0.  1.
         11    1    1    2    0    0  0.22493073316E+02  0.23447692646E+02  0.30674563943E+02  0.44684018516E+02  0.00000000000E+00 0. -1.
</event>
<event>
 6    1  0.9216756E-006  0.4632757E+02  0.7561462E-02  0.1466220E+00
         -1   -1    0    0    0  501 -0.00000000000E+00  0.00000000000E+00  0.60357334144E+02  0.60357334144E+02  0.00000000000E+00 0.  1.
          1   -1    0    0  501    0  0.00000000000E+00 -0.00000000000E+00 -0.20541456436E+03  0.20541456436E+03  0.00000000000E+00 0. -1.
          5    1    1    2  502    0  0.11774802142E+02  0.89889613910E+01  0.35228496289E+02  0.38444333043E+02  0.41800000000E+01 0. -1.
         -5    1    1    2    0  502 -0.33859821270E+02 -0.40455190598E+01 -0.97019799717E+02  0.10292311528E+03  0.41800000000E+01 0. -1.
        -11    1    1    2    0    0  0.10637691403E+02  0.15898049662E+02 -0.95684987266E+02  0.97578303170E+02  0.00000000000E+00 0. -1.
         11    1    1    2    0    0  0.11447327725E+02 -0.20841491994E+02  0.12419060478E+02  0.26826147016E+02  0.00000000000E+00 0.  1.
</event>
<event>
 6    1  0.9216756E-006  0.1330905E+03  0.7561462E-02  0.1222941E+00
          1   -1    0    0  501    0  0.00000000000E+00  0.00000000000E+00  0.96813387695E+02  0.96813387695E+02  0.00000000000E+00 0. -1.
         -1   -1    0    0    0  501 -0.00000000000E+00 -0.00000000000E+00 -0.28792166852E+03  0.28792166852E+03  0.00000000000E+00 0.  1.
          5    1    1    2  502    0  0.53102748186E+02  0.50401003295E+02 -0.15429920491E+03  0.17083875448E+03  0.41800000000E+01 0. -1.
         -5    1    1    2    0  502  0.56751968288E+02  0.30552326092E+00  0.67714877850E+01  0.57307981084E+02  0.41800000000E+01 0. -1.
        -11    1    1    2    0    0 -0.47955226653E+02 -0.56105877837E+02 -0.56714071810E+02  0.93080928404E+02  0.00000000000E+00 0. -1.
         11    1    1    2    0    0 -0.61899489822E+02  0.53993512808E+01  0.13133508107E+02  0.63507392244E+02  0.00000000000E+00 0.  1.
</event>
<event>
 6    1  0.9216756E-006  0.8300467E+02  0.7561462E-02  0.1320735E+00
          1   -1    0    0  501    0  0.00000000000E+00  0.00000000000E+00  0.10166310219E+03  0.10166310219E+03  0.00000000000E+00 0. -1.
         -1   -1    0    0    0  501 -0.00000000000E+00 -0.00000000000E+00 -0.10150861825E+04  0.10150861825E+04  0.00000000000E+00 0.  1.
          5    1    1    2  502    0 -0.36547882727E+02  0.70969437353E+01 -0.96837935392E+02  0.10383242496E+03  0.41800000000E+01 0. -1.
         -5    1    1    2    0  502  0.27253497333E+02  0.46201140651E+02 -0.88424471149E+03  0.88588006000E+03  0.41800000000E+01 0.  1.
        -11    1    1    2    0    0 -0.18224792339E+02 -0.40460358822E+02 -0.83784328626E+01  0.45159515376E+02  0.00000000000E+00 0.  1.
         11    1    1    2    0    0  0.27519177733E+02 -0.12837725564E+02  0.76037999412E+02  0.81877284368E+02  0.00000000000E+00 0. -1.
</event>
<event>
 6    1  0.9216756E-006  0.1094361E+03  0.7561462E-02  0.1261618E+00
         -4   -1    0    0    0  501 -0.00000000000E+00  0.00000000000E+00  0.15703967643E+03  0.15703967643E+03  0.00000000000E+00 0.  1.
          4   -1    0    0  501    0  0.00000000000E+00 -0.00000000000E+00 -0.11505899972E+03  0.11505899972E+03  0.00000000000E+00 0. -1.
          5    1    1    2  502    0  0.63751163335E+01 -0.49772450478E+02  0.48625619657E+02  0.69999015864E+02  0.41800000000E+01 0.  1.
         -5    1    1    2    0  502 -0.45576260195E+02  0.65265738094E+02  0.41833620939E+02  0.90024087350E+02  0.41800000000E+01 0.  1.
        -11    1    1    2    0    0  0.33393294006E+02  0.28821878030E+02  0.26194926009E+01  0.44189076470E+02  0.00000000000E+00 0. -1.
         11    1    1    2    0    0  0.58078498551E+01 -0.44315165646E+02 -0.51098056486E+02  0.67886496469E+02  0.00000000000E+00 0.  1.
</event>
<event>
 6    1  0.9216756E-006  0.8614388E+02  0.7561462E-02  0.1312468E+00
         -2   -1    0    0    0  501 -0.00000000000E+00  0.00000000000E+00  0.34317227279E+02  0.34317227279E+02  0.00000000000E+00 0.  1.
          2   -1    0    0  501    0  0.00000000000E+00 -0.00000000000E+00 -0.44277908108E+03  0.44277908108E+03  0.00000000000E+00 0. -1.
          5    1    1    2  502    0  0.24475139127E+02  0.28263416035E+01  0.91970358190E+01  0.26628528123E+02  0.41800000000E+01 0.  1.
         -5    1    1    2    0  502  0.31830977190E+02 -0.23168116365E+02 -0.23538570100E+03  0.23869200523E+03  0.41800000000E+01 0.  1.
        -11    1    1    2    0    0 -0.65721828313E+02 -0.18067770155E+02 -0.12000062374E+03  0.13800707494E+03  0.00000000000E+00 0.  1.
         11    1    1    2    0    0  0.94157119956E+01  0.38409544917E+02 -0.62272564886E+02  0.73768700074E+02  0.00000000000E+00 0. -1.
</event>
<event>
 6    1  0.9216756E-006  0.6232755E+02  0.7561462E-02  0.1388316E+00
         -2   -1    0    0    0  501 -0.00000000000E+00  0.00000000000E+00  0.12635702049E+03  0.12635702049E+03  0.00000000000E+00 0.  1.
          2   -1    0    0  501    0  0.00000000000E+00 -0.00000000000E+00 -0.13925128714E+03  0.13925128714E+03  0.00000000000E+00 0. -1.
          5    1    1    2  502    0 -0.43918222136E+02 -0.99749144284E+01  0.94705129943E+02  0.10495162310E+03  0.41800000000E+01 0.  1.
         -5    1    1    2    0  502  0.16555639404E+02  0.14722061826E+02 -0.30851673262E+02  0.38211600903E+02  0.41800000000E+01 0.  1.
        -11    1    1    2    0    0  0.32915897992E+01 -0.25125726383E+02 -0.85936645040E+02  0.89594886296E+02  0.00000000000E+00 0. -1.
         11    1    1    2    0    0  0.24070992932E+02  0.20378578985E+02  0.91889217140E+01  0.32850197328E+02  0.00000000000E+00 0.  1.
</event>
<event>
 6    1  0.9216756E-006  0.1189971E+03  0.7561462E-02  0.1244761E+00
         -2   -1    0    0    0  501 -0.00000000000E+00  0.00000000000E+00  0.71420152353E+02  0.71420152353E+02  0.00000000000E+00 0. -1.
          2   -1    0    0  501    0  0.00000000000E+00 -0.00000000000E+00 -0.25211472227E+03  0.25211472227E+03  0.00000000000E+00 0.  1.
          5    1    1    2  502    0 -0.76190452455E+01 -0.36850987902E+02 -0.33652975174E+01  0.38011087688E+02  0.41800000000E+01 0.  1.
         -5    1    1    2    0  502  0.18994567314E+02  0.99432900620E+02 -0.39128906753E+02  0.10861049239E+03  0.41800000000E+01 0.  1.
        -11    1    1    2    0    0 -0.15318366036E+02  0.14819431522E+02 -0.36292467041E+01  0.21620345054E+02  0.00000000000E+00 0. -1.
         11    1    1    2    0    0  0.39428439670E+01 -0.77401344239E+02 -0.13457111894E+03  0.15529294949E+03  0.00000000000E+00 0.  1.
</event>
<event>
 6    1  0.9216756E-006  0.1204020E+03  0.7561462E-02  0.1242435E+00
          3   -1    0    0  501    0  0.00000000000E+00  0.00000000000E+00  0.73981918202E+02  0.73981918202E+02  0.00000000000E+00 0. -1.
         -3   -1    0    0    0  501 -0.00000000000E+00 -0.00000000000E+00 -0.20283263537E+03  0.20283263537E+03  0.00000000000E+00 0.  1.
          5    1    1    2  502    0 -0.87081405963E+02  0.12546623220E+02 -0.52841626429E+02  0.10271464794E+03  0.41800000000E+01 0. -1.
         -5    1    1    2    0  502  0.35857617288E+02 -0.31562875112E+02 -0.38964766743E+02  0.61787614052E+02  0.41800000000E+01 0. -1.
        -11    1    1    2    0    0 -0.40458486032E+01  0.43951563275E+02 -0.24186342475E+02  0.50329792048E+02  0.00000000000E+00 0.  1.
         11    1    1    2    0    0  0.55269637279E+02 -0.24935311383E+02 -0.12857981518E+02  0.61982499525E+02  0.00000000000E+00 0. -1.
</event>
<event>
 6    1  0.9216756E-006  0.1151369E+03  0.7561462E-02  0.1251342E+00
          1   -1    0    0  501    0  0.00000000000E+00  0.00000000000E+00  0.24654958399E+02  0.24654958399E+02  0.00000000000E+00 0. -1.
         -1   -1    0    0    0  501 -0.00000000000E+00 -0.00000000000E+00 -0.82507787016E+03  0.82507787016E+03  0.00000000000E+00 0.  1.
          5    1    1    2  502    0 -0.69976426285E+02  0.79490909348E+02 -0.44698926023E+03  0.45938260314E+03  0.41800000000E+01 0. -1.
         -5    1    1    2    0  502  0.91667477433E+01 -0.37815298851E+02 -0.15304658801E+03  0.15797074601E+03  0.41800000000E+01 0. -1.
        -11    1    1    2    0    0  0.15949666612E+02 -0.36703268734E+02 -0.17715053500E+03  0.18161451994E+03  0.00000000000E+00 0.  1.
         11    1    1    2    0    0  0.44860011930E+02 -0.49723417635E+01 -0.23236528510E+02  0.50764959472E+02  0.00000000000E+00 0. -1.
</event>
<event>
 6    1  0.9216756E-006  0.7456065E+02  0.7561462E-02  0.1345237E+00
         -1   -1    0    0    0  501 -0.00000000000E+00  0.00000000000E+00  0.64097168473E+02  0.64097168473E+02  0.00000000000E+00 0.  1.
          1   -1    0    0  501    0  0.00000000000E+00 -0.00000000000E+00 -0.22405183828E+03  0.22405183828E+03  0.00000000000E+00 0. -1.
          5    1    1    2  502    0 -0.22264031097E+02 -0.36538582301E+02 -0.72538455189E+02  0.84321141824E+02  0.41800000000E+01 0. -1.
         -5    1    1    2    0  502  0.57065386442E+02  0.48248831259E+01  0.17791779780E+02  0.60114537799E+02  0.41800000000E+01 0. -1.
        -11    1    1    2    0    0 -0.25812664955E+02  0.15330672319E+02 -0.11754693420E+03  0.12132025769E+03  0.00000000000E+00 0. -1.
         11    1    1    2    0    0 -0.89886903900E+01  0.16383026856E+02  0.12338939797E+02  0.22393069446E+02  0.00000000000E+00 0.  1.
</event>
<event>
 6    1  0.9216756E-006  0.8957264E+02  0.7561462E-02  0.1303890E+00
          4   -1    0    0  501    0  0.00000000000E+00  0.00000000000E+00  0.37122255979E+03  0.37122255979E+03  0.00000000000E+00 0. -1.
         -4   -1    0    0    0  501 -0.00000000000E+00 -0.00000000000E+00 -0.71135903094E+02  0.71135903094E+02  0.00000000000E+00 0.  1.
          5    1    1    2  502    0  0.44696983839E+02 -0.42244472114E+02  0.42071361347E+02  0.74631679829E+02  0.41800000000E+01 0.  1.
         -5    1    1    2    0  502 -0.29232977444E+02  0.17743288372E+02 -0.41302764965E+02  0.53784589301E+02  0.41800000000E+01 0.  1.
        -11    1    1    2    0    0 -0.46140953230E+02  0.43453041691E+01  0.23805577384E+03  0.24252509291E+03  0.00000000000E+00 0. -1.
         11    1    1    2    0    0  0.30676946835E+02  0.20155879573E+02  0.61262286469E+02  0.71417100836E+02  0.00000000000E+00 0.  1.
</event>
<event>
 6    1  0.9216756E-006  0.1448210E+03  0.7561462E-02  0.1206985E+00
         -2   -1    0    0    0  501 -0.00000000000E+00  0.00000000000E+00  0.22176906575E+03  0.22176906575E+03  0.00000000000E+00 0. -1.
          2   -1    0    0  501    0  0.00000000000E+00 -0.00000000000E+00 -0.11473854344E+03  0.11473854344E+03  0.00000000000E+00 0.  1.
          5    1    1    2  502    0  0.56802228594E+02  0.27697739068E+02  0.45734127405E+02  0.78120040529E+02  0.41800000000E+01 0. -1.
         -5    1    1    2    0  502 -0.49009267979E+02  0.88826505740E+02  0.10793519675E+02  0.10210792788E+03  0.41800000000E+01 0. -1.
        -11    1    1    2    0    0  0.17252857436E+02 -0.29084545228E+02  0.55714769633E+02  0.65174438364E+02  0.00000000000E+00 0.  1.
         11    1    1    2    0    0 -0.25045818051E+02 -0.87439699581E+02 -0.52118944055E+01  0.91105202420E+02  0.00000000000E+00 0. -1.
</event>
<event>
 6    1  0.9216756E-006  0.1216743E+03  0.7561462E-02  0.1240360E+00
          1   -1    0    0  501    0  0.00000000000E+00  0.00000000000E+00  0.11969361256E+03  0.11969361256E+03  0.00000000000E+00 0. -1.
         -1   -1    0    0    0  501 -0.00000000000E+00 -0.00000000000E+00 -0.15948884729E+03  0.15948884729E+03  0.00000000000E+00 0.  1.
          5    1    1    2  502    0 -0.24605294104E+02  0.21159636458E+02 -0.83454325813E+01  0.33767874644E+02  0.41800000000E+01 0. -1.
         -5    1    1    2    0  502  0.54937487339E+02 -0.91583145340E+02 -0.60853980230E+02  0.12298893989E+03  0.41800000000E+01 0.  1.
        -11    1    1    2    0    0 -0.52828998405E+02  0.41937076210E+02 -0.10743953330E+02  0.68301200331E+02  0.00000000000E+00 0. -1.
         11    1    1    2    0    0  0.22496805170E+02  0.28486432673E+02  0.40148131406E+02  0.54124444982E+02  0.00000000000E+00 0.  1.
</event>
<event>
 6    1  0.9216756E-006  0.1792519E+03  0.7561462E-02  0.1168529E+00
          2   -1    0    0  501    0  0.00000000000E+00  0.00000000000E+00  0.71865596663E+03  0.71865596663E+03  0.00000000000E+00 0. -1.
         -2   -1    0    0    0  501 -0.00000000000E+00 -0.00000000000E+00 -0.53902573307E+02  0.53902573307E+02  0.00000000000E+00 0.  1.
          5    1    1    2  502    0  0.40001527012E+02 -0.15638553565E+03  0.28767046249E+03  0.32989138411E+03  0.41800000000E+01 0.  1.
         -5    1    1    2    0  502 -0.27446005623E+02 -0.54830798188E+01  0.71819782563E+01  0.29195900408E+02  0.41800000000E+01 0.  1.
        -11    1    1    2    0    0  0.14700067148E+02  0.10066100021E+03  0.13400216550E+03  0.16824181792E+03  0.00000000000E+00 0.  1.
         11    1    1    2    0    0 -0.27255588537E+02  0.61207615257E+02  0.23589878708E+03  0.24522943751E+03  0.00000000000E+00 0. -1.
</event>
<event>
 6    1  0.9216756E-006  0.1056323E+03  0.7561462E-02  0.1268879E+00
          1   -1    0    0  501    0  0.00000000000E+00  0.00000000000E+00  0.58016736862E+02  0.58016736862E+02  0.00000000000E+00 0. -1.
         -1   -1    0    0    0  501 -0.00000000000E+00 -0.00000000000E+00 -0.39882992033E+03  0.39882992033E+03  0.00000000000E+00 0.  1.
          5    1    1    2  502    0  0.97186357585E+01  0.28772952620E+02 -0.18992875891E+03  0.19238695523E+03  0.41800000000E+01 0. -1.
         -5    1    1    2    0  502 -0.81633575713E+02 -0.31706942003E+02 -0.11169397477E+03  0.14199432121E+03  0.41800000000E+01 0. -1.
        -11    1    1    2    0    0  0.28013613033E+01 -0.19938057011E+02  0.20194500139E+02  0.28516514135E+02  0.00000000000E+00 0. -1.
         11    1    1    2    0    0  0.69113578651E+02  0.22872046395E+02 -0.59384949921E+02  0.93948866610E+02  0.00000000000E+00 0.  1.
</event>
<event>
 6    1  0.9216756E-006  0.9252661E+02  0.7561462E-02  0.1296846E+00
          2   -1    0    0  501    0  0.00000000000E+00  0.00000000000E+00  0.64608727996E+03  0.64608727996E+03  0.00000000000E+00 0.  1.
         -2   -1    0    0    0  501 -0.00000000000E+00 -0.00000000000E+00 -0.19939955468E+02  0.19939955468E+02  0.00000000000E+00 0. -1.
          5    1    1    2  502    0  0.39156189843E+02  0.23637561619E+02  0.17485511534E+03  0.18078640791E+03  0.41800000000E+01 0.  1.
         -5    1    1    2    0  502 -0.50343767220E+02 -0.33472482093E+02  0.57529452981E+02  0.83558436532E+02  0.41800000000E+01 0.  1.
        -11    1    1    2    0    0  0.40896621938E+02  0.21980097654E+02  0.26081362861E+03  0.26491396198E+03  0.00000000000E+00 0.  1.
         11    1    1    2    0    0 -0.29709044561E+02 -0.12145177181E+02  0.13294912755E+03  0.13676842901E+03  0.00000000000E+00 0. -1.
</event>
<event>
 6    1  0.9216756E-006  0.1068538E+03  0.7561462E-02  0.1266510E+00
         -1   -1    0    0    0  501 -0.00000000000E+00  0.00000000000E+00  0.64278147012E+02  0.64278147012E+02  0.00000000000E+00 0.  1.
          1   -1    0    0  501    0  0.00000000000E+00 -0.00000000000E+00 -0.31997904306E+03  0.31997904306E+03  0.00000000000E+00 0. -1.
          5    1    1    2  502    0  0.13979232615E+02 -0.17478279165E+02 -0.92430975252E+02  0.95193837895E+02  0.41800000000E+01 0. -1.
         -5    1    1    2    0  502  0.66235828366E+02  0.19905232357E+02  0.17189611625E+02  0.71388783308E+02  0.41800000000E+01 0. -1.
        -11    1    1    2    0    0  0.20658555838E+02  0.13923661668E+01 -0.33600385523E+02  0.39467714909E+02  0.00000000000E+00 0.  1.
         11    1    1    2    0    0 -0.10087361682E+03 -0.38193193586E+01 -0.14685914690E+03  0.17820685396E+03  0.00000000000E+00 0. -1.
</event>
<event>
 6    1  0.9216756E-006  0.8598547E+02  0.7561462E-02  0.1312875E+00
          1   -1    0    0  501    0  0.00000000000E+00  0.00000000000E+00  0.91673059809E+02  0.91673059809E+02  0.00000000000E+00 0. -1.
         -1   -1    0    0    0  501 -0.00000000000E+00 -0.00000000000E+00 -0.13922476919E+03  0.13922476919E+03  0.00000000000E+00 0.  1.
          5    1    1    2  502    0  0.70029990457E+02  0.20945591943E+02 -0.41995509400E+02  0.84403865996E+02  0.41800000000E+01 0. -1.
         -5    1    1    2    0  502 -0.51195908792E+02 -0.19817920254E+01 -0.45420323142E+01  0.51604757864E+02  0.41800000000E+01 0. -1.
        -11    1    1    2    0    0 -0.67010390471E+01  0.12194577013E+02 -0.40689524461E+02  0.43002895643E+02  0.00000000000E+00 0.  1.
         11    1    1    2    0    0 -0.12133042619E+02 -0.31158376931E+02  0.39675356796E+02  0.51886309495E+02  0.00000000000E+00 0. -1.
</event>
<event>
 6    1  0.9216756E-006  0.1414945E+03  0.7561462E-02  0.1211332E+00
          2   -1    0    0  501    0  0.00000000000E+00  0.00000000000E+00  0.84836972780E+03  0.84836972780E+03  0.00000000000E+00 0. -1.
         -2   -1    0    0    0  501 -0.00000000000E+00 -0.00000000000E+00 -0.33640582664E+02  0.33640582664E+02  0.00000000000E+00 0.  1.
          5    1    1    2  502    0  0.30418487746E+02  0.13435080901E+02  0.23201916340E+02  0.40762570055E+02  0.41800000000E+01 0. -1.
         -5    1    1    2    0  502 -0.10823039742E+03  0.48509751019E+02  0.18315272928E+03  0.21824163102E+03  0.41800000000E+01 0.  1.
        -11    1    1    2    0    0  0.64475828970E+02  0.29515382846E+01  0.23042978499E+03  0.23929841184E+03  0.00000000000E+00 0. -1.
         11    1    1    2    0    0  0.13336080707E+02 -0.64896370205E+02  0.37794471453E+03  0.38370769755E+03  0.00000000000E+00 0.  1.
</event>
<event>
 6    1  0.9216756E-006  0.1464831E+03  0.7561462E-02  0.1204862E+00
          1   -1    0    0  501    0  0.00000000000E+00  0.00000000000E+00  0.71745110934E+02  0.71745110934E+02  0.00000000000E+00 0. -1.
         -1   -1    0    0    0  501 -0.00000000000E+00 -0.00000000000E+00 -0.40231278418E+03  0.40231278418E+03  0.00000000000E+00 0.  1.
          5    1    1    2  502    0 -0.27936281493E+02  0.73049945379E+02 -0.15027576702E+03  0.16946093620E+03  0.41800000000E+01 0. -1.
         -5    1    1    2    0  502  0.39462033076E+02  0.61119140954E+02 -0.84583027083E+01  0.73360866476E+02  0.41800000000E+01 0. -1.
        -11    1    1    2    0    0 -0.27740576143E+02 -0.10259380235E+03 -0.80733121803E+02  0.13346484481E+03  0.00000000000E+00 0. -1.
         11    1    1    2    0    0  0.16214824560E+02 -0.31575283987E+02 -0.91100481720E+02  0.97771247634E+02  0.00000000000E+00 0.  1.
</event>
<event>
 6    1  0.9216756E-006  0.9514228E+02  0.7561462E-02  0.1290856E+00
          2   -1    0    0  501    0  0.00000000000E+00  0.00000000000E+00  0.20875551989E+03  0.20875551989E+03  0.00000000000E+00 0. -1.
         -2   -1    0    0    0  501 -0.00000000000E+00 -0.00000000000E+00 -0.57202676678E+02  0.57202676678E+02  0.00000000000E+00 0.  1.
          5    1    1    2  502    0 -0.61029823983E+02  0.24452350986E+01 -0.93450045211E+00  0.61228786377E+02  0.41800000000E+01 0.  1.
         -5    1    1    2    0  502  0.55845281463E+02  0.22352260656E+02  0.39559536456E+02  0.72116214145E+02  0.41800000000E+01 0.  1.
        -11    1    1    2    0    0 -0.27346362247E+02 -0.23746244715E+02  0.49657595775E+02  0.61462057274E+02  0.00000000000E+00 0.  1.
         11    1    1    2    0    0  0.32530904767E+02 -0.10512510402E+01  0.63270211437E+02  0.71151138775E+02  0.00000000000E+00 0. -1.
</event>
<event>
 6    1  0.9216756E-006  0.9576707E+02  0.7561462E-02  0.1289458E+00
          1   -1    0    0  501    0  0.00000000000E+00  0.00000000000E+00  0.26266807779E+02  0.26266807779E+02  0.00000000000E+00 0. -1.
         -1   -1    0    0    0  501 -0.00000000000E+00 -0.00000000000E+00 -0.59364640587E+03  0.59364640587E+03  0.00000000000E+00 0.  1.
          5    1    1    2  502    0 -0.16427022274E+02 -0.56430902383E+02 -0.37001528734E+03  0.37467729991E+03  0.41800000000E+01 0. -1.
         -5    1    1    2    0  502 -0.25493350236E+02  0.23039718818E+02 -0.23849426012E+02  0.42035783216E+02  0.41800000000E+01 0. -1.
        -11    1    1    2    0    0  0.50760883447E+02  0.54882911949E+02 -0.92581113015E+02  0.11899606632E+03  0.00000000000E+00 0. -1.
         11    1    1    2    0    0 -0.88405109371E+01 -0.21491728384E+02 -0.80933771724E+02  0.84204064201E+02  0.00000000000E+00 0.  1.
</event>
<event>
 6    1  0.9216756E-006  0.1920843E+03  0.7561462E-02  0.1156595E+00
         -1   -1    0    0    0  501 -0.00000000000E+00  0.00000000000E+00  0.76365614448E+02  0.76365614448E+02  0.00000000000E+00 0.  1.
          1   -1    0    0  501    0  0.00000000000E+00 -0.00000000000E+00 -0.58273533628E+03  0.58273533628E+03  0.00000000000E+00 0. -1.
          5    1    1    2  502    0 -0.73597651523E+02 -0.29188954246E+01 -0.49438861376E+02  0.88807700535E+02  0.41800000000E+01 0. -1.
         -5    1    1    2    0  502 -0.42131259394E+02  0.11835451764E+03 -0.80175173297E+02  0.14909180285E+03  0.41800000000E+01 0.  1.
        -11    1    1    2    0    0  0.41495333053E+01  0.13535050182E+02 -0.57888019306E+02  0.59593950945E+02  0.00000000000E+00 0.  1.
         11    1    1    2    0    0  0.11157937761E+03 -0.12897067240E+03 -0.31886766785E+03  0.36160749639E+03  0.00000000000E+00 0. -1.
</event>
<event>
 6    1  0.9216756E-006  0.1051070E+03  0.7561462E-02  0.1269909E+00
         -2   -1    0    0    0  501 -0.00000000000E+00  0.00000000000E+00  0.27369811772E+02  0.27369811772E+02  0.00000000000E+00 0.  1.
          2   -1    0    0  501    0  0.00000000000E+00 -0.00000000000E+00 -0.50389804528E+03  0.50389804528E+03  0.00000000000E+00 0. -1.
          5    1    1    2  502    0  0.39997917701E+02  0.10055948869E+02 -0.12061026926E+03  0.12753534796E+03  0.41800000000E+01 0.  1.
         -5    1    1    2    0  502 -0.85309405393E+02 -0.15182849807E+02 -0.13091710691E+03  0.15705086710E+03  0.41800000000E+01 0.  1.
        -11    1    1    2    0    0  0.10209216786E+02  0.34662247257E+02 -0.17554366710E+03  0.17922410148E+03  0.00000000000E+00 0. -1.
         11    1    1    2    0    0  0.35102270906E+02 -0.29535346318E+02 -0.49457190233E+02  0.67457540503E+02  0.00000000000E+00 0.  1.
</event>
<event>
 6    1  0.9216756E-006  0.1668135E+03  0.7561462E-02  0.1181212E+00
          2   -1    0    0  501    0  0.00000000000E+00  0.00000000000E+00  0.61880633152E+03  0.61880633152E+03  0.00000000000E+00 0. -1.
         -2   -1    0    0    0  501 -0.00000000000E+00 -0.00000000000E+00 -0.57785849667E+02  0.57785849667E+02  0.00000000000E+00 0.  1.
          5    1    1    2  502    0 -0.31601447701E+01 -0.23444385227E+02  0.13216819821E+02  0.27418651313E+02  0.41800000000E+01 0.  1.
         -5    1    1    2    0  502  0.31865050730E+02  0.15621970982E+03  0.15404194446E+03  0.22173491436E+03  0.41800000000E+01 0.  1.
        -11    1    1    2    0    0 -0.47117397994E+02 -0.11600196020E+03  0.37742758899E+03  0.39765322694E+03  0.00000000000E+00 0. -1.
         11    1    1    2    0    0  0.18412492034E+02 -0.16773364393E+02  0.16334128582E+02  0.29785388574E+02  0.00000000000E+00 0.  1.
</event>
<event>
 6    1  0.9216756E-006  0.9173540E+02  0.7561462E-02  0.1298703E+00
         -1   -1    0    0    0  501 -0.00000000000E+00  0.00000000000E+00  0.87749787032E+02  0.87749787032E+02  0.00000000000E+00 0.  1.
          1   -1    0    0  501    0  0.00000000000E+00 -0.00000000000E+00 -0.19638151306E+03  0.19638151306E+03  0.00000000000E+00 0. -1.
          5    1    1    2  502    0 -0.77390126235E+02  0.44954479910E+02 -0.61838267077E+02  0.10886496488E+03  0.41800000000E+01 0. -1.
         -5    1    1    2    0  502  0.18836624108E+02 -0.22224358147E+02  0.21912451136E+02  0.36692893285E+02  0.41800000000E+01 0. -1.
        -11    1    1    2    0    0  0.19266153041E+02 -0.43782582329E+00  0.26750211858E+02  0.32968927475E+02  0.00000000000E+00 0.  1.
         11    1    1    2    0    0  0.39287349086E+02 -0.22292295939E+02 -0.95456121941E+02  0.10560451445E+03  0.00000000000E+00 0. -1.
</event>
<event>
 6    1  0.9216756E-006  0.1325657E+03  0.7561462E-02  0.1223698E+00
         -1   -1    0    0    0  501 -0.00000000000E+00  0.00000000000E+00  0.12804988635E+03  0.12804988635E+03  0.00000000000E+00 0.  1.
          1   -1    0    0  501    0  0.00000000000E+00 -0.00000000000E+00 -0.20109226904E+03  0.20109226904E+03  0.00000000000E+00 0. -1.
          5    1    1    2  502    0 -0.56383377025E+02 -0.45178322868E+02  0.28141359584E+02  0.77650335358E+02  0.41800000000E+01 0. -1.
         -5    1    1    2    0  502  0.34397399775E+02  0.87732434022E+02  0.15613479172E+02  0.95610743238E+02  0.41800000000E+01 0.  1.
        -11    1    1    2    0    0  0.53705116811E+02 -0.39296490160E+02 -0.54963773512E+02  0.86310312879E+02  0.00000000000E+00 0. -1.
         11    1    1    2    0    0 -0.31719139561E+02 -0.32576209938E+01 -0.61833447936E+02  0.69570763922E+02  0.00000000000E+00 0.  1.
</event>
<event>
 6    1  0.9216756E-006  0.9140394E+02  0.7561462E-02  0.1299487E+00
          3   -1    0    0  501    0  0.00000000000E+00  0.00000000000E+00  0.31032038164E+03  0.31032038164E+03  0.00000000000E+00 0. -1.
         -3   -1    0    0    0  501 -0.00000000000E+00 -0.00000000000E+00 -0.19196407594E+03  0.19196407594E+03  0.00000000000E+00 0.  1.
          5    1    1    2  502    0 -0.38563047432E+02  0.25155864959E+02  0.16730698784E+03  0.17357714927E+03  0.41800000000E+01 0. -1.
         -5    1    1    2    0  502 -0.26280870187E+02 -0.15861645908E+02 -0.16496277820E+03  0.16784655654E+03  0.41800000000E+01 0.  1.
        -11    1    1    2    0    0  0.24129651315E+02  0.36856722015E+02  0.74750261100E+02  0.86765543650E+02  0.00000000000E+00 0.  1.
         11    1    1    2    0    0  0.40714266304E+02 -0.46150941067E+02  0.41261834971E+02  0.74095208126E+02  0.00000000000E+00 0. -1.
</event>
<event>
 6    1  0.9216756E-006  0.1304330E+03  0.7561462E-02  0.1226815E+00
         -2   -1    0    0    0  501 -0.00000000000E+00  0.00000000000E+00  0.96945041636E+02  0.96945041636E+02  0.00000000000E+00 0.  1.
          2   -1    0    0  501    0  0.00000000000E+00 -0.00000000000E+00 -0.28849960998E+03  0.28849960998E+03  0.00000000000E+00 0. -1.
          5    1    1    2  502    0 -0.22211561691E+02  0.36100442364E+02  0.15720470427E+02  0.45400451563E+02  0.41800000000E+01 0.  1.
         -5    1    1    2    0  502 -0.16308048092E+02 -0.99562524087E+02  0.65536826999E+00  0.10097797058E+03  0.41800000000E+01 0.  1.
        -11    1    1    2    0    0  0.63933916806E+02  0.20067339955E+02 -0.10598030877E+03  0.12538767762E+03  0.00000000000E+00 0.  1.
         11    1    1    2    0    0 -0.25414307023E+02  0.43394741768E+02 -0.10195009827E+03  0.11367855185E+03  0.00000000000E+00 0. -1.
</event>
<event>
 6    1  0.9216756E-006  0.1663673E+03  0.7561462E-02  0.1181690E+00
         -2   -1    0    0    0  501 -0.00000000000E+00  0.00000000000E+00  0.25186759973E+03  0.25186759973E+03  0.00000000000E+00 0.  1.
          2   -1    0    0  501    0  0.00000000000E+00 -0.00000000000E+00 -0.52101292741E+03  0.52101292741E+03  0.00000000000E+00 0. -1.
          5    1    1    2  502    0  0.55280337315E+02 -0.31306369051E+02  0.51011445447E+02  0.81582132869E+02  0.41800000000E+01 0. -1.
         -5    1    1    2    0  502 -0.66786116711E+02  0.12271576976E+03  0.14918036061E+03  0.20443042319E+03  0.41800000000E+01 0.  1.
        -11    1    1    2    0    0  0.37992634817E+02 -0.95232716772E+02 -0.36142355249E+03  0.37568563313E+03  0.00000000000E+00 0. -1.
         11    1    1    2    0    0 -0.26486855422E+02  0.38233160630E+01 -0.10791358125E+03  0.11118233796E+03  0.00000000000E+00 0.  1.
</event>
<event>
 6    1  0.9216756E-006  0.7530399E+02  0.7561462E-02  0.1342932E+00
         -2   -1    0    0    0  501 -0.00000000000E+00  0.00000000000E+00  0.62748370548E+02  0.62748370548E+02  0.00000000000E+00 0.  1.
          2   -1    0    0  501    0  0.00000000000E+00 -0.00000000000E+00 -0.23001014749E+03  0.23001014749E+03  0.00000000000E+00 0. -1.
          5    1    1    2  502    0 -0.12434569469E+02  0.20360450572E+02 -0.11911211233E+03  0.12154971892E+03  0.41800000000E+01 0.  1.
         -5    1    1    2    0  502 -0.36287897303E+02 -0.30775190701E+02  0.13436093548E+02  0.49617787770E+02  0.41800000000E+01 0.  1.
        -11    1    1    2    0    0 -0.77472451529E+01 -0.14857838158E+02  0.15447203676E+02  0.22790157165E+02  0.00000000000E+00 0.  1.
         11    1    1    2    0    0  0.56469711925E+02  0.25272578287E+02 -0.77032961834E+02  0.98800854182E+02  0.00000000000E+00 0. -1.
</event>
<event>
 6    1  0.9216756E-006  0.1646098E+03  0.7561462E-02  0.1183588E+00
         -2   -1    0    0    0  501 -0.00000000000E+00  0.00000000000E+00  0.14903522874E+03  0.14903522874E+03  0.00000000000E+00 0. -1.
          2   -1    0    0  501    0  0.00000000000E+00 -0.00000000000E+00 -0.25276798844E+03  0.25276798844E+03  0.00000000000E+00 0.  1.
          5    1    1    2  502    0  0.17405965778E+02  0.14684383641E+02  0.51730206123E+02  0.56675262620E+02  0.41800000000E+01 0.  1.
         -5    1    1    2    0  502  0.12699869374E+03  0.23240490795E+02 -0.48890580806E+02  0.13811788412E+03  0.41800000000E+01 0.  1.
        -11    1    1    2    0    0 -0.44977439234E+01 -0.36704221043E+02 -0.15677127580E+02  0.40164684387E+02  0.00000000000E+00 0. -1.
         11    1    1    2    0    0 -0.13990691559E+03 -0.12206533931E+01 -0.90895257437E+02  0.16684538606E+03  0.00000000000E+00 0.  1.
</event>
<event>
 6    1  0.9216756E-006  0.3114627E+03  0.7561462E-02  0.1079647E+00
          2   -1    0    0  501    0  0.00000000000E+00  0.00000000000E+00  0.22193984001E+03  0.22193984001E+03  0.00000000000E+00 0. -1.
         -2   -1    0    0    0  501 -0.00000000000E+00 -0.00000000000E+00 -0.65183783070E+03  0.65183783070E+03  0.00000000000E+00 0.  1.
          5    1    1    2  502    0  0.28190825518E+03 -0.47340658316E+02 -0.61320366271E+02  0.29238854626E+03  0.41800000000E+01 0. -1.
         -5    1    1    2    0  502 -0.15978526267E+03 -0.40140405871E+02 -0.36870079429E+03  0.40385681926E+03  0.41800000000E+01 0.  1.
        -11    1    1    2    0    0 -0.61516851211E+02 -0.49409538546E+01  0.20735809728E+02  0.65105374685E+02  0.00000000000E+00 0.  1.
         11    1    1    2    0    0 -0.60606141299E+02  0.92422018041E+02 -0.20612639855E+02  0.11242693051E+03  0.00000000000E+00 0. -1.
</event>
<event>
 6    1  0.9216756E-006  0.1112264E+03  0.7561462E-02  0.1258316E+00
         -1   -1    0    0    0  501 -0.00000000000E+00  0.00000000000E+00  0.11551172573E+03  0.11551172573E+03  0.00000000000E+00 0.  1.
          1   -1    0    0  501    0  0.00000000000E+00 -0.00000000000E+00 -0.18136278182E+03  0.18136278182E+03  0.00000000000E+00 0. -1.
          5    1    1    2  502    0  0.20249951771E+02  0.62038300463E+02  0.53536702788E+02  0.84513089025E+02  0.41800000000E+01 0. -1.
         -5    1    1    2    0  502  0.22190099871E+02 -0.52917324622E+02 -0.20098309236E+01  0.57568703283E+02  0.41800000000E+01 0. -1.
        -11    1    1    2    0    0  0.88229452294E+01 -0.39138687054E+02 -0.60175536739E+02  0.72324106691E+02  0.00000000000E+00 0. -1.
         11    1    1    2    0    0 -0.51262996871E+02  0.30017711213E+02 -0.57202391224E+02  0.82468608552E+02  0.00000000000E+00 0.  1.
</event>
<event>
 6    1  0.9216756E-006  0.1461995E+03  0.7561462E-02  0.1205222E+00
         -1   -1    0    0    0  501 -0.00000000000E+00  0.00000000000E+00  0.59427529157E+02  0.59427529157E+02  0.00000000000E+00 0.  1.
          1   -1    0    0  501    0  0.00000000000E+00 -0.00000000000E+00 -0.44406315040E+03  0.44406315040E+03  0.00000000000E+00 0. -1.
          5    1    1    2  502    0 -0.24145333287E+02 -0.88932395034E+02 -0.14641844080E+03  0.17305432734E+03  0.41800000000E+01 0. -1.
         -5    1    1    2    0  502 -0.71610095241E+02  0.15824551570E+02 -0.48571467550E+02  0.88062943584E+02  0.41800000000E+01 0. -1.
        -11    1    1    2    0    0  0.31604269839E+02  0.48703969913E+02 -0.23547961183E+02  0.62653116708E+02  0.00000000000E+00 0.  1.
         11    1    1    2    0    0  0.64151158688E+02  0.24403873551E+02 -0.16609775172E+03  0.17972029193E+03  0.00000000000E+00 0. -1.
</event>
<event>
 6    1  0.9216756E-006  0.7588449E+02  0.7561462E-02  0.1341154E+00
          1   -1    0    0  501    0  0.00000000000E+00  0.00000000000E+00  0.25819061626E+03  0.25819061626E+03  0.00000000000E+00 0. -1.
         -1   -1    0    0    0  501 -0.00000000000E+00 -0.00000000000E+00 -0.46322683110E+02  0.46322683110E+02  0.00000000000E+00 0.  1.
          5    1    1    2  502    0  0.30344899003E+02  0.79702309655E+01 -0.18145639692E+02  0.36483888458E+02  0.41800000000E+01 0.  1.
         -5    1    1    2    0  502 -0.23835456994E+02 -0.13893424762E+02  0.12557606562E+03  0.12863894013E+03  0.41800000000E+01 0.  1.
        -11    1    1    2    0    0  0.42630180237E+02  0.61637713263E+01  0.52087266427E+02  0.67589996803E+02  0.00000000000E+00 0. -1.
         11    1    1    2    0    0 -0.49139622246E+02 -0.24057752969E+00  0.52350240796E+02  0.71800473978E+02  0.00000000000E+00 0.  1.
</event>
<event>
 6    1  0.9216756E-006  0.1011893E+03  0.7561462E-02  0.1277815E+00
          1   -1    0    0  501    0  0.00000000000E+00  0.00000000000E+00  0.44860879428E+02  0.44860879428E+02  0.00000000000E+00 0. -1.
         -1   -1    0    0    0  501 -0.00000000000E+00 -0.00000000000E+00 -0.35107883779E+03  0.35107883779E+03  0.00000000000E+00 0.  1.
          5    1    1    2  502    0 -0.65380479074E+02 -0.57628379520E+02 -0.12143188266E+03  0.14952863170E+03  0.41800000000E+01 0. -1.
         -5    1    1    2    0  502  0.39958041785E+02  0.14979667903E+02 -0.11193575190E+03  0.11986709518E+03  0.41800000000E+01 0. -1.
        -11    1    1    2    0    0 -0.90684351878E+01  0.35996345287E+02  0.83702051772E+01  0.38053038321E+02  0.00000000000E+00 0.  1.
         11    1    1    2    0    0  0.34490872476E+02  0.66523663299E+01 -0.81220528970E+02  0.88490952012E+02  0.00000000000E+00 0. -1.
</event>
<event>
 6    1  0.9216756E-006  0.1051362E+03  0.7561462E-02  0.1269852E+00
          4   -1    0    0  501    0  0.00000000000E+00  0.00000000000E+00  0.40314038107E+03  0.40314038107E+03  0.00000000000E+00 0. -1.
         -4   -1    0    0    0  501 -0.00000000000E+00 -0.00000000000E+00 -0.37523899176E+02  0.37523899176E+02  0.00000000000E+00 0.  1.
          5    1    1    2  502    0  0.67703457868E+02 -0.23304850901E+02  0.17186225652E+03  0.18622830585E+03  0.41800000000E+01 0.  1.
         -5    1    1    2    0  502 -0.16476431600E+02  0.25466557335E+02 -0.22111065017E+01  0.30698204064E+02  0.41800000000E+01 0.  1.
        -11    1    1    2    0    0  0.25493087179E+02  0.14631093345E+02  0.55897485487E+02  0.63154534835E+02  0.00000000000E+00 0.  1.
         11    1    1    2    0    0 -0.76720113447E+02 -0.16792799779E+02  0.14006784639E+03  0.16058323550E+03  0.00000000000E+00 0. -1.
</event>
<event>
 6    1  0.9216756E-006  0.2743429E+03  0.7561462E-02  0.1098819E+00
         -2   -1    0    0    0  501 -0.00000000000E+00  0.00000000000E+00  0.11287933765E+03  0.11287933765E+03  0.00000000000E+00 0.  1.
          2   -1    0    0  501    0  0.00000000000E+00 -0.00000000000E+00 -0.14404271421E+04  0.14404271421E+04  0.00000000000E+00 0. -1.
          5    1    1    2  502    0  0.17720912545E+02 -0.71215407292E+02 -0.49829345495E+03  0.50368591862E+03  0.41800000000E+01 0. -1.
         -5    1    1    2    0  502  0.92777392144E+02 -0.83961267508E+02  0.20688492635E+02  0.12689611918E+03  0.41800000000E+01 0.  1.
        -11    1    1    2    0    0  0.15135905500E+02 -0.81035409687E+02 -0.30053201951E+03  0.31163332301E+03  0.00000000000E+00 0.  1.
         11    1    1    2    0    0 -0.12563421019E+03  0.23621208449E+03 -0.54941082264E+03  0.61109111895E+03  0.00000000000E+00 0. -1.
</event>
<event>
 6    1  0.9216756E-006  0.1028900E+03  0.7561462E-02  0.1274334E+00
          1   -1    0    0  501    0  0.00000000000E+00  0.00000000000E+00  0.37432551810E+03  0.37432551810E+03  0.00000000000E+00 0. -1.
         -1   -1    0    0    0  501 -0.00000000000E+00 -0.00000000000E+00 -0.36079710227E+02  0.36079710227E+02  0.00000000000E+00 0.  1.
          5    1    1    2  502    0 -0.40366529510E+02  0.58038591725E+02  0.38602751930E+02  0.80657173833E+02  0.41800000000E+01 0. -1.
         -5    1    1    2    0  502  0.34469274084E+02 -0.95773536877E+01  0.83874072393E+02  0.91280824817E+02  0.41800000000E+01 0.  1.
        -11    1    1    2    0    0  0.21194868724E+02 -0.69652586687E+02  0.18000254679E+03  0.19416905557E+03  0.00000000000E+00 0.  1.
         11    1    1    2    0    0 -0.15297613298E+02  0.21191348649E+02  0.35766436762E+02  0.44298174103E+02  0.00000000000E+00 0. -1.
</event>
<event>
 6    1  0.9216756E-006  0.1452447E+03  0.7561462E-02  0.1206441E+00
          2   -1    0    0  501    0  0.00000000000E+00  0.00000000000E+00  0.10129168896E+04  0.10129168896E+04  0.00000000000E+00 0.  1.
         -2   -1    0    0    0  501 -0.00000000000E+00 -0.00000000000E+00 -0.22118959995E+02  0.22118959995E+02  0.00000000000E+00 0. -1.
          5    1    1    2  502    0  0.49054870458E+02  0.54467592895E+02  0.21242805986E+03  0.22475820788E+03  0.41800000000E+01 0.  1.
         -5    1    1    2    0  502  0.39383775105E+02 -0.70096484188E+02  0.21980522197E+03  0.23408632348E+03  0.41800000000E+01 0.  1.
        -11    1    1    2    0    0  0.20285121531E+02 -0.13043398713E+02  0.52331310016E+02  0.57621024058E+02  0.00000000000E+00 0. -1.
         11    1    1    2    0    0 -0.10872376709E+03  0.28672290007E+02  0.50623333777E+03  0.51857029419E+03  0.00000000000E+00 0.  1.
</event>
<event>
 6    1  0.9216756E-006  0.1079820E+03  0.7561462E-02  0.1264353E+00
         -2   -1    0    0    0  501 -0.00000000000E+00  0.00000000000E+00  0.61283920804E+02  0.61283920804E+02  0.00000000000E+00 0.  1.
          2   -1    0    0  501    0  0.00000000000E+00 -0.00000000000E+00 -0.19709808242E+03  0.19709808242E+03  0.00000000000E+00 0. -1.
          5    1    1    2  502    0 -0.72973105508E+01  0.58205301394E+02 -0.25551508180E+02  0.64120666106E+02  0.41800000000E+01 0. -1.
         -5    1    1    2    0  502  0.32232066945E+01 -0.66228141725E+02 -0.36518718401E+02  0.75813224515E+02  0.41800000000E+01 0. -1.
        -11    1    1    2    0    0 -0.40011449158E+02 -0.12733426555E+02 -0.22118006538E+02  0.47458007004E+02  0.00000000000E+00 0.  1.
         11    1    1    2    0    0  0.44085553014E+02  0.20756266886E+02 -0.51625928492E+02  0.70990105595E+02  0.00000000000E+00 0. -1.
</event>
<event>
 6    1  0.9216756E-006  0.1150478E+03  0.7561462E-02  0.1251498E+00
         -2   -1    0    0    0  501 -0.00000000000E+00  0.00000000000E+00  0.44092459398E+02  0.44092459398E+02  0.00000000000E+00 0.  1.
          2   -1    0    0  501    0  0.00000000000E+00 -0.00000000000E+00 -0.32940533975E+03  0.32940533975E+03  0.00000000000E+00 0. -1.
          5    1    1    2  502    0 -0.37617075622E+02  0.22972026226E+02 -0.45533812738E+02  0.63510305224E+02  0.41800000000E+01 0. -1.
         -5    1    1    2    0  502  0.65567104863E+02 -0.59913092250E+02 -0.77051983964E+02  0.11765672312E+03  0.41800000000E+01 0. -1.
        -11    1    1    2    0    0 -0.50012379940E+02 -0.42343635647E+01 -0.52592925979E+02  0.72699269908E+02  0.00000000000E+00 0.  1.
         11    1    1    2    0    0  0.22062350699E+02  0.41175429588E+02 -0.11013415767E+03  0.11963150089E+03  0.00000000000E+00 0. -1.
</event>
<event>
 6    1  0.9216756E-006  0.1247754E+03  0.7561462E-02  0.1235421E+00
          2   -1    0    0  501    0  0.00000000000E+00  0.00000000000E+00  0.75139036962E+02  0.75139036962E+02  0.00000000000E+00 0.  1.
         -2   -1    0    0    0  501 -0.00000000000E+00 -0.00000000000E+00 -0.22982881725E+03  0.22982881725E+03  0.00000000000E+00 0. -1.
          5    1    1    2  502    0 -0.59980819433E+02  0.28073896593E+02 -0.86531817765E+02  0.10904618405E+03  0.41800000000E+01 0.  1.
         -5    1    1    2    0  502  0.56253222541E+02  0.41698801864E+02 -0.32882810038E+02  0.77472361001E+02  0.41800000000E+01 0.  1.
        -11    1    1    2    0    0  0.37081503166E+02 -0.70529327980E+02 -0.23637273259E+02  0.83115249320E+02  0.00000000000E+00 0. -1.
         11    1    1    2    0    0 -0.33353906274E+02  0.75662952346E+00 -0.11637879223E+02  0.35334059840E+02  0.00000000000E+00 0.  1.
</event>
<event>
 6    1  0.9216756E-006  0.9283385E+02  0.7561462E-02  0.1296131E+00
         -1   -1    0    0    0  501 -0.00000000000E+00  0.00000000000E+00  0.12411267225E+03  0.12411267225E+03  0.00000000000E+00 0.  1.
          1   -1    0    0  501    0  0.00000000000E+00 -0.00000000000E+00 -0.10438435021E+03  0.10438435021E+03  0.00000000000E+00 0. -1.
          5    1    1    2  502    0 -0.53494061386E+02 -0.54618377957E+02 -0.18263344304E+02  0.78713429345E+02  0.41800000000E+01 0. -1.
         -5    1    1    2    0  502  0.31753639612E+02  0.28811957972E+02  0.27650783450E+02  0.51190436374E+02  0.41800000000E+01 0. -1.
        -11    1    1    2    0    0 -0.19475389791E+02  0.67260003517E+01 -0.30970023722E+02  0.37197745329E+02  0.00000000000E+00 0. -1.
         11    1    1    2    0    0  0.41215811565E+02  0.19080419633E+02  0.41310906617E+02  0.61395411407E+02  0.00000000000E+00 0.  1.
</event>
<event>
 6    1  0.9216756E-006  0.6378155E+02  0.7561462E-02  0.1382614E+00
         -2   -1    0    0    0  501 -0.00000000000E+00  0.00000000000E+00  0.35681092943E+02  0.35681092943E+02  0.00000000000E+00 0.  1.
          2   -1    0    0  501    0  0.00000000000E+00 -0.00000000000E+00 -0.34132040551E+03  0.34132040551E+03  0.00000000000E+00 0. -1.
          5    1    1    2  502    0  0.19876703641E+02 -0.24275604213E+01  0.17050350713E+02  0.26630119351E+02  0.41800000000E+01 0.  1.
         -5    1    1    2    0  502 -0.27576772813E+02  0.67450548038E+00 -0.16468192548E+03  0.16702856743E+03  0.41800000000E+01 0.  1.
        -11    1    1    2    0    0 -0.35696166826E+02 -0.11423940284E+01 -0.25510193963E+02  0.43889536182E+02  0.00000000000E+00 0.  1.
         11    1    1    2    0    0  0.43396235998E+02  0.28954489692E+01 -0.13249754384E+03  0.13945327550E+03  0.00000000000E+00 0. -1.
</event>
<event>
 6    1  0.9216756E-006  0.1965397E+03  0.7561462E-02  0.1152692E+00
          1   -1    0    0  501    0  0.00000000000E+00  0.00000000000E+00  0.50468983163E+03  0.50468983163E+03  0.00000000000E+00 0. -1.
         -1   -1    0    0    0  501 -0.00000000000E+00 -0.00000000000E+00 -0.13980053548E+03  0.13980053548E+03  0.00000000000E+00 0.  1.
          5    1    1    2  502    0 -0.14452503725E+02 -0.35039973524E+02 -0.35661170802E+02  0.52209827729E+02  0.41800000000E+01 0.  1.
         -5    1    1    2    0  502  0.13222510844E+03 -0.92661256874E+02  0.17805076213E+02  0.16249332591E+03  0.41800000000E+01 0.  1.
        -11    1    1    2    0    0 -0.34434004197E+02 -0.69002876896E+01  0.96315635127E+02  0.10251836999E+03  0.00000000000E+00 0. -1.
         11    1    1    2    0    0 -0.83338600515E+02  0.13460151809E+03  0.28642975561E+03  0.32726884347E+03  0.00000000000E+00 0.  1.
</event>
<event>
 6    1  0.9216756E-006  0.1153973E+03  0.7561462E-02  0.1250889E+00
          1   -1    0    0  501    0  0.00000000000E+00  0.00000000000E+00  0.15761315697E+03  0.15761315697E+03  0.00000000000E+00 0. -1.
         -1   -1    0    0    0  501 -0.00000000000E+00 -0.00000000000E+00 -0.89973344605E+02  0.89973344605E+02  0.00000000000E+00 0.  1.
          5    1    1    2  502    0  0.41109133156E+01  0.85901662183E+02  0.26660101224E+02  0.90134502669E+02  0.41800000000E+01 0. -1.
         -5    1    1    2    0  502 -0.23893172955E+02 -0.32796023624E+02 -0.94964211141E+01  0.41882183484E+02  0.41800000000E+01 0.  1.
        -11    1    1    2    0    0  0.52785027860E+02 -0.46280334637E+02  0.35967012903E+02  0.78878099353E+02  0.00000000000E+00 0. -1.
         11    1    1    2    0    0 -0.33002768221E+02 -0.68253039221E+01  0.14509119352E+02  0.36691716071E+02  0.00000000000E+00 0.  1.
</event>
<event>
 6    1  0.9216756E-006  0.1060468E+03  0.7561462E-02  0.1268071E+00
          1   -1    0    0  501    0  0.00000000000E+00  0.00000000000E+00  0.20094815008E+03  0.20094815008E+03  0.00000000000E+00 0. -1.
         -1   -1    0    0    0  501 -0.00000000000E+00 -0.00000000000E+00 -0.74685484281E+02  0.74685484281E+02  0.00000000000E+00 0.  1.
          5    1    1    2  502    0  0.76752248401E+02  0.20432741455E+02 -0.15975758711E+01  0.79551424919E+02  0.41800000000E+01 0. -1.
         -5    1    1    2    0  502 -0.18828918237E+02 -0.34345278542E+02  0.57841890011E+02  0.69980589881E+02  0.41800000000E+01 0. -1.
        -11    1    1    2    0    0 -0.74039901609E+02  0.18681780913E+02  0.28839763025E+02  0.81625044562E+02  0.00000000000E+00 0.  1.
         11    1    1    2    0    0  0.16116571446E+02 -0.47692438263E+01  0.41178588637E+02  0.44476575003E+02  0.00000000000E+00 0. -1.
</event>
<event>
 6    1  0.9216756E-006  0.1158248E+03  0.7561462E-02  0.1250148E+00
          1   -1    0    0  501    0  0.00000000000E+00  0.00000000000E+00  0.39948335256E+03  0.39948335256E+03  0.00000000000E+00 0. -1.
         -1   -1    0    0    0  501 -0.00000000000E+00 -0.00000000000E+00 -0.54758652290E+02  0.54758652290E+02  0.00000000000E+00 0.  1.
          5    1    1    2  502    0 -0.13566766336E+02 -0.95417849678E+01 -0.22647187789E+02  0.28380809078E+02  0.41800000000E+01 0. -1.
         -5    1    1    2    0  502 -0.81114048208E+01 -0.82985668585E+02  0.15921912066E+03  0.17977935605E+03  0.41800000000E+01 0. -1.
        -11    1    1    2    0    0  0.51715346434E+02  0.25609925247E+02  0.84965253280E+02  0.10271046487E+03  0.00000000000E+00 0.  1.
         11    1    1    2    0    0 -0.30037175277E+02  0.66917528305E+02  0.12318751412E+03  0.14337137486E+03  0.00000000000E+00 0. -1.
</event>
<event>
 6    1  0.9216756E-006  0.9112871E+02  0.7561462E-02  0.1300141E+00
         -1   -1    0    0    0  501 -0.00000000000E+00  0.00000000000E+00  0.17995612229E+03  0.17995612229E+03  0.00000000000E+00 0.  1.
          1   -1    0    0  501    0  0.00000000000E+00 -0.00000000000E+00 -0.10453099363E+03  0.10453099363E+03  0.00000000000E+00 0. -1.
          5    1    1    2  502    0  0.24978470765E+02  0.10261596194E+02 -0.33386885928E+02  0.43143723879E+02  0.41800000000E+01 0.  1.
         -5    1    1    2    0  502 -0.58825554965E+01  0.65757649564E+02  0.97428518932E+02  0.11776443282E+03  0.41800000000E+01 0.  1.
        -11    1    1    2    0    0  0.71210966735E+01 -0.54213113812E+02  0.48561913409E+02  0.73130234247E+02  0.00000000000E+00 0.  1.
         11    1    1    2    0    0 -0.26217011942E+02 -0.21806131946E+02 -0.37178417753E+02  0.50448724981E+02  0.00000000000E+00 0. -1.
</event>
<event>
 6    1  0.9216756E-006  0.1297200E+03  0.7561462E-02  0.1227872E+00
          1   -1    0    0  501    0  0.00000000000E+00  0.00000000000E+00  0.81225475014E+02  0.81225475014E+02  0.00000000000E+00 0. -1.
         -1   -1    0    0    0  501 -0.00000000000E+00 -0.00000000000E+00 -0.23502736530E+03  0.23502736530E+03  0.00000000000E+00 0.  1.
          5    1    1    2  502    0  0.33877142101E+02  0.67480362302E+02 -0.25805792660E+02  0.79904138742E+02  0.41800000000E+01 0. -1.
         -5    1    1    2    0  502 -0.73901260822E+02  0.93121223679E+01 -0.52300908714E+02  0.91109656054E+02  0.41800000000E+01 0. -1.
        -11    1    1    2    0    0  0.24139833949E+00 -0.68596106647E+02 -0.11915673760E+02  0.69623756014E+02  0.00000000000E+00 0. -1.
         11    1    1    2    0    0  0.39782720382E+02 -0.81963780226E+01 -0.63779515150E+02  0.75615289501E+02  0.00000000000E+00 0.  1.
</event>
<event>
 6    1  0.9216756E-006  0.9761779E+02  0.7561462E-02  0.1285387E+00
         -1   -1    0    0    0  501 -0.00000000000E+00  0.00000000000E+00  0.12584293995E+03  0.12584293995E+03  0.00000000000E+00 0.  1.
          1   -1    0    0  501    0  0.00000000000E+00 -0.00000000000E+00 -0.10677758872E+03  0.10677758872E+03  0.00000000000E+00 0. -1.
          5    1    1    2  502    0  0.15403323853E+02  0.23772935645E+02 -0.33985605877E+02  0.44439944438E+02  0.41800000000E+01 0. -1.
         -5    1    1    2    0  502 -0.50784015306E+01 -0.65988597001E+02  0.56058965271E+02  0.86835275571E+02  0.41800000000E+01 0.  1.
        -11    1    1    2    0    0  0.39149302382E+02  0.30011500969E+02 -0.86320795250E+01  0.50078646791E+02  0.00000000000E+00 0.  1.
         11    1    1    2    0    0 -0.49474224704E+02  0.12204160386E+02  0.56240713549E+01  0.51266661872E+02  0.00000000000E+00 0. -1.
</event>
<event>
 6    1  0.9216756E-006  0.9863540E+02  0.7561462E-02  0.1283192E+00
         -2   -1    0    0    0  501 -0.00000000000E+00  0.00000000000E+00  0.30362215775E+02  0.30362215775E+02  0.00000000000E+00 0.  1.
          2   -1    0    0  501    0  0.00000000000E+00 -0.00000000000E+00 -0.45733312876E+03  0.45733312876E+03  0.00000000000E+00 0. -1.
          5    1    1    2  502    0 -0.95926781740E+01 -0.37980418446E+02 -0.15878347952E+03  0.16359766938E+03  0.41800000000E+01 0. -1.
         -5    1    1    2    0  502 -0.45321604268E+02  0.26117310597E+02 -0.24529193256E+02  0.57925084791E+02  0.41800000000E+01 0.  1.
        -11    1    1    2    0    0  0.30514631517E+02  0.50911244599E+02 -0.16040668538E+03  0.17103626013E+03  0.00000000000E+00 0.  1.
         11    1    1    2    0    0  0.24399650924E+02 -0.39048136750E+02 -0.83251554838E+02  0.95136330241E+02  0.00000000000E+00 0. -1.
</event>
<event>
 6    1  0.9216756E-006  0.1200433E+03  0.7561462E-02  0.1243026E+00
          2   -1    0    0  501    0  0.00000000000E+00  0.00000000000E+00  0.68126816959E+03  0.68126816959E+03  0.00000000000E+00 0. -1.
         -2   -1    0    0    0  501 -0.00000000000E+00 -0.00000000000E+00 -0.24309714468E+02  0.24309714468E+02  0.00000000000E+00 0.  1.
          5    1    1    2  502    0  0.62238087238E+02  0.21714714425E+02  0.15300141671E+03  0.16664937516E+03  0.41800000000E+01 0. -1.
         -5    1    1    2    0  502 -0.34786389303E+02 -0.56471307372E+02  0.13669002484E+03  0.15198926517E+03  0.41800000000E+01 0. -1.
        -11    1    1    2    0    0  0.94146665096E+01 -0.30888035731E+02  0.41486259785E+02  0.52572012019E+02  0.00000000000E+00 0.  1.
         11    1    1    2    0    0 -0.36866364444E+02  0.65644628678E+02  0.32578075379E+03  0.33436723171E+03  0.00000000000E+00 0. -1.
</event>
<event>
 6    1  0.9216756E-006  0.8640280E+02  0.7561462E-02  0.1311804E+00
         -1   -1    0    0    0  501 -0.00000000000E+00  0.00000000000E+00  0.15154346543E+03  0.15154346543E+03  0.00000000000E+00 0.  1.
          1   -1    0    0  501    0  0.00000000000E+00 -0.00000000000E+00 -0.85613245519E+02  0.85613245519E+02  0.00000000000E+00 0. -1.
          5    1    1    2  502    0  0.31540219521E+02  0.46894456095E+02 -0.20652542258E+02  0.60314802177E+02  0.41800000000E+01 0.  1.
         -5    1    1    2    0  502  0.39344347525E+01 -0.49430580736E+02  0.55045340496E+02  0.74204609014E+02  0.41800000000E+01 0.  1.
        -11    1    1    2    0    0 -0.50699942711E+02  0.50185435666E+01  0.54736151637E+02  0.74777779229E+02  0.00000000000E+00 0.  1.
         11    1    1    2    0    0  0.15225288437E+02 -0.24824189262E+01 -0.23198729968E+02  0.27859520525E+02  0.00000000000E+00 0. -1.
</event>
<event>
 6    1  0.9216756E-006  0.1376377E+03  0.7561462E-02  0.1216543E+00
         -1   -1    0    0    0  501 -0.00000000000E+00  0.00000000000E+00  0.31026405989E+02  0.31026405989E+02  0.00000000000E+00 0.  1.
          1   -1    0    0  501    0  0.00000000000E+00 -0.00000000000E+00 -0.85851607410E+03  0.85851607410E+03  0.00000000000E+00 0. -1.
          5    1    1    2  502    0  0.52078023474E+01 -0.14502260469E+01  0.83774961054E+01  0.10811068489E+02  0.41800000000E+01 0. -1.
         -5    1    1    2    0  502  0.34260168187E+02 -0.11237613213E+03 -0.41541278918E+03  0.43172608447E+03  0.41800000000E+01 0. -1.
        -11    1    1    2    0    0 -0.44884272317E+02  0.88243817033E+01 -0.15050793383E+03  0.15730577154E+03  0.00000000000E+00 0.  1.
         11    1    1    2    0    0  0.54163017829E+01  0.10500197648E+03 -0.26994644121E+03  0.28969955560E+03  0.00000000000E+00 0. -1.
</event>
<event>
 6    1  0.9216756E-006  0.1412286E+03  0.7561462E-02  0.1211685E+00
         -1   -1    0    0    0  501 -0.00000000000E+00  0.00000000000E+00  0.70065542251E+02  0.70065542251E+02  0.00000000000E+00 0.  1.
          1   -1    0    0  501    0  0.00000000000E+00 -0.00000000000E+00 -0.35652717023E+03  0.35652717023E+03  0.00000000000E+00 0. -1.
          5    1    1    2  502    0  0.25209357199E+02  0.57918783799E+02 -0.15018572594E+02  0.65062486349E+02  0.41800000000E+01 0.  1.
         -5    1    1    2    0  502  0.91278989311E+02 -0.35992843834E+02 -0.11245331031E+03  0.14930022805E+03  0.41800000000E+01 0.  1.
        -11    1    1    2    0    0 -0.55660576088E+02  0.17062740052E+01 -0.20867965721E+02  0.59468336909E+02  0.00000000000E+00 0.  1.
         11    1    1    2    0    0 -0.60827770423E+02 -0.23632213970E+02 -0.13812177936E+03  0.15276166118E+03  0.00000000000E+00 0. -1.
</event>
<event>
 6    1  0.9216756E-006  0.1239219E+03  0.7561462E-02  0.1236764E+00
         -3   -1    0    0    0  501 -0.00000000000E+00  0.00000000000E+00  0.19500924238E+03  0.19500924238E+03  0.00000000000E+00 0.  1.
          3   -1    0    0  501    0  0.00000000000E+00 -0.00000000000E+00 -0.92316839376E+02  0.92316839376E+02  0.00000000000E+00 0. -1.
          5    1    1    2  502    0 -0.76772801893E+02 -0.15715894798E+02 -0.13146654404E+01  0.78487280530E+02  0.41800000000E+01 0.  1.
         -5    1    1    2    0  502  0.29430525587E+02 -0.44875646795E+02  0.57392778444E+02  0.78685341259E+02  0.41800000000E+01 0.  1.
        -11    1    1    2    0    0  0.72416088634E+02  0.37957924609E+02  0.13532303410E+02  0.82873501008E+02  0.00000000000E+00 0. -1.
         11    1    1    2    0    0 -0.25073812329E+02  0.22633616983E+02  0.33081986595E+02  0.47279958963E+02  0.00000000000E+00 0.  1.
</event>
<event>
 6    1  0.9216756E-006  0.1137802E+03  0.7561462E-02  0.1253725E+00
         -1   -1    0    0    0  501 -0.00000000000E+00  0.00000000000E+00  0.31714536921E+03  0.31714536921E+03  0.00000000000E+00 0.  1.
          1   -1    0    0  501    0  0.00000000000E+00 -0.00000000000E+00 -0.42257788455E+02  0.42257788455E+02  0.00000000000E+00 0. -1.
          5    1    1    2  502    0 -0.71448751769E+02 -0.24556604476E+02  0.95855140636E+02  0.12212137953E+03  0.41800000000E+01 0. -1.
         -5    1    1    2    0  502  0.35891360666E+02  0.41139145464E+02  0.89193428409E+02  0.10465925249E+03  0.41800000000E+01 0. -1.
        -11    1    1    2    0    0 -0.19872002227E+02 -0.33703516930E+02  0.42287478231E+02  0.57611234504E+02  0.00000000000E+00 0. -1.
         11    1    1    2    0    0  0.55429393330E+02  0.17120975941E+02  0.47551533478E+02  0.75011291139E+02  0.00000000000E+00 0.  1.
</event>
<event>
 6    1  0.9216756E-006  0.1424037E+03  0.7561462E-02  0.1210131E+00
         -2   -1    0    0    0  501 -0.00000000000E+00  0.00000000000E+00  0.88546920890E+02  0.88546920890E+02  0.00000000000E+00 0.  1.
          2   -1    0    0  501    0  0.00000000000E+00 -0.00000000000E+00 -0.35693888353E+03  0.35693888353E+03  0.00000000000E+00 0. -1.
          5    1    1    2  502    0  0.89151757651E+02  0.32917654128E+02 -0.36963561598E+02  0.10205579421E+03  0.41800000000E+01 0. -1.
         -5    1    1    2    0  502 -0.31045371999E+02  0.53188529434E+02  0.10708530847E+02  0.62649659367E+02  0.41800000000E+01 0. -1.
        -11    1    1    2    0    0  0.17128016349E+02 -0.28282897535E+02 -0.12874954827E+03  0.13292756454E+03  0.00000000000E+00 0. -1.
         11    1    1    2    0    0 -0.75234402001E+02 -0.57823286027E+02 -0.11338738362E+03  0.14785278630E+03  0.00000000000E+00 0.  1.
</event>
<event>
 6    1  0.9216756E-006  0.1477130E+03  0.7561462E-02  0.1203312E+00
          1   -1    0    0  501    0  0.00000000000E+00  0.00000000000E+00  0.23227259942E+03  0.23227259942E+03  0.00000000000E+00 0. -1.
         -1   -1    0    0    0  501 -0.00000000000E+00 -0.00000000000E+00 -0.10057399660E+03  0.10057399660E+03  0.00000000000E+00 0.  1.
          5    1    1    2  502    0 -0.64774617789E+02 -0.38857043265E+02  0.19954983965E+01  0.75677442708E+02  0.41800000000E+01 0.  1.
         -5    1    1    2    0  502 -0.34427010744E+02  0.76180982639E+02  0.44229591630E+02  0.94670430233E+02  0.41800000000E+01 0.  1.
        -11    1    1    2    0    0  0.62322961893E+02  0.22107516915E+02  0.27365643698E+02  0.71566558798E+02  0.00000000000E+00 0.  1.
         11    1    1    2    0    0  0.36878666641E+02 -0.59431456290E+02  0.58107869098E+02  0.90932164282E+02  0.00000000000E+00 0. -1.
</event>
<event>
 6    1  0.9216756E-006  0.1725380E+03  0.7561462E-02  0.1175227E+00
          2   -1    0    0  501    0  0.00000000000E+00  0.00000000000E+00  0.92801786291E+02  0.92801786291E+02  0.00000000000E+00 0. -1.
         -2   -1    0    0    0  501 -0.00000000000E+00 -0.00000000000E+00 -0.32581697126E+03  0.32581697126E+03  0.00000000000E+00 0.  1.
          5    1    1    2  502    0 -0.37162477890E+02  0.12326414700E+03 -0.86115141839E+02  0.15494640929E+03  0.41800000000E+01 0.  1.
         -5    1    1    2    0  502  0.54501011517E+02  0.11742582050E+02 -0.43312141783E+02  0.70722432901E+02  0.41800000000E+01 0.  1.
        -11    1    1    2    0    0 -0.35812608109E+02 -0.13715848945E+03 -0.10125428678E+03  0.17420512255E+03  0.00000000000E+00 0. -1.
         11    1    1    2    0    0  0.18474074482E+02  0.21517604080E+01 -0.23336145650E+01  0.18744792817E+02  0.00000000000E+00 0.  1.
</event>
<event>
 6    1  0.9216756E-006  0.1369809E+03  0.7561462E-02  0.1217450E+00
          1   -1    0    0  501    0  0.00000000000E+00  0.00000000000E+00  0.31230448227E+03  0.31230448227E+03  0.00000000000E+00 0. -1.
         -1   -1    0    0    0  501 -0.00000000000E+00 -0.00000000000E+00 -0.10042604569E+03  0.10042604569E+03  0.00000000000E+00 0.  1.
          5    1    1    2  502    0 -0.26817797100E+02 -0.15003426504E+02 -0.30586035393E+01  0.31162870595E+02  0.41800000000E+01 0.  1.
         -5    1    1    2    0  502  0.13291429826E+03  0.32876732155E+01  0.10770207148E+02  0.13345594494E+03  0.41800000000E+01 0.  1.
        -11    1    1    2    0    0 -0.64371893954E+02  0.19964080116E+02  0.39669219202E+02  0.78204553437E+02  0.00000000000E+00 0.  1.
         11    1    1    2    0    0 -0.41724607205E+02 -0.82483268280E+01  0.16449761377E+03  0.16990715899E+03  0.00000000000E+00 0. -1.
</event>
<event>
 6    1  0.9216756E-006  0.1188415E+03  0.7561462E-02  0.1245021E+00
         -1   -1    0    0    0  501 -0.00000000000E+00  0.00000000000E+00  0.11592566156E+03  0.11592566156E+03  0.00000000000E+00 0.  1.
          1   -1    0    0  501    0  0.00000000000E+00 -0.00000000000E+00 -0.16592158706E+03  0.16592158706E+03  0.00000000000E+00 0. -1.
          5    1    1    2  502    0 -0.98012496587E+02  0.30425495081E+02 -0.21238054304E+02  0.10488416272E+03  0.41800000000E+01 0.  1.
         -5    1    1    2    0  502  0.16166633584E+02 -0.36007211888E+02  0.20581093743E+02  0.44709430426E+02  0.41800000000E+01 0.  1.
        -11    1    1    2    0    0  0.72288181431E+02  0.22620322560E+02  0.35946798465E+01  0.75829953781E+02  0.00000000000E+00 0.  1.
         11    1    1    2    0    0  0.95576815721E+01 -0.17038605754E+02 -0.52933644779E+02  0.56423701692E+02  0.00000000000E+00 0. -1.
</event>
<event>
 6    1  0.9216756E-006  0.1467874E+03  0.7561462E-02  0.1204477E+00
          1   -1    0    0  501    0  0.00000000000E+00  0.00000000000E+00  0.74314495755E+03  0.74314495755E+03  0.00000000000E+00 0. -1.
         -1   -1    0    0    0  501 -0.00000000000E+00 -0.00000000000E+00 -0.32139089101E+02  0.32139089101E+02  0.00000000000E+00 0.  1.
          5    1    1    2  502    0 -0.24730744395E+02 -0.42763072336E+02  0.74073173690E+02  0.89132471829E+02  0.41800000000E+01 0. -1.
         -5    1    1    2    0  502  0.10563539491E+03 -0.31458650830E+02  0.32717439618E+03  0.34526662347E+03  0.41800000000E+01 0. -1.
        -11    1    1    2    0    0 -0.95919917558E+02  0.60846111054E+02  0.20643641815E+03  0.23562443539E+03  0.00000000000E+00 0.  1.
         11    1    1    2    0    0  0.15015267043E+02  0.13375612111E+02  0.10332188043E+03  0.10526051596E+03  0.00000000000E+00 0. -1.
</event>
<event>
 6    1  0.9216756E-006  0.8304238E+02  0.7561462E-02  0.1320633E+00
          2   -1    0    0  501    0  0.00000000000E+00  0.00000000000E+00  0.20562316347E+03  0.20562316347E+03  0.00000000000E+00 0. -1.
         -2   -1    0    0    0  501 -0.00000000000E+00 -0.00000000000E+00 -0.99707898691E+02  0.99707898691E+02  0.00000000000E+00 0.  1.
          5    1    1    2  502    0 -0.52517607223E+02  0.32270792892E+02 -0.62013862343E+02  0.87536818910E+02  0.41800000000E+01 0.  1.
         -5    1    1    2    0  502  0.41327647149E+02 -0.28219517851E+01  0.22591662790E+02  0.47368697031E+02  0.41800000000E+01 0.  1.
        -11    1    1    2    0    0 -0.21997879108E+02 -0.96272694658E+01  0.12393480603E+03  0.12623956253E+03  0.00000000000E+00 0. -1.
         11    1    1    2    0    0  0.33187839181E+02 -0.19821571641E+02  0.21402658298E+02  0.44185983683E+02  0.00000000000E+00 0.  1.
</event>
<event>
 6    1  0.9216756E-006  0.1215706E+03  0.7561462E-02  0.1240528E+00
         -1   -1    0    0    0  501 -0.00000000000E+00  0.00000000000E+00  0.38397990684E+02  0.38397990684E+02  0.00000000000E+00 0.  1.
          1   -1    0    0  501    0  0.00000000000E+00 -0.00000000000E+00 -0.48490950263E+03  0.48490950263E+03  0.00000000000E+00 0. -1.
          5    1    1    2  502    0 -0.52407116416E+02  0.38577513822E+02 -0.92644110082E+02  0.11329225021E+03  0.41800000000E+01 0. -1.
         -5    1    1    2    0  502  0.74565843212E+02 -0.36618669467E+02 -0.69435344997E+02  0.10835004136E+03  0.41800000000E+01 0.  1.
        -11    1    1    2    0    0 -0.53036761963E+02  0.20195268389E+02 -0.21661427383E+03  0.22392518977E+03  0.00000000000E+00 0. -1.
         11    1    1    2    0    0  0.30878035168E+02 -0.22154112744E+02 -0.67817783036E+02  0.77740011984E+02  0.00000000000E+00 0.  1.
</event>
<event>
 6    1  0.9216756E-006  0.8089270E+02  0.7561462E-02  0.1326537E+00
         -1   -1    0    0    0  501 -0.00000000000E+00  0.00000000000E+00  0.47100534719E+02  0.47100534719E+02  0.00000000000E+00 0.  1.
          1   -1    0    0  501    0  0.00000000000E+00 -0.00000000000E+00 -0.30599330916E+03  0.30599330916E+03  0.00000000000E+00 0. -1.
          5    1    1    2  502    0 -0.37056649335E+02  0.69606310122E+01 -0.18643097022E+03  0.19025147752E+03  0.41800000000E+01 0. -1.
         -5    1    1    2    0  502  0.48705968242E+02 -0.29979722055E+02  0.64549120569E+01  0.57707827602E+02  0.41800000000E+01 0.  1.
        -11    1    1    2    0    0 -0.10315187239E+02 -0.20508209710E+02 -0.13758150172E+02  0.26763341522E+02  0.00000000000E+00 0. -1.
         11    1    1    2    0    0 -0.13341316679E+01  0.43527300752E+02 -0.65158566111E+02  0.78371197233E+02  0.00000000000E+00 0.  1.
</event>
<event>
 6    1  0.9216756E-006  0.9902439E+02  0.7561462E-02  0.1282361E+00
         -2   -1    0    0    0  501 -0.00000000000E+00  0.00000000000E+00  0.93227192729E+02  0.93227192729E+02  0.00000000000E+00 0.  1.
          2   -1    0    0  501    0  0.00000000000E+00 -0.00000000000E+00 -0.15528327488E+03  0.15528327488E+03  0.00000000000E+00 0. -1.
          5    1    1    2  502    0  0.99681185355E+01 -0.55928839497E+02 -0.27170555737E+02  0.63111884568E+02  0.41800000000E+01 0. -1.
         -5    1    1    2    0  502  0.36801037908E+02  0.57177513070E+02  0.18925751528E+02  0.70705310005E+02  0.41800000000E+01 0. -1.
        -11    1    1    2    0    0 -0.46988818017E+02  0.20459966111E+02  0.54898446542E+01  0.51543162750E+02  0.00000000000E+00 0.  1.
         11    1    1    2    0    0  0.21966157339E+00 -0.21708639685E+02 -0.59301122599E+02  0.63150110290E+02  0.00000000000E+00 0. -1.
</event>
<event>
 6    1  0.9216756E-006  0.1393833E+03  0.7561462E-02  0.1214161E+00
         -3   -1    0    0    0  501 -0.00000000000E+00  0.00000000000E+00  0.36860718674E+02  0.36860718674E+02  0.00000000000E+00 0.  1.
          3   -1    0    0  501    0  0.00000000000E+00 -0.00000000000E+00 -0.58744669722E+03  0.58744669722E+03  0.00000000000E+00 0. -1.
          5    1    1    2  502    0 -0.86633698483E+02 -0.67094223026E+02 -0.14094566451E+03  0.17857823277E+03  0.41800000000E+01 0.  1.
         -5    1    1    2    0  502  0.85278210434E+00  0.42690224809E+02 -0.75611837779E+02  0.86935636789E+02  0.41800000000E+01 0.  1.
        -11    1    1    2    0    0  0.55525420725E+02 -0.30623870333E+02 -0.21578939313E+03  0.22491321875E+03  0.00000000000E+00 0. -1.
         11    1    1    2    0    0  0.30255495653E+02  0.55027868550E+02 -0.11823908313E+03  0.13388032758E+03  0.00000000000E+00 0.  1.
</event>
<event>
 6    1  0.9216756E-006  0.7854689E+02  0.7561462E-02  0.1333226E+00
          2   -1    0    0  501    0  0.00000000000E+00  0.00000000000E+00  0.32994103838E+03  0.32994103838E+03  0.00000000000E+00 0. -1.
         -2   -1    0    0    0  501 -0.00000000000E+00 -0.00000000000E+00 -0.10177295868E+03  0.10177295868E+03  0.00000000000E+00 0.  1.
          5    1    1    2  502    0 -0.31141290551E+02  0.30562722424E+02  0.29599573830E+02  0.52891087624E+02  0.41800000000E+01 0. -1.
         -5    1    1    2    0  502  0.11043768448E+02 -0.19118152633E+02 -0.81428043916E+02  0.84471695363E+02  0.41800000000E+01 0. -1.
        -11    1    1    2    0    0  0.45122438595E+02  0.21037667257E+02  0.15567970256E+03  0.16344658974E+03  0.00000000000E+00 0. -1.
         11    1    1    2    0    0 -0.25024916492E+02 -0.32482237048E+02  0.12431684723E+03  0.13090462434E+03  0.00000000000E+00 0.  1.
</event>
<event>
 6    1  0.9216756E-006  0.1379372E+03  0.7561462E-02  0.1216132E+00
          1   -1    0    0  501    0  0.00000000000E+00  0.00000000000E+00  0.43208251703E+03  0.43208251703E+03  0.00000000000E+00 0. -1.
         -1   -1    0    0    0  501 -0.00000000000E+00 -0.00000000000E+00 -0.62731102863E+02  0.62731102863E+02  0.00000000000E+00 0.  1.
          5    1    1    2  502    0 -0.75271613083E+02  0.19965163248E+01  0.76768355868E+02  0.10761345026E+03  0.41800000000E+01 0. -1.
         -5    1    1    2    0  502  0.58281418922E+01 -0.68941166665E+02  0.30915357162E+01  0.69382142458E+02  0.41800000000E+01 0. -1.
        -11    1    1    2    0    0 -0.20049515210E+02  0.25731484166E+02  0.70095414767E+02  0.77314031772E+02  0.00000000000E+00 0. -1.
         11    1    1    2    0    0  0.89492986401E+02  0.41213166174E+02  0.21939610782E+03  0.24050399540E+03  0.00000000000E+00 0.  1.
</event>
<event>
 6    1  0.9216756E-006  0.1231939E+03  0.7561462E-02  0.1237919E+00
         -2   -1    0    0    0  501 -0.00000000000E+00  0.00000000000E+00  0.45372494537E+02  0.45372494537E+02  0.00000000000E+00 0.  1.
          2   -1    0    0  501    0  0.00000000000E+00 -0.00000000000E+00 -0.37999814650E+03  0.37999814650E+03  0.00000000000E+00 0. -1.
          5    1    1    2  502    0  0.36541176682E+02 -0.60508691851E+01 -0.78566986288E+02  0.86960418269E+02  0.41800000000E+01 0. -1.
         -5    1    1    2    0  502 -0.64272935157E+02  0.72153459149E+02 -0.65195143981E+02  0.11664052066E+03  0.41800000000E+01 0. -1.
        -11    1    1    2    0    0  0.55032632257E+02 -0.64866023205E+02 -0.13473449468E+03  0.15934106701E+03  0.00000000000E+00 0. -1.
         11    1    1    2    0    0 -0.27300873782E+02 -0.12365667590E+01 -0.56129027018E+02  0.62428635101E+02  0.00000000000E+00 0.  1.
</event>
<event>
 6    1  0.9216756E-006  0.9854959E+02  0.7561462E-02  0.1283376E+00
          3   -1    0    0  501    0  0.00000000000E+00  0.00000000000E+00  0.54048957251E+03  0.54048957251E+03  0.00000000000E+00 0. -1.
         -3   -1    0    0    0  501 -0.00000000000E+00 -0.00000000000E+00 -0.29478205864E+02  0.29478205864E+02  0.00000000000E+00 0.  1.
          5    1    1    2  502    0  0.59144912633E+02  0.79965575718E+01  0.15663812810E+03  0.16767540427E+03  0.41800000000E+01 0.  1.
         -5    1    1    2    0  502 -0.33191807582E+02 -0.17799502052E+02  0.44477110050E+01  0.38154592083E+02  0.41800000000E+01 0.  1.
        -11    1    1    2    0    0 -0.39943895630E+02 -0.34584301690E+02  0.21555029580E+03  0.22193133790E+03  0.00000000000E+00 0. -1.
         11    1    1    2    0    0  0.13990790579E+02  0.44387246171E+02  0.13437523174E+03  0.14220644412E+03  0.00000000000E+00 0.  1.
</event>
<event>
 6    1  0.9216756E-006  0.1150134E+03  0.7561462E-02  0.1251558E+00
         -1   -1    0    0    0  501 -0.00000000000E+00  0.00000000000E+00  0.24803260386E+03  0.24803260386E+03  0.00000000000E+00 0.  1.
          1   -1    0    0  501    0  0.00000000000E+00 -0.00000000000E+00 -0.88892722365E+02  0.88892722365E+02  0.00000000000E+00 0. -1.
          5    1    1    2  502    0  0.46697118484E+02  0.56504346015E+02  0.14015512835E+03  0.15822229424E+03  0.41800000000E+01 0. -1.
         -5    1    1    2    0  502 -0.53837100317E+02 -0.88475957811E+01  0.47911061397E+02  0.72730018052E+02  0.41800000000E+01 0. -1.
        -11    1    1    2    0    0 -0.23773056808E+02 -0.63027437689E+02 -0.20887671772E+02  0.70525959502E+02  0.00000000000E+00 0. -1.
         11    1    1    2    0    0  0.30913038641E+02  0.15370687455E+02 -0.80386364827E+01  0.35447054424E+02  0.00000000000E+00 0.  1.
</event>
<event>
 6    1  0.9216756E-006  0.7606387E+02  0.7561462E-02  0.1340608E+00
         -2   -1    0    0    0  501 -0.00000000000E+00  0.00000000000E+00  0.53639815271E+02  0.53639815271E+02  0.00000000000E+00 0.  1.
          2   -1    0    0  501    0  0.00000000000E+00 -0.00000000000E+00 -0.29997477432E+03  0.29997477432E+03  0.00000000000E+00 0. -1.
          5    1    1    2  502    0  0.67314972598E+02  0.23893307029E+01 -0.10686314372E+03  0.12638915429E+03  0.41800000000E+01 0.  1.
         -5    1    1    2    0  502 -0.16929613237E+02  0.98357321272E+01  0.24854914051E+02  0.31915397276E+02  0.41800000000E+01 0.  1.
        -11    1    1    2    0    0 -0.14095069317E+02  0.13984124952E+02  0.47435194756E+01  0.20413909638E+02  0.00000000000E+00 0.  1.
         11    1    1    2    0    0 -0.36290290045E+02 -0.26209187782E+02 -0.16907024885E+03  0.17489612838E+03  0.00000000000E+00 0. -1.
</event>
<event>
 6    1  0.9216756E-006  0.1215220E+03  0.7561462E-02  0.1240607E+00
          3   -1    0    0  501    0  0.00000000000E+00  0.00000000000E+00  0.27419386891E+03  0.27419386891E+03  0.00000000000E+00 0. -1.
         -3   -1    0    0    0  501 -0.00000000000E+00 -0.00000000000E+00 -0.58600422831E+02  0.58600422831E+02  0.00000000000E+00 0.  1.
          5    1    1    2  502    0 -0.42676307104E+02 -0.54567546402E+02  0.69334219065E+02  0.98099901334E+02  0.41800000000E+01 0.  1.
         -5    1    1    2    0  502 -0.30733538273E+02  0.67051731306E+02  0.40403089751E+02  0.84204317628E+02  0.41800000000E+01 0.  1.
        -11    1    1    2    0    0 -0.12404230816E+02  0.24998187160E+01  0.38049691166E+02  0.40098541539E+02  0.00000000000E+00 0. -1.
         11    1    1    2    0    0  0.85814076193E+02 -0.14984003619E+02  0.67806446100E+02  0.11039153124E+03  0.00000000000E+00 0.  1.
</event>
<event>
 6    1  0.9216756E-006  0.1291121E+03  0.7561462E-02  0.1228779E+00
         -2   -1    0    0    0  501 -0.00000000000E+00  0.00000000000E+00  0.19103095323E+02  0.19103095323E+02  0.00000000000E+00 0.  1.
          2   -1    0    0  501    0  0.00000000000E+00 -0.00000000000E+00 -0.13317812535E+04  0.13317812535E+04  0.00000000000E+00 0. -1.
          5    1    1    2  502    0  0.10204292740E+03 -0.28463196934E+02 -0.71402081280E+03  0.72184908819E+03  0.41800000000E+01 0.  1.
         -5    1    1    2    0  502  0.16295380214E+02  0.25498194035E+02 -0.33853193570E+02  0.45598338021E+02  0.41800000000E+01 0.  1.
        -11    1    1    2    0    0 -0.11199245935E+02  0.89696181243E+01 -0.80831826265E+01  0.16468606504E+02  0.00000000000E+00 0.  1.
         11    1    1    2    0    0 -0.10713906168E+03 -0.60046152258E+01 -0.55672096913E+03  0.56696831606E+03  0.00000000000E+00 0. -1.
</event>
<event>
 6    1  0.9216756E-006  0.1349311E+03  0.7561462E-02  0.1220317E+00
          2   -1    0    0  501    0  0.00000000000E+00  0.00000000000E+00  0.10248999106E+04  0.10248999106E+04  0.00000000000E+00 0.  1.
         -2   -1    0    0    0  501 -0.00000000000E+00 -0.00000000000E+00 -0.22968536179E+02  0.22968536179E+02  0.00000000000E+00 0. -1.
          5    1    1    2  502    0  0.81946861292E+02  0.81470900176E+02  0.32348488342E+03  0.34352982090E+03  0.41800000000E+01 0. -1.
         -5    1    1    2    0  502 -0.13501342573E+02 -0.21213786955E+02  0.17417637295E+02  0.30873248893E+02  0.41800000000E+01 0. -1.
        -11    1    1    2    0    0  0.22265894767E+02 -0.18185465887E+02  0.13761819414E+03  0.14058893484E+03  0.00000000000E+00 0.  1.
         11    1    1    2    0    0 -0.90711413486E+02 -0.42071647334E+02  0.52341065959E+03  0.53287644217E+03  0.00000000000E+00 0. -1.
</event>
<event>
 6    1  0.9216756E-006  0.1197555E+03  0.7561462E-02  0.1243501E+00
         -2   -1    0    0    0  501 -0.00000000000E+00  0.00000000000E+00  0.38402858441E+03  0.38402858441E+03  0.00000000000E+00 0.  1.
          2   -1    0    0  501    0  0.00000000000E+00 -0.00000000000E+00 -0.50188525615E+02  0.50188525615E+02  0.00000000000E+00 0. -1.
          5    1    1    2  502    0 -0.38852463489E+02  0.53873919207E+02  0.11655567278E+03  0.13421851715E+03  0.41800000000E+01 0. -1.
         -5    1    1    2    0  502 -0.43028967965E+02 -0.70628025969E+02  0.10848850342E+03  0.13648090676E+03  0.41800000000E+01 0. -1.
        -11    1    1    2    0    0  0.19459149779E+02 -0.10413767342E+02 -0.11804572164E+02  0.25029042818E+02  0.00000000000E+00 0. -1.
         11    1    1    2    0    0  0.62422281674E+02  0.27167874103E+02  0.12060045476E+03  0.13848864329E+03  0.00000000000E+00 0.  1.
</event>
<event>
 6    1  0.9216756E-006  0.1122131E+03  0.7561462E-02  0.1256526E+00
         -1   -1    0    0    0  501 -0.00000000000E+00  0.00000000000E+00  0.49557168154E+02  0.49557168154E+02  0.00000000000E+00 0.  1.
          1   -1    0    0  501    0  0.00000000000E+00 -0.00000000000E+00 -0.28266368869E+03  0.28266368869E+03  0.00000000000E+00 0. -1.
          5    1    1    2  502    0  0.13641826478E+02 -0.67128331275E+02 -0.38716476351E+02  0.78795623169E+02  0.41800000000E+01 0.  1.
         -5    1    1    2    0  502 -0.44165658799E+02  0.34054883919E+02 -0.91852507688E+02  0.10753927703E+03  0.41800000000E+01 0.  1.
        -11    1    1    2    0    0  0.59960476618E+02  0.36562445050E+02 -0.52332064988E+02  0.87582624819E+02  0.00000000000E+00 0. -1.
         11    1    1    2    0    0 -0.29436644297E+02 -0.34889976935E+01 -0.50205471503E+02  0.58303331819E+02  0.00000000000E+00 0.  1.
</event>
<event>
 6    1  0.9216756E-006  0.1120094E+03  0.7561462E-02  0.1256893E+00
         -1   -1    0    0    0  501 -0.00000000000E+00  0.00000000000E+00  0.30714201404E+02  0.30714201404E+02  0.00000000000E+00 0.  1.
          1   -1    0    0  501    0  0.00000000000E+00 -0.00000000000E+00 -0.63490804705E+03  0.63490804705E+03  0.00000000000E+00 0. -1.
          5    1    1    2  502    0  0.10926573197E+02  0.44299741133E+02 -0.28893843993E+02  0.54168105809E+02  0.41800000000E+01 0. -1.
         -5    1    1    2    0  502  0.73535704995E+02 -0.27975460708E+02 -0.26727114499E+03  0.27864217853E+03  0.41800000000E+01 0. -1.
        -11    1    1    2    0    0 -0.68302735186E+02 -0.33288670897E+02 -0.29763525047E+03  0.30718095899E+03  0.00000000000E+00 0. -1.
         11    1    1    2    0    0 -0.16159543007E+02  0.16964390472E+02 -0.10393606202E+02  0.25631005134E+02  0.00000000000E+00 0.  1.
</event>
<event>
 6    1  0.9216756E-006  0.2721975E+03  0.7561462E-02  0.1100028E+00
         -2   -1    0    0    0  501 -0.00000000000E+00  0.00000000000E+00  0.65835477907E+03  0.65835477907E+03  0.00000000000E+00 0.  1.
          2   -1    0    0  501    0  0.00000000000E+00 -0.00000000000E+00 -0.12887041341E+03  0.12887041341E+03  0.00000000000E+00 0. -1.
          5    1    1    2  502    0 -0.60198189709E+02  0.15266399604E+03  0.58165931339E+02  0.17415758870E+03  0.41800000000E+01 0. -1.
         -5    1    1    2    0  502 -0.12316450853E+03  0.43064650651E+01  0.20942145952E+03  0.24302852078E+03  0.41800000000E+01 0.  1.
        -11    1    1    2    0    0  0.18101421652E+03 -0.11406074800E+03  0.24095221079E+03  0.32223278651E+03  0.00000000000E+00 0.  1.
         11    1    1    2    0    0  0.23484817191E+01 -0.42909713107E+02  0.20944764019E+02  0.47806296500E+02  0.00000000000E+00 0. -1.
</event>
<event>
 6    1  0.9216756E-006  0.1545155E+03  0.7561462E-02  0.1195032E+00
          2   -1    0    0  501    0  0.00000000000E+00  0.00000000000E+00  0.54388429953E+03  0.54388429953E+03  0.00000000000E+00 0.  1.
         -2   -1    0    0    0  501 -0.00000000000E+00 -0.00000000000E+00 -0.50828798444E+02  0.50828798444E+02  0.00000000000E+00 0. -1.
          5    1    1    2  502    0 -0.81811072305E+02 -0.55551295394E+02  0.91949906569E+02  0.13509720830E+03  0.41800000000E+01 0.  1.
         -5    1    1    2    0  502  0.35263751332E+02 -0.60015930502E+02  0.13993144328E+03  0.15634489212E+03  0.41800000000E+01 0.  1.
        -11    1    1    2    0    0  0.44622906457E+02  0.27891828008E+02  0.16466435240E+03  0.17286846677E+03  0.00000000000E+00 0.  1.
         11    1    1    2    0    0  0.19244145162E+01  0.87675397889E+02  0.96509798828E+02  0.13040253079E+03  0.00000000000E+00 0. -1.
</event>
<event>
 6    1  0.9216756E-006  0.6206124E+02  0.7561462E-02  0.1389380E+00
          2   -1    0    0  501    0  0.00000000000E+00  0.00000000000E+00  0.18650799650E+03  0.18650799650E+03  0.00000000000E+00 0. -1.
         -2   -1    0    0    0  501 -0.00000000000E+00 -0.00000000000E+00 -0.80469096256E+02  0.80469096256E+02  0.00000000000E+00 0.  1.
          5    1    1    2  502    0 -0.12891854260E+02  0.13325413379E+01 -0.57701186786E+02  0.59286380638E+02  0.41800000000E+01 0.  1.
         -5    1    1    2    0  502 -0.24522287529E+02  0.55613091746E+01  0.67120616702E+02  0.71797773864E+02  0.41800000000E+01 0.  1.
        -11    1    1    2    0    0  0.30826025787E+02  0.32663272678E+02  0.81460970552E+02  0.93021626363E+02  0.00000000000E+00 0. -1.
         11    1    1    2    0    0  0.65881160018E+01 -0.39557123190E+02  0.15158499773E+02  0.42871311887E+02  0.00000000000E+00 0.  1.
</event>
<event>
 6    1  0.9216756E-006  0.9628572E+02  0.7561462E-02  0.1288306E+00
          2   -1    0    0  501    0  0.00000000000E+00  0.00000000000E+00  0.17241497795E+02  0.17241497795E+02  0.00000000000E+00 0. -1.
         -2   -1    0    0    0  501 -0.00000000000E+00 -0.00000000000E+00 -0.79406704228E+03  0.79406704228E+03  0.00000000000E+00 0.  1.
          5    1    1    2  502    0 -0.22811773057E+02  0.37837715545E+02 -0.91789318929E+02  0.10195499584E+03  0.41800000000E+01 0. -1.
         -5    1    1    2    0  502  0.37925783227E+02 -0.44497205901E+02 -0.48172564718E+03  0.48527872189E+03  0.41800000000E+01 0. -1.
        -11    1    1    2    0    0 -0.44558619981E+02 -0.20926347560E+02 -0.14529648929E+03  0.15340942747E+03  0.00000000000E+00 0.  1.
         11    1    1    2    0    0  0.29444609811E+02  0.27585837917E+02 -0.58014089093E+02  0.70665394882E+02  0.00000000000E+00 0. -1.
</event>
<event>
 6    1  0.9216756E-006  0.1654907E+03  0.7561462E-02  0.1182634E+00
         -2   -1    0    0    0  501 -0.00000000000E+00  0.00000000000E+00  0.12361344601E+03  0.12361344601E+03  0.00000000000E+00 0.  1.
          2   -1    0    0  501    0  0.00000000000E+00 -0.00000000000E+00 -0.32607061334E+03  0.32607061334E+03  0.00000000000E+00 0. -1.
          5    1    1    2  502    0 -0.26964986414E+02 -0.27102293023E+02  0.15406878131E+01  0.38490140275E+02  0.41800000000E+01 0.  1.
         -5    1    1    2    0  502 -0.55018132074E+02  0.13534793931E+03  0.41739191716E+01  0.14622227441E+03  0.41800000000E+01 0.  1.
        -11    1    1    2    0    0  0.13383899372E+02 -0.62474826227E+02 -0.15285292856E+03  0.16566909924E+03  0.00000000000E+00 0. -1.
         11    1    1    2    0    0  0.68599219116E+02 -0.45770820058E+02 -0.55318845749E+02  0.99302545421E+02  0.00000000000E+00 0.  1.
</event>
<event>
 6    1  0.9216756E-006  0.1229351E+03  0.7561462E-02  0.1238332E+00
          2   -1    0    0  501    0  0.00000000000E+00  0.00000000000E+00  0.97615729840E+03  0.97615729840E+03  0.00000000000E+00 0. -1.
         -2   -1    0    0    0  501 -0.00000000000E+00 -0.00000000000E+00 -0.26579789951E+02  0.26579789951E+02  0.00000000000E+00 0.  1.
          5    1    1    2  502    0 -0.19152478520E+02  0.61151601497E+02  0.74410538925E+02  0.98289045688E+02  0.41800000000E+01 0.  1.
         -5    1    1    2    0  502 -0.24281255313E+02  0.48423975254E+02  0.45715967471E+03  0.46037691224E+03  0.41800000000E+01 0.  1.
        -11    1    1    2    0    0 -0.10694200851E+02 -0.19147522112E+02  0.12823505606E+02  0.25405429162E+02  0.00000000000E+00 0.  1.
         11    1    1    2    0    0  0.54127934684E+02 -0.90428054639E+02  0.40518378920E+03  0.41866570126E+03  0.00000000000E+00 0. -1.
</event>
<event>
 6    1  0.9216756E-006  0.9008145E+02  0.7561462E-02  0.1302655E+00
          2   -1    0    0  501    0  0.00000000000E+00  0.00000000000E+00  0.30209105192E+03  0.30209105192E+03  0.00000000000E+00 0. -1.
         -2   -1    0    0    0  501 -0.00000000000E+00 -0.00000000000E+00 -0.47305399072E+02  0.47305399072E+02  0.00000000000E+00 0.  1.
          5    1    1    2  502    0  0.31067637277E+02 -0.18811470148E+02 -0.17560926058E+02  0.40557712203E+02  0.41800000000E+01 0. -1.
         -5    1    1    2    0  502 -0.49646207809E+02  0.24122130760E+02  0.88936691588E+02  0.10475605306E+03  0.41800000000E+01 0. -1.
        -11    1    1    2    0    0 -0.31562129466E+02 -0.18260533942E+02  0.59469451088E+02  0.69758373899E+02  0.00000000000E+00 0.  1.
         11    1    1    2    0    0  0.50140699999E+02  0.12949873330E+02  0.12394043623E+03  0.13432431183E+03  0.00000000000E+00 0. -1.
</event>
<event>
 6    1  0.9216756E-006  0.8534340E+02  0.7561462E-02  0.1314537E+00
         -2   -1    0    0    0  501 -0.00000000000E+00  0.00000000000E+00  0.91383952749E+03  0.91383952749E+03  0.00000000000E+00 0.  1.
          2   -1    0    0  501    0  0.00000000000E+00 -0.00000000000E+00 -0.15929694926E+02  0.15929694926E+02  0.00000000000E+00 0. -1.
          5    1    1    2  502    0 -0.11744469050E+02  0.15594263377E+02  0.12454003526E+02  0.23530580260E+02  0.41800000000E+01 0. -1.
         -5    1    1    2    0  502  0.26952735687E+02 -0.42612982515E+02  0.61177874914E+03  0.61386727111E+03  0.41800000000E+01 0. -1.
        -11    1    1    2    0    0  0.40517492898E+02  0.84451056838E+01  0.14740959349E+03  0.15310968387E+03  0.00000000000E+00 0.  1.
         11    1    1    2    0    0 -0.55725759535E+02  0.18573613454E+02  0.12626748641E+03  0.13926168718E+03  0.00000000000E+00 0. -1.
</event>
<event>
 6    1  0.9216756E-006  0.6728490E+02  0.7561462E-02  0.1369577E+00
          2   -1    0    0  501    0  0.00000000000E+00  0.00000000000E+00  0.28389275112E+03  0.28389275112E+03  0.00000000000E+00 0. -1.
         -2   -1    0    0    0  501 -0.00000000000E+00 -0.00000000000E+00 -0.44058012325E+02  0.44058012325E+02  0.00000000000E+00 0.  1.
          5    1    1    2  502    0  0.18819957599E+02 -0.21146394317E+00 -0.22509167182E+02  0.29637316482E+02  0.41800000000E+01 0. -1.
         -5    1    1    2    0  502 -0.10787873853E+01 -0.20249051559E+02  0.14855715508E+03  0.14999296182E+03  0.41800000000E+01 0. -1.
        -11    1    1    2    0    0  0.34340211684E+02  0.24747642776E+02  0.58935506373E+02  0.72560939030E+02  0.00000000000E+00 0.  1.
         11    1    1    2    0    0 -0.52081381899E+02 -0.42871272747E+01  0.54851244526E+02  0.75759546110E+02  0.00000000000E+00 0. -1.
</event>
<event>
 6    1  0.9216756E-006  0.1908037E+03  0.7561462E-02  0.1157738E+00
          2   -1    0    0  501    0  0.00000000000E+00  0.00000000000E+00  0.20878744666E+03  0.20878744666E+03  0.00000000000E+00 0. -1.
         -2   -1    0    0    0  501 -0.00000000000E+00 -0.00000000000E+00 -0.19453021062E+03  0.19453021062E+03  0.00000000000E+00 0.  1.
          5    1    1    2  502    0  0.22520078518E+02  0.53152130350E+01 -0.10874381132E+02  0.25906176697E+02  0.41800000000E+01 0.  1.
         -5    1    1    2    0  502 -0.17009629405E+03  0.46954290444E+02 -0.45954493119E+02  0.18239172810E+03  0.41800000000E+01 0.  1.
        -11    1    1    2    0    0  0.83316057263E+02  0.19175235208E+02  0.34764395914E+02  0.92292027101E+02  0.00000000000E+00 0.  1.
         11    1    1    2    0    0  0.64260158269E+02 -0.71444738687E+02  0.36321714376E+02  0.10272772538E+03  0.00000000000E+00 0. -1.
</event>
<event>
 6    1  0.9216756E-006  0.1285133E+03  0.7561462E-02  0.1229679E+00
          1   -1    0    0  501    0  0.00000000000E+00  0.00000000000E+00  0.88547519536E+03  0.88547519536E+03  0.00000000000E+00 0. -1.
         -1   -1    0    0    0  501 -0.00000000000E+00 -0.00000000000E+00 -0.27601714403E+02  0.27601714403E+02  0.00000000000E+00 0.  1.
          5    1    1    2  502    0  0.14187425295E+02 -0.71847899392E+02  0.44610919769E+03  0.45209986988E+03  0.41800000000E+01 0.  1.
         -5    1    1    2    0  502  0.74430127574E+01 -0.37876139633E+02  0.20807324442E+02  0.44050170747E+02  0.41800000000E+01 0.  1.
        -11    1    1    2    0    0  0.31213752878E+02  0.75993631126E+02  0.22253197060E+03  0.23721258036E+03  0.00000000000E+00 0.  1.
         11    1    1    2    0    0 -0.52844190931E+02  0.33730407900E+02  0.16842498823E+03  0.17971428878E+03  0.00000000000E+00 0. -1.
</event>
<event>
 6    1  0.9216756E-006  0.1459373E+03  0.7561462E-02  0.1205556E+00
         -1   -1    0    0    0  501 -0.00000000000E+00  0.00000000000E+00  0.49790918149E+03  0.49790918149E+03  0.00000000000E+00 0.  1.
          1   -1    0    0  501    0  0.00000000000E+00 -0.00000000000E+00 -0.75722953061E+02  0.75722953061E+02  0.00000000000E+00 0. -1.
          5    1    1    2  502    0  0.18499854170E+02 -0.21079552656E+02  0.18708100532E+03  0.18921777690E+03  0.41800000000E+01 0.  1.
         -5    1    1    2    0  502 -0.71179437317E+02 -0.10495000727E+03  0.16009816305E+03  0.20427900170E+03  0.41800000000E+01 0.  1.
        -11    1    1    2    0    0  0.31267520561E+02  0.70431918255E+02 -0.85279730566E+01  0.77530892395E+02  0.00000000000E+00 0. -1.
         11    1    1    2    0    0  0.21412062586E+02  0.55597641673E+02  0.83535033114E+02  0.10260446355E+03  0.00000000000E+00 0.  1.
</event>
<event>
 6    1  0.9216756E-006  0.1359763E+03  0.7561462E-02  0.1218848E+00
          2   -1    0    0  501    0  0.00000000000E+00  0.00000000000E+00  0.98819059896E+03  0.98819059896E+03  0.00000000000E+00 0. -1.
         -2   -1    0    0    0  501 -0.00000000000E+00 -0.00000000000E+00 -0.33701026519E+02  0.33701026519E+02  0.00000000000E+00 0.  1.
          5    1    1    2  502    0  0.30727144992E+02  0.43945299330E+02  0.18328680371E+03  0.19101537003E+03  0.41800000000E+01 0. -1.
         -5    1    1    2    0  502 -0.45599217686E+02  0.62502772241E+02  0.41828923365E+02  0.88051214763E+02  0.41800000000E+01 0. -1.
        -11    1    1    2    0    0 -0.37297007527E+02 -0.60992352334E+02  0.36222193369E+03  0.36920978191E+03  0.00000000000E+00 0. -1.
         11    1    1    2    0    0  0.52169080221E+02 -0.45455719237E+02  0.36715191168E+03  0.37361525877E+03  0.00000000000E+00 0.  1.
</event>
<event>
 6    1  0.9216756E-006  0.1098048E+03  0.7561462E-02  0.1260932E+00
          2   -1    0    0  501    0  0.00000000000E+00  0.00000000000E+00  0.63090662331E+02  0.63090662331E+02  0.00000000000E+00 0. -1.
         -2   -1    0    0    0  501 -0.00000000000E+00 -0.00000000000E+00 -0.28885086264E+03  0.28885086264E+03  0.00000000000E+00 0.  1.
          5    1    1    2  502    0 -0.31799272637E+02  0.29963751667E+02 -0.64628681029E+02  0.78123997374E+02  0.41800000000E+01 0. -1.
         -5    1    1    2    0  502  0.58076137631E+02 -0.67457387187E+02 -0.15074673686E+03  0.17511535604E+03  0.41800000000E+01 0. -1.
        -11    1    1    2    0    0  0.24647587145E+02  0.22871062864E+02  0.18479338411E+02  0.38367629803E+02  0.00000000000E+00 0.  1.
         11    1    1    2    0    0 -0.50924452140E+02  0.14622572656E+02 -0.28864120831E+02  0.60334541750E+02  0.00000000000E+00 0. -1.
</event>
<event>
 6    1  0.9216756E-006  0.1442026E+03  0.7561462E-02  0.1207783E+00
          2   -1    0    0  501    0  0.00000000000E+00  0.00000000000E+00  0.86205668584E+03  0.86205668584E+03  0.00000000000E+00 0. -1.
         -2   -1    0    0    0  501 -0.00000000000E+00 -0.00000000000E+00 -0.28183175802E+02  0.28183175802E+02  0.00000000000E+00 0.  1.
          5    1    1    2  502    0 -0.29808266399E+01 -0.33402071470E+02  0.89512304366E+02  0.95679197002E+02  0.41800000000E+01 0.  1.
         -5    1    1    2    0  502  0.64625219984E+02  0.97899008048E+02  0.19203349900E+03  0.22506659453E+03  0.41800000000E+01 0.  1.
        -11    1    1    2    0    0  0.29734071550E+02 -0.14842029600E+02  0.17330120742E+03  0.17645880354E+03  0.00000000000E+00 0.  1.
         11    1    1    2    0    0 -0.91378464895E+02 -0.49654906977E+02  0.37902649925E+03  0.39303526657E+03  0.00000000000E+00 0. -1.
</event>
<event>
 6    1  0.9216756E-006  0.1984081E+03  0.7561462E-02  0.1151089E+00
         -2   -1    0    0    0  501 -0.00000000000E+00  0.00000000000E+00  0.58667531165E+02  0.58667531165E+02  0.00000000000E+00 0.  1.
          2   -1    0    0  501    0  0.00000000000E+00 -0.00000000000E+00 -0.80197266575E+03  0.80197266575E+03  0.00000000000E+00 0. -1.
          5    1    1    2  502    0  0.10661189406E+03  0.14320897566E+02 -0.34200883541E+03  0.35855083316E+03  0.41800000000E+01 0. -1.
         -5    1    1    2    0  502  0.73067334432E+02  0.42601240337E+02 -0.63712790194E+02  0.10597402075E+03  0.41800000000E+01 0. -1.
        -11    1    1    2    0    0 -0.16150951450E+03 -0.19243515244E+02 -0.23977640919E+03  0.28973843817E+03  0.00000000000E+00 0.  1.
         11    1    1    2    0    0 -0.18169713989E+02 -0.37678622659E+02 -0.97807099798E+02  0.10637690484E+03  0.00000000000E+00 0. -1.
</event>
<event>
 6    1  0.9216756E-006  0.1804842E+03  0.7561462E-02  0.1167335E+00
         -4   -1    0    0    0  501 -0.00000000000E+00  0.00000000000E+00  0.12984996361E+04  0.12984996361E+04  0.00000000000E+00 0.  1.
          4   -1    0    0  501    0  0.00000000000E+00 -0.00000000000E+00 -0.42589796703E+02  0.42589796703E+02  0.00000000000E+00 0. -1.
          5    1    1    2  502    0  0.33349190016E+02  0.83646769972E+01  0.61433118321E+02  0.70524015219E+02  0.41800000000E+01 0. -1.
         -5    1    1    2    0  502 -0.16476722852E+02 -0.81024281983E+02  0.68498199757E+03  0.68996682969E+03  0.41800000000E+01 0. -1.
        -11    1    1    2    0    0 -0.43775216223E+02 -0.78569545717E+02  0.66861682869E+02  0.11207108327E+03  0.00000000000E+00 0. -1.
         11    1    1    2    0    0  0.26902749059E+02  0.15122915070E+03  0.44263304061E+03  0.46852750460E+03  0.00000000000E+00 0.  1.
</event>
<event>
 6    1  0.9216756E-006  0.1396640E+03  0.7561462E-02  0.1213782E+00
         -1   -1    0    0    0  501 -0.00000000000E+00  0.00000000000E+00  0.12565424117E+03  0.12565424117E+03  0.00000000000E+00 0.  1.
          1   -1    0    0  501    0  0.00000000000E+00 -0.00000000000E+00 -0.44643193441E+03  0.44643193441E+03  0.00000000000E+00 0. -1.
          5    1    1    2  502    0  0.23131111953E+02  0.39240686451E+00 -0.32809304186E+02  0.40362422679E+02  0.41800000000E+01 0. -1.
         -5    1    1    2    0  502  0.13192291815E+02 -0.10972850500E+03  0.78825370832E+02  0.13581344875E+03  0.41800000000E+01 0. -1.
        -11    1    1    2    0    0  0.25421749053E+02  0.81724866035E+01 -0.10826972943E+03  0.11151407612E+03  0.00000000000E+00 0.  1.
         11    1    1    2    0    0 -0.61745152820E+02  0.10116361154E+03 -0.25852403046E+03  0.28439622804E+03  0.00000000000E+00 0. -1.
</event>
<event>
 6    1  0.9216756E-006  0.1146056E+03  0.7561462E-02  0.1252271E+00
         -2   -1    0    0    0  501 -0.00000000000E+00  0.00000000000E+00  0.18697071065E+02  0.18697071065E+02  0.00000000000E+00 0.  1.
          2   -1    0    0  501    0  0.00000000000E+00 -0.00000000000E+00 -0.95735448024E+03  0.95735448024E+03  0.00000000000E+00 0. -1.
          5    1    1    2  502    0 -0.50013248948E+02  0.23206932200E+02 -0.33343426181E+03  0.33798781949E+03  0.41800000000E+01 0. -1.
         -5    1    1    2    0  502  0.74045153874E+02  0.11305436509E+02 -0.11461206752E+03  0.13698137146E+03  0.41800000000E+01 0.  1.
        -11    1    1    2    0    0 -0.14643142827E+02 -0.65190804055E+02 -0.38322938917E+03  0.38901031772E+03  0.00000000000E+00 0.  1.
         11    1    1    2    0    0 -0.93887620995E+01  0.30678435345E+02 -0.10738169068E+03  0.11207204264E+03  0.00000000000E+00 0. -1.
</event>
<event>
 6    1  0.9216756E-006  0.4013840E+03  0.7561462E-02  0.1043302E+00
          2   -1    0    0  501    0  0.00000000000E+00  0.00000000000E+00  0.12473450224E+04  0.12473450224E+04  0.00000000000E+00 0.  1.
         -2   -1    0    0    0  501 -0.00000000000E+00 -0.00000000000E+00 -0.22439040011E+03  0.22439040011E+03  0.00000000000E+00 0. -1.
          5    1    1    2  502    0  0.18688005020E+02 -0.35233123063E+02  0.46299855733E+02  0.61251641066E+02  0.41800000000E+01 0.  1.
         -5    1    1    2    0  502  0.23650110597E+03 -0.26771586766E+03  0.48653139532E+01  0.35727538763E+03  0.41800000000E+01 0.  1.
        -11    1    1    2    0    0 -0.21222658384E+02 -0.17114928480E+01  0.39295935548E+02  0.44693411005E+02  0.00000000000E+00 0.  1.
         11    1    1    2    0    0 -0.23396645261E+03  0.30466048357E+03  0.93249351702E+03  0.10085149828E+04  0.00000000000E+00 0. -1.
</event>
<event>
 6    1  0.9216756E-006  0.1154569E+03  0.7561462E-02  0.1250786E+00
          2   -1    0    0  501    0  0.00000000000E+00  0.00000000000E+00  0.82633085474E+03  0.82633085474E+03  0.00000000000E+00 0. -1.
         -2   -1    0    0    0  501 -0.00000000000E+00 -0.00000000000E+00 -0.17420912596E+02  0.17420912596E+02  0.00000000000E+00 0.  1.
          5    1    1    2  502    0  0.54692993592E+02 -0.59556547775E+02  0.20823324159E+03  0.22342081648E+03  0.41800000000E+01 0. -1.
         -5    1    1    2    0  502 -0.38219318361E+02  0.29821698545E+02  0.12870355715E+03  0.13759406973E+03  0.41800000000E+01 0. -1.
        -11    1    1    2    0    0  0.30868422643E+02  0.42245526944E+02  0.25355107849E+03  0.25889320862E+03  0.00000000000E+00 0.  1.
         11    1    1    2    0    0 -0.47342097873E+02 -0.12510677713E+02  0.21842206491E+03  0.22384367252E+03  0.00000000000E+00 0. -1.
</event>
<event>
 6    1  0.9216756E-006  0.2454695E+03  0.7561462E-02  0.1116202E+00
         -2   -1    0    0    0  501 -0.00000000000E+00  0.00000000000E+00  0.63232288319E+02  0.63232288319E+02  0.00000000000E+00 0. -1.
          2   -1    0    0  501    0  0.00000000000E+00 -0.00000000000E+00 -0.10952694816E+04  0.10952694816E+04  0.00000000000E+00 0.  1.
          5    1    1    2  502    0 -0.15436144385E+03  0.10396299038E+03 -0.38526291517E+03  0.42787935791E+03  0.41800000000E+01 0. -1.
         -5    1    1    2    0  502 -0.55121204020E+02 -0.21680226630E+01 -0.26244943975E+02  0.61231666147E+02  0.41800000000E+01 0. -1.
        -11    1    1    2    0    0  0.40607405535E+02  0.15912733863E+02 -0.13972772098E+03  0.14637627026E+03  0.00000000000E+00 0. -1.
         11    1    1    2    0    0  0.16887524234E+03 -0.11770770158E+03 -0.48080161317E+03  0.52301447563E+03  0.00000000000E+00 0.  1.
</event>
<event>
 6    1  0.9216756E-006  0.9703586E+02  0.7561462E-02  0.1286656E+00
          2   -1    0    0  501    0  0.00000000000E+00  0.00000000000E+00  0.99579906733E+02  0.99579906733E+02  0.00000000000E+00 0. -1.
         -2   -1    0    0    0  501 -0.00000000000E+00 -0.00000000000E+00 -0.14076829830E+03  0.14076829830E+03  0.00000000000E+00 0.  1.
          5    1    1    2  502    0 -0.14313986427E+01  0.80839451990E+02  0.31359998971E+01  0.81020817050E+02  0.41800000000E+01 0. -1.
         -5    1    1    2    0  502 -0.30231967909E+02 -0.42421399310E+02 -0.13707877422E+02  0.54027079381E+02  0.41800000000E+01 0. -1.
        -11    1    1    2    0    0  0.33883719385E+02 -0.14540390986E+02 -0.58108204095E+02  0.68819276315E+02  0.00000000000E+00 0.  1.
         11    1    1    2    0    0 -0.22203528339E+01 -0.23877661694E+02  0.27491690053E+02  0.36481032286E+02  0.00000000000E+00 0. -1.
</event>
<event>
 6    1  0.9216756E-006  0.8767596E+02  0.7561462E-02  0.1308579E+00
         -2   -1    0    0    0  501 -0.00000000000E+00  0.00000000000E+00  0.13406581008E+02  0.13406581008E+02  0.00000000000E+00 0.  1.
          2   -1    0    0  501    0  0.00000000000E+00 -0.00000000000E+00 -0.92980533989E+03  0.92980533989E+03  0.00000000000E+00 0. -1.
          5    1    1    2  502    0  0.33775276423E+02 -0.31009404074E+02 -0.59262636443E+02  0.75045885408E+02  0.41800000000E+01 0.  1.
         -5    1    1    2    0  502 -0.12760386112E+02  0.32897514801E+02 -0.39518856434E+03  0.39678274624E+03  0.41800000000E+01 0.  1.
        -11    1    1    2    0    0  0.12325343968E+02 -0.40750673627E+02 -0.21853198939E+03  0.22264043184E+03  0.00000000000E+00 0.  1.
         11    1    1    2    0    0 -0.33340234279E+02  0.38862562900E+02 -0.24341556872E+03  0.24874285741E+03  0.00000000000E+00 0. -1.
</event>
<event>
 6    1  0.9216756E-006  0.1965139E+03  0.7561462E-02  0.1152714E+00
          1   -1    0    0  501    0  0.00000000000E+00  0.00000000000E+00  0.93694998247E+03  0.93694998247E+03  0.00000000000E+00 0. -1.
         -1   -1    0    0    0  501 -0.00000000000E+00 -0.00000000000E+00 -0.54976103899E+02  0.54976103899E+02  0.00000000000E+00 0.  1.
          5    1    1    2  502    0 -0.12905823910E+03 -0.45909304402E+02  0.18131826767E+03  0.22728281919E+03  0.41800000000E+01 0. -1.
         -5    1    1    2    0  502  0.75746847143E-03 -0.66723223521E+02  0.45101619619E+02  0.80645006354E+02  0.41800000000E+01 0.  1.
        -11    1    1    2    0    0  0.10909375490E+03  0.43966722232E+02  0.48502497748E+03  0.49908290774E+03  0.00000000000E+00 0.  1.
         11    1    1    2    0    0  0.19963726727E+02  0.68665805692E+02  0.17052901380E+03  0.18491535307E+03  0.00000000000E+00 0. -1.
</event>
<event>
 6    1  0.9216756E-006  0.8581663E+02  0.7561462E-02  0.1313311E+00
          2   -1    0    0  501    0  0.00000000000E+00  0.00000000000E+00  0.30449289234E+02  0.30449289234E+02  0.00000000000E+00 0.  1.
         -2   -1    0    0    0  501 -0.00000000000E+00 -0.00000000000E+00 -0.29393946859E+03  0.29393946859E+03  0.00000000000E+00 0. -1.
          5    1    1    2  502    0 -0.28584544809E+02 -0.37344241698E+02 -0.60657249328E+02  0.76866396338E+02  0.41800000000E+01 0. -1.
         -5    1    1    2    0  502  0.28461256470E+02  0.64117749379E+02 -0.12864136197E+03  0.14658513334E+03  0.41800000000E+01 0.  1.
        -11    1    1    2    0    0 -0.81567251181E+01 -0.38741717187E+02 -0.76561469782E+02  0.86192293568E+02  0.00000000000E+00 0. -1.
         11    1    1    2    0    0  0.82800134566E+01  0.11968209506E+02  0.23699017260E+01  0.14744934582E+02  0.00000000000E+00 0.  1.
</event>
<event>
 6    1  0.9216756E-006  0.9591961E+02  0.7561462E-02  0.1289118E+00
          2   -1    0    0  501    0  0.00000000000E+00  0.00000000000E+00  0.18858217636E+02  0.18858217636E+02  0.00000000000E+00 0. -1.
         -2   -1    0    0    0  501 -0.00000000000E+00 -0.00000000000E+00 -0.92157747353E+03  0.92157747353E+03  0.00000000000E+00 0.  1.
          5    1    1    2  502    0  0.39634597623E+02 -0.27427825796E+02 -0.60586745266E+03  0.60779604272E+03  0.41800000000E+01 0.  1.
         -5    1    1    2    0  502 -0.21777547116E+02 -0.32386213555E+02 -0.54212015338E+02  0.66929391107E+02  0.41800000000E+01 0.  1.
        -11    1    1    2    0    0 -0.12468476063E+02  0.81201159502E+02 -0.21618013750E+03  0.23126379537E+03  0.00000000000E+00 0.  1.
         11    1    1    2    0    0 -0.53885744441E+01 -0.21387120150E+02 -0.26459650395E+02  0.34446461965E+02  0.00000000000E+00 0. -1.
</event>
<event>
 6    1  0.9216756E-006  0.9706807E+02  0.7561462E-02  0.1286585E+00
         -2   -1    0    0    0  501 -0.00000000000E+00  0.00000000000E+00  0.21526564370E+03  0.21526564370E+03  0.00000000000E+00 0.  1.
          2   -1    0    0  501    0  0.00000000000E+00 -0.00000000000E+00 -0.83633119468E+02  0.83633119468E+02  0.00000000000E+00 0. -1.
          5    1    1    2  502    0  0.42272700401E+02 -0.27725223678E+02  0.50077986465E+02  0.71280757260E+02  0.41800000000E+01 0.  1.
         -5    1    1    2    0  502 -0.79471326282E+02  0.11242825833E+02  0.99541103269E+02  0.12793747095E+03  0.41800000000E+01 0.  1.
        -11    1    1    2    0    0  0.41835859999E+02  0.28189255395E+02 -0.46438467509E+02  0.68566789090E+02  0.00000000000E+00 0. -1.
         11    1    1    2    0    0 -0.46372341174E+01 -0.11706857550E+02  0.28451902006E+02  0.31113745864E+02  0.00000000000E+00 0.  1.
</event>
<event>
 6    1  0.9216756E-006  0.1267367E+03  0.7561462E-02  0.1232380E+00
          2   -1    0    0  501    0  0.00000000000E+00  0.00000000000E+00  0.36022512409E+03  0.36022512409E+03  0.00000000000E+00 0. -1.
         -2   -1    0    0    0  501 -0.00000000000E+00 -0.00000000000E+00 -0.57927293139E+02  0.57927293139E+02  0.00000000000E+00 0.  1.
          5    1    1    2  502    0  0.53098734117E+01  0.25162180807E+02 -0.95454334755E+01  0.27747392649E+02  0.41800000000E+01 0. -1.
         -5    1    1    2    0  502  0.78986508582E+02 -0.72192910950E+02  0.14573615312E+03  0.18085127496E+03  0.41800000000E+01 0. -1.
        -11    1    1    2    0    0  0.13000237033E+02  0.92517579052E+01  0.35069926807E+01  0.16337080061E+02  0.00000000000E+00 0. -1.
         11    1    1    2    0    0 -0.97296619026E+02  0.37778972238E+02  0.16260011862E+03  0.19321666955E+03  0.00000000000E+00 0.  1.
</event>
<event>
 6    1  0.9216756E-006  0.1175114E+03  0.7561462E-02  0.1247260E+00
          2   -1    0    0  501    0  0.00000000000E+00  0.00000000000E+00  0.12410863284E+03  0.12410863284E+03  0.00000000000E+00 0. -1.
         -2   -1    0    0    0  501 -0.00000000000E+00 -0.00000000000E+00 -0.27312265543E+03  0.27312265543E+03  0.00000000000E+00 0.  1.
          5    1    1    2  502    0  0.49767164918E+01 -0.77187873380E+01 -0.14619866482E+03  0.14654647515E+03  0.41800000000E+01 0. -1.
         -5    1    1    2    0  502  0.93286514635E+02 -0.20393488004E+02 -0.50894065071E+02  0.10828640924E+03  0.41800000000E+01 0. -1.
        -11    1    1    2    0    0 -0.67081773124E+02 -0.21769207484E+02  0.74755609994E+01  0.70920707076E+02  0.00000000000E+00 0.  1.
         11    1    1    2    0    0 -0.31181458003E+02  0.49881482825E+02  0.40603146295E+02  0.71477696809E+02  0.00000000000E+00 0. -1.
</event>
<event>
 6    1  0.9216756E-006  0.1028823E+03  0.7561462E-02  0.1274349E+00
         -2   -1    0    0    0  501 -0.00000000000E+00  0.00000000000E+00  0.15884661834E+03  0.15884661834E+03  0.00000000000E+00 0. -1.
          2   -1    0    0  501    0  0.00000000000E+00 -0.00000000000E+00 -0.87932579983E+02  0.87932579983E+02  0.00000000000E+00 0.  1.
          5    1    1    2  502    0  0.51736294846E+01  0.43410424452E+02 -0.33989917321E+01  0.44048347732E+02  0.41800000000E+01 0.  1.
         -5    1    1    2    0  502 -0.13491547063E+02 -0.64088184803E+02  0.83302886038E+02  0.10604791604E+03  0.41800000000E+01 0.  1.
        -11    1    1    2    0    0  0.34877533698E+02 -0.25324938284E+02 -0.25969021196E+01  0.43180305193E+02  0.00000000000E+00 0.  1.
         11    1    1    2    0    0 -0.26559616120E+02  0.46002698635E+02 -0.63929538264E+01  0.53502629363E+02  0.00000000000E+00 0. -1.
</event>
<event>
 6    1  0.9216756E-006  0.9243045E+02  0.7561462E-02  0.1297071E+00
         -3   -1    0    0    0  501 -0.00000000000E+00  0.00000000000E+00  0.69166327846E+03  0.69166327846E+03  0.00000000000E+00 0.  1.
          3   -1    0    0  501    0  0.00000000000E+00 -0.00000000000E+00 -0.40850193941E+02  0.40850193941E+02  0.00000000000E+00 0. -1.
          5    1    1    2  502    0 -0.26486779030E+02  0.41309892543E+02  0.55423840681E+03  0.55642226831E+03  0.41800000000E+01 0.  1.
         -5    1    1    2    0  502 -0.25866061289E+02 -0.25704027028E+02  0.44511534796E+02  0.57693147443E+02  0.41800000000E+01 0.  1.
        -11    1    1    2    0    0  0.74558507608E+02 -0.17612623571E+02  0.19708436027E+02  0.79104980983E+02  0.00000000000E+00 0.  1.
         11    1    1    2    0    0 -0.22205667289E+02  0.20067580550E+01  0.32354706881E+02  0.39293075662E+02  0.00000000000E+00 0. -1.
</event>
<event>
 6    1  0.9216756E-006  0.1139157E+03  0.7561462E-02  0.1253486E+00
         -1   -1    0    0    0  501 -0.00000000000E+00  0.00000000000E+00  0.16758236344E+03  0.16758236344E+03  0.00000000000E+00 0.  1.
          1   -1    0    0  501    0  0.00000000000E+00 -0.00000000000E+00 -0.14116192524E+03  0.14116192524E+03  0.00000000000E+00 0. -1.
          5    1    1    2  502    0 -0.16639002589E+02  0.26763675574E+02  0.72869446128E+02  0.79502071146E+02  0.41800000000E+01 0. -1.
         -5    1    1    2    0  502 -0.76446337899E+02  0.23554101886E+02 -0.36993457493E+02  0.88231664334E+02  0.41800000000E+01 0. -1.
        -11    1    1    2    0    0  0.58275612702E+02 -0.55821026688E+02  0.31813210225E+02  0.86741653207E+02  0.00000000000E+00 0.  1.
         11    1    1    2    0    0  0.34809727787E+02  0.55032492280E+01 -0.41268760658E+02  0.54268899997E+02  0.00000000000E+00 0. -1.
</event>
<event>
 6    1  0.9216756E-006  0.1167115E+03  0.7561462E-02  0.1248623E+00
         -1   -1    0    0    0  501 -0.00000000000E+00  0.00000000000E+00  0.26910334011E+02  0.26910334011E+02  0.00000000000E+00 0.  1.
          1   -1    0    0  501    0  0.00000000000E+00 -0.00000000000E+00 -0.75826554638E+03  0.75826554638E+03  0.00000000000E+00 0. -1.
          5    1    1    2  502    0  0.15834993629E+02  0.10722480562E+03 -0.41626342646E+03  0.43016347889E+03  0.41800000000E+01 0. -1.
         -5    1    1    2    0  502 -0.75434993070E+01 -0.14976351467E+02 -0.36427873149E+01  0.17661760514E+02  0.41800000000E+01 0. -1.
        -11    1    1    2    0    0 -0.31866634209E+02 -0.49991804692E+02 -0.26019671932E+03  0.26686512634E+03  0.00000000000E+00 0. -1.
         11    1    1    2    0    0  0.23575139888E+02 -0.42256649457E+02 -0.51252279271E+02  0.70485514643E+02  0.00000000000E+00 0.  1.
</event>
<event>
 6    1  0.9216756E-006  0.1129162E+03  0.7561462E-02  0.1255263E+00
         -1   -1    0    0    0  501 -0.00000000000E+00  0.00000000000E+00  0.20732927161E+02  0.20732927161E+02  0.00000000000E+00 0.  1.
          1   -1    0    0  501    0  0.00000000000E+00 -0.00000000000E+00 -0.65310451289E+03  0.65310451289E+03  0.00000000000E+00 0. -1.
          5    1    1    2  502    0 -0.42140105240E+02  0.84420517742E+01 -0.69520974189E+02  0.81839446235E+02  0.41800000000E+01 0.  1.
         -5    1    1    2    0  502  0.84439418877E+02 -0.68148199031E+01 -0.24558293734E+03  0.25981706785E+03  0.41800000000E+01 0.  1.
        -11    1    1    2    0    0 -0.30178711355E+02 -0.44228334453E+02 -0.15554624459E+03  0.16450390388E+03  0.00000000000E+00 0.  1.
         11    1    1    2    0    0 -0.12120602282E+02  0.42601102582E+02 -0.16172142961E+03  0.16767702209E+03  0.00000000000E+00 0. -1.
</event>
<event>
 6    1  0.9216756E-006  0.1431196E+03  0.7561462E-02  0.1209192E+00
         -2   -1    0    0    0  501 -0.00000000000E+00  0.00000000000E+00  0.47552907243E+03  0.47552907243E+03  0.00000000000E+00 0.  1.
          2   -1    0    0  501    0  0.00000000000E+00 -0.00000000000E+00 -0.57342386202E+02  0.57342386202E+02  0.00000000000E+00 0. -1.
          5    1    1    2  502    0  0.42040222911E+02  0.73281240384E+02  0.91284871677E+02  0.12445047502E+03  0.41800000000E+01 0.  1.
         -5    1    1    2    0  502  0.72200155671E+02 -0.39806971078E+02  0.16631438002E+03  0.18567553104E+03  0.41800000000E+01 0.  1.
        -11    1    1    2    0    0 -0.94173958527E+02 -0.26137884624E+02  0.17251509684E+03  0.19827602507E+03  0.00000000000E+00 0.  1.
         11    1    1    2    0    0 -0.20066420055E+02 -0.73363846815E+01 -0.11927662318E+02  0.24469427504E+02  0.00000000000E+00 0. -1.
</event>
<event>
 6    1  0.9216756E-006  0.6331302E+02  0.7561462E-02  0.1384432E+00
         -4   -1    0    0    0  501 -0.00000000000E+00  0.00000000000E+00  0.13672611708E+03  0.13672611708E+03  0.00000000000E+00 0. -1.
          4   -1    0    0  501    0  0.00000000000E+00 -0.00000000000E+00 -0.11986382088E+03  0.11986382088E+03  0.00000000000E+00 0.  1.
          5    1    1    2  502    0 -0.12599484149E+02  0.11629205090E+02  0.10382052533E+03  0.10530982524E+03  0.41800000000E+01 0. -1.
         -5    1    1    2    0  502 -0.63249343971E+01  0.75426775114E+01 -0.37366742312E+02  0.38866986121E+02  0.41800000000E+01 0. -1.
        -11    1    1    2    0    0 -0.31402693815E+01  0.37415231074E+02 -0.69050165911E+01  0.38176433335E+02  0.00000000000E+00 0.  1.
         11    1    1    2    0    0  0.22064687928E+02 -0.56587113675E+02 -0.42686470223E+02  0.74236693269E+02  0.00000000000E+00 0. -1.
</event>
<event>
 6    1  0.9216756E-006  0.1111064E+03  0.7561462E-02  0.1258535E+00
         -1   -1    0    0    0  501 -0.00000000000E+00  0.00000000000E+00  0.28303488046E+02  0.28303488046E+02  0.00000000000E+00 0.  1.
          1   -1    0    0  501    0  0.00000000000E+00 -0.00000000000E+00 -0.49446161258E+03  0.49446161258E+03  0.00000000000E+00 0. -1.
          5    1    1    2  502    0 -0.16053435075E+02 -0.71579273523E+02 -0.15929009250E+03  0.17541981401E+03  0.41800000000E+01 0. -1.
         -5    1    1    2    0  502  0.43891020904E+02  0.23577941659E+02 -0.77393329492E+02  0.92138704673E+02  0.41800000000E+01 0.  1.
        -11    1    1    2    0    0  0.17804075107E+02  0.49977316440E+02 -0.61942863276E+02  0.81557559795E+02  0.00000000000E+00 0.  1.
         11    1    1    2    0    0 -0.45641660935E+02 -0.19759845761E+01 -0.16753183927E+03  0.17364902216E+03  0.00000000000E+00 0. -1.
</event>
<event>
 6    1  0.9216756E-006  0.1782545E+03  0.7561462E-02  0.1169503E+00
         -1   -1    0    0    0  501 -0.00000000000E+00  0.00000000000E+00  0.51002795479E+02  0.51002795479E+02  0.00000000000E+00 0.  1.
          1   -1    0    0  501    0  0.00000000000E+00 -0.00000000000E+00 -0.78690954451E+03  0.78690954451E+03  0.00000000000E+00 0. -1.
          5    1    1    2  502    0 -0.77870589201E+02  0.22642933271E+02 -0.43673550011E+02  0.92202941711E+02  0.41800000000E+01 0. -1.
         -5    1    1    2    0  502 -0.84519408617E+02 -0.28618240052E+02 -0.25419155318E+03  0.26943153528E+03  0.41800000000E+01 0. -1.
        -11    1    1    2    0    0  0.46328048990E+01  0.26487362140E+02 -0.47589757098E+02  0.54661030131E+02  0.00000000000E+00 0.  1.
         11    1    1    2    0    0  0.15775719292E+03 -0.20512055358E+02 -0.39045188875E+03  0.42161683287E+03  0.00000000000E+00 0. -1.
</event>
<event>
 6    1  0.9216756E-006  0.8981351E+02  0.7561462E-02  0.1303304E+00
          1   -1    0    0  501    0  0.00000000000E+00  0.00000000000E+00  0.91834132459E+02  0.91834132459E+02  0.00000000000E+00 0.  1.
         -1   -1    0    0    0  501 -0.00000000000E+00 -0.00000000000E+00 -0.13107583646E+03  0.13107583646E+03  0.00000000000E+00 0. -1.
          5    1    1    2  502    0  0.16206623972E+02 -0.34563206640E+02  0.33044817468E+02  0.50662631942E+02  0.41800000000E+01 0.  1.
         -5    1    1    2    0  502 -0.90177350589E+01  0.50323199925E+02 -0.59143597721E+02  0.78289089582E+02  0.41800000000E+01 0.  1.
        -11    1    1    2    0    0 -0.47853548480E+02 -0.75831720365E+01 -0.19049850288E+02  0.52061150547E+02  0.00000000000E+00 0.  1.
         11    1    1    2    0    0  0.40664659567E+02 -0.81768212479E+01  0.59069265366E+01  0.41897096851E+02  0.00000000000E+00 0. -1.
</event>
<event>
 6    1  0.9216756E-006  0.1467292E+03  0.7561462E-02  0.1204551E+00
         -1   -1    0    0    0  501 -0.00000000000E+00  0.00000000000E+00  0.38101910329E+02  0.38101910329E+02  0.00000000000E+00 0.  1.
          1   -1    0    0  501    0  0.00000000000E+00 -0.00000000000E+00 -0.64715724596E+03  0.64715724596E+03  0.00000000000E+00 0. -1.
          5    1    1    2  502    0  0.25742069774E+02  0.49026347143E+02 -0.95859424094E+02  0.11078239236E+03  0.41800000000E+01 0.  1.
         -5    1    1    2    0  502 -0.10549178816E+03  0.20338295429E+02 -0.14642145536E+03  0.18165593472E+03  0.41800000000E+01 0.  1.
        -11    1    1    2    0    0  0.14973247008E+02 -0.63645368719E+02 -0.11022378473E+03  0.12815698890E+03  0.00000000000E+00 0.  1.
         11    1    1    2    0    0  0.64776471383E+02 -0.57192738532E+01 -0.25655067145E+03  0.26466384030E+03  0.00000000000E+00 0. -1.
</event>
<event>
 6    1  0.9216756E-006  0.1063462E+03  0.7561462E-02  0.1267490E+00
          3   -1    0    0  501    0  0.00000000000E+00  0.00000000000E+00  0.10662989976E+03  0.10662989976E+03  0.00000000000E+00 0. -1.
         -3   -1    0    0    0  501 -0.00000000000E+00 -0.00000000000E+00 -0.13603847978E+03  0.13603847978E+03  0.00000000000E+00 0.  1.
          5    1    1    2  502    0  0.39358332364E+02 -0.18409878577E+02 -0.44026726306E+02  0.61998604701E+02  0.41800000000E+01 0.  1.
         -5    1    1    2    0  502 -0.66101753905E+02 -0.11362959875E+02  0.22961125877E+02  0.71015804072E+02  0.41800000000E+01 0.  1.
        -11    1    1    2    0    0 -0.16264013860E+02  0.51248918502E+02  0.15551374764E+02  0.55971555736E+02  0.00000000000E+00 0. -1.
         11    1    1    2    0    0  0.43007435400E+02 -0.21476080050E+02 -0.23894354359E+02  0.53682415037E+02  0.00000000000E+00 0.  1.
</event>
<event>
 6    1  0.9216756E-006  0.1573433E+03  0.7561462E-02  0.1191729E+00
         -1   -1    0    0    0  501 -0.00000000000E+00  0.00000000000E+00  0.70525416372E+02  0.70525416372E+02  0.00000000000E+00 0.  1.
          1   -1    0    0  501    0  0.00000000000E+00 -0.00000000000E+00 -0.58262369058E+03  0.58262369058E+03  0.00000000000E+00 0. -1.
          5    1    1    2  502    0 -0.14843675545E+02  0.18195591096E+02 -0.11447438407E+03  0.11693276379E+03  0.41800000000E+01 0.  1.
         -5    1    1    2    0  502 -0.95108229029E+02  0.93861914736E+02 -0.50563373374E+02  0.14293271632E+03  0.41800000000E+01 0.  1.
        -11    1    1    2    0    0  0.32784257972E+02 -0.38034667001E+02 -0.29579588125E+02  0.58278602405E+02  0.00000000000E+00 0.  1.
         11    1    1    2    0    0  0.77167646602E+02 -0.74022838831E+02 -0.31748092863E+03  0.33500502443E+03  0.00000000000E+00 0. -1.
</event>
<event>
 6    1  0.9216756E-006  0.1087750E+03  0.7561462E-02  0.1262855E+00
         -2   -1    0    0    0  501 -0.00000000000E+00  0.00000000000E+00  0.57394455830E+03  0.57394455830E+03  0.00000000000E+00 0.  1.
          2   -1    0    0  501    0  0.00000000000E+00 -0.00000000000E+00 -0.41509252456E+02  0.41509252456E+02  0.00000000000E+00 0. -1.
          5    1    1    2  502    0 -0.33558666884E+02  0.48240692066E+02  0.24946628528E+03  0.25632839949E+03  0.41800000000E+01 0. -1.
         -5    1    1    2    0  502 -0.36895095918E+02 -0.72922154491E+02  0.19771583149E+03  0.21398109996E+03  0.41800000000E+01 0. -1.
        -11    1    1    2    0    0  0.44169673765E+02  0.60384353559E+01  0.10016429814E+03  0.10963717164E+03  0.00000000000E+00 0.  1.
         11    1    1    2    0    0  0.26284089036E+02  0.18643027069E+02 -0.14911109058E+02  0.35507139678E+02  0.00000000000E+00 0. -1.
</event>
<event>
 6    1  0.9216756E-006  0.9913891E+02  0.7561462E-02  0.1282117E+00
         -2   -1    0    0    0  501 -0.00000000000E+00  0.00000000000E+00  0.53623409169E+02  0.53623409169E+02  0.00000000000E+00 0.  1.
          2   -1    0    0  501    0  0.00000000000E+00 -0.00000000000E+00 -0.22933050203E+03  0.22933050203E+03  0.00000000000E+00 0. -1.
          5    1    1    2  502    0  0.30049903172E+02 -0.35223798777E+02 -0.46340752066E+01  0.46718944058E+02  0.41800000000E+01 0. -1.
         -5    1    1    2    0  502 -0.54851731146E+02  0.33621550033E+02 -0.96470223425E+02  0.11603058840E+03  0.41800000000E+01 0. -1.
        -11    1    1    2    0    0 -0.96493074950E-01  0.40843688331E+02 -0.12650125993E+02  0.42757945168E+02  0.00000000000E+00 0.  1.
         11    1    1    2    0    0  0.24898321049E+02 -0.39241439587E+02 -0.61952668241E+02  0.77446433579E+02  0.00000000000E+00 0. -1.
</event>
<event>
 6    1  0.9216756E-006  0.1161218E+03  0.7561462E-02  0.1249635E+00
          2   -1    0    0  501    0  0.00000000000E+00  0.00000000000E+00  0.13636817062E+03  0.13636817062E+03  0.00000000000E+00 0. -1.
         -2   -1    0    0    0  501 -0.00000000000E+00 -0.00000000000E+00 -0.10181078058E+03  0.10181078058E+03  0.00000000000E+00 0.  1.
          5    1    1    2  502    0  0.19193791314E+02  0.74216126754E+02  0.10423795330E+02  0.77476209280E+02  0.41800000000E+01 0. -1.
         -5    1    1    2    0  502  0.17879401375E+02 -0.51542724264E+02 -0.27280376301E+01  0.54783574248E+02  0.41800000000E+01 0. -1.
        -11    1    1    2    0    0 -0.67620693717E+02 -0.16029118696E+02  0.27273356660E+02  0.74654717523E+02  0.00000000000E+00 0.  1.
         11    1    1    2    0    0  0.30547501028E+02 -0.66442837939E+01 -0.41172431328E+00  0.31264450148E+02  0.00000000000E+00 0. -1.
</event>
<event>
 6    1  0.9216756E-006  0.2073744E+03  0.7561462E-02  0.1143662E+00
         -1   -1    0    0    0  501 -0.00000000000E+00  0.00000000000E+00  0.40949386467E+03  0.40949386467E+03  0.00000000000E+00 0.  1.
          1   -1    0    0  501    0  0.00000000000E+00 -0.00000000000E+00 -0.11064139127E+03  0.11064139127E+03  0.00000000000E+00 0. -1.
          5    1    1    2  502    0 -0.38023862661E+02  0.17009280660E+02  0.50936109106E+01  0.42172823386E+02  0.41800000000E+01 0.  1.
         -5    1    1    2    0  502 -0.98350134926E+02 -0.13751273453E+03  0.16841128282E+03  0.23866783148E+03  0.41800000000E+01 0.  1.
        -11    1    1    2    0    0  0.59381237085E+02 -0.16182058308E+01  0.39377863832E+02  0.71269671445E+02  0.00000000000E+00 0.  1.
         11    1    1    2    0    0  0.76992760502E+02  0.12212165970E+03  0.85969715834E+02  0.16802492964E+03  0.00000000000E+00 0. -1.
</event>
<event>
 6    1  0.9216756E-006  0.3252162E+03  0.7561462E-02  0.1073273E+00
         -2   -1    0    0    0  501 -0.00000000000E+00  0.00000000000E+00  0.14664794076E+03  0.14664794076E+03  0.00000000000E+00 0.  1.
          2   -1    0    0  501    0  0.00000000000E+00 -0.00000000000E+00 -0.86803707453E+03  0.86803707453E+03  0.00000000000E+00 0. -1.
          5    1    1    2  502    0 -0.15579064066E+03 -0.17700385209E+03 -0.40471973717E+03  0.46841928379E+03  0.41800000000E+01 0. -1.
         -5    1    1    2    0  502  0.22107313653E+03  0.13028093965E+02 -0.76504374072E+02  0.23433619989E+03  0.41800000000E+01 0.  1.
        -11    1    1    2    0    0 -0.49621699452E+02  0.16940667632E+03 -0.23621927426E+03  0.29489062476E+03  0.00000000000E+00 0. -1.
         11    1    1    2    0    0 -0.15660796425E+02 -0.54309181911E+01 -0.39457482631E+01  0.17038906843E+02  0.00000000000E+00 0.  1.
</event>
<event>
 6    1  0.9216756E-006  0.8771275E+02  0.7561462E-02  0.1308487E+00
         -2   -1    0    0    0  501 -0.00000000000E+00  0.00000000000E+00  0.11357457135E+03  0.11357457135E+03  0.00000000000E+00 0.  1.
          2   -1    0    0  501    0  0.00000000000E+00 -0.00000000000E+00 -0.12111742587E+03  0.12111742587E+03  0.00000000000E+00 0. -1.
          5    1    1    2  502    0  0.60529580669E+01  0.54770571128E+02 -0.32984576564E+02  0.64357660416E+02  0.41800000000E+01 0. -1.
         -5    1    1    2    0  502 -0.45644880579E+02 -0.34841885097E+02  0.36949168398E+02  0.68411442942E+02  0.41800000000E+01 0. -1.
        -11    1    1    2    0    0  0.48957027757E+02 -0.12221581240E+02  0.29983498022E+02  0.58695551521E+02  0.00000000000E+00 0.  1.
         11    1    1    2    0    0 -0.93651052449E+01 -0.77071047913E+01 -0.41490944374E+02  0.43227342338E+02  0.00000000000E+00 0. -1.
</event>
<event>
 6    1  0.9216756E-006  0.1221921E+03  0.7561462E-02  0.1239524E+00
          1   -1    0    0  501    0  0.00000000000E+00  0.00000000000E+00  0.64921422066E+03  0.64921422066E+03  0.00000000000E+00 0. -1.
         -1   -1    0    0    0  501 -0.00000000000E+00 -0.00000000000E+00 -0.24909252527E+02  0.24909252527E+02  0.00000000000E+00 0.  1.
          5    1    1    2  502    0 -0.49408538001E+02  0.29575672761E+02  0.16494309722E+03  0.17475589194E+03  0.41800000000E+01 0. -1.
         -5    1    1    2    0  502  0.75423103211E+02  0.51230363396E+02  0.17830698005E+03  0.20030987536E+03  0.41800000000E+01 0. -1.
        -11    1    1    2    0    0  0.64337612680E+01 -0.50718802919E+02  0.95769100397E+02  0.10856109268E+03  0.00000000000E+00 0.  1.
         11    1    1    2    0    0 -0.32448326478E+02 -0.30087233238E+02  0.18528579047E+03  0.19049661321E+03  0.00000000000E+00 0. -1.
</event>
<event>
 6    1  0.9216756E-006  0.2061096E+03  0.7561462E-02  0.1144684E+00
          1   -1    0    0  501    0  0.00000000000E+00  0.00000000000E+00  0.97667880698E+03  0.97667880698E+03  0.00000000000E+00 0. -1.
         -1   -1    0    0    0  501 -0.00000000000E+00 -0.00000000000E+00 -0.60599434959E+02  0.60599434959E+02  0.00000000000E+00 0.  1.
          5    1    1    2  502    0  0.83261338919E+02 -0.91346761970E+02  0.77255433161E+02  0.14581685717E+03  0.41800000000E+01 0. -1.
         -5    1    1    2    0  502  0.84064366233E+02  0.16269603825E+02  0.14417585775E+03  0.16773690123E+03  0.41800000000E+01 0. -1.
        -11    1    1    2    0    0 -0.72532516564E+02 -0.12694725342E+02  0.23496961140E+03  0.24623736575E+03  0.00000000000E+00 0.  1.
         11    1    1    2    0    0 -0.94793188588E+02  0.87771883487E+02  0.45967846971E+03  0.47748711778E+03  0.00000000000E+00 0. -1.
</event>
<event>
 6    1  0.9216756E-006  0.2443822E+03  0.7561462E-02  0.1116908E+00
         -2   -1    0    0    0  501 -0.00000000000E+00  0.00000000000E+00  0.10208746592E+03  0.10208746592E+03  0.00000000000E+00 0.  1.
          2   -1    0    0  501    0  0.00000000000E+00 -0.00000000000E+00 -0.66260530019E+03  0.66260530019E+03  0.00000000000E+00 0. -1.
          5    1    1    2  502    0 -0.17669021668E+03 -0.21959439919E+02 -0.12765076848E+03  0.21912060781E+03  0.41800000000E+01 0. -1.
         -5    1    1    2    0  502 -0.29414934853E+02 -0.76128567359E+02 -0.72051133749E+02  0.10894785650E+03  0.41800000000E+01 0. -1.
        -11    1    1    2    0    0  0.80655485614E+02  0.28871892403E+02 -0.21843042900E+03  0.23462895355E+03  0.00000000000E+00 0. -1.
         11    1    1    2    0    0  0.12544966592E+03  0.69216114875E+02 -0.14238550305E+03  0.20199534825E+03  0.00000000000E+00 0.  1.
</event>
<event>
 6    1  0.9216756E-006  0.7322217E+02  0.7561462E-02  0.1349466E+00
          1   -1    0    0  501    0  0.00000000000E+00  0.00000000000E+00  0.31674041359E+03  0.31674041359E+03  0.00000000000E+00 0. -1.
         -1   -1    0    0    0  501 -0.00000000000E+00 -0.00000000000E+00 -0.47442458517E+02  0.47442458517E+02  0.00000000000E+00 0.  1.
          5    1    1    2  502    0  0.74866635183E+01  0.26990159682E+02 -0.24802464855E+02  0.37645099458E+02  0.41800000000E+01 0.  1.
         -5    1    1    2    0  502  0.10784751529E+02  0.16199513888E+02  0.13239959682E+03  0.13388749290E+03  0.41800000000E+01 0.  1.
        -11    1    1    2    0    0 -0.27156531972E+02  0.20429715398E+02  0.26952730553E+02  0.43373957443E+02  0.00000000000E+00 0.  1.
         11    1    1    2    0    0  0.88851169246E+01 -0.63619388968E+02  0.13474809255E+03  0.14927632231E+03  0.00000000000E+00 0. -1.
</event>
<event>
 6    1  0.9216756E-006  0.9063758E+02  0.7561462E-02  0.1301315E+00
         -1   -1    0    0    0  501 -0.00000000000E+00  0.00000000000E+00  0.11529685455E+03  0.11529685455E+03  0.00000000000E+00 0.  1.
          1   -1    0    0  501    0  0.00000000000E+00 -0.00000000000E+00 -0.13168703104E+03  0.13168703104E+03  0.00000000000E+00 0. -1.
          5    1    1    2  502    0  0.65012993450E+02 -0.30279269850E+02 -0.35089177201E+02  0.79951524417E+02  0.41800000000E+01 0.  1.
         -5    1    1    2    0  502 -0.33132849694E+02 -0.10778654903E+02  0.43334029623E+02  0.55760879241E+02  0.41800000000E+01 0.  1.
        -11    1    1    2    0    0  0.12420013092E+02  0.23712747633E+02 -0.50473778850E+02  0.57132770604E+02  0.00000000000E+00 0. -1.
         11    1    1    2    0    0 -0.44300156848E+02  0.17345177120E+02  0.25838749933E+02  0.54138711327E+02  0.00000000000E+00 0.  1.
</event>
<event>
 6    1  0.9216756E-006  0.1166315E+03  0.7561462E-02  0.1248760E+00
         -2   -1    0    0    0  501 -0.00000000000E+00  0.00000000000E+00  0.41364768513E+03  0.41364768513E+03  0.00000000000E+00 0.  1.
          2   -1    0    0  501    0  0.00000000000E+00 -0.00000000000E+00 -0.43065738395E+02  0.43065738395E+02  0.00000000000E+00 0. -1.
          5    1    1    2  502    0  0.83552756672E+01 -0.44563436133E+02  0.12906049703E+03  0.13685684040E+03  0.41800000000E+01 0. -1.
         -5    1    1    2    0  502 -0.68880929225E+02  0.57946695331E+02  0.14515120443E+03  0.17084714355E+03  0.41800000000E+01 0. -1.
        -11    1    1    2    0    0  0.35695554585E+02 -0.44987642679E+02  0.92172152942E+02  0.10859910860E+03  0.00000000000E+00 0.  1.
         11    1    1    2    0    0  0.24830098972E+02  0.31604383480E+02  0.41980923323E+01  0.40410330973E+02  0.00000000000E+00 0. -1.
</event>
<event>
 6    1  0.9216756E-006  0.1539917E+03  0.7561462E-02  0.1195652E+00
         -3   -1    0    0    0  501 -0.00000000000E+00  0.00000000000E+00  0.22732897964E+03  0.22732897964E+03  0.00000000000E+00 0.  1.
          3   -1    0    0  501    0  0.00000000000E+00 -0.00000000000E+00 -0.13222338674E+03  0.13222338674E+03  0.00000000000E+00 0. -1.
          5    1    1    2  502    0 -0.23564953647E+02  0.14048166848E+02 -0.74643498064E+01  0.28737552961E+02  0.41800000000E+01 0. -1.
         -5    1    1    2    0  502  0.13504916303E+03 -0.45343238077E+02 -0.19960612926E+02  0.14391033369E+03  0.41800000000E+01 0. -1.
        -11    1    1    2    0    0 -0.73006462461E+02 -0.17986181596E+02  0.87006668980E+02  0.11499394217E+03  0.00000000000E+00 0.  1.
         11    1    1    2    0    0 -0.38477746924E+02  0.49281252824E+02  0.35523886656E+02  0.71910537555E+02  0.00000000000E+00 0. -1.
</event>
<event>
 6    1  0.9216756E-006  0.1669225E+03  0.7561462E-02  0.1181096E+00
         -1   -1    0    0    0  501 -0.00000000000E+00  0.00000000000E+00  0.82562601323E+02  0.82562601323E+02  0.00000000000E+00 0.  1.
          1   -1    0    0  501    0  0.00000000000E+00 -0.00000000000E+00 -0.39660265376E+03  0.39660265376E+03  0.00000000000E+00 0. -1.
          5    1    1    2  502    0  0.31199058429E+02  0.15843098193E+03 -0.11239286333E+03  0.19678258411E+03  0.41800000000E+01 0. -1.
         -5    1    1    2    0  502  0.78071854070E+01 -0.22873695529E+02 -0.41878581081E+01  0.24883099620E+02  0.41800000000E+01 0. -1.
        -11    1    1    2    0    0 -0.42976384435E+02 -0.70194743334E+02 -0.50378164741E+02  0.96499902039E+02  0.00000000000E+00 0.  1.
         11    1    1    2    0    0  0.39701405983E+01 -0.65362543064E+02 -0.14708116625E+03  0.16099966931E+03  0.00000000000E+00 0. -1.
</event>
<event>
 6    1  0.9216756E-006  0.1440226E+03  0.7561462E-02  0.1208016E+00
         -2   -1    0    0    0  501 -0.00000000000E+00  0.00000000000E+00  0.43788910632E+02  0.43788910632E+02  0.00000000000E+00 0.  1.
          2   -1    0    0  501    0  0.00000000000E+00 -0.00000000000E+00 -0.64993842639E+03  0.64993842639E+03  0.00000000000E+00 0. -1.
          5    1    1    2  502    0 -0.62196980345E+02  0.17772279523E+02 -0.90961887424E+02  0.11169536986E+03  0.41800000000E+01 0. -1.
         -5    1    1    2    0  502 -0.54560028450E+01 -0.89112306710E+02 -0.60284401495E+02  0.10780747951E+03  0.41800000000E+01 0. -1.
        -11    1    1    2    0    0  0.90211444207E+02  0.61825982699E+02 -0.36308043758E+03  0.37919383033E+03  0.00000000000E+00 0.  1.
         11    1    1    2    0    0 -0.22558461017E+02  0.95140444874E+01 -0.91822789259E+02  0.95030657334E+02  0.00000000000E+00 0. -1.
</event>
<event>
 6    1  0.9216756E-006  0.1096306E+03  0.7561462E-02  0.1261256E+00
          2   -1    0    0  501    0  0.00000000000E+00  0.00000000000E+00  0.14016406460E+03  0.14016406460E+03  0.00000000000E+00 0. -1.
         -2   -1    0    0    0  501 -0.00000000000E+00 -0.00000000000E+00 -0.11739432146E+03  0.11739432146E+03  0.00000000000E+00 0.  1.
          5    1    1    2  502    0 -0.40346059348E+02 -0.55355277150E+02  0.25617205273E+02  0.73251107973E+02  0.41800000000E+01 0.  1.
         -5    1    1    2    0  502 -0.15023931548E+02  0.41196618489E+02 -0.49633731653E+02  0.66361582349E+02  0.41800000000E+01 0.  1.
        -11    1    1    2    0    0  0.37273844499E+02 -0.36879288217E+02  0.33385150164E+02  0.62160997696E+02  0.00000000000E+00 0. -1.
         11    1    1    2    0    0  0.18096146398E+02  0.51037946878E+02  0.13401119353E+02  0.55784698044E+02  0.00000000000E+00 0.  1.
</event>
<event>
 6    1  0.9216756E-006  0.1207126E+03  0.7561462E-02  0.1241926E+00
         -3   -1    0    0    0  501 -0.00000000000E+00  0.00000000000E+00  0.22794538414E+03  0.22794538414E+03  0.00000000000E+00 0.  1.
          3   -1    0    0  501    0  0.00000000000E+00 -0.00000000000E+00 -0.99222317618E+02  0.99222317618E+02  0.00000000000E+00 0. -1.
          5    1    1    2  502    0  0.46003572532E+02  0.76396854523E+02  0.10681661176E+03  0.13921231632E+03  0.41800000000E+01 0.  1.
         -5    1    1    2    0  502  0.31356342795E+02 -0.46266551641E+02  0.28385882715E+02  0.62825510518E+02  0.41800000000E+01 0.  1.
        -11    1    1    2    0    0 -0.39244474521E+02  0.10263007675E+02 -0.42644067130E+02  0.58855539827E+02  0.00000000000E+00 0. -1.
         11    1    1    2    0    0 -0.38115440806E+02 -0.40393310557E+02  0.36164639178E+02  0.66274335097E+02  0.00000000000E+00 0.  1.
</event>
<event>
 6    1  0.9216756E-006  0.8868265E+02  0.7561462E-02  0.1306074E+00
          1   -1    0    0  501    0  0.00000000000E+00  0.00000000000E+00  0.27534899631E+03  0.27534899631E+03  0.00000000000E+00 0. -1.
         -1   -1    0    0    0  501 -0.00000000000E+00 -0.00000000000E+00 -0.44580978040E+02  0.44580978040E+02  0.00000000000E+00 0.  1.
          5    1    1    2  502    0  0.61235876524E+02  0.34106956766E+02  0.12315303516E+03  0.14176480361E+03  0.41800000000E+01 0. -1.
         -5    1    1    2    0  502 -0.33139623265E+02 -0.19778148124E+02  0.34584574616E+01  0.38972337643E+02  0.41800000000E+01 0. -1.
        -11    1    1    2    0    0 -0.41155628526E+02  0.85038484822E+01  0.12511756456E+02  0.43847978836E+02  0.00000000000E+00 0.  1.
         11    1    1    2    0    0  0.13059375267E+02 -0.22832657124E+02  0.91644769189E+02  0.95344854258E+02  0.00000000000E+00 0. -1.
</event>
<event>
 6    1  0.9216756E-006  0.9067235E+02  0.7561462E-02  0.1301232E+00
          1   -1    0    0  501    0  0.00000000000E+00  0.00000000000E+00  0.34951766051E+03  0.34951766051E+03  0.00000000000E+00 0. -1.
         -1   -1    0    0    0  501 -0.00000000000E+00 -0.00000000000E+00 -0.40982091817E+02  0.40982091817E+02  0.00000000000E+00 0.  1.
          5    1    1    2  502    0  0.20605454733E+02 -0.87686500633E+01 -0.10528288944E+02  0.25095642187E+02  0.41800000000E+01 0.  1.
         -5    1    1    2    0  502 -0.68569416033E+01  0.62321110691E+02  0.19278707601E+03  0.20276900049E+03  0.41800000000E+01 0.  1.
        -11    1    1    2    0    0  0.61786593667E+01  0.19265779260E+02  0.68757542082E+01  0.21368717275E+02  0.00000000000E+00 0.  1.
         11    1    1    2    0    0 -0.19927172496E+02 -0.72818239887E+02  0.11940102743E+03  0.14126639238E+03  0.00000000000E+00 0. -1.
</event>
<event>
 6    1  0.9216756E-006  0.8369427E+02  0.7561462E-02  0.1318883E+00
          2   -1    0    0  501    0  0.00000000000E+00  0.00000000000E+00  0.63237001786E+03  0.63237001786E+03  0.00000000000E+00 0.  1.
         -2   -1    0    0    0  501 -0.00000000000E+00 -0.00000000000E+00 -0.25255769304E+02  0.25255769304E+02  0.00000000000E+00 0. -1.
          5    1    1    2  502    0  0.20618616517E+02  0.45114657630E+02  0.26578442955E+03  0.27040579704E+03  0.41800000000E+01 0.  1.
         -5    1    1    2    0  502 -0.12770966368E+02  0.11720112358E+02 -0.97127945432E+01  0.20304418078E+02  0.41800000000E+01 0.  1.
        -11    1    1    2    0    0  0.52964725333E+01 -0.76194813520E+02  0.31355877775E+03  0.32272714378E+03  0.00000000000E+00 0.  1.
         11    1    1    2    0    0 -0.13144122683E+02  0.19360043532E+02  0.37483835797E+02  0.44188428267E+02  0.00000000000E+00 0. -1.
</event>
<event>
 6    1  0.9216756E-006  0.1226633E+03  0.7561462E-02  0.1238767E+00
          2   -1    0    0  501    0  0.00000000000E+00  0.00000000000E+00  0.25561321242E+03  0.25561321242E+03  0.00000000000E+00 0. -1.
         -2   -1    0    0    0  501 -0.00000000000E+00 -0.00000000000E+00 -0.73673483362E+02  0.73673483362E+02  0.00000000000E+00 0.  1.
          5    1    1    2  502    0  0.74707483914E+02  0.36050778711E+02  0.20712496357E+02  0.85599922335E+02  0.41800000000E+01 0.  1.
         -5    1    1    2    0  502 -0.51991106127E+02  0.24517462168E+02  0.91470577866E+01  0.58355138022E+02  0.41800000000E+01 0.  1.
        -11    1    1    2    0    0  0.25547169259E+02  0.19899052731E+01  0.25748621870E+02  0.36326424382E+02  0.00000000000E+00 0.  1.
         11    1    1    2    0    0 -0.48263547046E+02 -0.62558146152E+02  0.12633155304E+03  0.14900521104E+03  0.00000000000E+00 0. -1.
</event>
<event>
 6    1  0.9216756E-006  0.1556817E+03  0.7561462E-02  0.1193660E+00
         -2   -1    0    0    0  501 -0.00000000000E+00  0.00000000000E+00  0.27229595211E+02  0.27229595211E+02  0.00000000000E+00 0.  1.
          2   -1    0    0  501    0  0.00000000000E+00 -0.00000000000E+00 -0.97757923456E+03  0.97757923456E+03  0.00000000000E+00 0. -1.
          5    1    1    2  502    0  0.68864020389E+02 -0.80596517160E+02 -0.44962872112E+03  0.46197566076E+03  0.41800000000E+01 0. -1.
         -5    1    1    2    0  502 -0.52558316355E+02 -0.30051546949E+02 -0.20272843954E+03  0.21161702363E+03  0.41800000000E+01 0. -1.
        -11    1    1    2    0    0 -0.46201347611E+02  0.10422491886E+03 -0.23523972128E+03  0.26140987874E+03  0.00000000000E+00 0.  1.
         11    1    1    2    0    0  0.29895643577E+02  0.64231452454E+01 -0.62752757406E+02  0.69806266637E+02  0.00000000000E+00 0. -1.
</event>
<event>
 6    1  0.9216756E-006  0.1276270E+03  0.7561462E-02  0.1231020E+00
          1   -1    0    0  501    0  0.00000000000E+00  0.00000000000E+00  0.43176972245E+03  0.43176972245E+03  0.00000000000E+00 0. -1.
         -1   -1    0    0    0  501 -0.00000000000E+00 -0.00000000000E+00 -0.40921596560E+02  0.40921596560E+02  0.00000000000E+00 0.  1.
          5    1    1    2  502    0  0.63357520889E+02 -0.66730230240E+02  0.92142752436E+02  0.13028759844E+03  0.41800000000E+01 0.  1.
         -5    1    1    2    0  502 -0.48746668014E+02 -0.67039779799E+01  0.93669540716E+02  0.10588973615E+03  0.41800000000E+01 0.  1.
        -11    1    1    2    0    0 -0.16662271552E+02 -0.16706639615E+02  0.72284844898E+02  0.76038423856E+02  0.00000000000E+00 0. -1.
         11    1    1    2    0    0  0.20514186776E+01  0.90140847834E+02  0.13275098784E+03  0.16047556057E+03  0.00000000000E+00 0.  1.
</event>
<event>
 6    1  0.9216756E-006  0.1017760E+03  0.7561462E-02  0.1276605E+00
         -1   -1    0    0    0  501 -0.00000000000E+00  0.00000000000E+00  0.10021732633E+03  0.10021732633E+03  0.00000000000E+00 0.  1.
          1   -1    0    0  501    0  0.00000000000E+00 -0.00000000000E+00 -0.12238303701E+03  0.12238303701E+03  0.00000000000E+00 0. -1.
          5    1    1    2  502    0 -0.70331296984E+01  0.48355067919E+02  0.35715145704E+01  0.49172203765E+02  0.41800000000E+01 0. -1.
         -5    1    1    2    0  502  0.16661052826E+02 -0.60781709643E+02  0.26110655101E+02  0.68346511383E+02  0.41800000000E+01 0.  1.
        -11    1    1    2    0    0 -0.46786371530E+02 -0.10140749709E+02 -0.25389761302E+02  0.54188922711E+02  0.00000000000E+00 0.  1.
         11    1    1    2    0    0  0.37158448403E+02  0.22567391434E+02 -0.26458119051E+02  0.50892725487E+02  0.00000000000E+00 0. -1.
</event>
<event>
 6    1  0.9216756E-006  0.1159271E+03  0.7561462E-02  0.1249971E+00
          3   -1    0    0  501    0  0.00000000000E+00  0.00000000000E+00  0.26861300569E+03  0.26861300569E+03  0.00000000000E+00 0. -1.
         -3   -1    0    0    0  501 -0.00000000000E+00 -0.00000000000E+00 -0.66997216858E+02  0.66997216858E+02  0.00000000000E+00 0.  1.
          5    1    1    2  502    0 -0.49191797811E+02 -0.29377099736E+02  0.11730181862E+03  0.13061407280E+03  0.41800000000E+01 0. -1.
         -5    1    1    2    0  502  0.26001592588E+02  0.76667555224E+02  0.36639614759E+02  0.88960275465E+02  0.41800000000E+01 0.  1.
        -11    1    1    2    0    0  0.51649300199E+02 -0.34688090982E+02  0.39192620293E+01  0.62339991032E+02  0.00000000000E+00 0.  1.
         11    1    1    2    0    0 -0.28459094976E+02 -0.12602364506E+02  0.43755093421E+02  0.53695883252E+02  0.00000000000E+00 0. -1.
</event>
<event>
 6    1  0.9216756E-006  0.1677133E+03  0.7561462E-02  0.1180254E+00
          3   -1    0    0  501    0  0.00000000000E+00  0.00000000000E+00  0.17189512570E+03  0.17189512570E+03  0.00000000000E+00 0. -1.
         -3   -1    0    0    0  501 -0.00000000000E+00 -0.00000000000E+00 -0.21205698630E+03  0.21205698630E+03  0.00000000000E+00 0.  1.
          5    1    1    2  502    0  0.24501807177E+02  0.15254974826E+03 -0.98313135312E+02  0.18317944542E+03  0.41800000000E+01 0. -1.
         -5    1    1    2    0  502  0.40340423726E+01 -0.66956747226E+01  0.19790705885E+02  0.21685248380E+02  0.41800000000E+01 0.  1.
        -11    1    1    2    0    0  0.15871473943E+02  0.34419200295E+01  0.13983456754E+02  0.21430995343E+02  0.00000000000E+00 0. -1.
         11    1    1    2    0    0 -0.44407323493E+02 -0.14929599356E+03  0.24377112073E+02  0.15765642285E+03  0.00000000000E+00 0.  1.
</event>
<event>
 6    1  0.9216756E-006  0.1231443E+03  0.7561462E-02  0.1237998E+00
          2   -1    0    0  501    0  0.00000000000E+00  0.00000000000E+00  0.27360562728E+03  0.27360562728E+03  0.00000000000E+00 0. -1.
         -2   -1    0    0    0  501 -0.00000000000E+00 -0.00000000000E+00 -0.69331047228E+02  0.69331047228E+02  0.00000000000E+00 0.  1.
          5    1    1    2  502    0 -0.70803332795E+02  0.67685847534E+02  0.40672497030E+02  0.10614240579E+03  0.41800000000E+01 0.  1.
         -5    1    1    2    0  502  0.22740105904E+02 -0.30495491492E+02 -0.16331616974E+01  0.38304399682E+02  0.41800000000E+01 0.  1.
        -11    1    1    2    0    0  0.31093986528E+02 -0.68018422519E+02  0.11192320524E+03  0.13461109045E+03  0.00000000000E+00 0. -1.
         11    1    1    2    0    0  0.16969240363E+02  0.30828066477E+02  0.53312039480E+02  0.63878778595E+02  0.00000000000E+00 0.  1.
</event>
<event>
 6    1  0.9216756E-006  0.1024727E+03  0.7561462E-02  0.1275180E+00
          2   -1    0    0  501    0  0.00000000000E+00  0.00000000000E+00  0.35761220532E+03  0.35761220532E+03  0.00000000000E+00 0. -1.
         -2   -1    0    0    0  501 -0.00000000000E+00 -0.00000000000E+00 -0.40011968407E+02  0.40011968407E+02  0.00000000000E+00 0.  1.
          5    1    1    2  502    0  0.40322849380E+02 -0.33600020455E+02  0.28773939922E+02  0.60002546407E+02  0.41800000000E+01 0.  1.
         -5    1    1    2    0  502 -0.54447807849E+02  0.47222128639E+02  0.70387476824E+02  0.10082838145E+03  0.41800000000E+01 0.  1.
        -11    1    1    2    0    0 -0.32329003252E+02 -0.80094746673E+01  0.38677551959E+02  0.51041837361E+02  0.00000000000E+00 0.  1.
         11    1    1    2    0    0  0.46453961720E+02 -0.56126335165E+01  0.17976126821E+03  0.18575140851E+03  0.00000000000E+00 0. -1.
</event>
<event>
 6    1  0.9216756E-006  0.9919069E+02  0.7561462E-02  0.1282007E+00
          2   -1    0    0  501    0  0.00000000000E+00  0.00000000000E+00  0.70217928659E+02  0.70217928659E+02  0.00000000000E+00 0.  1.
         -2   -1    0    0    0  501 -0.00000000000E+00 -0.00000000000E+00 -0.22841862354E+03  0.22841862354E+03  0.00000000000E+00 0. -1.
          5    1    1    2  502    0 -0.39707679045E+02  0.66727844540E+02 -0.12680070342E+03  0.14874540598E+03  0.41800000000E+01 0. -1.
         -5    1    1    2    0  502  0.12074477404E+01 -0.10594394681E+02  0.24206716020E+02  0.26779406812E+02  0.41800000000E+01 0. -1.
        -11    1    1    2    0    0 -0.27510833849E+02 -0.18927343014E+02 -0.10874657743E+02  0.35119061401E+02  0.00000000000E+00 0.  1.
         11    1    1    2    0    0  0.66011065154E+02 -0.37206106845E+02 -0.44732049739E+02  0.87992678009E+02  0.00000000000E+00 0. -1.
</event>
<event>
 6    1  0.9216756E-006  0.2116262E+03  0.7561462E-02  0.1140285E+00
          2   -1    0    0  501    0  0.00000000000E+00  0.00000000000E+00  0.11998825948E+04  0.11998825948E+04  0.00000000000E+00 0.  1.
         -2   -1    0    0    0  501 -0.00000000000E+00 -0.00000000000E+00 -0.43700566969E+02  0.43700566969E+02  0.00000000000E+00 0. -1.
          5    1    1    2  502    0  0.15923528229E+03  0.40223677835E+02  0.24159251265E+03  0.29216131495E+03  0.41800000000E+01 0. -1.
         -5    1    1    2    0  502  0.10961515457E+02  0.48401870957E+02  0.19037336315E+03  0.19678004404E+03  0.41800000000E+01 0. -1.
        -11    1    1    2    0    0 -0.24967134211E+02 -0.54539641388E+02  0.15496362447E+03  0.16616755154E+03  0.00000000000E+00 0.  1.
         11    1    1    2    0    0 -0.14522966354E+03 -0.34085907404E+02  0.56925252756E+03  0.58847425125E+03  0.00000000000E+00 0. -1.
</event>
<event>
 6    1  0.9216756E-006  0.1782767E+03  0.7561462E-02  0.1169481E+00
          1   -1    0    0  501    0  0.00000000000E+00  0.00000000000E+00  0.10038738100E+03  0.10038738100E+03  0.00000000000E+00 0. -1.
         -1   -1    0    0    0  501 -0.00000000000E+00 -0.00000000000E+00 -0.47596726762E+03  0.47596726762E+03  0.00000000000E+00 0.  1.
          5    1    1    2  502    0  0.33997755951E+02  0.35725312878E+02 -0.24187569274E+02  0.55087714577E+02  0.41800000000E+01 0. -1.
         -5    1    1    2    0  502  0.12451237170E+03 -0.37369332971E+01 -0.30520516637E+03  0.32967402287E+03  0.41800000000E+01 0.  1.
        -11    1    1    2    0    0 -0.12691833705E+02 -0.34312305938E+02  0.52325591195E+01  0.36956686222E+02  0.00000000000E+00 0.  1.
         11    1    1    2    0    0 -0.14581829394E+03  0.23239263577E+01 -0.51419710097E+02  0.15463622496E+03  0.00000000000E+00 0. -1.
</event>
<event>
 6    1  0.9216756E-006  0.1158714E+03  0.7561462E-02  0.1250068E+00
         -2   -1    0    0    0  501 -0.00000000000E+00  0.00000000000E+00  0.28271943385E+03  0.28271943385E+03  0.00000000000E+00 0. -1.
          2   -1    0    0  501    0  0.00000000000E+00 -0.00000000000E+00 -0.66431337554E+02  0.66431337554E+02  0.00000000000E+00 0.  1.
          5    1    1    2  502    0  0.31327823412E+02 -0.61972239598E+02  0.60235741471E+02  0.92020693059E+02  0.41800000000E+01 0. -1.
         -5    1    1    2    0  502  0.32008667071E+02  0.55329140904E+02  0.12430456293E+03  0.13983906953E+03  0.41800000000E+01 0. -1.
        -11    1    1    2    0    0 -0.64946745100E+02 -0.22649185897E+02 -0.64987318357E+01  0.69089064521E+02  0.00000000000E+00 0.  1.
         11    1    1    2    0    0  0.16102546168E+01  0.29292284591E+02  0.38246523726E+02  0.48201944293E+02  0.00000000000E+00 0. -1.
</event>
<event>
 6    1  0.9216756E-006  0.1097748E+03  0.7561462E-02  0.1260987E+00
         -4   -1    0    0    0  501 -0.00000000000E+00  0.00000000000E+00  0.69200789505E+02  0.69200789505E+02  0.00000000000E+00 0.  1.
          4   -1    0    0  501    0  0.00000000000E+00 -0.00000000000E+00 -0.18029175016E+03  0.18029175016E+03  0.00000000000E+00 0. -1.
          5    1    1    2  502    0  0.19138210270E+01 -0.36350133335E+02 -0.34394882574E+02  0.50254106814E+02  0.41800000000E+01 0. -1.
         -5    1    1    2    0  502  0.22513094291E+02  0.76825418362E+02 -0.23917616374E+02  0.83657092312E+02  0.41800000000E+01 0.  1.
        -11    1    1    2    0    0 -0.27377402205E+02  0.25076766253E+02 -0.16857052606E+02  0.40774092016E+02  0.00000000000E+00 0.  1.
         11    1    1    2    0    0  0.29504868865E+01 -0.65552051279E+02 -0.35921409101E+02  0.74807248523E+02  0.00000000000E+00 0. -1.
</event>
<event>
 6    1  0.9216756E-006  0.1694636E+03  0.7561462E-02  0.1178408E+00
          1   -1    0    0  501    0  0.00000000000E+00  0.00000000000E+00  0.49672993594E+02  0.49672993594E+02  0.00000000000E+00 0. -1.
         -1   -1    0    0    0  501 -0.00000000000E+00 -0.00000000000E+00 -0.71267266479E+03  0.71267266479E+03  0.00000000000E+00 0.  1.
          5    1    1    2  502    0 -0.63638513373E+02  0.12681720394E+03 -0.33683723022E+03  0.36552599861E+03  0.41800000000E+01 0. -1.
         -5    1    1    2    0  502  0.14372732222E+02  0.17883841266E+02  0.18111549207E+01  0.23391449124E+02  0.41800000000E+01 0. -1.
        -11    1    1    2    0    0  0.64400889869E+02 -0.14484828183E+03 -0.31794631632E+03  0.35527223284E+03  0.00000000000E+00 0.  1.
         11    1    1    2    0    0 -0.15135108718E+02  0.14723662437E+00 -0.10027279581E+02  0.18155977813E+02  0.00000000000E+00 0. -1.
</event>
<event>
 6    1  0.9216756E-006  0.1943051E+03  0.7561462E-02  0.1154635E+00
         -1   -1    0    0    0  501 -0.00000000000E+00  0.00000000000E+00  0.64198547237E+02  0.64198547237E+02  0.00000000000E+00 0.  1.
          1   -1    0    0  501    0  0.00000000000E+00 -0.00000000000E+00 -0.74382296121E+03  0.74382296121E+03  0.00000000000E+00 0. -1.
          5    1    1    2  502    0 -0.70184564724E+02  0.92770000109E+02 -0.94429809450E+02  0.14988864987E+03  0.41800000000E+01 0. -1.
         -5    1    1    2    0  502  0.55318721200E+02  0.69614613723E+02 -0.79264172513E+02  0.11919159703E+03  0.41800000000E+01 0. -1.
        -11    1    1    2    0    0  0.48421551447E+02 -0.71896488208E+02 -0.28401841602E+03  0.29695153190E+03  0.00000000000E+00 0.  1.
         11    1    1    2    0    0 -0.33555707923E+02 -0.90488125624E+02 -0.22191201599E+03  0.24198972965E+03  0.00000000000E+00 0. -1.
</event>
<event>
 6    1  0.9216756E-006  0.2756853E+03  0.7561462E-02  0.1098069E+00
         -2   -1    0    0    0  501 -0.00000000000E+00  0.00000000000E+00  0.15589613008E+03  0.15589613008E+03  0.00000000000E+00 0.  1.
          2   -1    0    0  501    0  0.00000000000E+00 -0.00000000000E+00 -0.59276077242E+03  0.59276077242E+03  0.00000000000E+00 0. -1.
          5    1    1    2  502    0  0.65780800770E+02 -0.12676887686E+03 -0.11268761236E+03  0.18197096546E+03  0.41800000000E+01 0. -1.
         -5    1    1    2    0  502  0.11471642274E+02 -0.12773776564E+03  0.11609968339E+02  0.12884408839E+03  0.41800000000E+01 0. -1.
        -11    1    1    2    0    0 -0.70544219356E+02  0.84695699759E+02 -0.11603112206E+03  0.16004083769E+03  0.00000000000E+00 0.  1.
         11    1    1    2    0    0 -0.67082236880E+01  0.16981094275E+03 -0.21975587626E+03  0.27780101096E+03  0.00000000000E+00 0. -1.
</event>
<event>
 6    1  0.9216756E-006  0.1163145E+03  0.7561462E-02  0.1249304E+00
          1   -1    0    0  501    0  0.00000000000E+00  0.00000000000E+00  0.42783781393E+03  0.42783781393E+03  0.00000000000E+00 0. -1.
         -1   -1    0    0    0  501 -0.00000000000E+00 -0.00000000000E+00 -0.37549359651E+02  0.37549359651E+02  0.00000000000E+00 0.  1.
          5    1    1    2  502    0  0.94748480626E+02 -0.15629578156E+02  0.17728711007E+03  0.20166742447E+03  0.41800000000E+01 0.  1.
         -5    1    1    2    0  502 -0.29339395461E+02  0.31011841902E+02  0.45555880736E+02  0.62572718766E+02  0.41800000000E+01 0.  1.
        -11    1    1    2    0    0 -0.57394541076E+02  0.17314349904E+02  0.47265251475E+02  0.76340841329E+02  0.00000000000E+00 0.  1.
         11    1    1    2    0    0 -0.80145440886E+01 -0.32696613650E+02  0.12018021199E+03  0.12480618901E+03  0.00000000000E+00 0. -1.
</event>
<event>
 6    1  0.9216756E-006  0.6981677E+02  0.7561462E-02  0.1360717E+00
         -1   -1    0    0    0  501 -0.00000000000E+00  0.00000000000E+00  0.22748235352E+03  0.22748235352E+03  0.00000000000E+00 0.  1.
          1   -1    0    0  501    0  0.00000000000E+00 -0.00000000000E+00 -0.63328618405E+02  0.63328618405E+02  0.00000000000E+00 0. -1.
          5    1    1    2  502    0 -0.21187263679E+02  0.32336190410E+02  0.15060285105E+03  0.15554170019E+03  0.41800000000E+01 0. -1.
         -5    1    1    2    0  502  0.13334578672E+02 -0.40658869843E+02  0.97205966184E+01  0.44078533142E+02  0.41800000000E+01 0.  1.
        -11    1    1    2    0    0  0.28487085392E+02  0.19274494704E+02  0.37066361475E+02  0.50566148095E+02  0.00000000000E+00 0.  1.
         11    1    1    2    0    0 -0.20634400386E+02 -0.10951815271E+02 -0.33236074026E+02  0.40624590505E+02  0.00000000000E+00 0. -1.
</event>
<event>
 6    1  0.9216756E-006  0.9170916E+02  0.7561462E-02  0.1298765E+00
         -2   -1    0    0    0  501 -0.00000000000E+00  0.00000000000E+00  0.68302869652E+02  0.68302869652E+02  0.00000000000E+00 0.  1.
          2   -1    0    0  501    0  0.00000000000E+00 -0.00000000000E+00 -0.29706403363E+03  0.29706403363E+03  0.00000000000E+00 0. -1.
          5    1    1    2  502    0 -0.37741978504E+02  0.71154706243E+02 -0.78805803504E+02  0.11276203363E+03  0.41800000000E+01 0.  1.
         -5    1    1    2    0  502  0.38751157123E+01 -0.11659530442E+02  0.34256508045E+02  0.36632525375E+02  0.41800000000E+01 0.  1.
        -11    1    1    2    0    0 -0.16193900560E+02 -0.83514957592E+01  0.13509307826E+00  0.18221090717E+02  0.00000000000E+00 0.  1.
         11    1    1    2    0    0  0.50060763352E+02 -0.51143680042E+02 -0.18434696160E+03  0.19775125357E+03  0.00000000000E+00 0. -1.
</event>
<event>
 6    1  0.9216756E-006  0.1386964E+03  0.7561462E-02  0.1215094E+00
         -1   -1    0    0    0  501 -0.00000000000E+00  0.00000000000E+00  0.17663727582E+03  0.17663727582E+03  0.00000000000E+00 0.  1.
          1   -1    0    0  501    0  0.00000000000E+00 -0.00000000000E+00 -0.12112549322E+03  0.12112549322E+03  0.00000000000E+00 0. -1.
          5    1    1    2  502    0 -0.38571429473E+01 -0.11894281312E+03 -0.22574649535E+01  0.11910012129E+03  0.41800000000E+01 0. -1.
         -5    1    1    2    0  502 -0.18380426827E+02  0.21683183777E+02  0.33132986026E+02  0.43855076240E+02  0.41800000000E+01 0. -1.
        -11    1    1    2    0    0 -0.26751731892E+02  0.66646981487E+02 -0.47761863363E+00  0.71817152688E+02  0.00000000000E+00 0. -1.
         11    1    1    2    0    0  0.48989301666E+02  0.30612647853E+02  0.25113880167E+02  0.62990418822E+02  0.00000000000E+00 0.  1.
</event>
<event>
 6    1  0.9216756E-006  0.1209342E+03  0.7561462E-02  0.1241564E+00
         -2   -1    0    0    0  501 -0.00000000000E+00  0.00000000000E+00  0.17503258453E+02  0.17503258453E+02  0.00000000000E+00 0. -1.
          2   -1    0    0  501    0  0.00000000000E+00 -0.00000000000E+00 -0.89086671201E+03  0.89086671201E+03  0.00000000000E+00 0.  1.
          5    1    1    2  502    0 -0.39622367188E+02 -0.40206143756E+01 -0.19888928326E+03  0.20288054790E+03  0.41800000000E+01 0.  1.
         -5    1    1    2    0  502  0.87934253305E+02  0.39349841818E+02 -0.31936836916E+03  0.33360825915E+03  0.41800000000E+01 0.  1.
        -11    1    1    2    0    0 -0.24324439906E+02 -0.63733750886E+02 -0.27846021290E+03  0.28669454049E+03  0.00000000000E+00 0.  1.
         11    1    1    2    0    0 -0.23987446211E+02  0.28404523444E+02 -0.76645588238E+02  0.85186622918E+02  0.00000000000E+00 0. -1.
</event>
<event>
 6    1  0.9216756E-006  0.1461744E+03  0.7561462E-02  0.1205254E+00
          1   -1    0    0  501    0  0.00000000000E+00  0.00000000000E+00  0.35307091250E+03  0.35307091250E+03  0.00000000000E+00 0. -1.
         -1   -1    0    0    0  501 -0.00000000000E+00 -0.00000000000E+00 -0.82775615508E+02  0.82775615508E+02  0.00000000000E+00 0.  1.
          5    1    1    2  502    0  0.36279959463E+02 -0.10658014590E+02  0.11437777028E+03  0.12053868868E+03  0.41800000000E+01 0.  1.
         -5    1    1    2    0  502  0.24812794101E+01 -0.11351861913E+03  0.52138539859E+02  0.12501413270E+03  0.41800000000E+01 0.  1.
        -11    1    1    2    0    0 -0.51745679636E+02  0.86099927649E+02  0.27650217749E+02  0.10418899867E+03  0.00000000000E+00 0.  1.
         11    1    1    2    0    0  0.12984440763E+02  0.38076706073E+02  0.76128769110E+02  0.86104707964E+02  0.00000000000E+00 0. -1.
</event>
<event>
 6    1  0.9216756E-006  0.1216523E+03  0.7561462E-02  0.1240396E+00
         -2   -1    0    0    0  501 -0.00000000000E+00  0.00000000000E+00  0.19243020666E+02  0.19243020666E+02  0.00000000000E+00 0. -1.
          2   -1    0    0  501    0  0.00000000000E+00 -0.00000000000E+00 -0.98334895464E+03  0.98334895464E+03  0.00000000000E+00 0.  1.
          5    1    1    2  502    0  0.46425967535E+02 -0.17885380755E+02 -0.22746238897E+03  0.23287736709E+03  0.41800000000E+01 0.  1.
         -5    1    1    2    0  502 -0.11222321986E+02  0.77695747952E+02 -0.12699286597E+03  0.14935605166E+03  0.41800000000E+01 0.  1.
        -11    1    1    2    0    0 -0.22230010388E+02 -0.84228882825E+02 -0.46288395480E+03  0.47100980210E+03  0.00000000000E+00 0.  1.
         11    1    1    2    0    0 -0.12973635161E+02  0.24418515628E+02 -0.14676672424E+03  0.14934875446E+03  0.00000000000E+00 0. -1.
</event>
<event>
 6    1  0.9216756E-006  0.1263924E+03  0.7561462E-02  0.1232909E+00
         -2   -1    0    0    0  501 -0.00000000000E+00  0.00000000000E+00  0.13913323754E+03  0.13913323754E+03  0.00000000000E+00 0.  1.
          2   -1    0    0  501    0  0.00000000000E+00 -0.00000000000E+00 -0.14520499086E+03  0.14520499086E+03  0.00000000000E+00 0. -1.
          5    1    1    2  502    0 -0.27160140017E+02 -0.12916311243E+02 -0.11475698815E+02  0.32460258242E+02  0.41800000000E+01 0.  1.
         -5    1    1    2    0  502  0.99496997685E+02  0.37933833778E+02  0.58414295163E+02  0.12152502036E+03  0.41800000000E+01 0.  1.
        -11    1    1    2    0    0  0.43005963865E+01  0.24328456066E+02  0.39708244768E+00  0.24708836037E+02  0.00000000000E+00 0.  1.
         11    1    1    2    0    0 -0.76637454055E+02 -0.49345978600E+02 -0.53407432109E+02  0.10564411376E+03  0.00000000000E+00 0. -1.
</event>
<event>
 6    1  0.9216756E-006  0.1192123E+03  0.7561462E-02  0.1244402E+00
          1   -1    0    0  501    0  0.00000000000E+00  0.00000000000E+00  0.10918308429E+03  0.10918308429E+03  0.00000000000E+00 0. -1.
         -1   -1    0    0    0  501 -0.00000000000E+00 -0.00000000000E+00 -0.13627102571E+03  0.13627102571E+03  0.00000000000E+00 0.  1.
          5    1    1    2  502    0 -0.41646820297E+02 -0.49907170111E+01 -0.14576668969E+02  0.44601755294E+02  0.41800000000E+01 0. -1.
         -5    1    1    2    0  502  0.85653073553E+02  0.41787202757E+02 -0.26446593175E+02  0.98992494735E+02  0.41800000000E+01 0. -1.
        -11    1    1    2    0    0 -0.68907853980E+02 -0.24776572333E+02  0.91138193328E+01  0.73791819191E+02  0.00000000000E+00 0.  1.
         11    1    1    2    0    0  0.24901600724E+02 -0.12019913412E+02  0.48215013912E+01  0.28068040771E+02  0.00000000000E+00 0. -1.
</event>
<event>
 6    1  0.9216756E-006  0.2585194E+03  0.7561462E-02  0.1108036E+00
          1   -1    0    0  501    0  0.00000000000E+00  0.00000000000E+00  0.45420663177E+03  0.45420663177E+03  0.00000000000E+00 0. -1.
         -1   -1    0    0    0  501 -0.00000000000E+00 -0.00000000000E+00 -0.17973514153E+03  0.17973514153E+03  0.00000000000E+00 0.  1.
          5    1    1    2  502    0  0.34518105215E+02 -0.36993837757E+01 -0.26748466087E+02  0.44024287228E+02  0.41800000000E+01 0.  1.
         -5    1    1    2    0  502  0.12168442345E+03 -0.19330808077E+03  0.78186673883E+02  0.24146581823E+03  0.41800000000E+01 0.  1.
        -11    1    1    2    0    0 -0.53190288032E+02  0.43324411332E+02  0.11583670356E+03  0.13462671819E+03  0.00000000000E+00 0. -1.
         11    1    1    2    0    0 -0.10301224063E+03  0.15368305322E+03  0.10719657888E+03  0.21382494964E+03  0.00000000000E+00 0.  1.
</event>
<event>
 6    1  0.9216756E-006  0.1708761E+03  0.7561462E-02  0.1176937E+00
         -2   -1    0    0    0  501 -0.00000000000E+00  0.00000000000E+00  0.54053725584E+02  0.54053725584E+02  0.00000000000E+00 0.  1.
          2   -1    0    0  501    0  0.00000000000E+00 -0.00000000000E+00 -0.67438690297E+03  0.67438690297E+03  0.00000000000E+00 0. -1.
          5    1    1    2  502    0  0.12868705815E+03 -0.13653613697E+02 -0.18394425438E+03  0.22494386237E+03  0.41800000000E+01 0.  1.
         -5    1    1    2    0  502 -0.48274132095E+00 -0.48911202893E+02 -0.18357076105E+02  0.52411768247E+02  0.41800000000E+01 0.  1.
        -11    1    1    2    0    0 -0.34549300438E+02 -0.18612501076E+02 -0.16125453142E+03  0.16596114985E+03  0.00000000000E+00 0.  1.
         11    1    1    2    0    0 -0.93655016387E+02  0.81177317666E+02 -0.25677731548E+03  0.28512384808E+03  0.00000000000E+00 0. -1.
</event>
<event>
 6    1  0.9216756E-006  0.7482808E+02  0.7561462E-02  0.1344404E+00
         -1   -1    0    0    0  501 -0.00000000000E+00  0.00000000000E+00  0.15341282819E+03  0.15341282819E+03  0.00000000000E+00 0.  1.
          1   -1    0    0  501    0  0.00000000000E+00 -0.00000000000E+00 -0.87081345290E+02  0.87081345290E+02  0.00000000000E+00 0. -1.
          5    1    1    2  502    0 -0.66244591030E+02  0.20288198677E+02  0.55740301108E+02  0.89019157567E+02  0.41800000000E+01 0. -1.
         -5    1    1    2    0  502  0.24768600705E+02 -0.27005305820E+02 -0.27401556933E+02  0.45946575995E+02  0.41800000000E+01 0. -1.
        -11    1    1    2    0    0  0.16433759125E+02 -0.26188204930E+01  0.65259581687E+02  0.67347900203E+02  0.00000000000E+00 0.  1.
         11    1    1    2    0    0  0.25042231200E+02  0.93359276367E+01 -0.27266842958E+02  0.38180539719E+02  0.00000000000E+00 0. -1.
</event>
<event>
 6    1  0.9216756E-006  0.2166702E+03  0.7561462E-02  0.1136390E+00
         -1   -1    0    0    0  501 -0.00000000000E+00  0.00000000000E+00  0.40010108611E+02  0.40010108611E+02  0.00000000000E+00 0.  1.
          1   -1    0    0  501    0  0.00000000000E+00 -0.00000000000E+00 -0.12434738398E+04  0.12434738398E+04  0.00000000000E+00 0. -1.
          5    1    1    2  502    0 -0.26440997804E+02  0.79769458924E+01 -0.27871249992E+02  0.39459308240E+02  0.41800000000E+01 0.  1.
         -5    1    1    2    0  502  0.42680340244E+02  0.18586881384E+03 -0.60409247302E+03  0.63349350096E+03  0.41800000000E+01 0.  1.
        -11    1    1    2    0    0  0.16276990732E+02  0.17545934850E+01 -0.38099479992E+02  0.41467932204E+02  0.00000000000E+00 0.  1.
         11    1    1    2    0    0 -0.32516333171E+02 -0.19560035321E+03 -0.53340052817E+03  0.56906320699E+03  0.00000000000E+00 0. -1.
</event>
<event>
 6    1  0.9216756E-006  0.1062785E+03  0.7561462E-02  0.1267621E+00
          3   -1    0    0  501    0  0.00000000000E+00  0.00000000000E+00  0.32000297852E+03  0.32000297852E+03  0.00000000000E+00 0. -1.
         -3   -1    0    0    0  501 -0.00000000000E+00 -0.00000000000E+00 -0.43191920887E+02  0.43191920887E+02  0.00000000000E+00 0.  1.
          5    1    1    2  502    0 -0.45908327975E+02 -0.73379219854E+02  0.83151277929E+02  0.12009867570E+03  0.41800000000E+01 0.  1.
         -5    1    1    2    0  502  0.16938063468E+02  0.39532000423E+02  0.73512462938E+02  0.85271517276E+02  0.41800000000E+01 0.  1.
        -11    1    1    2    0    0  0.75776028708E+01  0.53262775039E+02  0.26791414644E+02  0.60100941497E+02  0.00000000000E+00 0.  1.
         11    1    1    2    0    0  0.21392661637E+02 -0.19415555608E+02  0.93355902125E+02  0.97723764935E+02  0.00000000000E+00 0. -1.
</event>
<event>
 6    1  0.9216756E-006  0.1115740E+03  0.7561462E-02  0.1257683E+00
         -1   -1    0    0    0  501 -0.00000000000E+00  0.00000000000E+00  0.31452085470E+02  0.31452085470E+02  0.00000000000E+00 0.  1.
          1   -1    0    0  501    0  0.00000000000E+00 -0.00000000000E+00 -0.54392649887E+03  0.54392649887E+03  0.00000000000E+00 0. -1.
          5    1    1    2  502    0  0.42508292053E+02 -0.79611913609E+02 -0.29361779051E+03  0.30720333818E+03  0.41800000000E+01 0.  1.
         -5    1    1    2    0  502  0.12473645400E+02  0.37731143958E+02 -0.44128868694E+02  0.59532012448E+02  0.41800000000E+01 0.  1.
        -11    1    1    2    0    0  0.66153869972E+01  0.29217751177E+02 -0.88375140301E+01  0.31233667463E+02  0.00000000000E+00 0.  1.
         11    1    1    2    0    0 -0.61597324451E+02  0.12663018475E+02 -0.16589024016E+03  0.17740956625E+03  0.00000000000E+00 0. -1.
</event>
<event>
 6    1  0.9216756E-006  0.8690558E+02  0.7561462E-02  0.1310523E+00
         -2   -1    0    0    0  501 -0.00000000000E+00  0.00000000000E+00  0.79333241442E+02  0.79333241442E+02  0.00000000000E+00 0.  1.
          2   -1    0    0  501    0  0.00000000000E+00 -0.00000000000E+00 -0.15726748139E+03  0.15726748139E+03  0.00000000000E+00 0. -1.
          5    1    1    2  502    0  0.32939752174E+02  0.12756199077E+02  0.33097874670E+02  0.48586928241E+02  0.41800000000E+01 0. -1.
         -5    1    1    2    0  502 -0.41541236582E+02  0.17184956372E+02 -0.73944131370E+02  0.86638351937E+02  0.41800000000E+01 0. -1.
        -11    1    1    2    0    0 -0.82293181306E+01 -0.58967417087E+02 -0.31507120767E+02  0.67361536605E+02  0.00000000000E+00 0. -1.
         11    1    1    2    0    0  0.16830802539E+02  0.29026261637E+02 -0.55808624823E+01  0.34013906050E+02  0.00000000000E+00 0.  1.
</event>
<event>
 6    1  0.9216756E-006  0.1026321E+03  0.7561462E-02  0.1274856E+00
         -1   -1    0    0    0  501 -0.00000000000E+00  0.00000000000E+00  0.27689529141E+03  0.27689529141E+03  0.00000000000E+00 0.  1.
          1   -1    0    0  501    0  0.00000000000E+00 -0.00000000000E+00 -0.11501230852E+03  0.11501230852E+03  0.00000000000E+00 0. -1.
          5    1    1    2  502    0  0.17268785932E+02 -0.35335136290E+02  0.93329143506E+02  0.10136362391E+03  0.41800000000E+01 0.  1.
         -5    1    1    2    0  502 -0.80488942293E+02  0.56885813432E+02  0.13022946493E+03  0.16337579850E+03  0.41800000000E+01 0.  1.
        -11    1    1    2    0    0  0.18563340462E+02 -0.92646190521E+01  0.22801336764E+02  0.30827450973E+02  0.00000000000E+00 0.  1.
         11    1    1    2    0    0  0.44656815900E+02 -0.12286058090E+02 -0.84476962312E+02  0.96340726545E+02  0.00000000000E+00 0. -1.
</event>
<event>
 6    1  0.9216756E-006  0.1259576E+03  0.7561462E-02  0.1233580E+00
          1   -1    0    0  501    0  0.00000000000E+00  0.00000000000E+00  0.64768857434E+02  0.64768857434E+02  0.00000000000E+00 0. -1.
         -1   -1    0    0    0  501 -0.00000000000E+00 -0.00000000000E+00 -0.26731737948E+03  0.26731737948E+03  0.00000000000E+00 0.  1.
          5    1    1    2  502    0  0.36210159422E+02 -0.33461253476E+02 -0.22976537774E+02  0.54554787302E+02  0.41800000000E+01 0. -1.
         -5    1    1    2    0  502 -0.12645093026E+02  0.76169204257E+02 -0.10961663913E+03  0.13414516774E+03  0.41800000000E+01 0. -1.
        -11    1    1    2    0    0  0.27731628773E+02  0.26905138201E+02 -0.19681545163E+02  0.43362344448E+02  0.00000000000E+00 0.  1.
         11    1    1    2    0    0 -0.51296695168E+02 -0.69613088982E+02 -0.50273799982E+02  0.10002393742E+03  0.00000000000E+00 0. -1.
</event>
<event>
 6    1  0.9216756E-006  0.6821590E+02  0.7561462E-02  0.1366267E+00
         -1   -1    0    0    0  501 -0.00000000000E+00  0.00000000000E+00  0.20983047513E+02  0.20983047513E+02  0.00000000000E+00 0.  1.
          1   -1    0    0  501    0  0.00000000000E+00 -0.00000000000E+00 -0.57163712668E+03  0.57163712668E+03  0.00000000000E+00 0. -1.
          5    1    1    2  502    0  0.22633360479E+02  0.80031853655E+00  0.31537365607E+01  0.23244955810E+02  0.41800000000E+01 0.  1.
         -5    1    1    2    0  502 -0.21560714388E+02 -0.81949576855E+01 -0.27631506613E+03  0.27730760881E+03  0.41800000000E+01 0.  1.
        -11    1    1    2    0    0  0.46055249556E+00  0.48662237364E+02 -0.12676437345E+03  0.13578450512E+03  0.00000000000E+00 0.  1.
         11    1    1    2    0    0 -0.15331985870E+01 -0.41267598215E+02 -0.15072837614E+03  0.15628310445E+03  0.00000000000E+00 0. -1.
</event>
<event>
 6    1  0.9216756E-006  0.1074837E+03  0.7561462E-02  0.1265302E+00
          2   -1    0    0  501    0  0.00000000000E+00  0.00000000000E+00  0.60759418628E+03  0.60759418628E+03  0.00000000000E+00 0. -1.
         -2   -1    0    0    0  501 -0.00000000000E+00 -0.00000000000E+00 -0.35375906731E+02  0.35375906731E+02  0.00000000000E+00 0.  1.
          5    1    1    2  502    0  0.22646836093E+01  0.42041747914E+02 -0.19616761029E+01  0.42355140570E+02  0.41800000000E+01 0. -1.
         -5    1    1    2    0  502 -0.57389178061E+02  0.58097214529E+01  0.16956217194E+03  0.17915376964E+03  0.41800000000E+01 0. -1.
        -11    1    1    2    0    0 -0.42845762361E+00  0.23998530772E+02  0.50989562094E+02  0.56356441492E+02  0.00000000000E+00 0.  1.
         11    1    1    2    0    0  0.55552952076E+02 -0.71850000139E+02  0.35362822161E+03  0.36510474131E+03  0.00000000000E+00 0. -1.
</event>
<event>
 6    1  0.9216756E-006  0.2134333E+03  0.7561462E-02  0.1138876E+00
         -1   -1    0    0    0  501 -0.00000000000E+00  0.00000000000E+00  0.79826714992E+02  0.79826714992E+02  0.00000000000E+00 0.  1.
          1   -1    0    0  501    0  0.00000000000E+00 -0.00000000000E+00 -0.62423968671E+03  0.62423968671E+03  0.00000000000E+00 0. -1.
          5    1    1    2  502    0  0.48485306522E+02  0.18264329622E+03 -0.18529855145E+03  0.26469307542E+03  0.41800000000E+01 0. -1.
         -5    1    1    2    0  502 -0.39135600934E+02  0.96911558151E+01 -0.43568707154E+02  0.59508137297E+02  0.41800000000E+01 0. -1.
        -11    1    1    2    0    0 -0.26706166109E+02 -0.11623270882E+03 -0.11940071700E+03  0.16875957196E+03  0.00000000000E+00 0.  1.
         11    1    1    2    0    0  0.17356460521E+02 -0.76101743220E+02 -0.19614499611E+03  0.21110561703E+03  0.00000000000E+00 0. -1.
</event>
<event>
 6    1  0.9216756E-006  0.9985713E+02  0.7561462E-02  0.1280597E+00
          1   -1    0    0  501    0  0.00000000000E+00  0.00000000000E+00  0.15512374584E+03  0.15512374584E+03  0.00000000000E+00 0. -1.
         -1   -1    0    0    0  501 -0.00000000000E+00 -0.00000000000E+00 -0.49939242197E+03  0.49939242197E+03  0.00000000000E+00 0.  1.
          5    1    1    2  502    0  0.30440406856E+02 -0.22125625411E+02 -0.54531669422E+02  0.66387777786E+02  0.41800000000E+01 0. -1.
         -5    1    1    2    0  502 -0.75276196019E+02 -0.28152150703E+02 -0.42376016746E+03  0.43133421056E+03  0.41800000000E+01 0.  1.
        -11    1    1    2    0    0  0.47190491605E+02  0.20412447097E+02  0.85317181960E+02  0.99612409026E+02  0.00000000000E+00 0. -1.
         11    1    1    2    0    0 -0.23547024415E+01  0.29865329018E+02  0.48705978793E+02  0.57181770444E+02  0.00000000000E+00 0.  1.
</event>
<event>
 6    1  0.9216756E-006  0.1209920E+03  0.7561462E-02  0.1241470E+00
          1   -1    0    0  501    0  0.00000000000E+00  0.00000000000E+00  0.28850418674E+03  0.28850418674E+03  0.00000000000E+00 0. -1.
         -1   -1    0    0    0  501 -0.00000000000E+00 -0.00000000000E+00 -0.12141011131E+03  0.12141011131E+03  0.00000000000E+00 0.  1.
          5    1    1    2  502    0 -0.25943245130E+02 -0.92200996876E+02  0.18761871420E+02  0.97691125554E+02  0.41800000000E+01 0.  1.
         -5    1    1    2    0  502  0.25756396854E+02 -0.39354128452E+01 -0.59740986615E+02  0.65309550105E+02  0.41800000000E+01 0.  1.
        -11    1    1    2    0    0  0.28910650765E+02  0.83461361778E+02  0.95673994837E+02  0.13021189625E+03  0.00000000000E+00 0.  1.
         11    1    1    2    0    0 -0.28723802489E+02  0.12675047943E+02  0.11239919579E+03  0.11670172614E+03  0.00000000000E+00 0. -1.
</event>
<event>
 6    1  0.9216756E-006  0.1916649E+03  0.7561462E-02  0.1156968E+00
         -1   -1    0    0    0  501 -0.00000000000E+00  0.00000000000E+00  0.19300081129E+03  0.19300081129E+03  0.00000000000E+00 0.  1.
          1   -1    0    0  501    0  0.00000000000E+00 -0.00000000000E+00 -0.22027948862E+03  0.22027948862E+03  0.00000000000E+00 0. -1.
          5    1    1    2  502    0 -0.93614901467E+02  0.13138069432E+03 -0.24619701039E+02  0.16324288253E+03  0.41800000000E+01 0.  1.
         -5    1    1    2    0  502  0.33628439010E+02  0.32798021905E+02  0.21244230881E+02  0.51723997302E+02  0.41800000000E+01 0.  1.
        -11    1    1    2    0    0  0.38812790933E+01 -0.10494223780E+02  0.25138284183E+02  0.27515929783E+02  0.00000000000E+00 0.  1.
         11    1    1    2    0    0  0.56105183364E+02 -0.15368449244E+03 -0.49041491346E+02  0.17079749030E+03  0.00000000000E+00 0. -1.
</event>
<event>
 6    1  0.9216756E-006  0.6695821E+02  0.7561462E-02  0.1370753E+00
          1   -1    0    0  501    0  0.00000000000E+00  0.00000000000E+00  0.51432543831E+02  0.51432543831E+02  0.00000000000E+00 0. -1.
         -1   -1    0    0    0  501 -0.00000000000E+00 -0.00000000000E+00 -0.25272259309E+03  0.25272259309E+03  0.00000000000E+00 0.  1.
          5    1    1    2  502    0 -0.20733029524E+02  0.12484890420E+02 -0.17597034028E+03  0.17767600868E+03  0.41800000000E+01 0.  1.
         -5    1    1    2    0  502  0.80486715686E+01 -0.17132644549E+02  0.16488362056E+02  0.25448911697E+02  0.41800000000E+01 0.  1.
        -11    1    1    2    0    0  0.40527065843E+02 -0.26322669428E+02 -0.32845604172E+02  0.58430811265E+02  0.00000000000E+00 0.  1.
         11    1    1    2    0    0 -0.27842707888E+02  0.30970423556E+02 -0.89624668614E+01  0.42599405278E+02  0.00000000000E+00 0. -1.
</event>
<event>
 6    1  0.9216756E-006  0.2012558E+03  0.7561462E-02  0.1148684E+00
          1   -1    0    0  501    0  0.00000000000E+00  0.00000000000E+00  0.13065956540E+04  0.13065956540E+04  0.00000000000E+00 0.  1.
         -1   -1    0    0    0  501 -0.00000000000E+00 -0.00000000000E+00 -0.38476042176E+02  0.38476042176E+02  0.00000000000E+00 0. -1.
          5    1    1    2  502    0  0.35973202129E+02 -0.41562847036E+02  0.56244644832E+02  0.78755787073E+02  0.41800000000E+01 0. -1.
         -5    1    1    2    0  502  0.15336736869E+03  0.13317054105E+01  0.51047215018E+03  0.53303152977E+03  0.41800000000E+01 0. -1.
        -11    1    1    2    0    0 -0.90258352038E+02  0.25432253269E+02  0.18674380578E+03  0.20896559194E+03  0.00000000000E+00 0. -1.
         11    1    1    2    0    0 -0.99082218780E+02  0.14798888356E+02  0.51465901100E+03  0.52431878736E+03  0.00000000000E+00 0.  1.
</event>
<event>
 6    1  0.9216756E-006  0.2356476E+03  0.7561462E-02  0.1122727E+00
         -1   -1    0    0    0  501 -0.00000000000E+00  0.00000000000E+00  0.39787346113E+02  0.39787346113E+02  0.00000000000E+00 0.  1.
          1   -1    0    0  501    0  0.00000000000E+00 -0.00000000000E+00 -0.16779776709E+04  0.16779776709E+04  0.00000000000E+00 0. -1.
          5    1    1    2  502    0 -0.33706227823E+02 -0.12589299419E+02 -0.20017143964E+02  0.41385489080E+02  0.41800000000E+01 0.  1.
         -5    1    1    2    0  502 -0.18578238846E+03 -0.49090624131E+02 -0.63200761340E+03  0.66058767854E+03  0.41800000000E+01 0.  1.
        -11    1    1    2    0    0  0.16568519762E+03  0.82609539140E+02 -0.71826609625E+03  0.74174261418E+03  0.00000000000E+00 0.  1.
         11    1    1    2    0    0  0.53803418662E+02 -0.20929615590E+02 -0.26789947116E+03  0.27404923520E+03  0.00000000000E+00 0. -1.
</event>
<event>
 6    1  0.9216756E-006  0.1293579E+03  0.7561462E-02  0.1228412E+00
         -2   -1    0    0    0  501 -0.00000000000E+00  0.00000000000E+00  0.12476823147E+03  0.12476823147E+03  0.00000000000E+00 0.  1.
          2   -1    0    0  501    0  0.00000000000E+00 -0.00000000000E+00 -0.14722188124E+03  0.14722188124E+03  0.00000000000E+00 0. -1.
          5    1    1    2  502    0 -0.10566420426E+03  0.14945732579E+02  0.20672931303E+02  0.10878024395E+03  0.41800000000E+01 0.  1.
         -5    1    1    2    0  502  0.36187942609E+02 -0.75116750251E+00 -0.36167023060E+00  0.36438093367E+02  0.41800000000E+01 0.  1.
        -11    1    1    2    0    0  0.84237800732E+02 -0.33948705405E+02 -0.46160341567E+02  0.10187884375E+03  0.00000000000E+00 0. -1.
         11    1    1    2    0    0 -0.14761539076E+02  0.19754140329E+02  0.33954307248E+01  0.24892931644E+02  0.00000000000E+00 0.  1.
</event>
<event>
 6    1  0.9216756E-006  0.9442192E+02  0.7561462E-02  0.1292483E+00
         -1   -1    0    0    0  501 -0.00000000000E+00  0.00000000000E+00  0.58477625383E+02  0.58477625383E+02  0.00000000000E+00 0.  1.
          1   -1    0    0  501    0  0.00000000000E+00 -0.00000000000E+00 -0.22024660317E+03  0.22024660317E+03  0.00000000000E+00 0. -1.
          5    1    1    2  502    0  0.31046293430E+02 -0.26165263879E+02 -0.71650148701E+02  0.82460351554E+02  0.41800000000E+01 0. -1.
         -5    1    1    2    0  502 -0.28387828120E+02  0.52852005018E+02  0.76128247887E+01  0.60618732427E+02  0.41800000000E+01 0. -1.
        -11    1    1    2    0    0 -0.37596050059E+02  0.82386972160E+01 -0.19562537705E+02  0.43174436804E+02  0.00000000000E+00 0.  1.
         11    1    1    2    0    0  0.34937584749E+02 -0.34925438355E+02 -0.78169116166E+02  0.92470707765E+02  0.00000000000E+00 0. -1.
</event>
<event>
 6    1  0.9216756E-006  0.7896039E+02  0.7561462E-02  0.1332028E+00
          4   -1    0    0  501    0  0.00000000000E+00  0.00000000000E+00  0.33564084121E+03  0.33564084121E+03  0.00000000000E+00 0. -1.
         -4   -1    0    0    0  501 -0.00000000000E+00 -0.00000000000E+00 -0.40545941141E+02  0.40545941141E+02  0.00000000000E+00 0.  1.
          5    1    1    2  502    0  0.21772071918E+02  0.32374989813E+02  0.15786807014E+03  0.16267133445E+03  0.41800000000E+01 0.  1.
         -5    1    1    2    0  502 -0.25937256999E+02  0.94190244475E+01 -0.15103920220E+02  0.31734210691E+02  0.41800000000E+01 0.  1.
        -11    1    1    2    0    0  0.42296323074E+02 -0.24757365456E+02  0.11780911378E+03  0.12759660411E+03  0.00000000000E+00 0. -1.
         11    1    1    2    0    0 -0.38131137993E+02 -0.17036648805E+02  0.34521636364E+02  0.54184633102E+02  0.00000000000E+00 0.  1.
</event>
<event>
 6    1  0.9216756E-006  0.1049587E+03  0.7561462E-02  0.1270201E+00
         -1   -1    0    0    0  501 -0.00000000000E+00  0.00000000000E+00  0.12591116445E+03  0.12591116445E+03  0.00000000000E+00 0.  1.
          1   -1    0    0  501    0  0.00000000000E+00 -0.00000000000E+00 -0.99747795225E+02  0.99747795225E+02  0.00000000000E+00 0. -1.
          5    1    1    2  502    0 -0.27759279158E+02 -0.55659969202E+02  0.43860621082E+02  0.76222281734E+02  0.41800000000E+01 0. -1.
         -5    1    1    2    0  502  0.37671222033E+02  0.42515388696E+02 -0.11786815899E+01  0.56969649250E+02  0.41800000000E+01 0. -1.
        -11    1    1    2    0    0 -0.45773400958E+02 -0.11391447253E+02 -0.45002851246E+01  0.47383772243E+02  0.00000000000E+00 0.  1.
         11    1    1    2    0    0  0.35861458084E+02  0.24536027759E+02 -0.12018285144E+02  0.45083256447E+02  0.00000000000E+00 0. -1.
</event>
<event>
 6    1  0.9216756E-006  0.1535075E+03  0.7561462E-02  0.1196228E+00
          2   -1    0    0  501    0  0.00000000000E+00  0.00000000000E+00  0.78651365990E+03  0.78651365990E+03  0.00000000000E+00 0. -1.
         -2   -1    0    0    0  501 -0.00000000000E+00 -0.00000000000E+00 -0.46115226827E+02  0.46115226827E+02  0.00000000000E+00 0.  1.
          5    1    1    2  502    0 -0.88786019836E+02  0.10824079454E+03  0.29343211433E+03  0.32514443719E+03  0.41800000000E+01 0. -1.
         -5    1    1    2    0  502 -0.16535411089E+02 -0.44126464023E+01 -0.83658564736E+01  0.19502595281E+02  0.41800000000E+01 0. -1.
        -11    1    1    2    0    0  0.38449855366E+02 -0.52324191768E+02  0.78805297732E+02  0.10211017272E+03  0.00000000000E+00 0.  1.
         11    1    1    2    0    0  0.66871575559E+02 -0.51503956367E+02  0.37652687749E+03  0.38587168153E+03  0.00000000000E+00 0. -1.
</event>
<event>
 6    1  0.9216756E-006  0.8474309E+02  0.7561462E-02  0.1316106E+00
          2   -1    0    0  501    0  0.00000000000E+00  0.00000000000E+00  0.14520529695E+03  0.14520529695E+03  0.00000000000E+00 0. -1.
         -2   -1    0    0    0  501 -0.00000000000E+00 -0.00000000000E+00 -0.92069307889E+02  0.92069307889E+02  0.00000000000E+00 0.  1.
          5    1    1    2  502    0  0.19707366945E+02  0.61964997989E+02  0.41015783084E+02  0.76992260323E+02  0.41800000000E+01 0.  1.
         -5    1    1    2    0  502 -0.45796383092E+02 -0.32351472864E+02 -0.11653788859E+02  0.57421334846E+02  0.41800000000E+01 0.  1.
        -11    1    1    2    0    0 -0.40980743500E+01 -0.13031421467E+02  0.54817336049E+02  0.56493827011E+02  0.00000000000E+00 0. -1.
         11    1    1    2    0    0  0.30187090497E+02 -0.16582103659E+02 -0.31043341210E+02  0.46367182661E+02  0.00000000000E+00 0.  1.
</event>
<event>
 6    1  0.9216756E-006  0.5079452E+02  0.7561462E-02  0.1441103E+00
         -1   -1    0    0    0  501 -0.00000000000E+00  0.00000000000E+00  0.28641510588E+02  0.28641510588E+02  0.00000000000E+00 0.  1.
          1   -1    0    0  501    0  0.00000000000E+00 -0.00000000000E+00 -0.46242960131E+03  0.46242960131E+03  0.00000000000E+00 0. -1.
          5    1    1    2  502    0  0.12995526774E+02 -0.16054271350E+02 -0.25477523008E+03  0.25564528865E+03  0.41800000000E+01 0. -1.
         -5    1    1    2    0  502  0.15467095935E+02  0.18826168636E+01  0.11456633147E+02  0.19786413166E+02  0.41800000000E+01 0. -1.
        -11    1    1    2    0    0  0.16052182315E+02 -0.36019671055E+01  0.26474200759E+01  0.16662999645E+02  0.00000000000E+00 0.  1.
         11    1    1    2    0    0 -0.44514805024E+02  0.17773621592E+02 -0.19311691386E+03  0.19897641044E+03  0.00000000000E+00 0. -1.
</event>
<event>
 6    1  0.9216756E-006  0.1175192E+03  0.7561462E-02  0.1247247E+00
          1   -1    0    0  501    0  0.00000000000E+00  0.00000000000E+00  0.55205273149E+03  0.55205273149E+03  0.00000000000E+00 0. -1.
         -1   -1    0    0    0  501 -0.00000000000E+00 -0.00000000000E+00 -0.28981937509E+02  0.28981937509E+02  0.00000000000E+00 0.  1.
          5    1    1    2  502    0 -0.57176132914E+02 -0.33273408505E+01  0.95387875968E+02  0.11133957362E+03  0.41800000000E+01 0. -1.
         -5    1    1    2    0  502  0.55370429274E+02 -0.61183590892E+02  0.17227316884E+03  0.19106238074E+03  0.41800000000E+01 0. -1.
        -11    1    1    2    0    0 -0.30661697118E+02  0.11345063089E+02  0.28645784454E+02  0.43467586702E+02  0.00000000000E+00 0.  1.
         11    1    1    2    0    0  0.32467400758E+02  0.53165868653E+02  0.22676396472E+03  0.23516512793E+03  0.00000000000E+00 0. -1.
</event>
<event>
 6    1  0.9216756E-006  0.9899682E+02  0.7561462E-02  0.1282420E+00
         -2   -1    0    0    0  501 -0.00000000000E+00  0.00000000000E+00  0.12604419557E+03  0.12604419557E+03  0.00000000000E+00 0.  1.
          2   -1    0    0  501    0  0.00000000000E+00 -0.00000000000E+00 -0.10906437654E+03  0.10906437654E+03  0.00000000000E+00 0. -1.
          5    1    1    2  502    0  0.43507250158E+01  0.35818864158E+02 -0.29776575712E+02  0.46968464940E+02  0.41800000000E+01 0. -1.
         -5    1    1    2    0  502 -0.43540125697E+02 -0.46473941522E+02  0.60848429805E+02  0.88179212948E+02  0.41800000000E+01 0. -1.
        -11    1    1    2    0    0  0.63007041073E+02 -0.12941665064E+02 -0.21109039050E+01  0.64357049612E+02  0.00000000000E+00 0.  1.
         11    1    1    2    0    0 -0.23817640392E+02  0.23596742429E+02 -0.11981131155E+02  0.35603844608E+02  0.00000000000E+00 0. -1.
</event>
<event>
 6    1  0.9216756E-006  0.1133887E+03  0.7561462E-02  0.1254420E+00
          3   -1    0    0  501    0  0.00000000000E+00  0.00000000000E+00  0.65035568230E+03  0.65035568230E+03  0.00000000000E+00 0. -1.
         -3   -1    0    0    0  501 -0.00000000000E+00 -0.00000000000E+00 -0.26310049244E+02  0.26310049244E+02  0.00000000000E+00 0.  1.
          5    1    1    2  502    0  0.30000807205E+02  0.27880604466E+02  0.10180624426E+03  0.10981511876E+03  0.41800000000E+01 0. -1.
         -5    1    1    2    0  502 -0.58431127533E+02 -0.66397386729E+02  0.10499395948E+03  0.13734632706E+03  0.41800000000E+01 0.  1.
        -11    1    1    2    0    0  0.11775828025E+02 -0.27003645582E+02  0.73688238187E+02  0.79358827155E+02  0.00000000000E+00 0.  1.
         11    1    1    2    0    0  0.16654492304E+02  0.65520427845E+02  0.34355719113E+03  0.35014545857E+03  0.00000000000E+00 0. -1.
</event>
<event>
 6    1  0.9216756E-006  0.1030623E+03  0.7561462E-02  0.1273985E+00
          4   -1    0    0  501    0  0.00000000000E+00  0.00000000000E+00  0.46505655212E+02  0.46505655212E+02  0.00000000000E+00 0. -1.
         -4   -1    0    0    0  501 -0.00000000000E+00 -0.00000000000E+00 -0.27295993638E+03  0.27295993638E+03  0.00000000000E+00 0.  1.
          5    1    1    2  502    0 -0.55018340849E+02 -0.14570882070E+02 -0.11658192158E+03  0.12980040552E+03  0.41800000000E+01 0.  1.
         -5    1    1    2    0  502  0.60503423507E+02  0.86585101603E+01 -0.52455949951E+02  0.80651925826E+02  0.41800000000E+01 0.  1.
        -11    1    1    2    0    0  0.40672558638E+02 -0.30012482525E+01 -0.44285158555E+02  0.60203320386E+02  0.00000000000E+00 0.  1.
         11    1    1    2    0    0 -0.46157641295E+02  0.89136201626E+01 -0.13131251086E+02  0.48809939863E+02  0.00000000000E+00 0. -1.
</event>
<event>
 6    1  0.9216756E-006  0.7977721E+02  0.7561462E-02  0.1329685E+00
         -1   -1    0    0    0  501 -0.00000000000E+00  0.00000000000E+00  0.40235155799E+02  0.40235155799E+02  0.00000000000E+00 0.  1.
          1   -1    0    0  501    0  0.00000000000E+00 -0.00000000000E+00 -0.30161779928E+03  0.30161779928E+03  0.00000000000E+00 0. -1.
          5    1    1    2  502    0  0.27784977260E+02  0.49915264248E+02 -0.12371398908E+03  0.13633107519E+03  0.41800000000E+01 0.  1.
         -5    1    1    2    0  502 -0.80835616408E+01 -0.56977925303E+02 -0.37594523710E+02  0.68866890111E+02  0.41800000000E+01 0.  1.
        -11    1    1    2    0    0 -0.68390746969E+01  0.23056840901E+02 -0.11088104868E+03  0.11345923414E+03  0.00000000000E+00 0. -1.
         11    1    1    2    0    0 -0.12862340922E+02 -0.15994179847E+02  0.10806917997E+02  0.23195755637E+02  0.00000000000E+00 0.  1.
</event>
<event>
 6    1  0.9216756E-006  0.1311326E+03  0.7561462E-02  0.1225785E+00
          4   -1    0    0  501    0  0.00000000000E+00  0.00000000000E+00  0.24158204829E+02  0.24158204829E+02  0.00000000000E+00 0. -1.
         -4   -1    0    0    0  501 -0.00000000000E+00 -0.00000000000E+00 -0.10361630717E+04  0.10361630717E+04  0.00000000000E+00 0.  1.
          5    1    1    2  502    0  0.18263948421E+01  0.44283493955E+02 -0.70226947208E+02  0.83148421928E+02  0.41800000000E+01 0. -1.
         -5    1    1    2    0  502 -0.89757693886E+02  0.16284958481E+02 -0.60302917907E+03  0.60990434225E+03  0.41800000000E+01 0. -1.
        -11    1    1    2    0    0  0.53316904301E+02 -0.72341815610E+02 -0.30333688965E+03  0.31636892893E+03  0.00000000000E+00 0.  1.
         11    1    1    2    0    0  0.34614394744E+02  0.11773363173E+02 -0.35411850899E+02  0.50899583377E+02  0.00000000000E+00 0. -1.
</event>
<event>
 6    1  0.9216756E-006  0.9890211E+02  0.7561462E-02  0.1282622E+00
          2   -1    0    0  501    0  0.00000000000E+00  0.00000000000E+00  0.48953649761E+03  0.48953649761E+03  0.00000000000E+00 0. -1.
         -2   -1    0    0    0  501 -0.00000000000E+00 -0.00000000000E+00 -0.24526019759E+02  0.24526019759E+02  0.00000000000E+00 0.  1.
          5    1    1    2  502    0  0.22326248272E+02  0.43777449793E+02  0.14504825337E+03  0.15320376848E+03  0.41800000000E+01 0. -1.
         -5    1    1    2    0  502 -0.20215996407E+02 -0.67779555732E+02  0.94520148635E+02  0.11812825904E+03  0.41800000000E+01 0. -1.
        -11    1    1    2    0    0 -0.32514323006E+02 -0.80051537196E+01  0.40290829885E+02  0.52389070038E+02  0.00000000000E+00 0.  1.
         11    1    1    2    0    0  0.30404071142E+02  0.32007259659E+02  0.18515124596E+03  0.19034141981E+03  0.00000000000E+00 0. -1.
</event>
<event>
 6    1  0.9216756E-006  0.3406309E+03  0.7561462E-02  0.1066528E+00
          2   -1    0    0  501    0  0.00000000000E+00  0.00000000000E+00  0.18519768278E+04  0.18519768278E+04  0.00000000000E+00 0. -1.
         -2   -1    0    0    0  501 -0.00000000000E+00 -0.00000000000E+00 -0.65892974537E+02  0.65892974537E+02  0.00000000000E+00 0.  1.
          5    1    1    2  502    0 -0.54447412525E+02 -0.42009271589E+02  0.13494652564E+03  0.15151678723E+03  0.41800000000E+01 0.  1.
         -5    1    1    2    0  502  0.35779996179E+01 -0.27989574948E+03  0.60394377085E+03  0.66567257973E+03  0.41800000000E+01 0.  1.
        -11    1    1    2    0    0  0.70775251012E+01  0.23493917603E+03  0.63394996749E+03  0.67612060246E+03  0.00000000000E+00 0.  1.
         11    1    1    2    0    0  0.43791887806E+02  0.86965845032E+02  0.41324358933E+03  0.42455983296E+03  0.00000000000E+00 0. -1.
</event>
<event>
 6    1  0.9216756E-006  0.1192065E+03  0.7561462E-02  0.1244412E+00
         -2   -1    0    0    0  501 -0.00000000000E+00  0.00000000000E+00  0.43624170496E+02  0.43624170496E+02  0.00000000000E+00 0.  1.
          2   -1    0    0  501    0  0.00000000000E+00 -0.00000000000E+00 -0.52090772296E+03  0.52090772296E+03  0.00000000000E+00 0. -1.
          5    1    1    2  502    0  0.82580732780E+02 -0.29767883402E+02 -0.26161613047E+03  0.27598220311E+03  0.41800000000E+01 0.  1.
         -5    1    1    2    0  502  0.16930432990E+02 -0.18936105734E+01  0.12609767907E+02  0.21603332356E+02  0.41800000000E+01 0.  1.
        -11    1    1    2    0    0 -0.11084173198E+03  0.41127214001E+02 -0.17164366212E+03  0.20841997032E+03  0.00000000000E+00 0.  1.
         11    1    1    2    0    0  0.11330566207E+02 -0.94657200263E+01 -0.56633527777E+02  0.58526387678E+02  0.00000000000E+00 0. -1.
</event>
<event>
 6    1  0.9216756E-006  0.3179950E+03  0.7561462E-02  0.1076576E+00
         -2   -1    0    0    0  501 -0.00000000000E+00  0.00000000000E+00  0.15145690879E+03  0.15145690879E+03  0.00000000000E+00 0.  1.
          2   -1    0    0  501    0  0.00000000000E+00 -0.00000000000E+00 -0.97249449805E+03  0.97249449805E+03  0.00000000000E+00 0. -1.
          5    1    1    2  502    0  0.15255264905E+03 -0.72315787155E+01 -0.95540203324E+02  0.18019436537E+03  0.41800000000E+01 0.  1.
         -5    1    1    2    0  502  0.14336442594E+03  0.97833544935E+02 -0.28665255211E+02  0.17596570801E+03  0.41800000000E+01 0.  1.
        -11    1    1    2    0    0 -0.15790658775E+03 -0.43897903373E+02 -0.47417396635E+03  0.50169957817E+03  0.00000000000E+00 0.  1.
         11    1    1    2    0    0 -0.13801048723E+03 -0.46704062846E+02 -0.22265816438E+03  0.26609175530E+03  0.00000000000E+00 0. -1.
</event>
<event>
 6    1  0.9216756E-006  0.9288875E+02  0.7561462E-02  0.1296003E+00
          1   -1    0    0  501    0  0.00000000000E+00  0.00000000000E+00  0.67826627971E+03  0.67826627971E+03  0.00000000000E+00 0. -1.
         -1   -1    0    0    0  501 -0.00000000000E+00 -0.00000000000E+00 -0.17038383259E+02  0.17038383259E+02  0.00000000000E+00 0.  1.
          5    1    1    2  502    0  0.92938330863E+01 -0.35871382421E+02  0.25837773323E+03  0.26105489239E+03  0.41800000000E+01 0. -1.
         -5    1    1    2    0  502  0.12240886045E+02  0.54072943936E+02  0.79190511961E+02  0.96759145003E+02  0.41800000000E+01 0.  1.
        -11    1    1    2    0    0 -0.47681838901E+02 -0.37275813329E+02  0.24643056947E+03  0.25375395483E+03  0.00000000000E+00 0. -1.
         11    1    1    2    0    0  0.26147119770E+02  0.19074251814E+02  0.77229081788E+02  0.83736670750E+02  0.00000000000E+00 0.  1.
</event>
<event>
 6    1  0.9216756E-006  0.7880914E+02  0.7561462E-02  0.1332465E+00
          1   -1    0    0  501    0  0.00000000000E+00  0.00000000000E+00  0.62524813792E+02  0.62524813792E+02  0.00000000000E+00 0. -1.
         -1   -1    0    0    0  501 -0.00000000000E+00 -0.00000000000E+00 -0.27338188382E+03  0.27338188382E+03  0.00000000000E+00 0.  1.
          5    1    1    2  502    0  0.32791184696E+02  0.55990364997E+01  0.14171485634E+01  0.33557290021E+02  0.41800000000E+01 0. -1.
         -5    1    1    2    0  502  0.20053621778E+02 -0.26390301482E+02 -0.19108350517E+03  0.19398189118E+03  0.41800000000E+01 0.  1.
        -11    1    1    2    0    0 -0.66232386971E+02  0.31687207797E+02  0.86135394219E+01  0.73925646992E+02  0.00000000000E+00 0. -1.
         11    1    1    2    0    0  0.13387580497E+02 -0.10895942814E+02 -0.29804252850E+02  0.34441869423E+02  0.00000000000E+00 0.  1.
</event>
<event>
 6    1  0.9216756E-006  0.1578328E+03  0.7561462E-02  0.1191165E+00
          2   -1    0    0  501    0  0.00000000000E+00  0.00000000000E+00  0.71717172404E+03  0.71717172404E+03  0.00000000000E+00 0. -1.
         -2   -1    0    0    0  501 -0.00000000000E+00 -0.00000000000E+00 -0.36648641422E+02  0.36648641422E+02  0.00000000000E+00 0.  1.
          5    1    1    2  502    0 -0.21112828325E+01  0.13238587338E+03  0.25811837608E+03  0.29012591310E+03  0.41800000000E+01 0.  1.
         -5    1    1    2    0  502 -0.41133242017E+02 -0.13553384712E+02  0.56745309488E+02  0.71506226196E+02  0.41800000000E+01 0.  1.
        -11    1    1    2    0    0  0.17417981795E+02 -0.11148256584E+03  0.31881693479E+03  0.33819518992E+03  0.00000000000E+00 0. -1.
         11    1    1    2    0    0  0.25826543054E+02 -0.73499228315E+01  0.46842462263E+02  0.53993036242E+02  0.00000000000E+00 0.  1.
</event>
<event>
 6    1  0.9216756E-006  0.1563135E+03  0.7561462E-02  0.1192923E+00
         -2   -1    0    0    0  501 -0.00000000000E+00  0.00000000000E+00  0.41254649541E+02  0.41254649541E+02  0.00000000000E+00 0.  1.
          2   -1    0    0  501    0  0.00000000000E+00 -0.00000000000E+00 -0.69246640542E+03  0.69246640542E+03  0.00000000000E+00 0. -1.
          5    1    1    2  502    0  0.22495046274E+02 -0.33303941939E+02 -0.66416882504E+02  0.77742230076E+02  0.41800000000E+01 0.  1.
         -5    1    1    2    0  502  0.73968922896E+02  0.11660966405E+03 -0.23796421731E+03  0.27516114628E+03  0.41800000000E+01 0.  1.
        -11    1    1    2    0    0 -0.54708347881E+02 -0.20039779365E+02 -0.58019966632E+02  0.82224768853E+02  0.00000000000E+00 0.  1.
         11    1    1    2    0    0 -0.41755621289E+02 -0.63265942749E+02 -0.28881068943E+03  0.29859290975E+03  0.00000000000E+00 0. -1.
</event>
<event>
 6    1  0.9216756E-006  0.1436658E+03  0.7561462E-02  0.1208480E+00
          2   -1    0    0  501    0  0.00000000000E+00  0.00000000000E+00  0.37437076999E+03  0.37437076999E+03  0.00000000000E+00 0. -1.
         -2   -1    0    0    0  501 -0.00000000000E+00 -0.00000000000E+00 -0.67434604756E+02  0.67434604756E+02  0.00000000000E+00 0.  1.
          5    1    1    2  502    0 -0.67839717517E+02  0.55807448000E+02  0.14447913090E+03  0.16914014955E+03  0.41800000000E+01 0. -1.
         -5    1    1    2    0  502  0.22973317073E+02  0.50504108749E+02  0.24491743403E+01  0.55694785688E+02  0.41800000000E+01 0. -1.
        -11    1    1    2    0    0  0.23890089692E+02  0.97511982305E+01  0.47047680309E+02  0.53659169532E+02  0.00000000000E+00 0. -1.
         11    1    1    2    0    0  0.20976310752E+02 -0.11606275498E+03  0.11296017969E+03  0.16331126998E+03  0.00000000000E+00 0.  1.
</event>
<event>
 6    1  0.9216756E-006  0.1695845E+03  0.7561462E-02  0.1178282E+00
         -1   -1    0    0    0  501 -0.00000000000E+00  0.00000000000E+00  0.23154425045E+02  0.23154425045E+02  0.00000000000E+00 0.  1.
          1   -1    0    0  501    0  0.00000000000E+00 -0.00000000000E+00 -0.12663870857E+04  0.12663870857E+04  0.00000000000E+00 0. -1.
          5    1    1    2  502    0  0.56293122029E+02 -0.75443285538E+02 -0.30986393250E+03  0.32387302140E+03  0.41800000000E+01 0.  1.
         -5    1    1    2    0  502  0.69242626922E+02  0.49024272136E+02 -0.27222146105E+03  0.28516647226E+03  0.41800000000E+01 0.  1.
        -11    1    1    2    0    0 -0.39364749845E+02 -0.36201965714E+02 -0.18435765240E+03  0.19195809399E+03  0.00000000000E+00 0.  1.
         11    1    1    2    0    0 -0.86170999106E+02  0.62620979116E+02 -0.47678961468E+03  0.48854392308E+03  0.00000000000E+00 0. -1.
</event>
<event>
 6    1  0.9216756E-006  0.1561649E+03  0.7561462E-02  0.1193096E+00
          1   -1    0    0  501    0  0.00000000000E+00  0.00000000000E+00  0.23697129437E+03  0.23697129437E+03  0.00000000000E+00 0. -1.
         -1   -1    0    0    0  501 -0.00000000000E+00 -0.00000000000E+00 -0.12068523335E+03  0.12068523335E+03  0.00000000000E+00 0.  1.
          5    1    1    2  502    0  0.12645277211E+03  0.71409792261E+02  0.18948169798E+02  0.14651336985E+03  0.41800000000E+01 0. -1.
         -5    1    1    2    0  502 -0.15284799231E+02 -0.23148654038E+02 -0.38557565038E+01  0.28316506308E+02  0.41800000000E+01 0. -1.
        -11    1    1    2    0    0 -0.10240930430E+03 -0.13677508578E+02  0.37671913043E+02  0.10997232780E+03  0.00000000000E+00 0.  1.
         11    1    1    2    0    0 -0.87586685744E+01 -0.34583629646E+02  0.63521734680E+02  0.72854323766E+02  0.00000000000E+00 0. -1.
</event>
<event>
 6    1  0.9216756E-006  0.1301302E+03  0.7561462E-02  0.1227263E+00
          1   -1    0    0  501    0  0.00000000000E+00  0.00000000000E+00  0.45948158570E+03  0.45948158570E+03  0.00000000000E+00 0. -1.
         -1   -1    0    0    0  501 -0.00000000000E+00 -0.00000000000E+00 -0.59201422029E+02  0.59201422029E+02  0.00000000000E+00 0.  1.
          5    1    1    2  502    0 -0.61707258719E+02 -0.21700366509E+02  0.16892754265E+02  0.67686994555E+02  0.41800000000E+01 0. -1.
         -5    1    1    2    0  502 -0.51338454595E+02 -0.27144353360E+02  0.21743915810E+03  0.22509933966E+03  0.41800000000E+01 0. -1.
        -11    1    1    2    0    0  0.22976619240E+02  0.39818210259E+02  0.12337440815E+02  0.47598606553E+02  0.00000000000E+00 0.  1.
         11    1    1    2    0    0  0.90069094073E+02  0.90265096100E+01  0.15361081048E+03  0.17829806696E+03  0.00000000000E+00 0. -1.
</event>
<event>
 6    1  0.9216756E-006  0.1186335E+03  0.7561462E-02  0.1245368E+00
         -2   -1    0    0    0  501 -0.00000000000E+00  0.00000000000E+00  0.44001644488E+03  0.44001644488E+03  0.00000000000E+00 0.  1.
          2   -1    0    0  501    0  0.00000000000E+00 -0.00000000000E+00 -0.55097590578E+02  0.55097590578E+02  0.00000000000E+00 0. -1.
          5    1    1    2  502    0  0.11611963948E+02  0.49482061604E+02  0.12154678391E+03  0.13181200706E+03  0.41800000000E+01 0.  1.
         -5    1    1    2    0  502 -0.92106659390E+02 -0.34373484698E+02  0.21389966553E+03  0.23544789756E+03  0.41800000000E+01 0.  1.
        -11    1    1    2    0    0  0.24245226189E+02  0.10054613712E+02  0.59861615947E+02  0.65363134209E+02  0.00000000000E+00 0.  1.
         11    1    1    2    0    0  0.56249469253E+02 -0.25163190617E+02 -0.10389211072E+02  0.62490996631E+02  0.00000000000E+00 0. -1.
</event>
<event>
 6    1  0.9216756E-006  0.5496351E+02  0.7561462E-02  0.1420272E+00
         -2   -1    0    0    0  501 -0.00000000000E+00  0.00000000000E+00  0.49666533339E+02  0.49666533339E+02  0.00000000000E+00 0.  1.
          2   -1    0    0  501    0  0.00000000000E+00 -0.00000000000E+00 -0.28614788856E+03  0.28614788856E+03  0.00000000000E+00 0. -1.
          5    1    1    2  502    0 -0.27662222792E+02 -0.21689250666E+02  0.27520754594E+02  0.44838448876E+02  0.41800000000E+01 0. -1.
         -5    1    1    2    0  502  0.13375409920E+02  0.15715730538E+02 -0.96653405365E+02  0.98920366687E+02  0.41800000000E+01 0. -1.
        -11    1    1    2    0    0 -0.14196544824E+02 -0.12998533735E+02  0.19365306811E+01  0.19345643315E+02  0.00000000000E+00 0.  1.
         11    1    1    2    0    0  0.28483357695E+02  0.18972053863E+02 -0.16928523513E+03  0.17270996302E+03  0.00000000000E+00 0. -1.
</event>
<event>
 6    1  0.9216756E-006  0.6790402E+02  0.7561462E-02  0.1367369E+00
         -2   -1    0    0    0  501 -0.00000000000E+00  0.00000000000E+00  0.26647301083E+03  0.26647301083E+03  0.00000000000E+00 0.  1.
          2   -1    0    0  501    0  0.00000000000E+00 -0.00000000000E+00 -0.49007344748E+02  0.49007344748E+02  0.00000000000E+00 0. -1.
          5    1    1    2  502    0  0.20338099755E+02  0.32762266613E+02  0.22599396769E+01  0.38853367198E+02  0.41800000000E+01 0. -1.
         -5    1    1    2    0  502 -0.12193420913E+02 -0.63716993675E+02  0.13361247266E+03  0.14858768470E+03  0.41800000000E+01 0. -1.
        -11    1    1    2    0    0 -0.57340097546E+01  0.20813894630E+02  0.10246223590E+03  0.10471201871E+03  0.00000000000E+00 0.  1.
         11    1    1    2    0    0 -0.24106690874E+01  0.10140832433E+02 -0.20868982148E+02  0.23327284964E+02  0.00000000000E+00 0. -1.
</event>
<event>
 6    1  0.9216756E-006  0.1005889E+03  0.7561462E-02  0.1279062E+00
         -2   -1    0    0    0  501 -0.00000000000E+00  0.00000000000E+00  0.22056066533E+02  0.22056066533E+02  0.00000000000E+00 0.  1.
          2   -1    0    0  501    0  0.00000000000E+00 -0.00000000000E+00 -0.68399234556E+03  0.68399234556E+03  0.00000000000E+00 0. -1.
          5    1    1    2  502    0 -0.32394013498E+02  0.27700555258E+02 -0.51766324539E+02  0.67185695117E+02  0.41800000000E+01 0. -1.
         -5    1    1    2    0  502  0.32697826689E+02 -0.76696807155E+02 -0.23778810741E+03  0.25201627829E+03  0.41800000000E+01 0. -1.
        -11    1    1    2    0    0 -0.48187451782E+01  0.61441937010E+02 -0.36766079844E+03  0.37279055063E+03  0.00000000000E+00 0. -1.
         11    1    1    2    0    0  0.45149319873E+01 -0.12445685113E+02 -0.47210486372E+01  0.14055888055E+02  0.00000000000E+00 0.  1.
</event>
<event>
 6    1  0.9216756E-006  0.1831894E+03  0.7561462E-02  0.1164752E+00
          2   -1    0    0  501    0  0.00000000000E+00  0.00000000000E+00  0.19670715130E+03  0.19670715130E+03  0.00000000000E+00 0. -1.
         -2   -1    0    0    0  501 -0.00000000000E+00 -0.00000000000E+00 -0.18808643906E+03  0.18808643906E+03  0.00000000000E+00 0.  1.
          5    1    1    2  502    0 -0.76012901554E+02  0.92260356679E+02 -0.10075181661E+02  0.12003714551E+03  0.41800000000E+01 0. -1.
         -5    1    1    2    0  502  0.47819010751E+02  0.56598822305E+02 -0.32389094896E+02  0.80972898822E+02  0.41800000000E+01 0. -1.
        -11    1    1    2    0    0 -0.29533332066E+02 -0.49522747487E+02 -0.92483409168E+00  0.57667803319E+02  0.00000000000E+00 0.  1.
         11    1    1    2    0    0  0.57727222869E+02 -0.99336431496E+02  0.52009822888E+02  0.12611574271E+03  0.00000000000E+00 0. -1.
</event>
<event>
 6    1  0.9216756E-006  0.7033884E+02  0.7561462E-02  0.1358945E+00
         -1   -1    0    0    0  501 -0.00000000000E+00  0.00000000000E+00  0.16196399063E+04  0.16196399063E+04  0.00000000000E+00 0.  1.
          1   -1    0    0  501    0  0.00000000000E+00 -0.00000000000E+00 -0.21675270750E+02  0.21675270750E+02  0.00000000000E+00 0. -1.
          5    1    1    2  502    0 -0.33874726690E+02 -0.77718569548E+01  0.18455136026E+03  0.18784189055E+03  0.41800000000E+01 0. -1.
         -5    1    1    2    0  502  0.39299214490E+02  0.48210128626E+02  0.14072964323E+04  0.14086764588E+04  0.41800000000E+01 0.  1.
        -11    1    1    2    0    0 -0.10418626490E+02 -0.30103998585E+02  0.14014223915E+00  0.31856210518E+02  0.00000000000E+00 0. -1.
         11    1    1    2    0    0  0.49941386899E+01 -0.10334273086E+02  0.59767007222E+01  0.12940617179E+02  0.00000000000E+00 0.  1.
</event>
<event>
 6    1  0.9216756E-006  0.1824861E+03  0.7561462E-02  0.1165418E+00
         -1   -1    0    0    0  501 -0.00000000000E+00  0.00000000000E+00  0.63373456279E+02  0.63373456279E+02  0.00000000000E+00 0.  1.
          1   -1    0    0  501    0  0.00000000000E+00 -0.00000000000E+00 -0.71601138540E+03  0.71601138540E+03  0.00000000000E+00 0. -1.
          5    1    1    2  502    0 -0.79352537678E+01  0.13620488036E+03 -0.87493979273E+02  0.16213391532E+03  0.41800000000E+01 0.  1.
         -5    1    1    2    0  502 -0.43937820289E+02  0.28814219070E+02 -0.14114997857E+03  0.15067043546E+03  0.41800000000E+01 0.  1.
        -11    1    1    2    0    0  0.29647761559E+02 -0.13609059018E+03 -0.22766757140E+03  0.26689353977E+03  0.00000000000E+00 0.  1.
         11    1    1    2    0    0  0.22225312498E+02 -0.28928509251E+02 -0.19632639988E+03  0.19968695113E+03  0.00000000000E+00 0. -1.
</event>
<event>
 6    1  0.9216756E-006  0.9231167E+02  0.7561462E-02  0.1297348E+00
          2   -1    0    0  501    0  0.00000000000E+00  0.00000000000E+00  0.70778102149E+02  0.70778102149E+02  0.00000000000E+00 0. -1.
         -2   -1    0    0    0  501 -0.00000000000E+00 -0.00000000000E+00 -0.32779095214E+03  0.32779095214E+03  0.00000000000E+00 0.  1.
          5    1    1    2  502    0 -0.56183274519E+02  0.20279882016E+02 -0.16520308348E+03  0.17571956391E+03  0.41800000000E+01 0.  1.
         -5    1    1    2    0  502  0.63045709411E+02  0.25627001777E+02 -0.98217418338E+02  0.11956436911E+03  0.41800000000E+01 0.  1.
        -11    1    1    2    0    0 -0.19931430918E+02 -0.26301637747E+02  0.46357894356E+02  0.56904239347E+02  0.00000000000E+00 0. -1.
         11    1    1    2    0    0  0.13068996026E+02 -0.19605246046E+02 -0.39950242532E+02  0.46380881924E+02  0.00000000000E+00 0.  1.
</event>
<event>
 6    1  0.9216756E-006  0.1073167E+03  0.7561462E-02  0.1265621E+00
         -2   -1    0    0    0  501 -0.00000000000E+00  0.00000000000E+00  0.29728008312E+02  0.29728008312E+02  0.00000000000E+00 0.  1.
          2   -1    0    0  501    0  0.00000000000E+00 -0.00000000000E+00 -0.44005792219E+03  0.44005792219E+03  0.00000000000E+00 0. -1.
          5    1    1    2  502    0 -0.48375487879E+02 -0.10469201026E+02 -0.10824363036E+03  0.11909638077E+03  0.41800000000E+01 0.  1.
         -5    1    1    2    0  502  0.72559396294E+02  0.40464769330E+00 -0.76257036184E+02  0.10534532594E+03  0.41800000000E+01 0.  1.
        -11    1    1    2    0    0 -0.29919156758E+02  0.46556330692E+02 -0.16648752039E+03  0.17544441375E+03  0.00000000000E+00 0. -1.
         11    1    1    2    0    0  0.57352483426E+01 -0.36491777360E+02 -0.59341726942E+02  0.69899810049E+02  0.00000000000E+00 0.  1.
</event>
<event>
 6    1  0.9216756E-006  0.1360960E+03  0.7561462E-02  0.1218681E+00
          2   -1    0    0  501    0  0.00000000000E+00  0.00000000000E+00  0.10762912612E+03  0.10762912612E+03  0.00000000000E+00 0. -1.
         -2   -1    0    0    0  501 -0.00000000000E+00 -0.00000000000E+00 -0.29876290995E+03  0.29876290995E+03  0.00000000000E+00 0.  1.
          5    1    1    2  502    0 -0.10140943185E+03 -0.21380417499E+02 -0.20070968421E+03  0.22592663601E+03  0.41800000000E+01 0.  1.
         -5    1    1    2    0  502  0.74315502670E+01 -0.35820811920E+02 -0.25937877801E+01  0.36912851977E+02  0.41800000000E+01 0.  1.
        -11    1    1    2    0    0  0.14848829859E+02 -0.17415124772E+02  0.25167596482E+02  0.34017381317E+02  0.00000000000E+00 0. -1.
         11    1    1    2    0    0  0.79129051724E+02  0.74616354191E+02 -0.12997908318E+02  0.10953516677E+03  0.00000000000E+00 0.  1.
</event>
<event>
 6    1  0.9216756E-006  0.1255284E+03  0.7561462E-02  0.1234246E+00
          2   -1    0    0  501    0  0.00000000000E+00  0.00000000000E+00  0.40782748024E+03  0.40782748024E+03  0.00000000000E+00 0. -1.
         -2   -1    0    0    0  501 -0.00000000000E+00 -0.00000000000E+00 -0.64638308693E+02  0.64638308693E+02  0.00000000000E+00 0.  1.
          5    1    1    2  502    0  0.54439452873E+02  0.39488272323E+02 -0.10205292139E+02  0.68151288086E+02  0.41800000000E+01 0.  1.
         -5    1    1    2    0  502  0.22131558099E+02 -0.59415549626E+02  0.61683981866E+02  0.88557322793E+02  0.41800000000E+01 0.  1.
        -11    1    1    2    0    0  0.95814024191E+01  0.31757891506E+02  0.65827801837E+02  0.73713407464E+02  0.00000000000E+00 0. -1.
         11    1    1    2    0    0 -0.86152413390E+02 -0.11830614203E+02  0.22588267998E+03  0.24204377059E+03  0.00000000000E+00 0.  1.
</event>
<event>
 6    1  0.9216756E-006  0.1633355E+03  0.7561462E-02  0.1184982E+00
         -1   -1    0    0    0  501 -0.00000000000E+00  0.00000000000E+00  0.16818001054E+03  0.16818001054E+03  0.00000000000E+00 0.  1.
          1   -1    0    0  501    0  0.00000000000E+00 -0.00000000000E+00 -0.24068108981E+03  0.24068108981E+03  0.00000000000E+00 0. -1.
          5    1    1    2  502    0 -0.12246237578E+02  0.27307923107E+02  0.68185826815E+02  0.74581984270E+02  0.41800000000E+01 0. -1.
         -5    1    1    2    0  502 -0.36472390327E+01  0.12395586486E+03 -0.26105219771E+02  0.12679634728E+03  0.41800000000E+01 0. -1.
        -11    1    1    2    0    0  0.63811496754E+01 -0.15959801198E+03 -0.10128400393E+03  0.18913141979E+03  0.00000000000E+00 0. -1.
         11    1    1    2    0    0  0.95123269355E+01  0.83342240122E+01 -0.13297682386E+02  0.18351349009E+02  0.00000000000E+00 0.  1.
</event>
<event>
 6    1  0.9216756E-006  0.1176181E+03  0.7561462E-02  0.1247079E+00
          2   -1    0    0  501    0  0.00000000000E+00  0.00000000000E+00  0.76060860071E+03  0.76060860071E+03  0.00000000000E+00 0. -1.
         -2   -1    0    0    0  501 -0.00000000000E+00 -0.00000000000E+00 -0.20041283156E+02  0.20041283156E+02  0.00000000000E+00 0.  1.
          5    1    1    2  502    0  0.54921999214E+02  0.69353381885E+02  0.33165627601E+03  0.34327783994E+03  0.41800000000E+01 0.  1.
         -5    1    1    2    0  502 -0.37999340098E+01 -0.38846886020E+02  0.55953180342E+02  0.68350207332E+02  0.41800000000E+01 0.  1.
        -11    1    1    2    0    0 -0.76634904329E+02 -0.28721829482E+02  0.27973660678E+03  0.29146255544E+03  0.00000000000E+00 0. -1.
         11    1    1    2    0    0  0.25512839125E+02 -0.17846663829E+01  0.73221254418E+02  0.77559281152E+02  0.00000000000E+00 0.  1.
</event>
<event>
 6    1  0.9216756E-006  0.1177449E+03  0.7561462E-02  0.1246864E+00
         -2   -1    0    0    0  501 -0.00000000000E+00  0.00000000000E+00  0.10429746967E+03  0.10429746967E+03  0.00000000000E+00 0.  1.
          2   -1    0    0  501    0  0.00000000000E+00 -0.00000000000E+00 -0.24024256100E+03  0.24024256100E+03  0.00000000000E+00 0. -1.
          5    1    1    2  502    0  0.37033331364E+01  0.75183428781E+02 -0.52076902597E+02  0.91628264328E+02  0.41800000000E+01 0. -1.
         -5    1    1    2    0  502 -0.22169096174E+02  0.58635194955E+01  0.53700244999E+02  0.58540912181E+02  0.41800000000E+01 0. -1.
        -11    1    1    2    0    0  0.86077295537E+01  0.26977070216E+02 -0.35667998502E+02  0.45541864725E+02  0.00000000000E+00 0.  1.
         11    1    1    2    0    0  0.98580334838E+01 -0.10802401849E+03 -0.10190043523E+03  0.14882898943E+03  0.00000000000E+00 0. -1.
</event>
<event>
 6    1  0.9216756E-006  0.1450269E+03  0.7561462E-02  0.1206721E+00
         -2   -1    0    0    0  501 -0.00000000000E+00  0.00000000000E+00  0.16614453049E+02  0.16614453049E+02  0.00000000000E+00 0.  1.
          2   -1    0    0  501    0  0.00000000000E+00 -0.00000000000E+00 -0.13782304902E+04  0.13782304902E+04  0.00000000000E+00 0. -1.
          5    1    1    2  502    0 -0.12023229617E+02 -0.30406035640E+02 -0.26748000215E+03  0.26950344896E+03  0.41800000000E+01 0. -1.
         -5    1    1    2    0  502  0.95950126465E+02  0.67958393692E+02 -0.52192230444E+03  0.53501881679E+03  0.41800000000E+01 0. -1.
        -11    1    1    2    0    0 -0.14550205696E+01 -0.55100503849E+02 -0.31071591639E+03  0.31556705041E+03  0.00000000000E+00 0.  1.
         11    1    1    2    0    0 -0.82471876278E+02  0.17548145797E+02 -0.26149781413E+03  0.27475562704E+03  0.00000000000E+00 0. -1.
</event>
<event>
 6    1  0.9216756E-006  0.1247271E+03  0.7561462E-02  0.1235496E+00
         -2   -1    0    0    0  501 -0.00000000000E+00  0.00000000000E+00  0.27956111178E+02  0.27956111178E+02  0.00000000000E+00 0.  1.
          2   -1    0    0  501    0  0.00000000000E+00 -0.00000000000E+00 -0.73764516213E+03  0.73764516213E+03  0.00000000000E+00 0. -1.
          5    1    1    2  502    0  0.46867452731E+02 -0.93441627359E+01 -0.38576816898E+02  0.61559034306E+02  0.41800000000E+01 0.  1.
         -5    1    1    2    0  502 -0.10945330732E+01  0.85923056861E+02 -0.26621846524E+03  0.27977439722E+03  0.41800000000E+01 0.  1.
        -11    1    1    2    0    0 -0.16680520171E+01 -0.70970692480E+02 -0.32664559136E+03  0.33427079433E+03  0.00000000000E+00 0. -1.
         11    1    1    2    0    0 -0.44104867641E+02 -0.56082016449E+01 -0.78248177452E+02  0.89997047451E+02  0.00000000000E+00 0.  1.
</event>
<event>
 6    1  0.9216756E-006  0.1846194E+03  0.7561462E-02  0.1163406E+00
         -2   -1    0    0    0  501 -0.00000000000E+00  0.00000000000E+00  0.36838002712E+02  0.36838002712E+02  0.00000000000E+00 0.  1.
          2   -1    0    0  501    0  0.00000000000E+00 -0.00000000000E+00 -0.10643700181E+04  0.10643700181E+04  0.00000000000E+00 0. -1.
          5    1    1    2  502    0  0.48859396625E+02 -0.15513629689E+03 -0.43410675650E+03  0.46359536202E+03  0.41800000000E+01 0.  1.
         -5    1    1    2    0  502  0.28078209799E+02  0.11284681553E+02 -0.25141515060E+02  0.39563848180E+02  0.41800000000E+01 0.  1.
        -11    1    1    2    0    0 -0.26308579622E+02  0.32005894460E+01 -0.33224281713E+02  0.42499859175E+02  0.00000000000E+00 0.  1.
         11    1    1    2    0    0 -0.50629026802E+02  0.14065102589E+03 -0.53505946214E+03  0.55554895146E+03  0.00000000000E+00 0. -1.
</event>
<event>
 6    1  0.9216756E-006  0.1026107E+03  0.7561462E-02  0.1274900E+00
         -1   -1    0    0    0  501 -0.00000000000E+00  0.00000000000E+00  0.61878863822E+03  0.61878863822E+03  0.00000000000E+00 0.  1.
          1   -1    0    0  501    0  0.00000000000E+00 -0.00000000000E+00 -0.24970220886E+02  0.24970220886E+02  0.00000000000E+00 0. -1.
          5    1    1    2  502    0  0.93233721195E+00  0.89147264525E+02  0.33306624775E+03  0.34481691057E+03  0.41800000000E+01 0.  1.
         -5    1    1    2    0  502  0.23438903782E+01 -0.41402936460E+02  0.95740201134E+02  0.10441913370E+03  0.41800000000E+01 0.  1.
        -11    1    1    2    0    0 -0.28013193366E+02 -0.11214563530E+02  0.14120259705E+03  0.14439071595E+03  0.00000000000E+00 0. -1.
         11    1    1    2    0    0  0.24736965776E+02 -0.36529764534E+02  0.23809371402E+02  0.50132098892E+02  0.00000000000E+00 0.  1.
</event>
<event>
 6    1  0.9216756E-006  0.1001131E+03  0.7561462E-02  0.1280058E+00
          1   -1    0    0  501    0  0.00000000000E+00  0.00000000000E+00  0.92581322146E+02  0.92581322146E+02  0.00000000000E+00 0. -1.
         -1   -1    0    0    0  501 -0.00000000000E+00 -0.00000000000E+00 -0.14139271298E+03  0.14139271298E+03  0.00000000000E+00 0.  1.
          5    1    1    2  502    0 -0.22375039129E+02  0.68307052769E+02 -0.16827321207E+02  0.73940022809E+02  0.41800000000E+01 0. -1.
         -5    1    1    2    0  502  0.18188306446E+02 -0.47327006255E+02 -0.41849073846E+02  0.65874709823E+02  0.41800000000E+01 0. -1.
        -11    1    1    2    0    0  0.36685920607E+02  0.32288949520E+01  0.31284558408E+02  0.48321901123E+02  0.00000000000E+00 0.  1.
         11    1    1    2    0    0 -0.32499187924E+02 -0.24208941466E+02 -0.21419554187E+02  0.45837401368E+02  0.00000000000E+00 0. -1.
</event>
<event>
 6    1  0.9216756E-006  0.2127773E+03  0.7561462E-02  0.1139385E+00
         -1   -1    0    0    0  501 -0.00000000000E+00  0.00000000000E+00  0.43722431456E+02  0.43722431456E+02  0.00000000000E+00 0.  1.
          1   -1    0    0  501    0  0.00000000000E+00 -0.00000000000E+00 -0.12316255825E+04  0.12316255825E+04  0.00000000000E+00 0. -1.
          5    1    1    2  502    0 -0.48387003190E+02 -0.12670236868E+03 -0.17773886052E+03  0.22361432702E+03  0.41800000000E+01 0. -1.
         -5    1    1    2    0  502 -0.55180721303E+02 -0.42478155018E+02 -0.28435905990E+03  0.29279148384E+03  0.41800000000E+01 0.  1.
        -11    1    1    2    0    0  0.11834173200E+03  0.11914507652E+03 -0.59095316107E+03  0.61435002513E+03  0.00000000000E+00 0.  1.
         11    1    1    2    0    0 -0.14774007504E+02  0.50035447185E+02 -0.13485206958E+03  0.14459217801E+03  0.00000000000E+00 0. -1.
</event>
<event>
 6    1  0.9216756E-006  0.1101719E+03  0.7561462E-02  0.1260252E+00
         -1   -1    0    0    0  501 -0.00000000000E+00  0.00000000000E+00  0.24305927091E+02  0.24305927091E+02  0.00000000000E+00 0.  1.
          1   -1    0    0  501    0  0.00000000000E+00 -0.00000000000E+00 -0.73464717069E+03  0.73464717069E+03  0.00000000000E+00 0. -1.
          5    1    1    2  502    0  0.99780356303E+01  0.73672180908E+02 -0.14181334888E+03  0.16017381108E+03  0.41800000000E+01 0. -1.
         -5    1    1    2    0  502 -0.60637297535E+02 -0.10934696397E+02 -0.29221581354E+03  0.29867039277E+03  0.41800000000E+01 0. -1.
        -11    1    1    2    0    0  0.16951470874E+02 -0.40058541471E+02 -0.36218556715E+02  0.56602322921E+02  0.00000000000E+00 0.  1.
         11    1    1    2    0    0  0.33707791031E+02 -0.22678943040E+02 -0.24009352446E+03  0.24350657100E+03  0.00000000000E+00 0. -1.
</event>
<event>
 6    1  0.9216756E-006  0.1000859E+03  0.7561462E-02  0.1280115E+00
         -1   -1    0    0    0  501 -0.00000000000E+00  0.00000000000E+00  0.49768769648E+02  0.49768769648E+02  0.00000000000E+00 0.  1.
          1   -1    0    0  501    0  0.00000000000E+00 -0.00000000000E+00 -0.29507595870E+03  0.29507595870E+03  0.00000000000E+00 0. -1.
          5    1    1    2  502    0 -0.41604484035E+02 -0.20865877625E+01 -0.83543910371E+02  0.93447013331E+02  0.41800000000E+01 0. -1.
         -5    1    1    2    0  502  0.64345189318E+02 -0.44827893465E+02 -0.32588867939E+02  0.85025585176E+02  0.41800000000E+01 0. -1.
        -11    1    1    2    0    0 -0.42344408423E+02  0.20961187481E+02 -0.12493636328E+03  0.13357213473E+03  0.00000000000E+00 0. -1.
         11    1    1    2    0    0  0.19603703140E+02  0.25953293747E+02 -0.42380474565E+01  0.32799995112E+02  0.00000000000E+00 0.  1.
</event>
<event>
 6    1  0.9216756E-006  0.1247350E+03  0.7561462E-02  0.1235484E+00
         -1   -1    0    0    0  501 -0.00000000000E+00  0.00000000000E+00  0.17859793770E+03  0.17859793770E+03  0.00000000000E+00 0.  1.
          1   -1    0    0  501    0  0.00000000000E+00 -0.00000000000E+00 -0.14798602553E+03  0.14798602553E+03  0.00000000000E+00 0. -1.
          5    1    1    2  502    0  0.72804465921E+02 -0.69245510239E+02  0.10443725296E+03  0.14498290641E+03  0.41800000000E+01 0.  1.
         -5    1    1    2    0  502  0.10531329570E+02  0.34575987087E+02 -0.75720628853E+01  0.37164718778E+02  0.41800000000E+01 0.  1.
        -11    1    1    2    0    0 -0.43351096916E+02  0.53054061649E+02 -0.72770157141E+02  0.99947720493E+02  0.00000000000E+00 0. -1.
         11    1    1    2    0    0 -0.39984698574E+02 -0.18384538497E+02  0.65168792418E+01  0.44488617543E+02  0.00000000000E+00 0.  1.
</event>
<event>
 6    1  0.9216756E-006  0.8661796E+02  0.7561462E-02  0.1311255E+00
         -1   -1    0    0    0  501 -0.00000000000E+00  0.00000000000E+00  0.37174318213E+03  0.37174318213E+03  0.00000000000E+00 0.  1.
          1   -1    0    0  501    0  0.00000000000E+00 -0.00000000000E+00 -0.56293313983E+02  0.56293313983E+02  0.00000000000E+00 0. -1.
          5    1    1    2  502    0  0.19051077157E+02  0.38306782591E+02  0.25998224719E+03  0.26351203841E+03  0.41800000000E+01 0. -1.
         -5    1    1    2    0  502 -0.47815393559E+02 -0.13656783729E+02  0.40843013402E+02  0.64485996516E+02  0.41800000000E+01 0. -1.
        -11    1    1    2    0    0  0.48941562623E+02 -0.58876758742E+00  0.37104574778E+02  0.61419643997E+02  0.00000000000E+00 0.  1.
         11    1    1    2    0    0 -0.20177246221E+02 -0.24061231274E+02 -0.22479967217E+02  0.38618817196E+02  0.00000000000E+00 0. -1.
</event>
<event>
 6    1  0.9216756E-006  0.9941352E+02  0.7561462E-02  0.1281534E+00
          2   -1    0    0  501    0  0.00000000000E+00  0.00000000000E+00  0.29689577189E+03  0.29689577189E+03  0.00000000000E+00 0. -1.
         -2   -1    0    0    0  501 -0.00000000000E+00 -0.00000000000E+00 -0.40395618759E+02  0.40395618759E+02  0.00000000000E+00 0.  1.
          5    1    1    2  502    0  0.50625217082E+02 -0.39964200075E+02  0.42759529382E+02  0.77497739613E+02  0.41800000000E+01 0.  1.
         -5    1    1    2    0  502 -0.38462297423E+02  0.37206799541E+02  0.94105323283E+02  0.10833733671E+03  0.41800000000E+01 0.  1.
        -11    1    1    2    0    0 -0.45845584354E+02 -0.44845155699E+01  0.28848580999E+02  0.54352268677E+02  0.00000000000E+00 0.  1.
         11    1    1    2    0    0  0.33682664695E+02  0.72419161048E+01  0.90786719468E+02  0.97104045650E+02  0.00000000000E+00 0. -1.
</event>
<event>
 6    1  0.9216756E-006  0.1289733E+03  0.7561462E-02  0.1228987E+00
         -3   -1    0    0    0  501 -0.00000000000E+00  0.00000000000E+00  0.11408001625E+03  0.11408001625E+03  0.00000000000E+00 0.  1.
          3   -1    0    0  501    0  0.00000000000E+00 -0.00000000000E+00 -0.15441015800E+03  0.15441015800E+03  0.00000000000E+00 0. -1.
          5    1    1    2  502    0  0.73582901296E+02  0.44648029496E+02 -0.75343597116E+01  0.86499299866E+02  0.41800000000E+01 0.  1.
         -5    1    1    2    0  502  0.41901154038E+00 -0.58778094249E+02  0.84554660740E+01  0.59531565079E+02  0.41800000000E+01 0.  1.
        -11    1    1    2    0    0 -0.55244595325E+02 -0.31442916316E+02 -0.35595371079E+02  0.72853639177E+02  0.00000000000E+00 0. -1.
         11    1    1    2    0    0 -0.18757317511E+02  0.45572981070E+02 -0.56558770292E+01  0.49605670127E+02  0.00000000000E+00 0.  1.
</event>
<event>
 6    1  0.9216756E-006  0.1043531E+03  0.7561462E-02  0.1271399E+00
          3   -1    0    0  501    0  0.00000000000E+00  0.00000000000E+00  0.94319933950E+02  0.94319933950E+02  0.00000000000E+00 0. -1.
         -3   -1    0    0    0  501 -0.00000000000E+00 -0.00000000000E+00 -0.18896543779E+03  0.18896543779E+03  0.00000000000E+00 0.  1.
          5    1    1    2  502    0  0.26242494188E+02 -0.94918255131E+01  0.23639647745E+02  0.36811256407E+02  0.41800000000E+01 0. -1.
         -5    1    1    2    0  502 -0.71288906111E+02 -0.54459278676E+02 -0.82780246202E+02  0.12213911220E+03  0.41800000000E+01 0. -1.
        -11    1    1    2    0    0  0.40969716810E+02  0.18338746192E+02 -0.57978545063E+02  0.73323522794E+02  0.00000000000E+00 0.  1.
         11    1    1    2    0    0  0.40766951135E+01  0.45612357998E+02  0.22473639683E+02  0.51011480333E+02  0.00000000000E+00 0. -1.
</event>
<event>
 6    1  0.9216756E-006  0.8613880E+02  0.7561462E-02  0.1312481E+00
          2   -1    0    0  501    0  0.00000000000E+00  0.00000000000E+00  0.11220493240E+03  0.11220493240E+03  0.00000000000E+00 0. -1.
         -2   -1    0    0    0  501 -0.00000000000E+00 -0.00000000000E+00 -0.12554436125E+03  0.12554436125E+03  0.00000000000E+00 0.  1.
          5    1    1    2  502    0 -0.39210962581E+02 -0.22243384291E+02  0.50991295245E+02  0.68189825649E+02  0.41800000000E+01 0.  1.
         -5    1    1    2    0  502  0.22560910513E+02 -0.23782445474E+02 -0.57464669888E+02  0.66289215422E+02  0.41800000000E+01 0.  1.
        -11    1    1    2    0    0 -0.29869562534E+02  0.20467854644E+01 -0.22404070770E+02  0.37394150395E+02  0.00000000000E+00 0.  1.
         11    1    1    2    0    0  0.46519614601E+02  0.43979044300E+02  0.15538016569E+02  0.65876102185E+02  0.00000000000E+00 0. -1.
</event>
<event>
 6    1  0.9216756E-006  0.1381246E+03  0.7561462E-02  0.1215875E+00
         -1   -1    0    0    0  501 -0.00000000000E+00  0.00000000000E+00  0.27795981649E+03  0.27795981649E+03  0.00000000000E+00 0.  1.
          1   -1    0    0  501    0  0.00000000000E+00 -0.00000000000E+00 -0.11170569430E+03  0.11170569430E+03  0.00000000000E+00 0. -1.
          5    1    1    2  502    0  0.26331102655E+02 -0.24208951344E+01  0.74090010067E+02  0.78778104141E+02  0.41800000000E+01 0.  1.
         -5    1    1    2    0  502 -0.11727907939E+03 -0.43324782946E+02  0.11702961425E+03  0.17130330496E+03  0.41800000000E+01 0.  1.
        -11    1    1    2    0    0  0.28169392037E+02 -0.19172697875E+02  0.19185715064E+02  0.39104969684E+02  0.00000000000E+00 0.  1.
         11    1    1    2    0    0  0.62778584698E+02  0.64918375955E+02 -0.44051217180E+02  0.10047913200E+03  0.00000000000E+00 0. -1.
</event>
<event>
 6    1  0.9216756E-006  0.1366912E+03  0.7561462E-02  0.1217852E+00
          1   -1    0    0  501    0  0.00000000000E+00  0.00000000000E+00  0.92584243993E+02  0.92584243993E+02  0.00000000000E+00 0. -1.
         -1   -1    0    0    0  501 -0.00000000000E+00 -0.00000000000E+00 -0.50622616846E+03  0.50622616846E+03  0.00000000000E+00 0.  1.
          5    1    1    2  502    0  0.23834145117E+02  0.85158268240E+01 -0.13054293277E+03  0.13303952599E+03  0.41800000000E+01 0. -1.
         -5    1    1    2    0  502 -0.13409150510E+03  0.54934268855E+01 -0.29016688757E+03  0.31972645264E+03  0.41800000000E+01 0. -1.
        -11    1    1    2    0    0  0.71571753638E+02 -0.20000977066E+02 -0.40344758704E+02  0.84559177842E+02  0.00000000000E+00 0.  1.
         11    1    1    2    0    0  0.38685606346E+02  0.59917233568E+01  0.47412654582E+02  0.61485255969E+02  0.00000000000E+00 0. -1.
</event>
<event>
 6    1  0.9216756E-006  0.1103049E+03  0.7561462E-02  0.1260006E+00
         -2   -1    0    0    0  501 -0.00000000000E+00  0.00000000000E+00  0.18233309536E+02  0.18233309536E+02  0.00000000000E+00 0.  1.
          2   -1    0    0  501    0  0.00000000000E+00 -0.00000000000E+00 -0.69278858401E+03  0.69278858401E+03  0.00000000000E+00 0. -1.
          5    1    1    2  502    0 -0.44299104529E+02 -0.26030138435E+01 -0.16219486538E+03  0.16820770820E+03  0.41800000000E+01 0. -1.
         -5    1    1    2    0  502  0.84309339487E+02 -0.55310531748E+00 -0.20058037039E+03  0.21761968670E+03  0.41800000000E+01 0. -1.
        -11    1    1    2    0    0 -0.43943038267E+02 -0.33187611594E+02 -0.16573656990E+03  0.17464540869E+03  0.00000000000E+00 0.  1.
         11    1    1    2    0    0  0.39328033096E+01  0.36343730755E+02 -0.14604346880E+03  0.15054908996E+03  0.00000000000E+00 0. -1.
</event>
<event>
 6    1  0.9216756E-006  0.9919355E+02  0.7561462E-02  0.1282001E+00
         -1   -1    0    0    0  501 -0.00000000000E+00  0.00000000000E+00  0.37082600029E+03  0.37082600029E+03  0.00000000000E+00 0.  1.
          1   -1    0    0  501    0  0.00000000000E+00 -0.00000000000E+00 -0.38174119862E+02  0.38174119862E+02  0.00000000000E+00 0. -1.
          5    1    1    2  502    0  0.35663096698E+02  0.46016088411E+02  0.46154902611E+02  0.74411587093E+02  0.41800000000E+01 0.  1.
         -5    1    1    2    0  502 -0.44525338966E+02 -0.70472154614E+01  0.19492878621E+03  0.20011714856E+03  0.41800000000E+01 0.  1.
        -11    1    1    2    0    0 -0.29583192696E+02 -0.46938728545E+02  0.34957559994E+02  0.65577744154E+02  0.00000000000E+00 0.  1.
         11    1    1    2    0    0  0.38445434964E+02  0.79698555958E+01  0.56610631615E+02  0.68893640343E+02  0.00000000000E+00 0. -1.
</event>
<event>
 6    1  0.9216756E-006  0.5982689E+02  0.7561462E-02  0.1398560E+00
         -4   -1    0    0    0  501 -0.00000000000E+00  0.00000000000E+00  0.11837586293E+03  0.11837586293E+03  0.00000000000E+00 0.  1.
          4   -1    0    0  501    0  0.00000000000E+00 -0.00000000000E+00 -0.14824492503E+03  0.14824492503E+03  0.00000000000E+00 0. -1.
          5    1    1    2  502    0  0.24442890432E+02  0.24027105430E+02 -0.33572649255E+02  0.48159649771E+02  0.41800000000E+01 0.  1.
         -5    1    1    2    0  502  0.18267402296E+00 -0.17135904344E+02  0.89515087711E+02  0.91236483467E+02  0.41800000000E+01 0.  1.
        -11    1    1    2    0    0  0.75812093415E+01 -0.27980001038E+02 -0.83803139734E+02  0.88675371003E+02  0.00000000000E+00 0. -1.
         11    1    1    2    0    0 -0.32206773796E+02  0.21088799952E+02 -0.20083608170E+01  0.38549283715E+02  0.00000000000E+00 0.  1.
</event>
<event>
 6    1  0.9216756E-006  0.2092295E+03  0.7561462E-02  0.1142178E+00
         -2   -1    0    0    0  501 -0.00000000000E+00  0.00000000000E+00  0.56962729026E+02  0.56962729026E+02  0.00000000000E+00 0.  1.
          2   -1    0    0  501    0  0.00000000000E+00 -0.00000000000E+00 -0.87772435553E+03  0.87772435553E+03  0.00000000000E+00 0. -1.
          5    1    1    2  502    0 -0.76558154446E+01 -0.13485150467E+02 -0.61799954598E+01  0.17208298496E+02  0.41800000000E+01 0.  1.
         -5    1    1    2    0  502  0.36136806158E+02  0.20350383659E+03 -0.34457364302E+03  0.40183099449E+03  0.41800000000E+01 0.  1.
        -11    1    1    2    0    0  0.75340986779E+01 -0.68857812335E+02 -0.80791147755E+02  0.10642072410E+03  0.00000000000E+00 0.  1.
         11    1    1    2    0    0 -0.36015089391E+02 -0.12116087379E+03 -0.38921684027E+03  0.40922706747E+03  0.00000000000E+00 0. -1.
</event>
<event>
 6    1  0.9216756E-006  0.8582674E+02  0.7561462E-02  0.1313285E+00
         -2   -1    0    0    0  501 -0.00000000000E+00  0.00000000000E+00  0.46790105408E+02  0.46790105408E+02  0.00000000000E+00 0.  1.
          2   -1    0    0  501    0  0.00000000000E+00 -0.00000000000E+00 -0.27660627850E+03  0.27660627850E+03  0.00000000000E+00 0. -1.
          5    1    1    2  502    0 -0.10309888002E+02 -0.54911036442E+02 -0.19345590142E+02  0.59272590391E+02  0.41800000000E+01 0.  1.
         -5    1    1    2    0  502  0.96687135087E+01  0.64478286479E+02 -0.63187320498E+02  0.90890281768E+02  0.41800000000E+01 0.  1.
        -11    1    1    2    0    0 -0.23428399278E+02 -0.11591734067E+02 -0.22869690806E+01  0.26239062845E+02  0.00000000000E+00 0.  1.
         11    1    1    2    0    0  0.24069573772E+02  0.20244840303E+01 -0.14499629338E+03  0.14699444891E+03  0.00000000000E+00 0. -1.
</event>
<event>
 6    1  0.9216756E-006  0.1275773E+03  0.7561462E-02  0.1231096E+00
          3   -1    0    0  501    0  0.00000000000E+00  0.00000000000E+00  0.30924360471E+03  0.30924360471E+03  0.00000000000E+00 0. -1.
         -3   -1    0    0    0  501 -0.00000000000E+00 -0.00000000000E+00 -0.73391792358E+02  0.73391792358E+02  0.00000000000E+00 0.  1.
          5    1    1    2  502    0 -0.15433261123E+01  0.56962546410E+02  0.35449515541E+02  0.67240271423E+02  0.41800000000E+01 0. -1.
         -5    1    1    2    0  502  0.30053019439E+02 -0.94357651275E+02  0.98392180613E+01  0.99603378173E+02  0.41800000000E+01 0.  1.
        -11    1    1    2    0    0 -0.38262450912E+02 -0.18261689675E+02  0.10519582702E+03  0.11341810473E+03  0.00000000000E+00 0.  1.
         11    1    1    2    0    0  0.97527575857E+01  0.55656794540E+02  0.85367251733E+02  0.10237364274E+03  0.00000000000E+00 0. -1.
</event>
<event>
 6    1  0.9216756E-006  0.1591155E+03  0.7561462E-02  0.1189699E+00
         -1   -1    0    0    0  501 -0.00000000000E+00  0.00000000000E+00  0.42819055762E+03  0.42819055762E+03  0.00000000000E+00 0.  1.
          1   -1    0    0  501    0  0.00000000000E+00 -0.00000000000E+00 -0.79300928043E+02  0.79300928043E+02  0.00000000000E+00 0. -1.
          5    1    1    2  502    0  0.10954276362E+02  0.41581663330E+02  0.13642336908E+03  0.14310079989E+03  0.41800000000E+01 0. -1.
         -5    1    1    2    0  502  0.38080755289E+01  0.10528250138E+03  0.23743968286E+02  0.10807476563E+03  0.41800000000E+01 0. -1.
        -11    1    1    2    0    0 -0.45729429691E+02 -0.49347091112E+02  0.10201098630E+03  0.12219884397E+03  0.00000000000E+00 0. -1.
         11    1    1    2    0    0  0.30967077800E+02 -0.97517073599E+02  0.86711305911E+02  0.13411707618E+03  0.00000000000E+00 0.  1.
</event>
<event>
 6    1  0.9216756E-006  0.9363875E+02  0.7561462E-02  0.1294272E+00
         -1   -1    0    0    0  501 -0.00000000000E+00  0.00000000000E+00  0.17789128333E+03  0.17789128333E+03  0.00000000000E+00 0.  1.
          1   -1    0    0  501    0  0.00000000000E+00 -0.00000000000E+00 -0.91266445146E+02  0.91266445146E+02  0.00000000000E+00 0. -1.
          5    1    1    2  502    0 -0.37196382291E+02 -0.22916516623E+02 -0.22613915461E+02  0.49372048389E+02  0.41800000000E+01 0.  1.
         -5    1    1    2    0  502 -0.10744720210E+02  0.69783152061E+02  0.71919810231E+02  0.10087154617E+03  0.41800000000E+01 0.  1.
        -11    1    1    2    0    0  0.17523847030E+02 -0.90832797720E+00 -0.28252259621E+02  0.33258088462E+02  0.00000000000E+00 0. -1.
         11    1    1    2    0    0  0.30417255472E+02 -0.45958307461E+02  0.65571203038E+02  0.85656045454E+02  0.00000000000E+00 0.  1.
</event>
<event>
 6    1  0.9216756E-006  0.1878596E+03  0.7561462E-02  0.1160406E+00
          2   -1    0    0  501    0  0.00000000000E+00  0.00000000000E+00  0.46459092240E+03  0.46459092240E+03  0.00000000000E+00 0. -1.
         -2   -1    0    0    0  501 -0.00000000000E+00 -0.00000000000E+00 -0.13724991624E+03  0.13724991624E+03  0.00000000000E+00 0.  1.
          5    1    1    2  502    0 -0.90294608802E+02 -0.65203887170E+01 -0.48169741385E+02  0.10263249112E+03  0.41800000000E+01 0. -1.
         -5    1    1    2    0  502 -0.73582018685E+02  0.74525181398E+02  0.46014408315E+02  0.11446883554E+03  0.41800000000E+01 0. -1.
        -11    1    1    2    0    0  0.30611269887E+02 -0.27085684678E+02  0.20446252594E+02  0.45702662982E+02  0.00000000000E+00 0. -1.
         11    1    1    2    0    0  0.13326535760E+03 -0.40919108003E+02  0.30905008663E+03  0.33903684900E+03  0.00000000000E+00 0.  1.
</event>
<event>
 6    1  0.9216756E-006  0.1111564E+03  0.7561462E-02  0.1258443E+00
         -1   -1    0    0    0  501 -0.00000000000E+00  0.00000000000E+00  0.19062502275E+02  0.19062502275E+02  0.00000000000E+00 0.  1.
          1   -1    0    0  501    0  0.00000000000E+00 -0.00000000000E+00 -0.66183440008E+03  0.66183440008E+03  0.00000000000E+00 0. -1.
          5    1    1    2  502    0 -0.40941344529E+02  0.57343783183E+02 -0.21570024668E+03  0.22695499990E+03  0.41800000000E+01 0.  1.
         -5    1    1    2    0  502  0.14224108228E+02 -0.53956004134E+02 -0.12381448225E+03  0.13587153511E+03  0.41800000000E+01 0.  1.
        -11    1    1    2    0    0 -0.21212798026E+02  0.30444617360E+02 -0.12663144148E+03  0.13195597560E+03  0.00000000000E+00 0. -1.
         11    1    1    2    0    0  0.47930034328E+02 -0.33832396410E+02 -0.17662572739E+03  0.18611439174E+03  0.00000000000E+00 0.  1.
</event>
<event>
 6    1  0.9216756E-006  0.1227460E+03  0.7561462E-02  0.1238634E+00
         -1   -1    0    0    0  501 -0.00000000000E+00  0.00000000000E+00  0.28434444638E+02  0.28434444638E+02  0.00000000000E+00 0.  1.
          1   -1    0    0  501    0  0.00000000000E+00 -0.00000000000E+00 -0.60162337389E+03  0.60162337389E+03  0.00000000000E+00 0. -1.
          5    1    1    2  502    0 -0.80062426052E+02 -0.25253975176E+02 -0.14475258040E+03  0.16738738680E+03  0.41800000000E+01 0.  1.
         -5    1    1    2    0  502  0.15670146492E+02  0.57123206330E+02 -0.13139112759E+03  0.14418638979E+03  0.41800000000E+01 0.  1.
        -11    1    1    2    0    0  0.26091495741E+02  0.23242550604E+02 -0.41395575056E+02  0.54171726415E+02  0.00000000000E+00 0.  1.
         11    1    1    2    0    0  0.38300783819E+02 -0.55111781758E+02 -0.25564964621E+03  0.26431231552E+03  0.00000000000E+00 0. -1.
</event>
<event>
 6    1  0.9216756E-006  0.2211498E+03  0.7561462E-02  0.1133029E+00
          1   -1    0    0  501    0  0.00000000000E+00  0.00000000000E+00  0.15579983753E+04  0.15579983753E+04  0.00000000000E+00 0. -1.
         -1   -1    0    0    0  501 -0.00000000000E+00 -0.00000000000E+00 -0.44623903283E+02  0.44623903283E+02  0.00000000000E+00 0.  1.
          5    1    1    2  502    0  0.53756480625E+01  0.64575608347E+02  0.25419083621E+03  0.26235350274E+03  0.41800000000E+01 0. -1.
         -5    1    1    2    0  502  0.67271858051E+02  0.13325817742E+03  0.16624681552E+03  0.22346973129E+03  0.41800000000E+01 0.  1.
        -11    1    1    2    0    0  0.16815219808E+02 -0.70073733396E+02  0.28698701565E+03  0.29589631103E+03  0.00000000000E+00 0.  1.
         11    1    1    2    0    0 -0.89462725922E+02 -0.12776005237E+03  0.80594980467E+03  0.82090273355E+03  0.00000000000E+00 0. -1.
</event>
<event>
 6    1  0.9216756E-006  0.2258088E+03  0.7561462E-02  0.1129625E+00
         -2   -1    0    0    0  501 -0.00000000000E+00  0.00000000000E+00  0.51187691384E+02  0.51187691384E+02  0.00000000000E+00 0.  1.
          2   -1    0    0  501    0  0.00000000000E+00 -0.00000000000E+00 -0.10496929476E+04  0.10496929476E+04  0.00000000000E+00 0. -1.
          5    1    1    2  502    0  0.15421402375E+03  0.14428599971E+03 -0.40933581576E+03  0.46062316192E+03  0.41800000000E+01 0. -1.
         -5    1    1    2    0  502 -0.23354277661E+02  0.12965469612E+02 -0.77131493923E+02  0.81732890822E+02  0.41800000000E+01 0. -1.
        -11    1    1    2    0    0 -0.59428028909E+02 -0.11732694947E+03 -0.23101204269E+03  0.26582676231E+03  0.00000000000E+00 0. -1.
         11    1    1    2    0    0 -0.71431717178E+02 -0.39924519855E+02 -0.28102590385E+03  0.29269782394E+03  0.00000000000E+00 0.  1.
</event>
<event>
 6    1  0.9216756E-006  0.8980740E+02  0.7561462E-02  0.1303319E+00
         -2   -1    0    0    0  501 -0.00000000000E+00  0.00000000000E+00  0.21707383554E+02  0.21707383554E+02  0.00000000000E+00 0.  1.
          2   -1    0    0  501    0  0.00000000000E+00 -0.00000000000E+00 -0.70712354450E+03  0.70712354450E+03  0.00000000000E+00 0. -1.
          5    1    1    2  502    0 -0.35692051038E+01 -0.27226121252E+02 -0.10746271057E+01  0.27796189071E+02  0.41800000000E+01 0.  1.
         -5    1    1    2    0  502  0.42604199544E+02  0.34418271857E+02 -0.24504610359E+03  0.25112706055E+03  0.41800000000E+01 0.  1.
        -11    1    1    2    0    0  0.19098225344E+02 -0.29082036570E+02 -0.14312750640E+03  0.14729558768E+03  0.00000000000E+00 0.  1.
         11    1    1    2    0    0 -0.58133219784E+02  0.21889885965E+02 -0.29616792385E+03  0.30261209075E+03  0.00000000000E+00 0. -1.
</event>
<event>
 6    1  0.9216756E-006  0.1144074E+03  0.7561462E-02  0.1252619E+00
          2   -1    0    0  501    0  0.00000000000E+00  0.00000000000E+00  0.56953041951E+03  0.56953041951E+03  0.00000000000E+00 0. -1.
         -2   -1    0    0    0  501 -0.00000000000E+00 -0.00000000000E+00 -0.35604170437E+02  0.35604170437E+02  0.00000000000E+00 0.  1.
          5    1    1    2  502    0  0.52706762487E+02  0.41235155904E+02  0.24003781211E+03  0.24922673319E+03  0.41800000000E+01 0. -1.
         -5    1    1    2    0  502  0.38316468289E+02 -0.29199109539E+02  0.17460886542E+02  0.51411036741E+02  0.41800000000E+01 0. -1.
        -11    1    1    2    0    0 -0.56364569604E+02 -0.39800797828E+02  0.23051877977E+03  0.24062413853E+03  0.00000000000E+00 0. -1.
         11    1    1    2    0    0 -0.34658661171E+02  0.27764751462E+02  0.45908770645E+02  0.63872681485E+02  0.00000000000E+00 0.  1.
</event>
<event>
 6    1  0.9216756E-006  0.1186229E+03  0.7561462E-02  0.1245386E+00
         -3   -1    0    0    0  501 -0.00000000000E+00  0.00000000000E+00  0.62392001550E+02  0.62392001550E+02  0.00000000000E+00 0.  1.
          3   -1    0    0  501    0  0.00000000000E+00 -0.00000000000E+00 -0.32104800278E+03  0.32104800278E+03  0.00000000000E+00 0. -1.
          5    1    1    2  502    0 -0.60985346947E+02  0.72304253511E+02 -0.18092897259E+02  0.96394724696E+02  0.41800000000E+01 0.  1.
         -5    1    1    2    0  502 -0.10577902267E+02 -0.20181434952E+02 -0.85505256722E+02  0.88587830204E+02  0.41800000000E+01 0.  1.
        -11    1    1    2    0    0  0.91647329429E+01 -0.56128208566E+02 -0.47738890541E+02  0.74252069310E+02  0.00000000000E+00 0.  1.
         11    1    1    2    0    0  0.62398516271E+02  0.40053900070E+01 -0.10731895671E+03  0.12420538012E+03  0.00000000000E+00 0. -1.
</event>
<event>
 6    1  0.9216756E-006  0.1803734E+03  0.7561462E-02  0.1167442E+00
         -4   -1    0    0    0  501 -0.00000000000E+00  0.00000000000E+00  0.24255928198E+03  0.24255928198E+03  0.00000000000E+00 0.  1.
          4   -1    0    0  501    0  0.00000000000E+00 -0.00000000000E+00 -0.17337251293E+03  0.17337251293E+03  0.00000000000E+00 0. -1.
          5    1    1    2  502    0 -0.80204799460E+01  0.72479855311E+02  0.51186567266E+02  0.89191897575E+02  0.41800000000E+01 0. -1.
         -5    1    1    2    0  502  0.13715945935E+03 -0.18847389820E+02  0.66916414906E+02  0.15382854214E+03  0.41800000000E+01 0.  1.
        -11    1    1    2    0    0 -0.62874251592E+02  0.16508763099E+01 -0.58735865051E+02  0.86056950615E+02  0.00000000000E+00 0.  1.
         11    1    1    2    0    0 -0.66264727811E+02 -0.55283341801E+02  0.98196519327E+01  0.86854404589E+02  0.00000000000E+00 0. -1.
</event>
<event>
 6    1  0.9216756E-006  0.2137716E+03  0.7561462E-02  0.1138614E+00
         -2   -1    0    0    0  501 -0.00000000000E+00  0.00000000000E+00  0.38598777030E+03  0.38598777030E+03  0.00000000000E+00 0.  1.
          2   -1    0    0  501    0  0.00000000000E+00 -0.00000000000E+00 -0.38809268054E+03  0.38809268054E+03  0.00000000000E+00 0. -1.
          5    1    1    2  502    0  0.13373610721E+03 -0.88869037931E+02  0.13203474301E+03  0.20792714598E+03  0.41800000000E+01 0. -1.
         -5    1    1    2    0  502  0.43800869957E+02 -0.10839853888E+02  0.17710648570E+03  0.18281192062E+03  0.41800000000E+01 0. -1.
        -11    1    1    2    0    0 -0.28607331475E+02 -0.16206611571E+02 -0.29164295241E+02  0.43949855399E+02  0.00000000000E+00 0.  1.
         11    1    1    2    0    0 -0.14892964569E+03  0.11591550339E+03 -0.28208184372E+03  0.33939152884E+03  0.00000000000E+00 0. -1.
</event>
<event>
 6    1  0.9216756E-006  0.1066919E+03  0.7561462E-02  0.1266821E+00
         -1   -1    0    0    0  501 -0.00000000000E+00  0.00000000000E+00  0.47361287070E+02  0.47361287070E+02  0.00000000000E+00 0.  1.
          1   -1    0    0  501    0  0.00000000000E+00 -0.00000000000E+00 -0.30714936289E+03  0.30714936289E+03  0.00000000000E+00 0. -1.
          5    1    1    2  502    0  0.13199099333E+02 -0.39929509278E+02 -0.79803395993E+02  0.90303025124E+02  0.41800000000E+01 0.  1.
         -5    1    1    2    0  502 -0.64393674729E+02  0.52795655697E+02 -0.48252689158E+02  0.96331308600E+02  0.41800000000E+01 0.  1.
        -11    1    1    2    0    0  0.17118130188E+02 -0.40438778515E+02 -0.11103160943E+03  0.11939993083E+03  0.00000000000E+00 0. -1.
         11    1    1    2    0    0  0.34076445207E+02  0.27572632096E+02 -0.20700381233E+02  0.48476385405E+02  0.00000000000E+00 0.  1.
</event>
<event>
 6    1  0.9216756E-006  0.1069407E+03  0.7561462E-02  0.1266342E+00
         -3   -1    0    0    0  501 -0.00000000000E+00  0.00000000000E+00  0.10249790329E+03  0.10249790329E+03  0.00000000000E+00 0.  1.
          3   -1    0    0  501    0  0.00000000000E+00 -0.00000000000E+00 -0.12684874516E+03  0.12684874516E+03  0.00000000000E+00 0. -1.
          5    1    1    2  502    0 -0.72573485801E+02  0.30788415650E+02 -0.31420787954E+02  0.84968086333E+02  0.41800000000E+01 0.  1.
         -5    1    1    2    0  502  0.37853768743E+02 -0.11917577786E+02  0.23750752676E+02  0.46438207556E+02  0.41800000000E+01 0.  1.
        -11    1    1    2    0    0 -0.17804635420E+02 -0.35686087120E+02  0.13888019329E+01  0.39905270670E+02  0.00000000000E+00 0. -1.
         11    1    1    2    0    0  0.52524352478E+02  0.16815249256E+02 -0.18069608523E+02  0.58035083897E+02  0.00000000000E+00 0.  1.
</event>
<event>
 6    1  0.9216756E-006  0.9909935E+02  0.7561462E-02  0.1282201E+00
         -1   -1    0    0    0  501 -0.00000000000E+00  0.00000000000E+00  0.11108188173E+03  0.11108188173E+03  0.00000000000E+00 0.  1.
          1   -1    0    0  501    0  0.00000000000E+00 -0.00000000000E+00 -0.13620753830E+03  0.13620753830E+03  0.00000000000E+00 0. -1.
          5    1    1    2  502    0 -0.94041174542E+01  0.23058159220E+02 -0.38403866990E+02  0.45961348234E+02  0.41800000000E+01 0. -1.
         -5    1    1    2    0  502  0.47561629306E+02 -0.49460002441E+02  0.55891482116E+02  0.88598705391E+02  0.41800000000E+01 0. -1.
        -11    1    1    2    0    0 -0.58430411545E+02 -0.13029592238E+02 -0.27572628519E+02  0.65910038011E+02  0.00000000000E+00 0.  1.
         11    1    1    2    0    0  0.20272899692E+02  0.39431435459E+02 -0.15040643178E+02  0.46819328396E+02  0.00000000000E+00 0. -1.
</event>
<event>
 6    1  0.9216756E-006  0.1519985E+03  0.7561462E-02  0.1198039E+00
          2   -1    0    0  501    0  0.00000000000E+00  0.00000000000E+00  0.10788279029E+04  0.10788279029E+04  0.00000000000E+00 0. -1.
         -2   -1    0    0    0  501 -0.00000000000E+00 -0.00000000000E+00 -0.25823161743E+02  0.25823161743E+02  0.00000000000E+00 0.  1.
          5    1    1    2  502    0 -0.44715124340E+02  0.75186732409E+02  0.13890761233E+03  0.16421109658E+03  0.41800000000E+01 0. -1.
         -5    1    1    2    0  502  0.59603467663E+02  0.38124415545E+02  0.25330694745E+03  0.26303597937E+03  0.41800000000E+01 0. -1.
        -11    1    1    2    0    0 -0.48683424200E+02 -0.95844240168E+02  0.54575914478E+03  0.55624566360E+03  0.00000000000E+00 0. -1.
         11    1    1    2    0    0  0.33795080877E+02 -0.17466907785E+02  0.11503103662E+03  0.12115832511E+03  0.00000000000E+00 0.  1.
</event>
<event>
 6    1  0.9216756E-006  0.1500703E+03  0.7561462E-02  0.1200387E+00
         -1   -1    0    0    0  501 -0.00000000000E+00  0.00000000000E+00  0.15920014679E+03  0.15920014679E+03  0.00000000000E+00 0. -1.
          1   -1    0    0  501    0  0.00000000000E+00 -0.00000000000E+00 -0.27528789718E+03  0.27528789718E+03  0.00000000000E+00 0.  1.
          5    1    1    2  502    0 -0.58768666493E+02 -0.23480530667E+01  0.18817980434E+02  0.61893927830E+02  0.41800000000E+01 0.  1.
         -5    1    1    2    0  502  0.20359171460E+02  0.10036348384E+03  0.70643929838E+02  0.12448036783E+03  0.41800000000E+01 0.  1.
        -11    1    1    2    0    0 -0.29837522606E+02 -0.28286762398E+02 -0.53966359092E+02  0.67843839778E+02  0.00000000000E+00 0. -1.
         11    1    1    2    0    0  0.68247017639E+02 -0.69728668376E+02 -0.15158330157E+03  0.18026990854E+03  0.00000000000E+00 0.  1.
</event>
<event>
 6    1  0.9216756E-006  0.1244310E+03  0.7561462E-02  0.1235961E+00
          1   -1    0    0  501    0  0.00000000000E+00  0.00000000000E+00  0.43913515428E+03  0.43913515428E+03  0.00000000000E+00 0. -1.
         -1   -1    0    0    0  501 -0.00000000000E+00 -0.00000000000E+00 -0.45988015566E+02  0.45988015566E+02  0.00000000000E+00 0.  1.
          5    1    1    2  502    0 -0.10076999530E+03 -0.42629228251E+02  0.10135625523E+03  0.14920591788E+03  0.41800000000E+01 0.  1.
         -5    1    1    2    0  502  0.38317623348E+02 -0.10608271881E+02  0.42349625188E+02  0.58238637045E+02  0.41800000000E+01 0.  1.
        -11    1    1    2    0    0  0.99882554554E+01  0.45225988708E+02  0.38695950013E+02  0.60353391363E+02  0.00000000000E+00 0.  1.
         11    1    1    2    0    0  0.52464116496E+02  0.80115114246E+01  0.21074530828E+03  0.21732522356E+03  0.00000000000E+00 0. -1.
</event>
<event>
 6    1  0.9216756E-006  0.1081077E+03  0.7561462E-02  0.1264115E+00
         -2   -1    0    0    0  501 -0.00000000000E+00  0.00000000000E+00  0.38431256760E+03  0.38431256760E+03  0.00000000000E+00 0.  1.
          2   -1    0    0  501    0  0.00000000000E+00 -0.00000000000E+00 -0.49059788505E+02  0.49059788505E+02  0.00000000000E+00 0. -1.
          5    1    1    2  502    0  0.65037479322E+02 -0.23485457449E+02  0.21056663257E+03  0.22166916696E+03  0.41800000000E+01 0.  1.
         -5    1    1    2    0  502  0.22208886055E+02  0.12104768384E+02 -0.12540206598E+02  0.28539257505E+02  0.41800000000E+01 0.  1.
        -11    1    1    2    0    0 -0.54025788791E+02  0.47709907987E+02  0.82842926423E+02  0.10980879579E+03  0.00000000000E+00 0.  1.
         11    1    1    2    0    0 -0.33220576585E+02 -0.36329218922E+02  0.54383426700E+02  0.73355135851E+02  0.00000000000E+00 0. -1.
</event>
<event>
 6    1  0.9216756E-006  0.1165585E+03  0.7561462E-02  0.1248885E+00
         -2   -1    0    0    0  501 -0.00000000000E+00  0.00000000000E+00  0.65271694490E+02  0.65271694490E+02  0.00000000000E+00 0.  1.
          2   -1    0    0  501    0  0.00000000000E+00 -0.00000000000E+00 -0.26170037499E+03  0.26170037499E+03  0.00000000000E+00 0. -1.
          5    1    1    2  502    0 -0.24001422696E+02  0.35124393348E+02 -0.83479330542E+02  0.93787324982E+02  0.41800000000E+01 0. -1.
         -5    1    1    2    0  502 -0.40956590404E+02 -0.62361240405E+02 -0.50975289812E+01  0.74898757026E+02  0.41800000000E+01 0. -1.
        -11    1    1    2    0    0  0.62982882060E+02  0.57521196373E+02 -0.75264101042E+02  0.11375507184E+03  0.00000000000E+00 0.  1.
         11    1    1    2    0    0  0.19751310402E+01 -0.30284349316E+02 -0.32587719933E+02  0.44530915627E+02  0.00000000000E+00 0. -1.
</event>
<event>
 6    1  0.9216756E-006  0.1482546E+03  0.7561462E-02  0.1202634E+00
          2   -1    0    0  501    0  0.00000000000E+00  0.00000000000E+00  0.60550014488E+03  0.60550014488E+03  0.00000000000E+00 0. -1.
         -2   -1    0    0    0  501 -0.00000000000E+00 -0.00000000000E+00 -0.99120336400E+02  0.99120336400E+02  0.00000000000E+00 0.  1.
          5    1    1    2  502    0 -0.45600143776E+02 -0.25539263437E+02 -0.55461695212E+02  0.76322336999E+02  0.41800000000E+01 0. -1.
         -5    1    1    2    0  502 -0.82326925511E+02 -0.22949906085E+02  0.68300981203E+02  0.10948478107E+03  0.41800000000E+01 0. -1.
        -11    1    1    2    0    0  0.48080995917E+01 -0.17967273946E+02  0.38638915031E+02  0.42882473221E+02  0.00000000000E+00 0.  1.
         11    1    1    2    0    0  0.12311896969E+03  0.66456443467E+02  0.45490160746E+03  0.47593088999E+03  0.00000000000E+00 0. -1.
</event>
<event>
 6    1  0.9216756E-006  0.7741744E+02  0.7561462E-02  0.1336544E+00
         -2   -1    0    0    0  501 -0.00000000000E+00  0.00000000000E+00  0.12406845529E+03  0.12406845529E+03  0.00000000000E+00 0.  1.
          2   -1    0    0  501    0  0.00000000000E+00 -0.00000000000E+00 -0.12878007209E+03  0.12878007209E+03  0.00000000000E+00 0. -1.
          5    1    1    2  502    0 -0.18594130484E+02 -0.43809343364E+02 -0.25017402944E+02  0.53929056217E+02  0.41800000000E+01 0. -1.
         -5    1    1    2    0  502  0.10150133420E+02  0.39904768420E+01  0.83061062127E+02  0.83878254366E+02  0.41800000000E+01 0.  1.
        -11    1    1    2    0    0  0.13265162818E+01  0.67136737992E+02 -0.51606463672E+02  0.84689599871E+02  0.00000000000E+00 0. -1.
         11    1    1    2    0    0  0.71174807823E+01 -0.27317871470E+02 -0.11148812304E+02  0.30351616928E+02  0.00000000000E+00 0.  1.
</event>
<event>
 6    1  0.9216756E-006  0.1372197E+03  0.7561462E-02  0.1217120E+00
          1   -1    0    0  501    0  0.00000000000E+00  0.00000000000E+00  0.67976619310E+03  0.67976619310E+03  0.00000000000E+00 0. -1.
         -1   -1    0    0    0  501 -0.00000000000E+00 -0.00000000000E+00 -0.33156466306E+02  0.33156466306E+02  0.00000000000E+00 0.  1.
          5    1    1    2  502    0  0.38641920288E+02  0.48052556465E+02  0.25871895700E+03  0.26599852875E+03  0.41800000000E+01 0. -1.
         -5    1    1    2    0  502  0.65161614342E+02 -0.43188545522E+02  0.93479696195E+02  0.12193117915E+03  0.41800000000E+01 0. -1.
        -11    1    1    2    0    0 -0.85339419460E+02  0.33574105407E+02  0.16546891161E+03  0.18918244574E+03  0.00000000000E+00 0.  1.
         11    1    1    2    0    0 -0.18464115170E+02 -0.38438116350E+02  0.12894216199E+03  0.13581050577E+03  0.00000000000E+00 0. -1.
</event>
<event>
 6    1  0.9216756E-006  0.1142718E+03  0.7561462E-02  0.1252858E+00
          1   -1    0    0  501    0  0.00000000000E+00  0.00000000000E+00  0.31765099884E+03  0.31765099884E+03  0.00000000000E+00 0. -1.
         -1   -1    0    0    0  501 -0.00000000000E+00 -0.00000000000E+00 -0.57953182865E+02  0.57953182865E+02  0.00000000000E+00 0.  1.
          5    1    1    2  502    0  0.18902739879E+02 -0.89110609183E+01 -0.15547452140E+02  0.26380224595E+02  0.41800000000E+01 0.  1.
         -5    1    1    2    0  502 -0.61189450200E+02 -0.59953951449E+02  0.15760870166E+03  0.17943411144E+03  0.41800000000E+01 0.  1.
        -11    1    1    2    0    0  0.26568816285E+02  0.90727605247E+02  0.99935487286E+02  0.13756635480E+03  0.00000000000E+00 0. -1.
         11    1    1    2    0    0  0.15717894035E+02 -0.21862592880E+02  0.17701079174E+02  0.32223490877E+02  0.00000000000E+00 0.  1.
</event>
<event>
 6    1  0.9216756E-006  0.1454573E+03  0.7561462E-02  0.1206169E+00
         -1   -1    0    0    0  501 -0.00000000000E+00  0.00000000000E+00  0.49944577301E+02  0.49944577301E+02  0.00000000000E+00 0.  1.
          1   -1    0    0  501    0  0.00000000000E+00 -0.00000000000E+00 -0.64365837370E+03  0.64365837370E+03  0.00000000000E+00 0. -1.
          5    1    1    2  502    0  0.49497233649E+02  0.13008799994E+02 -0.14580822154E+03  0.15458562315E+03  0.41800000000E+01 0. -1.
         -5    1    1    2    0  502  0.61730688972E+02 -0.76912528037E+02 -0.49392218922E+02  0.11037789009E+03  0.41800000000E+01 0. -1.
        -11    1    1    2    0    0 -0.67159128057E+02  0.69246345695E+02 -0.16657019665E+03  0.19248645481E+03  0.00000000000E+00 0.  1.
         11    1    1    2    0    0 -0.44068794564E+02 -0.53426176520E+01 -0.23194315929E+03  0.23615298295E+03  0.00000000000E+00 0. -1.
</event>
<event>
 6    1  0.9216756E-006  0.1397119E+03  0.7561462E-02  0.1213717E+00
          2   -1    0    0  501    0  0.00000000000E+00  0.00000000000E+00  0.10040967768E+04  0.10040967768E+04  0.00000000000E+00 0. -1.
         -2   -1    0    0    0  501 -0.00000000000E+00 -0.00000000000E+00 -0.22225589809E+02  0.22225589809E+02  0.00000000000E+00 0.  1.
          5    1    1    2  502    0  0.60283037988E+01  0.33608160020E+02  0.88257950524E+02  0.94724796634E+02  0.41800000000E+01 0.  1.
         -5    1    1    2    0  502  0.22480393310E+02 -0.11512465883E+03  0.26089488450E+03  0.28608157632E+03  0.41800000000E+01 0.  1.
        -11    1    1    2    0    0 -0.12020970036E+02  0.10123573601E+03  0.48841562394E+03  0.49894188006E+03  0.00000000000E+00 0. -1.
         11    1    1    2    0    0 -0.16487727074E+02 -0.19719237196E+02  0.14430272807E+03  0.14657411364E+03  0.00000000000E+00 0.  1.
</event>
<event>
 6    1  0.9216756E-006  0.1140402E+03  0.7561462E-02  0.1253266E+00
         -1   -1    0    0    0  501 -0.00000000000E+00  0.00000000000E+00  0.76292497969E+02  0.76292497969E+02  0.00000000000E+00 0.  1.
          1   -1    0    0  501    0  0.00000000000E+00 -0.00000000000E+00 -0.42677038733E+03  0.42677038733E+03  0.00000000000E+00 0. -1.
          5    1    1    2  502    0 -0.13259615444E+02 -0.85835628207E+01 -0.71554451987E+02  0.73396232544E+02  0.41800000000E+01 0.  1.
         -5    1    1    2    0  502 -0.81871689318E+02 -0.10001944737E+02  0.33897438150E+02  0.89272174408E+02  0.41800000000E+01 0.  1.
        -11    1    1    2    0    0 -0.16237655000E+02 -0.49666118675E-01 -0.15893966156E+02  0.22721841184E+02  0.00000000000E+00 0.  1.
         11    1    1    2    0    0  0.11136895976E+03  0.18635173676E+02 -0.29692690936E+03  0.31767263716E+03  0.00000000000E+00 0. -1.
</event>
<event>
 6    1  0.9216756E-006  0.9502082E+02  0.7561462E-02  0.1291129E+00
          3   -1    0    0  501    0  0.00000000000E+00  0.00000000000E+00  0.44419609827E+02  0.44419609827E+02  0.00000000000E+00 0. -1.
         -3   -1    0    0    0  501 -0.00000000000E+00 -0.00000000000E+00 -0.42437269251E+03  0.42437269251E+03  0.00000000000E+00 0.  1.
          5    1    1    2  502    0  0.37926915293E+01  0.58698526578E+02 -0.10661578786E+03  0.12183718706E+03  0.41800000000E+01 0.  1.
         -5    1    1    2    0  502 -0.49485906327E+02 -0.44477804397E+02 -0.26227825058E+03  0.27061870433E+03  0.41800000000E+01 0.  1.
        -11    1    1    2    0    0  0.22999486229E+01  0.12985622935E+02  0.14072419826E+02  0.19285983679E+02  0.00000000000E+00 0. -1.
         11    1    1    2    0    0  0.43393266175E+02 -0.27206345116E+02 -0.25131464074E+02  0.57050427259E+02  0.00000000000E+00 0.  1.
</event>
<event>
 6    1  0.9216756E-006  0.1203570E+03  0.7561462E-02  0.1242509E+00
         -1   -1    0    0    0  501 -0.00000000000E+00  0.00000000000E+00  0.98259703139E+02  0.98259703139E+02  0.00000000000E+00 0.  1.
          1   -1    0    0  501    0  0.00000000000E+00 -0.00000000000E+00 -0.28417411210E+03  0.28417411210E+03  0.00000000000E+00 0. -1.
          5    1    1    2  502    0  0.63930158995E+02 -0.69646746612E+02  0.44331725901E+02  0.10450123858E+03  0.41800000000E+01 0.  1.
         -5    1    1    2    0  502 -0.29891466428E+02  0.14630746119E+02 -0.19069682146E+02  0.38583463742E+02  0.41800000000E+01 0.  1.
        -11    1    1    2    0    0 -0.59802237897E+02  0.61698426837E+02 -0.16581925408E+03  0.18675927970E+03  0.00000000000E+00 0. -1.
         11    1    1    2    0    0  0.25763545329E+02 -0.66824263436E+01 -0.45357198640E+02  0.52589833221E+02  0.00000000000E+00 0.  1.
</event>
<event>
 6    1  0.9216756E-006  0.7867376E+02  0.7561462E-02  0.1332858E+00
          1   -1    0    0  501    0  0.00000000000E+00  0.00000000000E+00  0.12159159190E+03  0.12159159190E+03  0.00000000000E+00 0. -1.
         -1   -1    0    0    0  501 -0.00000000000E+00 -0.00000000000E+00 -0.24252270108E+03  0.24252270108E+03  0.00000000000E+00 0.  1.
          5    1    1    2  502    0 -0.27389884506E+02  0.34684265825E+02 -0.52590563396E+01  0.44702730819E+02  0.41800000000E+01 0. -1.
         -5    1    1    2    0  502  0.43177755225E+02  0.23670451236E+02 -0.19083821744E+03  0.19713271277E+03  0.41800000000E+01 0.  1.
        -11    1    1    2    0    0 -0.26421891624E+00 -0.37694473763E+02 -0.50228608772E+01  0.38028572091E+02  0.00000000000E+00 0.  1.
         11    1    1    2    0    0 -0.15523651803E+02 -0.20660243298E+02  0.80189025472E+02  0.84250277297E+02  0.00000000000E+00 0. -1.
</event>
<event>
 6    1  0.9216756E-006  0.1555588E+03  0.7561462E-02  0.1193804E+00
         -1   -1    0    0    0  501 -0.00000000000E+00  0.00000000000E+00  0.41144534006E+02  0.41144534006E+02  0.00000000000E+00 0.  1.
          1   -1    0    0  501    0  0.00000000000E+00 -0.00000000000E+00 -0.75379769563E+03  0.75379769563E+03  0.00000000000E+00 0. -1.
          5    1    1    2  502    0 -0.36238880141E+02  0.49574808310E+02 -0.68044697156E+02  0.91752227569E+02  0.41800000000E+01 0. -1.
         -5    1    1    2    0  502  0.97173733678E+02  0.52947808556E+02 -0.15159121112E+03  0.18773271595E+03  0.41800000000E+01 0. -1.
        -11    1    1    2    0    0 -0.11190457752E+01 -0.71380225713E+02 -0.15324717225E+03  0.16905941171E+03  0.00000000000E+00 0.  1.
         11    1    1    2    0    0 -0.59815807763E+02 -0.31142391153E+02 -0.33977008110E+03  0.34639787441E+03  0.00000000000E+00 0. -1.
</event>
<event>
 6    1  0.9216756E-006  0.1138915E+03  0.7561462E-02  0.1253529E+00
          1   -1    0    0  501    0  0.00000000000E+00  0.00000000000E+00  0.36701379214E+02  0.36701379214E+02  0.00000000000E+00 0. -1.
         -1   -1    0    0    0  501 -0.00000000000E+00 -0.00000000000E+00 -0.37581803797E+03  0.37581803797E+03  0.00000000000E+00 0.  1.
          5    1    1    2  502    0  0.14108669078E+01  0.57874083196E+02 -0.11134109026E+03  0.12556158183E+03  0.41800000000E+01 0. -1.
         -5    1    1    2    0  502 -0.46287794556E+02 -0.56243513098E+02 -0.93104918587E+02  0.11828732373E+03  0.41800000000E+01 0. -1.
        -11    1    1    2    0    0  0.24664625761E+02 -0.43658561149E+02 -0.95095499670E+02  0.10750612905E+03  0.00000000000E+00 0.  1.
         11    1    1    2    0    0  0.20212301887E+02  0.42027991051E+02 -0.39575150243E+02  0.61164382578E+02  0.00000000000E+00 0. -1.
</event>
<event>
 6    1  0.9216756E-006  0.1335711E+03  0.7561462E-02  0.1222251E+00
         -2   -1    0    0    0  501 -0.00000000000E+00  0.00000000000E+00  0.23765685856E+02  0.23765685856E+02  0.00000000000E+00 0.  1.
          2   -1    0    0  501    0  0.00000000000E+00 -0.00000000000E+00 -0.10030682471E+04  0.10030682471E+04  0.00000000000E+00 0. -1.
          5    1    1    2  502    0  0.70367819354E+02 -0.82298881445E+02 -0.37371728352E+03  0.38911028808E+03  0.41800000000E+01 0. -1.
         -5    1    1    2    0  502  0.21232347820E+01  0.27262214580E+02 -0.12571159256E+02  0.30384912617E+02  0.41800000000E+01 0.  1.
        -11    1    1    2    0    0 -0.28090680378E+02  0.76723818533E+02 -0.36592038964E+03  0.37493114329E+03  0.00000000000E+00 0.  1.
         11    1    1    2    0    0 -0.44400373758E+02 -0.21687151668E+02 -0.22709372885E+03  0.23240758899E+03  0.00000000000E+00 0. -1.
</event>
<event>
 6    1  0.9216756E-006  0.1892601E+03  0.7561462E-02  0.1159130E+00
          2   -1    0    0  501    0  0.00000000000E+00  0.00000000000E+00  0.77393447569E+03  0.77393447569E+03  0.00000000000E+00 0. -1.
         -2   -1    0    0    0  501 -0.00000000000E+00 -0.00000000000E+00 -0.49195514970E+02  0.49195514970E+02  0.00000000000E+00 0.  1.
          5    1    1    2  502    0  0.56381565815E+02  0.55216436480E+01  0.67563484734E+02  0.88270416232E+02  0.41800000000E+01 0.  1.
         -5    1    1    2    0  502  0.25532438037E+02 -0.14102558517E+03  0.24062020285E+03  0.28009940286E+03  0.41800000000E+01 0.  1.
        -11    1    1    2    0    0 -0.48543919221E+02  0.13657789556E+03  0.37075719217E+03  0.39808407302E+03  0.00000000000E+00 0. -1.
         11    1    1    2    0    0 -0.33370084631E+02 -0.10739540427E+01  0.45798080967E+02  0.56676098541E+02  0.00000000000E+00 0.  1.
</event>
<event>
 6    1  0.9216756E-006  0.1822895E+03  0.7561462E-02  0.1165605E+00
         -2   -1    0    0    0  501 -0.00000000000E+00  0.00000000000E+00  0.21345905498E+03  0.21345905498E+03  0.00000000000E+00 0.  1.
          2   -1    0    0  501    0  0.00000000000E+00 -0.00000000000E+00 -0.16560869531E+03  0.16560869531E+03  0.00000000000E+00 0. -1.
          5    1    1    2  502    0 -0.13744159978E+03  0.34778456629E+02  0.36576056492E+02  0.14647530407E+03  0.41800000000E+01 0. -1.
         -5    1    1    2    0  502  0.13940288170E+02  0.52347118468E+02  0.13236213993E+02  0.55921571929E+02  0.41800000000E+01 0. -1.
        -11    1    1    2    0    0  0.61745972505E+02 -0.86964824991E+02 -0.27020017155E+02  0.11002512092E+03  0.00000000000E+00 0. -1.
         11    1    1    2    0    0  0.61755339101E+02 -0.16075010673E+00  0.25058106343E+02  0.66645753365E+02  0.00000000000E+00 0.  1.
</event>
<event>
 6    1  0.9216756E-006  0.1217481E+03  0.7561462E-02  0.1240241E+00
         -1   -1    0    0    0  501 -0.00000000000E+00  0.00000000000E+00  0.15832065984E+02  0.15832065984E+02  0.00000000000E+00 0.  1.
          1   -1    0    0  501    0  0.00000000000E+00 -0.00000000000E+00 -0.10308601972E+04  0.10308601972E+04  0.00000000000E+00 0. -1.
          5    1    1    2  502    0 -0.53805347526E+02 -0.23249182109E+02 -0.40430060023E+03  0.40854863558E+03  0.41800000000E+01 0.  1.
         -5    1    1    2    0  502  0.63565319791E+02 -0.35118117738E+02 -0.25823850558E+03  0.26828796141E+03  0.41800000000E+01 0.  1.
        -11    1    1    2    0    0 -0.42111429780E+02  0.66428380765E+02 -0.24987726797E+03  0.26196326334E+03  0.00000000000E+00 0. -1.
         11    1    1    2    0    0  0.32351457515E+02 -0.80610809183E+01 -0.10261175739E+03  0.10789240281E+03  0.00000000000E+00 0.  1.
</event>
<event>
 6    1  0.9216756E-006  0.1221336E+03  0.7561462E-02  0.1239618E+00
         -1   -1    0    0    0  501 -0.00000000000E+00  0.00000000000E+00  0.34480644853E+03  0.34480644853E+03  0.00000000000E+00 0.  1.
          1   -1    0    0  501    0  0.00000000000E+00 -0.00000000000E+00 -0.90733471533E+02  0.90733471533E+02  0.00000000000E+00 0. -1.
          5    1    1    2  502    0  0.11112398062E+02  0.26501673750E+02  0.13553609010E+02  0.32046791094E+02  0.41800000000E+01 0. -1.
         -5    1    1    2    0  502  0.25360489046E+02 -0.10011139353E+03  0.26746773613E+03  0.28674362729E+03  0.41800000000E+01 0.  1.
        -11    1    1    2    0    0  0.23873620676E+02  0.21971592217E+02  0.12466163583E+01  0.32469288275E+02  0.00000000000E+00 0. -1.
         11    1    1    2    0    0 -0.60346507784E+02  0.51638127568E+02 -0.28194984502E+02  0.84280213404E+02  0.00000000000E+00 0.  1.
</event>
<event>
 6    1  0.9216756E-006  0.6531677E+02  0.7561462E-02  0.1376784E+00
          2   -1    0    0  501    0  0.00000000000E+00  0.00000000000E+00  0.70475111563E+03  0.70475111563E+03  0.00000000000E+00 0. -1.
         -2   -1    0    0    0  501 -0.00000000000E+00 -0.00000000000E+00 -0.17907631684E+02  0.17907631684E+02  0.00000000000E+00 0.  1.
          5    1    1    2  502    0 -0.28734304688E+02  0.49008455518E+00  0.40735087900E+03  0.40838475911E+03  0.41800000000E+01 0. -1.
         -5    1    1    2    0  502 -0.86403119142E+00  0.12964051168E+02 -0.47509231836E+01  0.14451880282E+02  0.41800000000E+01 0. -1.
        -11    1    1    2    0    0  0.55634616185E+02  0.52558495765E+01  0.23106238602E+03  0.23772391698E+03  0.00000000000E+00 0. -1.
         11    1    1    2    0    0 -0.26036280305E+02 -0.18709985299E+02  0.53181142103E+02  0.62098190935E+02  0.00000000000E+00 0.  1.
</event>
<event>
 6    1  0.9216756E-006  0.2727299E+03  0.7561462E-02  0.1099727E+00
          2   -1    0    0  501    0  0.00000000000E+00  0.00000000000E+00  0.48600263022E+03  0.48600263022E+03  0.00000000000E+00 0. -1.
         -2   -1    0    0    0  501 -0.00000000000E+00 -0.00000000000E+00 -0.16366955993E+03  0.16366955993E+03  0.00000000000E+00 0.  1.
          5    1    1    2  502    0  0.32043186416E+02  0.15236317828E+03  0.43259560054E+02  0.16164827815E+03  0.41800000000E+01 0.  1.
         -5    1    1    2    0  502  0.92580338822E+02  0.75814910608E+02  0.12157281966E+03  0.17063540865E+03  0.41800000000E+01 0.  1.
        -11    1    1    2    0    0 -0.26200733596E+02 -0.12366636525E+03  0.10566092244E+03  0.16475460196E+03  0.00000000000E+00 0.  1.
         11    1    1    2    0    0 -0.98422791641E+02 -0.10451172364E+03  0.51839768138E+02  0.15263390139E+03  0.00000000000E+00 0. -1.
</event>
<event>
 6    1  0.9216756E-006  0.1175755E+03  0.7561462E-02  0.1247151E+00
          2   -1    0    0  501    0  0.00000000000E+00  0.00000000000E+00  0.41623803239E+02  0.41623803239E+02  0.00000000000E+00 0. -1.
         -2   -1    0    0    0  501 -0.00000000000E+00 -0.00000000000E+00 -0.48659612088E+03  0.48659612088E+03  0.00000000000E+00 0.  1.
          5    1    1    2  502    0  0.62149832110E+02 -0.21719954140E+02 -0.15348057860E+03  0.16705723105E+03  0.41800000000E+01 0. -1.
         -5    1    1    2    0  502 -0.53542140626E+02  0.36169448379E+02 -0.46380563394E+02  0.79646838479E+02  0.41800000000E+01 0.  1.
        -11    1    1    2    0    0 -0.31898963538E+02 -0.51553745962E+02 -0.22551925073E+03  0.23352572673E+03  0.00000000000E+00 0.  1.
         11    1    1    2    0    0  0.23291272054E+02  0.37104251723E+02 -0.19591924922E+02  0.47990127859E+02  0.00000000000E+00 0. -1.
</event>
<event>
 6    1  0.9216756E-006  0.1036342E+03  0.7561462E-02  0.1272834E+00
         -1   -1    0    0    0  501 -0.00000000000E+00  0.00000000000E+00  0.60078419538E+02  0.60078419538E+02  0.00000000000E+00 0.  1.
          1   -1    0    0  501    0  0.00000000000E+00 -0.00000000000E+00 -0.26999670671E+03  0.26999670671E+03  0.00000000000E+00 0. -1.
          5    1    1    2  502    0 -0.29608691984E+02  0.37918245700E+02 -0.40252541367E+02  0.62866584801E+02  0.41800000000E+01 0.  1.
         -5    1    1    2    0  502  0.43121516995E+02 -0.52044343831E+02  0.68794192380E+01  0.68065246358E+02  0.41800000000E+01 0.  1.
        -11    1    1    2    0    0  0.16201795117E+02 -0.32302678847E+02 -0.56831830284E+02  0.67348482976E+02  0.00000000000E+00 0. -1.
         11    1    1    2    0    0 -0.29714620128E+02  0.46428776978E+02 -0.11971333476E+03  0.13179481212E+03  0.00000000000E+00 0.  1.
</event>
<event>
 6    1  0.9216756E-006  0.1306905E+03  0.7561462E-02  0.1226435E+00
          1   -1    0    0  501    0  0.00000000000E+00  0.00000000000E+00  0.32599053800E+03  0.32599053800E+03  0.00000000000E+00 0. -1.
         -1   -1    0    0    0  501 -0.00000000000E+00 -0.00000000000E+00 -0.68180671772E+02  0.68180671772E+02  0.00000000000E+00 0.  1.
          5    1    1    2  502    0 -0.89695606598E+02 -0.62777212352E+02  0.55973325988E+02  0.12303156447E+03  0.41800000000E+01 0.  1.
         -5    1    1    2    0  502 -0.33818249303E+01  0.16697235032E+02  0.10257255587E+03  0.10406169331E+03  0.41800000000E+01 0.  1.
        -11    1    1    2    0    0  0.41574647843E+02  0.66867429943E+02  0.54774323407E+02  0.95916270962E+02  0.00000000000E+00 0. -1.
         11    1    1    2    0    0  0.51502783686E+02 -0.20787452623E+02  0.44489660960E+02  0.71161681024E+02  0.00000000000E+00 0.  1.
</event>
<event>
 6    1  0.9216756E-006  0.2085720E+03  0.7561462E-02  0.1142702E+00
         -2   -1    0    0    0  501 -0.00000000000E+00  0.00000000000E+00  0.49768677399E+02  0.49768677399E+02  0.00000000000E+00 0.  1.
          2   -1    0    0  501    0  0.00000000000E+00 -0.00000000000E+00 -0.11088801922E+04  0.11088801922E+04  0.00000000000E+00 0. -1.
          5    1    1    2  502    0  0.17537487697E+03 -0.36777550185E+00 -0.46164773825E+03  0.49385482620E+03  0.41800000000E+01 0. -1.
         -5    1    1    2    0  502  0.29725398136E+02  0.19385457673E+02 -0.12210047511E+02  0.37761791851E+02  0.41800000000E+01 0. -1.
        -11    1    1    2    0    0 -0.14819951563E+03 -0.13058378904E+02 -0.51695669285E+03  0.53793850947E+03  0.00000000000E+00 0. -1.
         11    1    1    2    0    0 -0.56900759468E+02 -0.59593032670E+01 -0.68297036167E+02  0.89093742052E+02  0.00000000000E+00 0.  1.
</event>
<event>
 6    1  0.9216756E-006  0.1409369E+03  0.7561462E-02  0.1212074E+00
          2   -1    0    0  501    0  0.00000000000E+00  0.00000000000E+00  0.83904202782E+03  0.83904202782E+03  0.00000000000E+00 0. -1.
         -2   -1    0    0    0  501 -0.00000000000E+00 -0.00000000000E+00 -0.27785978236E+02  0.27785978236E+02  0.00000000000E+00 0.  1.
          5    1    1    2  502    0 -0.51062493767E+02 -0.40286613738E+02  0.12927591940E+03  0.14477612115E+03  0.41800000000E+01 0. -1.
         -5    1    1    2    0  502 -0.46874443142E+02  0.84393666453E+02  0.29445204875E+03  0.30990157433E+03  0.41800000000E+01 0. -1.
        -11    1    1    2    0    0  0.84449233355E+02 -0.12067152951E+02  0.35297096535E+03  0.36313329725E+03  0.00000000000E+00 0. -1.
         11    1    1    2    0    0  0.13487703553E+02 -0.32039899765E+02  0.34557116085E+02  0.49017013334E+02  0.00000000000E+00 0.  1.
</event>
<event>
 6    1  0.9216756E-006  0.1128263E+03  0.7561462E-02  0.1255424E+00
         -1   -1    0    0    0  501 -0.00000000000E+00  0.00000000000E+00  0.19173424614E+02  0.19173424614E+02  0.00000000000E+00 0.  1.
          1   -1    0    0  501    0  0.00000000000E+00 -0.00000000000E+00 -0.98032330442E+03  0.98032330442E+03  0.00000000000E+00 0. -1.
          5    1    1    2  502    0 -0.42832238566E+02 -0.25699928657E+02 -0.65486764002E+02  0.82468634359E+02  0.41800000000E+01 0. -1.
         -5    1    1    2    0  502  0.33008125037E+02 -0.59351879569E+02 -0.44089625154E+03  0.44611563406E+03  0.41800000000E+01 0. -1.
        -11    1    1    2    0    0  0.37712529748E+02  0.45651895436E+02 -0.35700736636E+03  0.36188477461E+03  0.00000000000E+00 0.  1.
         11    1    1    2    0    0 -0.27888416218E+02  0.39399912789E+02 -0.97759497910E+02  0.10902768602E+03  0.00000000000E+00 0. -1.
</event>
<event>
 6    1  0.9216756E-006  0.1235916E+03  0.7561462E-02  0.1237287E+00
          2   -1    0    0  501    0  0.00000000000E+00  0.00000000000E+00  0.39478313571E+03  0.39478313571E+03  0.00000000000E+00 0. -1.
         -2   -1    0    0    0  501 -0.00000000000E+00 -0.00000000000E+00 -0.48102326915E+02  0.48102326915E+02  0.00000000000E+00 0.  1.
          5    1    1    2  502    0  0.31246060287E+02  0.89803412175E+01  0.11420987481E+03  0.11882058203E+03  0.41800000000E+01 0. -1.
         -5    1    1    2    0  502 -0.69512124363E+02  0.66274782122E+02  0.67911509869E+02  0.11770185959E+03  0.41800000000E+01 0. -1.
        -11    1    1    2    0    0 -0.23571185402E+02 -0.41738166317E+02  0.99977099150E+02  0.11087423354E+03  0.00000000000E+00 0. -1.
         11    1    1    2    0    0  0.61837249479E+02 -0.33516957023E+02  0.64582324966E+02  0.95488787453E+02  0.00000000000E+00 0.  1.
</event>
<event>
 6    1  0.9216756E-006  0.1180061E+03  0.7561462E-02  0.1246423E+00
         -1   -1    0    0    0  501 -0.00000000000E+00  0.00000000000E+00  0.16278985060E+03  0.16278985060E+03  0.00000000000E+00 0.  1.
          1   -1    0    0  501    0  0.00000000000E+00 -0.00000000000E+00 -0.12362110413E+03  0.12362110413E+03  0.00000000000E+00 0. -1.
          5    1    1    2  502    0  0.37050570199E+02 -0.65817007319E+01 -0.29823114232E+02  0.48197033924E+02  0.41800000000E+01 0. -1.
         -5    1    1    2    0  502 -0.94428432153E+01 -0.75817781125E+02  0.83595555780E+02  0.11332781022E+03  0.41800000000E+01 0. -1.
        -11    1    1    2    0    0  0.76595989832E+01 -0.15655027003E+02  0.64369222348E+01  0.18579109099E+02  0.00000000000E+00 0.  1.
         11    1    1    2    0    0 -0.35267325967E+02  0.98054508860E+02 -0.21040617311E+02  0.10630700149E+03  0.00000000000E+00 0. -1.
</event>
<event>
 6    1  0.9216756E-006  0.2804036E+03  0.7561462E-02  0.1095469E+00
          1   -1    0    0  501    0  0.00000000000E+00  0.00000000000E+00  0.68726805229E+03  0.68726805229E+03  0.00000000000E+00 0. -1.
         -1   -1    0    0    0  501 -0.00000000000E+00 -0.00000000000E+00 -0.13003089646E+03  0.13003089646E+03  0.00000000000E+00 0.  1.
          5    1    1    2  502    0 -0.81290118376E+02 -0.12765715269E+03  0.25418355148E+03  0.29585669204E+03  0.41800000000E+01 0.  1.
         -5    1    1    2    0  502 -0.81595291921E+02 -0.98202631266E+02  0.56446321110E+02  0.13966104689E+03  0.41800000000E+01 0.  1.
        -11    1    1    2    0    0  0.64212556979E+02  0.12519244368E+03  0.74145450630E+02  0.15904071264E+03  0.00000000000E+00 0. -1.
         11    1    1    2    0    0  0.98672853319E+02  0.10066734028E+03  0.17246183261E+03  0.22274049719E+03  0.00000000000E+00 0.  1.
</event>
<event>
 6    1  0.9216756E-006  0.1292945E+03  0.7561462E-02  0.1228506E+00
          1   -1    0    0  501    0  0.00000000000E+00  0.00000000000E+00  0.10902413670E+03  0.10902413670E+03  0.00000000000E+00 0.  1.
         -1   -1    0    0    0  501 -0.00000000000E+00 -0.00000000000E+00 -0.24397912098E+03  0.24397912098E+03  0.00000000000E+00 0. -1.
          5    1    1    2  502    0 -0.29031294180E+02 -0.82962456856E+01 -0.10021918056E+03  0.10475208966E+03  0.41800000000E+01 0. -1.
         -5    1    1    2    0  502  0.51158797138E+02 -0.46103734723E+02 -0.54477746797E+01  0.69209302330E+02  0.41800000000E+01 0. -1.
        -11    1    1    2    0    0  0.51906117628E+02 -0.18603710473E+02  0.26356423943E+02  0.61114680508E+02  0.00000000000E+00 0.  1.
         11    1    1    2    0    0 -0.74033620586E+02  0.73003690882E+02 -0.55644452971E+02  0.11792718519E+03  0.00000000000E+00 0. -1.
</event>
<event>
 6    1  0.9216756E-006  0.1621444E+03  0.7561462E-02  0.1186297E+00
         -2   -1    0    0    0  501 -0.00000000000E+00  0.00000000000E+00  0.82734872496E+02  0.82734872496E+02  0.00000000000E+00 0.  1.
          2   -1    0    0  501    0  0.00000000000E+00 -0.00000000000E+00 -0.35143056803E+03  0.35143056803E+03  0.00000000000E+00 0. -1.
          5    1    1    2  502    0  0.14418233977E+03 -0.40684590644E+02 -0.78431100678E+02  0.16915286865E+03  0.41800000000E+01 0.  1.
         -5    1    1    2    0  502 -0.26308290124E+02 -0.99580990797E+01 -0.24195521617E+02  0.37338793939E+02  0.41800000000E+01 0.  1.
        -11    1    1    2    0    0 -0.65437492654E+02 -0.95711212369E+01 -0.11570398979E+03  0.13327072094E+03  0.00000000000E+00 0. -1.
         11    1    1    2    0    0 -0.52436556993E+02  0.60213810961E+02 -0.50365083442E+02  0.94403056994E+02  0.00000000000E+00 0.  1.
</event>
<event>
 6    1  0.9216756E-006  0.1214752E+03  0.7561462E-02  0.1240683E+00
          1   -1    0    0  501    0  0.00000000000E+00  0.00000000000E+00  0.77890161680E+03  0.77890161680E+03  0.00000000000E+00 0. -1.
         -1   -1    0    0    0  501 -0.00000000000E+00 -0.00000000000E+00 -0.20470735904E+02  0.20470735904E+02  0.00000000000E+00 0.  1.
          5    1    1    2  502    0 -0.65203642411E+02  0.32675876532E+02  0.16966473422E+03  0.18472363771E+03  0.41800000000E+01 0. -1.
         -5    1    1    2    0  502  0.59399796789E+02  0.22335168909E+02  0.16189557386E+03  0.17393919876E+03  0.41800000000E+01 0. -1.
        -11    1    1    2    0    0  0.42237483640E+02 -0.55646425548E+02  0.22567784204E+03  0.23624355671E+03  0.00000000000E+00 0.  1.
         11    1    1    2    0    0 -0.36433638018E+02  0.63538010651E+00  0.20119273078E+03  0.20446595953E+03  0.00000000000E+00 0. -1.
</event>
<event>
 6    1  0.9216756E-006  0.1200716E+03  0.7561462E-02  0.1242979E+00
          1   -1    0    0  501    0  0.00000000000E+00  0.00000000000E+00  0.43872621871E+03  0.43872621871E+03  0.00000000000E+00 0. -1.
         -1   -1    0    0    0  501 -0.00000000000E+00 -0.00000000000E+00 -0.34659390927E+02  0.34659390927E+02  0.00000000000E+00 0.  1.
          5    1    1    2  502    0 -0.53797420535E+02  0.43541034054E+02  0.12735728417E+03  0.14500804920E+03  0.41800000000E+01 0. -1.
         -5    1    1    2    0  502 -0.25086276060E+01 -0.67992854867E+02  0.84549228505E+02  0.10860647295E+03  0.41800000000E+01 0. -1.
        -11    1    1    2    0    0  0.13985179491E+01 -0.27211962788E+02  0.27709413296E+02  0.38862042618E+02  0.00000000000E+00 0.  1.
         11    1    1    2    0    0  0.54907530192E+02  0.51663783601E+02  0.16445090181E+03  0.18090904486E+03  0.00000000000E+00 0. -1.
</event>
<event>
 6    1  0.9216756E-006  0.3299601E+03  0.7561462E-02  0.1071155E+00
          2   -1    0    0  501    0  0.00000000000E+00  0.00000000000E+00  0.10712411196E+04  0.10712411196E+04  0.00000000000E+00 0. -1.
         -2   -1    0    0    0  501 -0.00000000000E+00 -0.00000000000E+00 -0.10547778356E+03  0.10547778356E+03  0.00000000000E+00 0.  1.
          5    1    1    2  502    0 -0.16908238837E+03 -0.17528362937E+03  0.31581658085E+03  0.39883679610E+03  0.41800000000E+01 0. -1.
         -5    1    1    2    0  502 -0.94181697299E+02  0.26858110137E+01  0.99291148330E+02  0.13694382141E+03  0.41800000000E+01 0. -1.
        -11    1    1    2    0    0  0.57129975037E+02  0.74111734674E+02  0.21962866730E+03  0.23873234964E+03  0.00000000000E+00 0.  1.
         11    1    1    2    0    0  0.20613411063E+03  0.98486083686E+02  0.33102693959E+03  0.40220593603E+03  0.00000000000E+00 0. -1.
</event>
<event>
 6    1  0.9216756E-006  0.8149137E+02  0.7561462E-02  0.1324872E+00
         -1   -1    0    0    0  501 -0.00000000000E+00  0.00000000000E+00  0.15929470161E+03  0.15929470161E+03  0.00000000000E+00 0.  1.
          1   -1    0    0  501    0  0.00000000000E+00 -0.00000000000E+00 -0.10134667388E+03  0.10134667388E+03  0.00000000000E+00 0. -1.
          5    1    1    2  502    0 -0.15645875591E+01  0.14224004358E+02  0.76087969599E+02  0.77534648718E+02  0.41800000000E+01 0. -1.
         -5    1    1    2    0  502 -0.58831022592E+02 -0.36500966496E+02 -0.22631741231E+02  0.72959426296E+02  0.41800000000E+01 0. -1.
        -11    1    1    2    0    0  0.68599302989E+01  0.24190679913E+02  0.39015756479E+02  0.46416342940E+02  0.00000000000E+00 0.  1.
         11    1    1    2    0    0  0.53535679852E+02 -0.19137177751E+01 -0.34523957115E+02  0.63730957531E+02  0.00000000000E+00 0. -1.
</event>
<event>
 6    1  0.9216756E-006  0.1176643E+03  0.7561462E-02  0.1247001E+00
          2   -1    0    0  501    0  0.00000000000E+00  0.00000000000E+00  0.15667790945E+02  0.15667790945E+02  0.00000000000E+00 0. -1.
         -2   -1    0    0    0  501 -0.00000000000E+00 -0.00000000000E+00 -0.20810984416E+04  0.20810984416E+04  0.00000000000E+00 0.  1.
          5    1    1    2  502    0 -0.54593912494E+02  0.99063980545E+02 -0.89988135928E+03  0.90697194042E+03  0.41800000000E+01 0.  1.
         -5    1    1    2    0  502 -0.68927977836E+01 -0.22749438805E+02 -0.78895858729E+03  0.78932767118E+03  0.41800000000E+01 0.  1.
        -11    1    1    2    0    0  0.12696104245E+02 -0.16157946797E+02 -0.53532616681E+01  0.21235058704E+02  0.00000000000E+00 0. -1.
         11    1    1    2    0    0  0.48790606032E+02 -0.60156594944E+02 -0.37123744238E+03  0.37923156221E+03  0.00000000000E+00 0.  1.
</event>
<event>
 6    1  0.9216756E-006  0.1255235E+03  0.7561462E-02  0.1234253E+00
          1   -1    0    0  501    0  0.00000000000E+00  0.00000000000E+00  0.11243311871E+04  0.11243311871E+04  0.00000000000E+00 0. -1.
         -1   -1    0    0    0  501 -0.00000000000E+00 -0.00000000000E+00 -0.22407091005E+02  0.22407091005E+02  0.00000000000E+00 0.  1.
          5    1    1    2  502    0  0.85677460588E+02 -0.57344077684E+02  0.41602062669E+03  0.42862524976E+03  0.41800000000E+01 0. -1.
         -5    1    1    2    0  502  0.52180978436E+01  0.72181171945E+01 -0.66244382797E+01  0.11861085256E+02  0.41800000000E+01 0. -1.
        -11    1    1    2    0    0 -0.37951693022E+02  0.71486446892E+02  0.43592388281E+03  0.44337374155E+03  0.00000000000E+00 0.  1.
         11    1    1    2    0    0 -0.52943865410E+02 -0.21360486402E+02  0.25660402490E+03  0.26287820157E+03  0.00000000000E+00 0. -1.
</event>
<event>
 6    1  0.9216756E-006  0.8091411E+02  0.7561462E-02  0.1326477E+00
          1   -1    0    0  501    0  0.00000000000E+00  0.00000000000E+00  0.60704883919E+02  0.60704883919E+02  0.00000000000E+00 0. -1.
         -1   -1    0    0    0  501 -0.00000000000E+00 -0.00000000000E+00 -0.33940061863E+03  0.33940061863E+03  0.00000000000E+00 0.  1.
          5    1    1    2  502    0  0.13760456415E+02 -0.22816097097E+02 -0.12786198620E+01  0.27000587331E+02  0.41800000000E+01 0.  1.
         -5    1    1    2    0  502  0.32312026573E+02  0.62553152624E+02 -0.25516466414E+03  0.26473277506E+03  0.41800000000E+01 0.  1.
        -11    1    1    2    0    0 -0.45039017398E+01 -0.15650020365E+02 -0.50211097568E+02  0.52786007495E+02  0.00000000000E+00 0.  1.
         11    1    1    2    0    0 -0.41568581248E+02 -0.24087035162E+02  0.27958646862E+02  0.55586132661E+02  0.00000000000E+00 0. -1.
</event>
<event>
 6    1  0.9216756E-006  0.1251302E+03  0.7561462E-02  0.1234866E+00
          1   -1    0    0  501    0  0.00000000000E+00  0.00000000000E+00  0.36860806586E+03  0.36860806586E+03  0.00000000000E+00 0. -1.
         -1   -1    0    0    0  501 -0.00000000000E+00 -0.00000000000E+00 -0.64275250583E+02  0.64275250583E+02  0.00000000000E+00 0.  1.
          5    1    1    2  502    0  0.73847359160E+02  0.71020776023E+02  0.11012278561E+03  0.15047220139E+03  0.41800000000E+01 0. -1.
         -5    1    1    2    0  502 -0.27964584264E+02  0.16139058379E+02 -0.14073469193E+02  0.35468607437E+02  0.41800000000E+01 0. -1.
        -11    1    1    2    0    0  0.81173637335E+01 -0.47432537218E+02  0.15191411653E+03  0.15935380755E+03  0.00000000000E+00 0. -1.
         11    1    1    2    0    0 -0.54000138630E+02 -0.39727297184E+02  0.56369382331E+02  0.87588700059E+02  0.00000000000E+00 0.  1.
</event>
<event>
 6    1  0.9216756E-006  0.8971821E+02  0.7561462E-02  0.1303536E+00
          2   -1    0    0  501    0  0.00000000000E+00  0.00000000000E+00  0.20775965253E+03  0.20775965253E+03  0.00000000000E+00 0. -1.
         -2   -1    0    0    0  501 -0.00000000000E+00 -0.00000000000E+00 -0.75710901426E+02  0.75710901426E+02  0.00000000000E+00 0.  1.
          5    1    1    2  502    0  0.13089532763E+02 -0.22612966574E+02 -0.42316529897E+02  0.49908348277E+02  0.41800000000E+01 0. -1.
         -5    1    1    2    0  502 -0.50107798732E+02  0.25855742917E+02  0.58880808067E+02  0.81631690501E+02  0.41800000000E+01 0. -1.
        -11    1    1    2    0    0 -0.25214634810E+02  0.17662661023E+02  0.22613400348E+02  0.38198341303E+02  0.00000000000E+00 0. -1.
         11    1    1    2    0    0  0.62232900778E+02 -0.20905437366E+02  0.92871072582E+02  0.11373217387E+03  0.00000000000E+00 0.  1.
</event>
<event>
 6    1  0.9216756E-006  0.1738418E+03  0.7561462E-02  0.1173900E+00
         -1   -1    0    0    0  501 -0.00000000000E+00  0.00000000000E+00  0.67282427755E+03  0.67282427755E+03  0.00000000000E+00 0.  1.
          1   -1    0    0  501    0  0.00000000000E+00 -0.00000000000E+00 -0.76495156366E+02  0.76495156366E+02  0.00000000000E+00 0. -1.
          5    1    1    2  502    0  0.91375962726E+02 -0.55887484207E+02  0.14193887577E+03  0.17786819365E+03  0.41800000000E+01 0.  1.
         -5    1    1    2    0  502  0.22150339038E+02 -0.67971049991E+02  0.34268223271E+03  0.35008468428E+03  0.41800000000E+01 0.  1.
        -11    1    1    2    0    0 -0.33104188747E+02  0.48115988939E+02 -0.74481106836E+01  0.58877075819E+02  0.00000000000E+00 0. -1.
         11    1    1    2    0    0 -0.80422113017E+02  0.75742545260E+02  0.11915612338E+03  0.16248948016E+03  0.00000000000E+00 0.  1.
</event>
<event>
 6    1  0.9216756E-006  0.5246341E+02  0.7561462E-02  0.1432490E+00
          2   -1    0    0  501    0  0.00000000000E+00  0.00000000000E+00  0.59471188686E+03  0.59471188686E+03  0.00000000000E+00 0. -1.
         -2   -1    0    0    0  501 -0.00000000000E+00 -0.00000000000E+00 -0.34475605881E+02  0.34475605881E+02  0.00000000000E+00 0.  1.
          5    1    1    2  502    0  0.57138574638E+01 -0.44682862942E+02  0.41152522462E+03  0.41400445566E+03  0.41800000000E+01 0. -1.
         -5    1    1    2    0  502 -0.13339655359E+02  0.31966480935E+01 -0.27959368075E+02  0.31422342804E+02  0.41800000000E+01 0.  1.
        -11    1    1    2    0    0  0.11158893091E+02  0.15376734315E+02  0.36637913523E+02  0.41271074138E+02  0.00000000000E+00 0.  1.
         11    1    1    2    0    0 -0.35330951951E+01  0.26109480533E+02  0.14003251091E+03  0.14248962014E+03  0.00000000000E+00 0. -1.
</event>
<event>
 6    1  0.9216756E-006  0.9636926E+02  0.7561462E-02  0.1288122E+00
         -1   -1    0    0    0  501 -0.00000000000E+00  0.00000000000E+00  0.41437541355E+02  0.41437541355E+02  0.00000000000E+00 0.  1.
          1   -1    0    0  501    0  0.00000000000E+00 -0.00000000000E+00 -0.44188339587E+03  0.44188339587E+03  0.00000000000E+00 0. -1.
          5    1    1    2  502    0 -0.65191389875E+02  0.65492447906E+01 -0.43374965187E+01  0.65795867631E+02  0.41800000000E+01 0. -1.
         -5    1    1    2    0  502  0.21084516260E+02 -0.25188687554E+02 -0.96027061855E+02  0.10157605926E+03  0.41800000000E+01 0. -1.
        -11    1    1    2    0    0  0.38267708481E+02  0.49498267761E+02 -0.14839052687E+03  0.16104112670E+03  0.00000000000E+00 0. -1.
         11    1    1    2    0    0  0.58391651347E+01 -0.30858824998E+02 -0.15169076928E+03  0.15490788364E+03  0.00000000000E+00 0.  1.
</event>
<event>
 6    1  0.9216756E-006  0.2851729E+03  0.7561462E-02  0.1092897E+00
         -2   -1    0    0    0  501 -0.00000000000E+00  0.00000000000E+00  0.47687617267E+03  0.47687617267E+03  0.00000000000E+00 0. -1.
          2   -1    0    0  501    0  0.00000000000E+00 -0.00000000000E+00 -0.21171834587E+03  0.21171834587E+03  0.00000000000E+00 0.  1.
          5    1    1    2  502    0  0.98013735147E+01 -0.80543344677E+02  0.14440719881E+03  0.16569311622E+03  0.41800000000E+01 0. -1.
         -5    1    1    2    0  502  0.74752818129E+02 -0.18999539180E+03  0.91803535760E+02  0.22390085820E+03  0.41800000000E+01 0. -1.
        -11    1    1    2    0    0 -0.55176425013E+02  0.12857341403E+03 -0.28980547965E+02  0.14288258408E+03  0.00000000000E+00 0.  1.
         11    1    1    2    0    0 -0.29377766631E+02  0.14196532244E+03  0.57927640193E+02  0.15611796004E+03  0.00000000000E+00 0. -1.
</event>
<event>
 6    1  0.9216756E-006  0.1593087E+03  0.7561462E-02  0.1189479E+00
         -2   -1    0    0    0  501 -0.00000000000E+00  0.00000000000E+00  0.46384870205E+02  0.46384870205E+02  0.00000000000E+00 0.  1.
          2   -1    0    0  501    0  0.00000000000E+00 -0.00000000000E+00 -0.84634129748E+03  0.84634129748E+03  0.00000000000E+00 0. -1.
          5    1    1    2  502    0  0.11686366974E+02  0.72667686356E+02 -0.21518188621E+03  0.22745962360E+03  0.41800000000E+01 0.  1.
         -5    1    1    2    0  502  0.78064405212E+02  0.49794726282E+02 -0.58367423818E+02  0.10953444522E+03  0.41800000000E+01 0.  1.
        -11    1    1    2    0    0 -0.26433036756E+02 -0.28161241649E+02 -0.37606068929E+02  0.53907118116E+02  0.00000000000E+00 0.  1.
         11    1    1    2    0    0 -0.63317735429E+02 -0.94301170990E+02 -0.48880104832E+03  0.50182498076E+03  0.00000000000E+00 0. -1.
</event>
<event>
 6    1  0.9216756E-006  0.1941920E+03  0.7561462E-02  0.1154734E+00
          2   -1    0    0  501    0  0.00000000000E+00  0.00000000000E+00  0.11411590635E+04  0.11411590635E+04  0.00000000000E+00 0. -1.
         -2   -1    0    0    0  501 -0.00000000000E+00 -0.00000000000E+00 -0.35606844972E+02  0.35606844972E+02  0.00000000000E+00 0.  1.
          5    1    1    2  502    0 -0.17243120505E+03  0.24607620863E+02  0.40921378698E+03  0.44475999296E+03  0.41800000000E+01 0. -1.
         -5    1    1    2    0  502  0.14494291912E+02  0.31080227032E+02  0.93468230147E+02  0.99648619947E+02  0.41800000000E+01 0. -1.
        -11    1    1    2    0    0  0.80611672193E+02  0.57935598795E+01  0.16829285235E+03  0.18669303999E+03  0.00000000000E+00 0.  1.
         11    1    1    2    0    0  0.77325240948E+02 -0.61481407775E+02  0.43457734902E+03  0.44566425554E+03  0.00000000000E+00 0. -1.
</event>
<event>
 6    1  0.9216756E-006  0.1295497E+03  0.7561462E-02  0.1228125E+00
          1   -1    0    0  501    0  0.00000000000E+00  0.00000000000E+00  0.54532096831E+02  0.54532096831E+02  0.00000000000E+00 0. -1.
         -1   -1    0    0    0  501 -0.00000000000E+00 -0.00000000000E+00 -0.40107587423E+03  0.40107587423E+03  0.00000000000E+00 0.  1.
          5    1    1    2  502    0  0.10393000071E+03 -0.42864973787E+02 -0.22662366962E+03  0.25301108881E+03  0.41800000000E+01 0. -1.
         -5    1    1    2    0  502 -0.32913920895E+02  0.98861420097E+01 -0.56443526001E+02  0.66214847428E+02  0.41800000000E+01 0. -1.
        -11    1    1    2    0    0 -0.37060878628E+01  0.43668595220E+02 -0.86498782252E+00  0.43834113424E+02  0.00000000000E+00 0.  1.
         11    1    1    2    0    0 -0.67309991950E+02 -0.10689763444E+02 -0.62611593953E+02  0.92547921403E+02  0.00000000000E+00 0. -1.
</event>
<event>
 6    1  0.9216756E-006  0.6788267E+02  0.7561462E-02  0.1367445E+00
          1   -1    0    0  501    0  0.00000000000E+00  0.00000000000E+00  0.88176343623E+02  0.88176343623E+02  0.00000000000E+00 0. -1.
         -1   -1    0    0    0  501 -0.00000000000E+00 -0.00000000000E+00 -0.20615067085E+03  0.20615067085E+03  0.00000000000E+00 0.  1.
          5    1    1    2  502    0 -0.14687218427E+02 -0.33887382824E+02  0.34280698303E+01  0.37326842386E+02  0.41800000000E+01 0.  1.
         -5    1    1    2    0  502  0.12256672926E+02  0.29781922872E+02 -0.15936273982E+03  0.16263807735E+03  0.41800000000E+01 0.  1.
        -11    1    1    2    0    0 -0.17825210850E+01  0.34947151028E+02 -0.10704583066E+02  0.36593289617E+02  0.00000000000E+00 0.  1.
         11    1    1    2    0    0  0.42130665852E+01 -0.30841691076E+02  0.48664925831E+02  0.57768805117E+02  0.00000000000E+00 0. -1.
</event>
<event>
 6    1  0.9216756E-006  0.1214350E+03  0.7561462E-02  0.1240748E+00
         -1   -1    0    0    0  501 -0.00000000000E+00  0.00000000000E+00  0.52291184418E+02  0.52291184418E+02  0.00000000000E+00 0.  1.
          1   -1    0    0  501    0  0.00000000000E+00 -0.00000000000E+00 -0.39868461648E+03  0.39868461648E+03  0.00000000000E+00 0. -1.
          5    1    1    2  502    0 -0.20622753735E+02  0.77892811651E+02 -0.17708782758E+02  0.82605456631E+02  0.41800000000E+01 0.  1.
         -5    1    1    2    0  502 -0.36915703531E+02 -0.27734652008E+02 -0.83437904013E+02  0.95453320085E+02  0.41800000000E+01 0.  1.
        -11    1    1    2    0    0  0.77295657457E+02 -0.20122991777E+02 -0.13392483192E+03  0.15593400547E+03  0.00000000000E+00 0.  1.
         11    1    1    2    0    0 -0.19757200190E+02 -0.30035167866E+02 -0.11132191338E+03  0.11698301871E+03  0.00000000000E+00 0. -1.
</event>
<event>
 6    1  0.9216756E-006  0.1313896E+03  0.7561462E-02  0.1225408E+00
         -2   -1    0    0    0  501 -0.00000000000E+00  0.00000000000E+00  0.21589088754E+03  0.21589088754E+03  0.00000000000E+00 0. -1.
          2   -1    0    0  501    0  0.00000000000E+00 -0.00000000000E+00 -0.11428061542E+03  0.11428061542E+03  0.00000000000E+00 0.  1.
          5    1    1    2  502    0 -0.20339638603E+02  0.11390415888E+03  0.12974349369E+03  0.17389279704E+03  0.41800000000E+01 0. -1.
         -5    1    1    2    0  502  0.48546520660E+01 -0.21992943035E+02 -0.77067933964E+01  0.24168662654E+02  0.41800000000E+01 0. -1.
        -11    1    1    2    0    0 -0.32895838565E+02 -0.24052980404E+02 -0.26402182210E+02  0.48556742958E+02  0.00000000000E+00 0.  1.
         11    1    1    2    0    0  0.48380825103E+02 -0.67858235443E+02  0.59757540360E+01  0.83553300302E+02  0.00000000000E+00 0. -1.
</event>
<event>
 6    1  0.9216756E-006  0.1154813E+03  0.7561462E-02  0.1250743E+00
          3   -1    0    0  501    0  0.00000000000E+00  0.00000000000E+00  0.17385143314E+03  0.17385143314E+03  0.00000000000E+00 0. -1.
         -3   -1    0    0    0  501 -0.00000000000E+00 -0.00000000000E+00 -0.94492409707E+02  0.94492409707E+02  0.00000000000E+00 0.  1.
          5    1    1    2  502    0  0.17791627364E+02  0.37446262872E+02  0.46426100020E+02  0.62382848367E+02  0.41800000000E+01 0. -1.
         -5    1    1    2    0  502  0.13480666583E+02 -0.81165776134E+02  0.29066428982E+01  0.82435020228E+02  0.41800000000E+01 0. -1.
        -11    1    1    2    0    0 -0.54815036401E+02  0.57654176801E+02  0.45951590332E+02  0.91870784106E+02  0.00000000000E+00 0.  1.
         11    1    1    2    0    0  0.23542742455E+02 -0.13934663539E+02 -0.15925309819E+02  0.31655190144E+02  0.00000000000E+00 0. -1.
</event>
<event>
 6    1  0.9216756E-006  0.1547342E+03  0.7561462E-02  0.1194773E+00
         -2   -1    0    0    0  501 -0.00000000000E+00  0.00000000000E+00  0.34127881242E+02  0.34127881242E+02  0.00000000000E+00 0.  1.
          2   -1    0    0  501    0  0.00000000000E+00 -0.00000000000E+00 -0.12222823180E+04  0.12222823180E+04  0.00000000000E+00 0. -1.
          5    1    1    2  502    0 -0.20928803891E+01  0.98597597189E+02 -0.29778533176E+03  0.31371873156E+03  0.41800000000E+01 0.  1.
         -5    1    1    2    0  502  0.33744897814E+02  0.39495377433E+02 -0.19607761514E+02  0.55682489875E+02  0.41800000000E+01 0.  1.
        -11    1    1    2    0    0 -0.18664466082E+02  0.12414309422E+01 -0.35702835772E+02  0.40306276522E+02  0.00000000000E+00 0.  1.
         11    1    1    2    0    0 -0.12987551342E+02 -0.13933440556E+03 -0.83505850772E+03  0.84670270130E+03  0.00000000000E+00 0. -1.
</event>
<event>
 6    1  0.9216756E-006  0.1528759E+03  0.7561462E-02  0.1196983E+00
         -1   -1    0    0    0  501 -0.00000000000E+00  0.00000000000E+00  0.74837243431E+02  0.74837243431E+02  0.00000000000E+00 0.  1.
          1   -1    0    0  501    0  0.00000000000E+00 -0.00000000000E+00 -0.41387162776E+03  0.41387162776E+03  0.00000000000E+00 0. -1.
          5    1    1    2  502    0  0.73808811044E+02 -0.72484344830E+02 -0.16508890916E+03  0.19486800959E+03  0.41800000000E+01 0. -1.
         -5    1    1    2    0  502 -0.84638181882E+02  0.84977240692E+02 -0.33028571036E+02  0.12447133073E+03  0.41800000000E+01 0.  1.
        -11    1    1    2    0    0 -0.15596028129E+02 -0.40682917190E+02 -0.32742535985E+02  0.54501463349E+02  0.00000000000E+00 0.  1.
         11    1    1    2    0    0  0.26425398968E+02  0.28190021328E+02 -0.10817436815E+03  0.11486806753E+03  0.00000000000E+00 0. -1.
</event>
<event>
 6    1  0.9216756E-006  0.1858035E+03  0.7561462E-02  0.1162302E+00
          1   -1    0    0  501    0  0.00000000000E+00  0.00000000000E+00  0.38138431062E+03  0.38138431062E+03  0.00000000000E+00 0. -1.
         -1   -1    0    0    0  501 -0.00000000000E+00 -0.00000000000E+00 -0.14042527320E+03  0.14042527320E+03  0.00000000000E+00 0.  1.
          5    1    1    2  502    0  0.67431230688E+01  0.14133710848E+02  0.18075014239E+02  0.24277768241E+02  0.41800000000E+01 0.  1.
         -5    1    1    2    0  502 -0.93338731914E+02 -0.15981765901E+03 -0.21744934627E+02  0.18639774030E+03  0.41800000000E+01 0.  1.
        -11    1    1    2    0    0  0.13196359526E+02  0.12359589900E+02 -0.50086723367E+01  0.18761400956E+02  0.00000000000E+00 0.  1.
         11    1    1    2    0    0  0.73399249319E+02  0.13332435826E+03  0.24963763015E+03  0.29237267433E+03  0.00000000000E+00 0. -1.
</event>
<event>
 6    1  0.9216756E-006  0.1088472E+03  0.7561462E-02  0.1262720E+00
         -3   -1    0    0    0  501 -0.00000000000E+00  0.00000000000E+00  0.25176168632E+02  0.25176168632E+02  0.00000000000E+00 0.  1.
          3   -1    0    0  501    0  0.00000000000E+00 -0.00000000000E+00 -0.64776243434E+03  0.64776243434E+03  0.00000000000E+00 0. -1.
          5    1    1    2  502    0 -0.26387433841E+02  0.39742727321E+02 -0.10036202296E+03  0.11120156965E+03  0.41800000000E+01 0.  1.
         -5    1    1    2    0  502  0.57418748570E+02 -0.52556130566E+02 -0.90334656341E+02  0.11931840631E+03  0.41800000000E+01 0.  1.
        -11    1    1    2    0    0  0.11102942171E+02 -0.29876778397E+02 -0.94273693941E+02  0.99515961440E+02  0.00000000000E+00 0.  1.
         11    1    1    2    0    0 -0.42134256901E+02  0.42690181642E+02 -0.33761589247E+03  0.34290266558E+03  0.00000000000E+00 0. -1.
</event>
<event>
 6    1  0.9216756E-006  0.1282399E+03  0.7561462E-02  0.1230091E+00
          2   -1    0    0  501    0  0.00000000000E+00  0.00000000000E+00  0.49824480108E+02  0.49824480108E+02  0.00000000000E+00 0. -1.
         -2   -1    0    0    0  501 -0.00000000000E+00 -0.00000000000E+00 -0.57307590970E+03  0.57307590970E+03  0.00000000000E+00 0.  1.
          5    1    1    2  502    0  0.38262415459E+02 -0.13076241580E+02 -0.21992129600E+03  0.22364670658E+03  0.41800000000E+01 0. -1.
         -5    1    1    2    0  502 -0.29790716097E+02  0.90887988790E+02 -0.25027110955E+03  0.26795748534E+03  0.41800000000E+01 0.  1.
        -11    1    1    2    0    0 -0.48691199891E+02 -0.56462125280E+02 -0.33546542740E+02  0.81756804413E+02  0.00000000000E+00 0. -1.
         11    1    1    2    0    0  0.40219500529E+02 -0.21349621930E+02 -0.19512481297E+02  0.49539393474E+02  0.00000000000E+00 0.  1.
</event>
<event>
 6    1  0.9216756E-006  0.7027082E+02  0.7561462E-02  0.1359175E+00
          1   -1    0    0  501    0  0.00000000000E+00  0.00000000000E+00  0.27066372049E+02  0.27066372049E+02  0.00000000000E+00 0. -1.
         -1   -1    0    0    0  501 -0.00000000000E+00 -0.00000000000E+00 -0.56695546301E+03  0.56695546301E+03  0.00000000000E+00 0.  1.
          5    1    1    2  502    0  0.17357411888E+02  0.11463566569E+02 -0.31376654454E+01  0.21447854214E+02  0.41800000000E+01 0.  1.
         -5    1    1    2    0  502  0.16531459758E+02 -0.36773496392E+02 -0.41653909284E+03  0.41850671137E+03  0.41800000000E+01 0.  1.
        -11    1    1    2    0    0 -0.23920939296E+02  0.48207885771E+02 -0.11713326015E+03  0.12890466330E+03  0.00000000000E+00 0.  1.
         11    1    1    2    0    0 -0.99679323502E+01 -0.22897955948E+02 -0.30790725279E+01  0.25162606176E+02  0.00000000000E+00 0. -1.
</event>
<event>
 6    1  0.9216756E-006  0.1383759E+03  0.7561462E-02  0.1215531E+00
          2   -1    0    0  501    0  0.00000000000E+00  0.00000000000E+00  0.10578515568E+04  0.10578515568E+04  0.00000000000E+00 0. -1.
         -2   -1    0    0    0  501 -0.00000000000E+00 -0.00000000000E+00 -0.21995690067E+02  0.21995690067E+02  0.00000000000E+00 0.  1.
          5    1    1    2  502    0  0.96975449347E+02 -0.56416061633E+02  0.24075252643E+03  0.26564310864E+03  0.41800000000E+01 0.  1.
         -5    1    1    2    0  502 -0.32208536184E+02 -0.22470247112E+02  0.19725985647E+03  0.20117461366E+03  0.41800000000E+01 0.  1.
        -11    1    1    2    0    0 -0.30082147752E+02  0.84642237139E+02  0.51879715834E+03  0.52651660508E+03  0.00000000000E+00 0.  1.
         11    1    1    2    0    0 -0.34684765410E+02 -0.57559283929E+01  0.79046325468E+02  0.86512919458E+02  0.00000000000E+00 0. -1.
</event>
<event>
 6    1  0.9216756E-006  0.1525316E+03  0.7561462E-02  0.1197396E+00
          2   -1    0    0  501    0  0.00000000000E+00  0.00000000000E+00  0.95099492158E+03  0.95099492158E+03  0.00000000000E+00 0.  1.
         -2   -1    0    0    0  501 -0.00000000000E+00 -0.00000000000E+00 -0.33360121250E+02  0.33360121250E+02  0.00000000000E+00 0. -1.
          5    1    1    2  502    0 -0.52121456283E+02  0.34192552267E+02  0.34169528196E+03  0.34735992134E+03  0.41800000000E+01 0.  1.
         -5    1    1    2    0  502 -0.73019684168E+02  0.27886516066E+02  0.69929284628E+02  0.10496241853E+03  0.41800000000E+01 0.  1.
        -11    1    1    2    0    0 -0.93102360772E+00 -0.35444928072E+02  0.10428214254E+03  0.11014524495E+03  0.00000000000E+00 0. -1.
         11    1    1    2    0    0  0.12607216406E+03 -0.26634140260E+02  0.40172809120E+03  0.42188745802E+03  0.00000000000E+00 0.  1.
</event>
<event>
 6    1  0.9216756E-006  0.1035110E+03  0.7561462E-02  0.1273081E+00
         -1   -1    0    0    0  501 -0.00000000000E+00  0.00000000000E+00  0.20219284910E+04  0.20219284910E+04  0.00000000000E+00 0. -1.
          1   -1    0    0  501    0  0.00000000000E+00 -0.00000000000E+00 -0.84475674158E+01  0.84475674158E+01  0.00000000000E+00 0.  1.
          5    1    1    2  502    0 -0.54234938728E+02  0.32895378535E+02  0.12004931208E+04  0.12021750039E+04  0.41800000000E+01 0. -1.
         -5    1    1    2    0  502  0.52565123876E+02 -0.86895880051E+01  0.43412976788E+03  0.43740682316E+03  0.41800000000E+01 0. -1.
        -11    1    1    2    0    0  0.43842145775E+02 -0.17960984575E+02  0.13117649763E+03  0.13947044218E+03  0.00000000000E+00 0.  1.
         11    1    1    2    0    0 -0.42172330923E+02 -0.62448059547E+01  0.24768153724E+03  0.25132378914E+03  0.00000000000E+00 0. -1.
</event>
<event>
 6    1  0.9216756E-006  0.1198207E+03  0.7561462E-02  0.1243393E+00
          3   -1    0    0  501    0  0.00000000000E+00  0.00000000000E+00  0.39389720602E+03  0.39389720602E+03  0.00000000000E+00 0. -1.
         -3   -1    0    0    0  501 -0.00000000000E+00 -0.00000000000E+00 -0.53079896869E+02  0.53079896869E+02  0.00000000000E+00 0.  1.
          5    1    1    2  502    0  0.78226199743E+02 -0.51505974816E+02  0.60902607887E+02  0.11179804925E+03  0.41800000000E+01 0. -1.
         -5    1    1    2    0  502 -0.47698587253E+02 -0.11543485615E+02  0.23513449813E+02  0.54578035950E+02  0.41800000000E+01 0. -1.
        -11    1    1    2    0    0 -0.37571837816E+02  0.74358404735E+02  0.25367000670E+03  0.26700053867E+03  0.00000000000E+00 0. -1.
         11    1    1    2    0    0  0.70442253266E+01 -0.11308944305E+02  0.27312447537E+01  0.13600479023E+02  0.00000000000E+00 0.  1.
</event>
<event>
 6    1  0.9216756E-006  0.1307382E+03  0.7561462E-02  0.1226365E+00
         -4   -1    0    0    0  501 -0.00000000000E+00  0.00000000000E+00  0.92002616270E+02  0.92002616270E+02  0.00000000000E+00 0.  1.
          4   -1    0    0  501    0  0.00000000000E+00 -0.00000000000E+00 -0.24988807587E+03  0.24988807587E+03  0.00000000000E+00 0. -1.
          5    1    1    2  502    0 -0.28942541255E+02 -0.22449024850E+02  0.12541996111E+02  0.38941025634E+02  0.41800000000E+01 0. -1.
         -5    1    1    2    0  502 -0.42009142726E+02  0.10052587412E+03 -0.54900652677E+02  0.12207282050E+03  0.41800000000E+01 0.  1.
        -11    1    1    2    0    0  0.54782218286E+02 -0.82302104166E+02 -0.12674740643E+03  0.16074710830E+03  0.00000000000E+00 0. -1.
         11    1    1    2    0    0  0.16169465694E+02  0.42252548991E+01  0.11220603394E+02  0.20129737711E+02  0.00000000000E+00 0.  1.
</event>
<event>
 6    1  0.9216756E-006  0.9745106E+02  0.7561462E-02  0.1285749E+00
          2   -1    0    0  501    0  0.00000000000E+00  0.00000000000E+00  0.14642804577E+03  0.14642804577E+03  0.00000000000E+00 0. -1.
         -2   -1    0    0    0  501 -0.00000000000E+00 -0.00000000000E+00 -0.10414728912E+03  0.10414728912E+03  0.00000000000E+00 0.  1.
          5    1    1    2  502    0 -0.49152582949E+02 -0.25559115222E+02 -0.33606255033E+02  0.64931483572E+02  0.41800000000E+01 0. -1.
         -5    1    1    2    0  502  0.64157016746E+02  0.12840040757E+02  0.19880658185E+01  0.65592791145E+02  0.41800000000E+01 0. -1.
        -11    1    1    2    0    0  0.26748477534E+02 -0.69363234736E+01  0.68158848746E+02  0.73547415292E+02  0.00000000000E+00 0. -1.
         11    1    1    2    0    0 -0.41752911332E+02  0.19655397938E+02  0.57400971129E+01  0.46503644886E+02  0.00000000000E+00 0.  1.
</event>
<event>
 6    1  0.9216756E-006  0.1111542E+03  0.7561462E-02  0.1258447E+00
         -2   -1    0    0    0  501 -0.00000000000E+00  0.00000000000E+00  0.26694058583E+03  0.26694058583E+03  0.00000000000E+00 0.  1.
          2   -1    0    0  501    0  0.00000000000E+00 -0.00000000000E+00 -0.80733064514E+02  0.80733064514E+02  0.00000000000E+00 0. -1.
          5    1    1    2  502    0 -0.22398409116E+02 -0.62467000990E+02  0.85938487831E+02  0.10865869056E+03  0.41800000000E+01 0.  1.
         -5    1    1    2    0  502  0.74979946339E+02  0.16288351431E+02  0.10059059844E+03  0.12658295162E+03  0.41800000000E+01 0.  1.
        -11    1    1    2    0    0  0.49463945274E+01  0.96042638569E+01 -0.34515626645E+02  0.36166796731E+02  0.00000000000E+00 0. -1.
         11    1    1    2    0    0 -0.57527931751E+02  0.36574385702E+02  0.34194061695E+02  0.76265211441E+02  0.00000000000E+00 0.  1.
</event>
<event>
 6    1  0.9216756E-006  0.1155272E+03  0.7561462E-02  0.1250664E+00
          1   -1    0    0  501    0  0.00000000000E+00  0.00000000000E+00  0.50142068423E+03  0.50142068423E+03  0.00000000000E+00 0. -1.
         -1   -1    0    0    0  501 -0.00000000000E+00 -0.00000000000E+00 -0.52309571006E+02  0.52309571006E+02  0.00000000000E+00 0.  1.
          5    1    1    2  502    0 -0.31102816622E+01  0.15518719482E+01  0.11378947991E+03  0.11391927096E+03  0.41800000000E+01 0. -1.
         -5    1    1    2    0  502 -0.87465708585E+02 -0.66384966103E+02  0.51334601797E+02  0.12128449054E+03  0.41800000000E+01 0. -1.
        -11    1    1    2    0    0  0.25427775504E+02  0.24699608856E+01  0.59535250783E+01  0.26231983049E+02  0.00000000000E+00 0.  1.
         11    1    1    2    0    0  0.65148214743E+02  0.62363133270E+02  0.27803350644E+03  0.29229451069E+03  0.00000000000E+00 0. -1.
</event>
<event>
 6    1  0.9216756E-006  0.1098204E+03  0.7561462E-02  0.1260903E+00
         -1   -1    0    0    0  501 -0.00000000000E+00  0.00000000000E+00  0.64950860496E+02  0.64950860496E+02  0.00000000000E+00 0.  1.
          1   -1    0    0  501    0  0.00000000000E+00 -0.00000000000E+00 -0.21043958526E+03  0.21043958526E+03  0.00000000000E+00 0. -1.
          5    1    1    2  502    0  0.21312211520E+02 -0.59672059348E+02 -0.10915380517E+02  0.64432778603E+02  0.41800000000E+01 0.  1.
         -5    1    1    2    0  502  0.62035801969E+01  0.62865159161E+02 -0.30048578073E+02  0.70077828789E+02  0.41800000000E+01 0.  1.
        -11    1    1    2    0    0  0.18848547380E+02  0.30265210665E+02 -0.27895254614E+02  0.45270254527E+02  0.00000000000E+00 0.  1.
         11    1    1    2    0    0 -0.46364339097E+02 -0.33458310477E+02 -0.76629511561E+02  0.95609583840E+02  0.00000000000E+00 0. -1.
</event>
<event>
 6    1  0.9216756E-006  0.1540519E+03  0.7561462E-02  0.1195581E+00
         -1   -1    0    0    0  501 -0.00000000000E+00  0.00000000000E+00  0.53193830628E+02  0.53193830628E+02  0.00000000000E+00 0.  1.
          1   -1    0    0  501    0  0.00000000000E+00 -0.00000000000E+00 -0.48344687909E+03  0.48344687909E+03  0.00000000000E+00 0. -1.
          5    1    1    2  502    0 -0.61016155814E+02 -0.40475556646E+02 -0.47057671728E+02  0.87138618445E+02  0.41800000000E+01 0.  1.
         -5    1    1    2    0  502  0.49582625430E+02 -0.72685246780E+02 -0.13613789146E+03  0.16214986813E+03  0.41800000000E+01 0.  1.
        -11    1    1    2    0    0  0.50885983107E+02  0.45028776942E+02 -0.11874236534E+03  0.13680907629E+03  0.00000000000E+00 0.  1.
         11    1    1    2    0    0 -0.39452452723E+02  0.68132026484E+02 -0.12831511993E+03  0.15054314684E+03  0.00000000000E+00 0. -1.
</event>
<event>
 6    1  0.9216756E-006  0.1074382E+03  0.7561462E-02  0.1265389E+00
          1   -1    0    0  501    0  0.00000000000E+00  0.00000000000E+00  0.86578503804E+02  0.86578503804E+02  0.00000000000E+00 0. -1.
         -1   -1    0    0    0  501 -0.00000000000E+00 -0.00000000000E+00 -0.21322153952E+03  0.21322153952E+03  0.00000000000E+00 0.  1.
          5    1    1    2  502    0 -0.63000996614E+02 -0.59626883078E+02 -0.49580681049E+02  0.10000103546E+03  0.41800000000E+01 0. -1.
         -5    1    1    2    0  502  0.14555951739E+02  0.32701096452E+02 -0.83099747976E+02  0.90577469350E+02  0.41800000000E+01 0. -1.
        -11    1    1    2    0    0 -0.43827355622E+01 -0.20523268623E+02  0.27911073478E+02  0.34920494680E+02  0.00000000000E+00 0. -1.
         11    1    1    2    0    0  0.52827780438E+02  0.47449055250E+02 -0.21873680164E+02  0.74301043829E+02  0.00000000000E+00 0.  1.
</event>
<event>
 6    1  0.9216756E-006  0.2132462E+03  0.7561462E-02  0.1139021E+00
          2   -1    0    0  501    0  0.00000000000E+00  0.00000000000E+00  0.36785614255E+03  0.36785614255E+03  0.00000000000E+00 0. -1.
         -2   -1    0    0    0  501 -0.00000000000E+00 -0.00000000000E+00 -0.21316468470E+03  0.21316468470E+03  0.00000000000E+00 0.  1.
          5    1    1    2  502    0 -0.10809797678E+03 -0.16023265064E+03 -0.77120247259E+02  0.20814581392E+03  0.41800000000E+01 0.  1.
         -5    1    1    2    0  502  0.29531423677E+02 -0.12115208817E+02 -0.24980014476E+02  0.40747475901E+02  0.41800000000E+01 0.  1.
        -11    1    1    2    0    0 -0.70844032155E+01  0.56253064231E+02  0.12269009153E+03  0.13515714766E+03  0.00000000000E+00 0.  1.
         11    1    1    2    0    0  0.85650956317E+02  0.11609479522E+03  0.13410162806E+03  0.19697038976E+03  0.00000000000E+00 0. -1.
</event>
<event>
 6    1  0.9216756E-006  0.9108438E+02  0.7561462E-02  0.1300247E+00
          2   -1    0    0  501    0  0.00000000000E+00  0.00000000000E+00  0.69442258457E+02  0.69442258457E+02  0.00000000000E+00 0. -1.
         -2   -1    0    0    0  501 -0.00000000000E+00 -0.00000000000E+00 -0.25482317260E+03  0.25482317260E+03  0.00000000000E+00 0.  1.
          5    1    1    2  502    0 -0.40531737166E+02  0.45945902571E+02 -0.15998287575E+03  0.17136464225E+03  0.41800000000E+01 0.  1.
         -5    1    1    2    0  502  0.70412473744E+01 -0.48491260471E+02 -0.27022417024E+02  0.56112965779E+02  0.41800000000E+01 0.  1.
        -11    1    1    2    0    0  0.51875673538E+02 -0.40835976033E+01 -0.29663727649E+02  0.59897395706E+02  0.00000000000E+00 0. -1.
         11    1    1    2    0    0 -0.18385183747E+02  0.66289555037E+01  0.31288106286E+02  0.36890427314E+02  0.00000000000E+00 0.  1.
</event>
<event>
 6    1  0.9216756E-006  0.1065847E+03  0.7561462E-02  0.1267028E+00
         -2   -1    0    0    0  501 -0.00000000000E+00  0.00000000000E+00  0.11476268702E+03  0.11476268702E+03  0.00000000000E+00 0.  1.
          2   -1    0    0  501    0  0.00000000000E+00 -0.00000000000E+00 -0.14317792926E+03  0.14317792926E+03  0.00000000000E+00 0. -1.
          5    1    1    2  502    0 -0.34320428238E+02  0.34588873794E+02  0.87960289909E+01  0.49690285879E+02  0.41800000000E+01 0. -1.
         -5    1    1    2    0  502  0.90400710702E+02  0.31477504813E+01 -0.21453590280E+02  0.93058722130E+02  0.41800000000E+01 0. -1.
        -11    1    1    2    0    0 -0.77102803336E+01 -0.21256240474E+02  0.35965564042E+02  0.42482913963E+02  0.00000000000E+00 0.  1.
         11    1    1    2    0    0 -0.48370002131E+02 -0.16480383801E+02 -0.51723244991E+02  0.72708694314E+02  0.00000000000E+00 0. -1.
</event>
<event>
 6    1  0.9216756E-006  0.1268850E+03  0.7561462E-02  0.1232152E+00
          1   -1    0    0  501    0  0.00000000000E+00  0.00000000000E+00  0.94641253684E+02  0.94641253684E+02  0.00000000000E+00 0. -1.
         -1   -1    0    0    0  501 -0.00000000000E+00 -0.00000000000E+00 -0.43150178272E+03  0.43150178272E+03  0.00000000000E+00 0.  1.
          5    1    1    2  502    0 -0.49344816636E+02  0.27909259837E+02 -0.31415557654E+03  0.31925700679E+03  0.41800000000E+01 0. -1.
         -5    1    1    2    0  502 -0.22936542446E+02  0.51237979046E+02 -0.33637738224E+02  0.65577323130E+02  0.41800000000E+01 0. -1.
        -11    1    1    2    0    0  0.14477368022E+02  0.20699865995E+02  0.52279439652E+01  0.25795542932E+02  0.00000000000E+00 0.  1.
         11    1    1    2    0    0  0.57803991061E+02 -0.99847104877E+02  0.57048417608E+01  0.11551316355E+03  0.00000000000E+00 0. -1.
</event>
<event>
 6    1  0.9216756E-006  0.1103565E+03  0.7561462E-02  0.1259911E+00
         -2   -1    0    0    0  501 -0.00000000000E+00  0.00000000000E+00  0.11483457079E+03  0.11483457079E+03  0.00000000000E+00 0.  1.
          2   -1    0    0  501    0  0.00000000000E+00 -0.00000000000E+00 -0.36801494914E+03  0.36801494914E+03  0.00000000000E+00 0. -1.
          5    1    1    2  502    0  0.64078343703E+02  0.65154621863E+00  0.19762200945E+02  0.67189847673E+02  0.41800000000E+01 0. -1.
         -5    1    1    2    0  502 -0.59055291540E+02  0.13738729794E+02  0.49693380718E+02  0.78505952911E+02  0.41800000000E+01 0.  1.
        -11    1    1    2    0    0  0.56380314951E+01  0.39948351922E+02 -0.10235026799E+03  0.11001470619E+03  0.00000000000E+00 0.  1.
         11    1    1    2    0    0 -0.10661083658E+02 -0.54338627934E+02 -0.22028569202E+03  0.22713901316E+03  0.00000000000E+00 0. -1.
</event>
<event>
 6    1  0.9216756E-006  0.1138254E+03  0.7561462E-02  0.1253645E+00
          1   -1    0    0  501    0  0.00000000000E+00  0.00000000000E+00  0.13804356459E+02  0.13804356459E+02  0.00000000000E+00 0. -1.
         -1   -1    0    0    0  501 -0.00000000000E+00 -0.00000000000E+00 -0.11715952508E+04  0.11715952508E+04  0.00000000000E+00 0.  1.
          5    1    1    2  502    0  0.30440962926E+02  0.21310658624E+02 -0.12600058338E+03  0.13143217189E+03  0.41800000000E+01 0.  1.
         -5    1    1    2    0  502 -0.58923924068E+02 -0.67620742105E+02 -0.70364310971E+03  0.70934878010E+03  0.41800000000E+01 0.  1.
        -11    1    1    2    0    0 -0.24509628441E+02  0.40256950194E+02 -0.20619104384E+03  0.21150907896E+03  0.00000000000E+00 0.  1.
         11    1    1    2    0    0  0.52992589583E+02  0.60531332869E+01 -0.12195615743E+03  0.13310957632E+03  0.00000000000E+00 0. -1.
</event>
<event>
 6    1  0.9216756E-006  0.7863677E+02  0.7561462E-02  0.1332965E+00
         -3   -1    0    0    0  501 -0.00000000000E+00  0.00000000000E+00  0.91637230601E+02  0.91637230601E+02  0.00000000000E+00 0.  1.
          3   -1    0    0  501    0  0.00000000000E+00 -0.00000000000E+00 -0.13473250069E+03  0.13473250069E+03  0.00000000000E+00 0. -1.
          5    1    1    2  502    0 -0.32920619659E+02  0.34997100329E+02  0.11747772599E+02  0.49639165900E+02  0.41800000000E+01 0.  1.
         -5    1    1    2    0  502  0.58653482802E+02 -0.39154479105E+02 -0.40206360796E+02  0.81285473039E+02  0.41800000000E+01 0.  1.
        -11    1    1    2    0    0 -0.13091085005E+02 -0.12085313121E+02 -0.50800528153E+02  0.53834235952E+02  0.00000000000E+00 0. -1.
         11    1    1    2    0    0 -0.12641778138E+02  0.16242691897E+02  0.36163846257E+02  0.41610856404E+02  0.00000000000E+00 0.  1.
</event>
<event>
 6    1  0.9216756E-006  0.1087370E+03  0.7561462E-02  0.1262927E+00
         -1   -1    0    0    0  501 -0.00000000000E+00  0.00000000000E+00  0.27679945377E+03  0.27679945377E+03  0.00000000000E+00 0.  1.
          1   -1    0    0  501    0  0.00000000000E+00 -0.00000000000E+00 -0.48459509192E+02  0.48459509192E+02  0.00000000000E+00 0. -1.
          5    1    1    2  502    0  0.46917399900E+02 -0.34651246504E+02  0.11135438808E+03  0.12577449441E+03  0.41800000000E+01 0. -1.
         -5    1    1    2    0  502 -0.23878328283E+02  0.61072488743E+02  0.57793683579E+02  0.87507746540E+02  0.41800000000E+01 0. -1.
        -11    1    1    2    0    0  0.13818019188E+02 -0.48429674099E+02  0.21168120960E+02  0.54630214466E+02  0.00000000000E+00 0. -1.
         11    1    1    2    0    0 -0.36857090806E+02  0.22008431859E+02  0.38023751957E+02  0.57346507552E+02  0.00000000000E+00 0.  1.
</event>
<event>
 6    1  0.9216756E-006  0.9393537E+02  0.7561462E-02  0.1293592E+00
          2   -1    0    0  501    0  0.00000000000E+00  0.00000000000E+00  0.56572864978E+03  0.56572864978E+03  0.00000000000E+00 0.  1.
         -2   -1    0    0    0  501 -0.00000000000E+00 -0.00000000000E+00 -0.23197452099E+02  0.23197452099E+02  0.00000000000E+00 0. -1.
          5    1    1    2  502    0 -0.37454565490E+02  0.50328511514E+02  0.55701595161E+02  0.83999664588E+02  0.41800000000E+01 0.  1.
         -5    1    1    2    0  502  0.15753204619E+02 -0.23605406852E+02  0.20718186349E+03  0.20915825504E+03  0.41800000000E+01 0.  1.
        -11    1    1    2    0    0  0.55519443423E+02 -0.28575076140E+02  0.18051429019E+03  0.19100877607E+03  0.00000000000E+00 0.  1.
         11    1    1    2    0    0 -0.33818082551E+02  0.18519714771E+01  0.99133448831E+02  0.10475940618E+03  0.00000000000E+00 0. -1.
</event>
<event>
 6    1  0.9216756E-006  0.3506369E+03  0.7561462E-02  0.1062354E+00
          2   -1    0    0  501    0  0.00000000000E+00  0.00000000000E+00  0.10623870097E+03  0.10623870097E+03  0.00000000000E+00 0. -1.
         -2   -1    0    0    0  501 -0.00000000000E+00 -0.00000000000E+00 -0.12228917786E+04  0.12228917786E+04  0.00000000000E+00 0.  1.
          5    1    1    2  502    0  0.25395615395E+02 -0.37290180379E+02 -0.48615830351E+02  0.66456498514E+02  0.41800000000E+01 0. -1.
         -5    1    1    2    0  502  0.30982130988E+03 -0.80705130816E+01 -0.62461514114E+03  0.69729185007E+03  0.41800000000E+01 0. -1.
        -11    1    1    2    0    0 -0.19539424647E+03 -0.99428136455E+01 -0.20395896778E+03  0.28262524946E+03  0.00000000000E+00 0.  1.
         11    1    1    2    0    0 -0.13982267881E+03  0.55303507106E+02 -0.23946313834E+03  0.28275688149E+03  0.00000000000E+00 0. -1.
</event>
<event>
 6    1  0.9216756E-006  0.2866946E+03  0.7561462E-02  0.1092088E+00
          2   -1    0    0  501    0  0.00000000000E+00  0.00000000000E+00  0.15622008261E+04  0.15622008261E+04  0.00000000000E+00 0. -1.
         -2   -1    0    0    0  501 -0.00000000000E+00 -0.00000000000E+00 -0.65721865642E+02  0.65721865642E+02  0.00000000000E+00 0.  1.
          5    1    1    2  502    0 -0.60853576347E+00 -0.35982966281E+01 -0.61745139278E+01  0.83015105037E+01  0.41800000000E+01 0. -1.
         -5    1    1    2    0  502 -0.22891283338E+03  0.15898585293E+03  0.46514971640E+03  0.54227236495E+03  0.41800000000E+01 0. -1.
        -11    1    1    2    0    0  0.15146737415E+03 -0.14618891762E+03  0.79683237737E+03  0.82416952303E+03  0.00000000000E+00 0.  1.
         11    1    1    2    0    0  0.78053994992E+02 -0.91986386855E+01  0.24067138059E+03  0.25317929324E+03  0.00000000000E+00 0. -1.
</event>
<event>
 6    1  0.9216756E-006  0.1837217E+03  0.7561462E-02  0.1164249E+00
          2   -1    0    0  501    0  0.00000000000E+00  0.00000000000E+00  0.15029812112E+04  0.15029812112E+04  0.00000000000E+00 0. -1.
         -2   -1    0    0    0  501 -0.00000000000E+00 -0.00000000000E+00 -0.25677322600E+02  0.25677322600E+02  0.00000000000E+00 0.  1.
          5    1    1    2  502    0  0.68891147300E+02  0.76293256074E+02  0.62312481302E+03  0.63156049283E+03  0.41800000000E+01 0. -1.
         -5    1    1    2    0  502  0.86028664842E+02 -0.26588780451E+02  0.26302596503E+03  0.27804320725E+03  0.41800000000E+01 0. -1.
        -11    1    1    2    0    0 -0.64776894101E+02  0.11057627218E+02  0.13523762313E+03  0.15035801222E+03  0.00000000000E+00 0.  1.
         11    1    1    2    0    0 -0.90142918040E+02 -0.60762102841E+02  0.45591548745E+03  0.46869682152E+03  0.00000000000E+00 0. -1.
</event>
<event>
 6    1  0.9216756E-006  0.7999075E+02  0.7561462E-02  0.1329078E+00
          1   -1    0    0  501    0  0.00000000000E+00  0.00000000000E+00  0.63240122194E+03  0.63240122194E+03  0.00000000000E+00 0. -1.
         -1   -1    0    0    0  501 -0.00000000000E+00 -0.00000000000E+00 -0.26197077728E+02  0.26197077728E+02  0.00000000000E+00 0.  1.
          5    1    1    2  502    0 -0.29977693343E+02  0.33006305974E+02  0.20863057491E+03  0.21338291290E+03  0.41800000000E+01 0.  1.
         -5    1    1    2    0  502 -0.56372298434E+01 -0.13484651856E+02 -0.14562508652E+02  0.21051205529E+02  0.41800000000E+01 0.  1.
        -11    1    1    2    0    0 -0.29913548374E+02 -0.17028352904E+02  0.15778802005E+03  0.16149874443E+03  0.00000000000E+00 0. -1.
         11    1    1    2    0    0  0.65528471560E+02 -0.24933012145E+01  0.25434805790E+03  0.26266543681E+03  0.00000000000E+00 0.  1.
</event>
<event>
 6    1  0.9216756E-006  0.1238901E+03  0.7561462E-02  0.1236814E+00
          1   -1    0    0  501    0  0.00000000000E+00  0.00000000000E+00  0.23455456808E+02  0.23455456808E+02  0.00000000000E+00 0. -1.
         -1   -1    0    0    0  501 -0.00000000000E+00 -0.00000000000E+00 -0.82082592443E+03  0.82082592443E+03  0.00000000000E+00 0.  1.
          5    1    1    2  502    0  0.45984533396E+02 -0.48083021194E+02 -0.35554005365E+03  0.36173575492E+03  0.41800000000E+01 0. -1.
         -5    1    1    2    0  502 -0.79353524054E+02  0.24548549751E+02 -0.28749468360E+03  0.29928294066E+03  0.41800000000E+01 0.  1.
        -11    1    1    2    0    0 -0.15986459004E+02 -0.24383868265E+02 -0.35354235447E+02  0.45826431970E+02  0.00000000000E+00 0. -1.
         11    1    1    2    0    0  0.49355449662E+02  0.47918339708E+02 -0.11898149493E+03  0.13743625369E+03  0.00000000000E+00 0.  1.
</event>
<event>
 6    1  0.9216756E-006  0.1012656E+03  0.7561462E-02  0.1277657E+00
         -1   -1    0    0    0  501 -0.00000000000E+00  0.00000000000E+00  0.11295867305E+03  0.11295867305E+03  0.00000000000E+00 0.  1.
          1   -1    0    0  501    0  0.00000000000E+00 -0.00000000000E+00 -0.12401978778E+03  0.12401978778E+03  0.00000000000E+00 0. -1.
          5    1    1    2  502    0  0.70323389524E+01 -0.83002864719E+02 -0.15702769316E+01  0.83419826854E+02  0.41800000000E+01 0. -1.
         -5    1    1    2    0  502  0.12004560174E+02  0.42794637352E+02  0.25717896600E+02  0.51520608077E+02  0.41800000000E+01 0. -1.
        -11    1    1    2    0    0  0.17583044187E+02 -0.30080281750E+01  0.17263391750E+02  0.24824108667E+02  0.00000000000E+00 0.  1.
         11    1    1    2    0    0 -0.36619943313E+02  0.43216255542E+02 -0.52472126150E+02  0.77213917230E+02  0.00000000000E+00 0. -1.
</event>
<event>
 6    1  0.9216756E-006  0.2102196E+03  0.7561462E-02  0.1141392E+00
          2   -1    0    0  501    0  0.00000000000E+00  0.00000000000E+00  0.43144616883E+03  0.43144616883E+03  0.00000000000E+00 0.  1.
         -2   -1    0    0    0  501 -0.00000000000E+00 -0.00000000000E+00 -0.18637794276E+03  0.18637794276E+03  0.00000000000E+00 0. -1.
          5    1    1    2  502    0 -0.15406190790E+03  0.70304578360E+02 -0.81390446383E+02  0.18793531432E+03  0.41800000000E+01 0. -1.
         -5    1    1    2    0  502  0.10611952452E+02  0.46783788082E+02  0.45510165443E+01  0.48368590156E+02  0.41800000000E+01 0. -1.
        -11    1    1    2    0    0  0.13057832659E+03 -0.58819147536E+02  0.24960312371E+03  0.28777093470E+03  0.00000000000E+00 0.  1.
         11    1    1    2    0    0  0.12871628864E+02 -0.58269218906E+02  0.72304532201E+02  0.93749272415E+02  0.00000000000E+00 0. -1.
</event>
<event>
 6    1  0.9216756E-006  0.1170717E+03  0.7561462E-02  0.1248008E+00
         -1   -1    0    0    0  501 -0.00000000000E+00  0.00000000000E+00  0.13384429987E+04  0.13384429987E+04  0.00000000000E+00 0.  1.
          1   -1    0    0  501    0  0.00000000000E+00 -0.00000000000E+00 -0.15471777271E+02  0.15471777271E+02  0.00000000000E+00 0. -1.
          5    1    1    2  502    0 -0.98317147623E+01 -0.42282928953E+02  0.13967642985E+03  0.14632664198E+03  0.41800000000E+01 0. -1.
         -5    1    1    2    0  502 -0.45421404186E+02  0.68436210260E+02  0.90294814855E+03  0.90668597111E+03  0.41800000000E+01 0.  1.
        -11    1    1    2    0    0 -0.23145483866E+02 -0.18282021252E+02  0.59253105733E+02  0.66188188247E+02  0.00000000000E+00 0.  1.
         11    1    1    2    0    0  0.78398602814E+02 -0.78712600560E+01  0.22109353729E+03  0.23471397463E+03  0.00000000000E+00 0. -1.
</event>
<event>
 6    1  0.9216756E-006  0.1295565E+03  0.7561462E-02  0.1228115E+00
          2   -1    0    0  501    0  0.00000000000E+00  0.00000000000E+00  0.36841774888E+02  0.36841774888E+02  0.00000000000E+00 0. -1.
         -2   -1    0    0    0  501 -0.00000000000E+00 -0.00000000000E+00 -0.59153096691E+03  0.59153096691E+03  0.00000000000E+00 0.  1.
          5    1    1    2  502    0  0.52738301017E+02  0.77864997237E+02 -0.30736501478E+03  0.32145763469E+03  0.41800000000E+01 0.  1.
         -5    1    1    2    0  502  0.32137157154E+02 -0.41371585182E+02 -0.77507972963E+02  0.93644878147E+02  0.41800000000E+01 0.  1.
        -11    1    1    2    0    0 -0.76867060742E+02 -0.18751331737E+01 -0.15818542340E+03  0.17588260098E+03  0.00000000000E+00 0.  1.
         11    1    1    2    0    0 -0.80083974300E+01 -0.34618278881E+02 -0.11630780878E+02  0.37387627979E+02  0.00000000000E+00 0. -1.
</event>
<event>
 6    1  0.9216756E-006  0.1594809E+03  0.7561462E-02  0.1189284E+00
          1   -1    0    0  501    0  0.00000000000E+00  0.00000000000E+00  0.44389071337E+03  0.44389071337E+03  0.00000000000E+00 0. -1.
         -1   -1    0    0    0  501 -0.00000000000E+00 -0.00000000000E+00 -0.66816345678E+02  0.66816345678E+02  0.00000000000E+00 0.  1.
          5    1    1    2  502    0 -0.22669280713E+02  0.17376068255E+02  0.75588042485E+01  0.29840106530E+02  0.41800000000E+01 0.  1.
         -5    1    1    2    0  502  0.13641176654E+03  0.51211385071E+02  0.18335647662E+03  0.23423886512E+03  0.41800000000E+01 0.  1.
        -11    1    1    2    0    0  0.21972670003E+01 -0.17488962157E+02 -0.40479743453E+01  0.18085294466E+02  0.00000000000E+00 0.  1.
         11    1    1    2    0    0 -0.11593975283E+03 -0.51098491169E+02  0.19020706117E+03  0.22854279294E+03  0.00000000000E+00 0. -1.
</event>
<event>
 6    1  0.9216756E-006  0.1430227E+03  0.7561462E-02  0.1209319E+00
         -2   -1    0    0    0  501 -0.00000000000E+00  0.00000000000E+00  0.36304305766E+03  0.36304305766E+03  0.00000000000E+00 0.  1.
          2   -1    0    0  501    0  0.00000000000E+00 -0.00000000000E+00 -0.89829212675E+02  0.89829212675E+02  0.00000000000E+00 0. -1.
          5    1    1    2  502    0 -0.75961065262E+02  0.14497194306E+02  0.19949783879E+02  0.79973235244E+02  0.41800000000E+01 0. -1.
         -5    1    1    2    0  502 -0.58210602417E+02 -0.92901242856E+01  0.18947572962E+03  0.19847746763E+03  0.41800000000E+01 0. -1.
        -11    1    1    2    0    0  0.11377842461E+03 -0.29741892991E+02  0.18535628257E+02  0.11905326379E+03  0.00000000000E+00 0.  1.
         11    1    1    2    0    0  0.20393243072E+02  0.24534822970E+02  0.45252703227E+02  0.55368303663E+02  0.00000000000E+00 0. -1.
</event>
<event>
 6    1  0.9216756E-006  0.1267501E+03  0.7561462E-02  0.1232359E+00
         -2   -1    0    0    0  501 -0.00000000000E+00  0.00000000000E+00  0.28856992463E+02  0.28856992463E+02  0.00000000000E+00 0.  1.
          2   -1    0    0  501    0  0.00000000000E+00 -0.00000000000E+00 -0.81289071319E+03  0.81289071319E+03  0.00000000000E+00 0. -1.
          5    1    1    2  502    0  0.27808045683E+02 -0.10475432179E+03 -0.35734657120E+03  0.37344450684E+03  0.41800000000E+01 0.  1.
         -5    1    1    2    0  502 -0.12529654412E+02  0.17859375187E+01  0.53399811554E+01  0.14358607567E+02  0.41800000000E+01 0.  1.
        -11    1    1    2    0    0 -0.33120672035E+02  0.66885601442E+01 -0.18786356962E+03  0.19087806722E+03  0.00000000000E+00 0. -1.
         11    1    1    2    0    0  0.17842280765E+02  0.96279824130E+02 -0.24416356106E+03  0.26306652403E+03  0.00000000000E+00 0.  1.
</event>
<event>
 6    1  0.9216756E-006  0.9552567E+02  0.7561462E-02  0.1289997E+00
          1   -1    0    0  501    0  0.00000000000E+00  0.00000000000E+00  0.12212286619E+03  0.12212286619E+03  0.00000000000E+00 0. -1.
         -1   -1    0    0    0  501 -0.00000000000E+00 -0.00000000000E+00 -0.13820331212E+03  0.13820331212E+03  0.00000000000E+00 0.  1.
          5    1    1    2  502    0 -0.19873880071E+02 -0.79699237612E+02 -0.69359647221E+02  0.10758797631E+03  0.41800000000E+01 0.  1.
         -5    1    1    2    0  502 -0.11495739444E+02  0.20489285465E+02  0.31274291829E+02  0.39338487181E+02  0.41800000000E+01 0.  1.
        -11    1    1    2    0    0 -0.14415274020E+02  0.20054945341E+02 -0.26375267853E+02  0.36133858250E+02  0.00000000000E+00 0.  1.
         11    1    1    2    0    0  0.45784893535E+02  0.39155006805E+02  0.48380177311E+02  0.77265856564E+02  0.00000000000E+00 0. -1.
</event>
<event>
 6    1  0.9216756E-006  0.6290784E+02  0.7561462E-02  0.1386019E+00
         -1   -1    0    0    0  501 -0.00000000000E+00  0.00000000000E+00  0.89184699282E+02  0.89184699282E+02  0.00000000000E+00 0.  1.
          1   -1    0    0  501    0  0.00000000000E+00 -0.00000000000E+00 -0.17325570859E+03  0.17325570859E+03  0.00000000000E+00 0. -1.
          5    1    1    2  502    0  0.26582052782E+01 -0.12902509776E+02  0.60139539628E+02  0.61707191157E+02  0.41800000000E+01 0.  1.
         -5    1    1    2    0  502 -0.24396493129E+02  0.28297970108E+01 -0.60745282215E+02  0.65655604022E+02  0.41800000000E+01 0.  1.
        -11    1    1    2    0    0 -0.21050940276E+02 -0.24333410526E+02 -0.72175681029E+02  0.79022692224E+02  0.00000000000E+00 0.  1.
         11    1    1    2    0    0  0.42789228127E+02  0.34406123292E+02 -0.11289585692E+02  0.56054920469E+02  0.00000000000E+00 0. -1.
</event>
<event>
 6    1  0.9216756E-006  0.1534290E+03  0.7561462E-02  0.1196322E+00
         -3   -1    0    0    0  501 -0.00000000000E+00  0.00000000000E+00  0.40964265222E+02  0.40964265222E+02  0.00000000000E+00 0.  1.
          3   -1    0    0  501    0  0.00000000000E+00 -0.00000000000E+00 -0.61984509564E+03  0.61984509564E+03  0.00000000000E+00 0. -1.
          5    1    1    2  502    0 -0.87826170558E+01  0.28264561579E+02 -0.50162195800E+02  0.58392962685E+02  0.41800000000E+01 0. -1.
         -5    1    1    2    0  502  0.10036561183E+03 -0.96934971644E+02 -0.21440829492E+03  0.25584767753E+03  0.41800000000E+01 0. -1.
        -11    1    1    2    0    0  0.12125960345E+02  0.18608758814E+02 -0.17744261802E+02  0.28428570942E+02  0.00000000000E+00 0.  1.
         11    1    1    2    0    0 -0.10370895512E+03  0.50061651251E+02 -0.29656607790E+03  0.31814014971E+03  0.00000000000E+00 0. -1.
</event>
<event>
 6    1  0.9216756E-006  0.1738898E+03  0.7561462E-02  0.1173851E+00
          2   -1    0    0  501    0  0.00000000000E+00  0.00000000000E+00  0.75188256761E+02  0.75188256761E+02  0.00000000000E+00 0. -1.
         -2   -1    0    0    0  501 -0.00000000000E+00 -0.00000000000E+00 -0.79460387724E+03  0.79460387724E+03  0.00000000000E+00 0.  1.
          5    1    1    2  502    0 -0.15971672632E+01 -0.10439528275E+03 -0.37057688546E+03  0.38502678666E+03  0.41800000000E+01 0. -1.
         -5    1    1    2    0  502  0.79748785946E+02 -0.68513490829E+01 -0.30472482157E+03  0.31508966838E+03  0.41800000000E+01 0. -1.
        -11    1    1    2    0    0 -0.61321160100E+02  0.12013920164E+02 -0.93014923449E+01  0.63175443912E+02  0.00000000000E+00 0.  1.
         11    1    1    2    0    0 -0.16830458583E+02  0.99232711674E+02 -0.34812421109E+02  0.10650023505E+03  0.00000000000E+00 0. -1.
</event>
<event>
 6    1  0.9216756E-006  0.1708928E+03  0.7561462E-02  0.1176920E+00
         -1   -1    0    0    0  501 -0.00000000000E+00  0.00000000000E+00  0.73112793354E+02  0.73112793354E+02  0.00000000000E+00 0.  1.
          1   -1    0    0  501    0  0.00000000000E+00 -0.00000000000E+00 -0.70303362920E+03  0.70303362920E+03  0.00000000000E+00 0. -1.
          5    1    1    2  502    0  0.99490261003E+01  0.10091894032E+03 -0.98236596378E+01  0.10196858499E+03  0.41800000000E+01 0.  1.
         -5    1    1    2    0  502  0.31439510123E+02  0.63274757778E+02 -0.13856991324E+03  0.15559958555E+03  0.41800000000E+01 0.  1.
        -11    1    1    2    0    0 -0.88567214838E+01 -0.49879825388E+02 -0.50757784441E+02  0.71713256637E+02  0.00000000000E+00 0.  1.
         11    1    1    2    0    0 -0.32531814739E+02 -0.11431387271E+03 -0.43076947852E+03  0.44686499537E+03  0.00000000000E+00 0. -1.
</event>
<event>
 6    1  0.9216756E-006  0.1326334E+03  0.7561462E-02  0.1223600E+00
         -2   -1    0    0    0  501 -0.00000000000E+00  0.00000000000E+00  0.10663321830E+03  0.10663321830E+03  0.00000000000E+00 0.  1.
          2   -1    0    0  501    0  0.00000000000E+00 -0.00000000000E+00 -0.26065906873E+03  0.26065906873E+03  0.00000000000E+00 0. -1.
          5    1    1    2  502    0  0.42237231108E+02  0.48677141606E+01 -0.49640866904E+02  0.65493254613E+02  0.41800000000E+01 0. -1.
         -5    1    1    2    0  502 -0.81753514967E+01  0.10606413737E+03  0.18203692963E+02  0.10800594634E+03  0.41800000000E+01 0. -1.
        -11    1    1    2    0    0 -0.11260441208E+02 -0.31917120671E+02  0.12132806373E+02  0.35954208635E+02  0.00000000000E+00 0.  1.
         11    1    1    2    0    0 -0.22801438404E+02 -0.79014730857E+02 -0.13472148286E+03  0.15783887744E+03  0.00000000000E+00 0. -1.
</event>
<event>
 6    1  0.9216756E-006  0.1752576E+03  0.7561462E-02  0.1172473E+00
          1   -1    0    0  501    0  0.00000000000E+00  0.00000000000E+00  0.72172704228E+03  0.72172704228E+03  0.00000000000E+00 0. -1.
         -1   -1    0    0    0  501 -0.00000000000E+00 -0.00000000000E+00 -0.56643380469E+02  0.56643380469E+02  0.00000000000E+00 0.  1.
          5    1    1    2  502    0  0.64780663069E+02  0.11689394648E+03  0.26318394729E+03  0.29520161169E+03  0.41800000000E+01 0. -1.
         -5    1    1    2    0  502  0.78369305332E+01  0.29830954255E+02 -0.86159520213E+01  0.32295670626E+02  0.41800000000E+01 0. -1.
        -11    1    1    2    0    0 -0.38593166561E+02 -0.38208494066E+01  0.70060550596E+02  0.80078162724E+02  0.00000000000E+00 0.  1.
         11    1    1    2    0    0 -0.34024427041E+02 -0.14290405133E+03  0.34045511595E+03  0.37079497771E+03  0.00000000000E+00 0. -1.
</event>
<event>
 6    1  0.9216756E-006  0.1743698E+03  0.7561462E-02  0.1173366E+00
         -1   -1    0    0    0  501 -0.00000000000E+00  0.00000000000E+00  0.12498923939E+03  0.12498923939E+03  0.00000000000E+00 0.  1.
          1   -1    0    0  501    0  0.00000000000E+00 -0.00000000000E+00 -0.32962482326E+03  0.32962482326E+03  0.00000000000E+00 0. -1.
          5    1    1    2  502    0  0.35399911857E+02 -0.21312756519E+02 -0.70660798869E+01  0.42128247470E+02  0.41800000000E+01 0.  1.
         -5    1    1    2    0  502  0.43016753492E+02  0.14218554341E+03  0.49015287991E+01  0.14868983563E+03  0.41800000000E+01 0.  1.
        -11    1    1    2    0    0 -0.91321733160E+01 -0.74888445704E+02 -0.51202472365E+02  0.91177678550E+02  0.00000000000E+00 0.  1.
         11    1    1    2    0    0 -0.69284492034E+02 -0.45984341187E+02 -0.15126856042E+03  0.17261830100E+03  0.00000000000E+00 0. -1.
</event>
<event>
 6    1  0.9216756E-006  0.1418223E+03  0.7561462E-02  0.1210898E+00
          1   -1    0    0  501    0  0.00000000000E+00  0.00000000000E+00  0.35343533580E+02  0.35343533580E+02  0.00000000000E+00 0. -1.
         -1   -1    0    0    0  501 -0.00000000000E+00 -0.00000000000E+00 -0.68807797609E+03  0.68807797609E+03  0.00000000000E+00 0.  1.
          5    1    1    2  502    0 -0.27175578260E+02 -0.50311975011E+01 -0.15519768849E+03  0.15769470478E+03  0.41800000000E+01 0.  1.
         -5    1    1    2    0  502  0.10661584194E+03  0.66142335627E+02 -0.31568684181E+03  0.33973136565E+03  0.41800000000E+01 0.  1.
        -11    1    1    2    0    0 -0.30426477999E+02 -0.73545440981E+02 -0.13681742402E+03  0.15828363771E+03  0.00000000000E+00 0.  1.
         11    1    1    2    0    0 -0.49013785676E+02  0.12434302856E+02 -0.45032488191E+02  0.67711801531E+02  0.00000000000E+00 0. -1.
</event>
<event>
 6    1  0.9216756E-006  0.1619617E+03  0.7561462E-02  0.1186500E+00
         -1   -1    0    0    0  501 -0.00000000000E+00  0.00000000000E+00  0.39020539346E+02  0.39020539346E+02  0.00000000000E+00 0.  1.
          1   -1    0    0  501    0  0.00000000000E+00 -0.00000000000E+00 -0.83910338045E+03  0.83910338045E+03  0.00000000000E+00 0. -1.
          5    1    1    2  502    0 -0.47560192057E+02  0.23182019083E+02 -0.44508855116E+02  0.69266791907E+02  0.41800000000E+01 0.  1.
         -5    1    1    2    0  502 -0.94352707211E+02  0.19956154015E+02 -0.41709014418E+03  0.42811487035E+03  0.41800000000E+01 0. -1.
        -11    1    1    2    0    0  0.12767289748E+02 -0.43331367236E+02 -0.90130790444E+02  0.10081751068E+03  0.00000000000E+00 0. -1.
         11    1    1    2    0    0  0.12914560952E+03  0.19319413804E+00 -0.24835305136E+03  0.27992474685E+03  0.00000000000E+00 0.  1.
</event>
<event>
 6    1  0.9216756E-006  0.1649329E+03  0.7561462E-02  0.1183237E+00
         -1   -1    0    0    0  501 -0.00000000000E+00  0.00000000000E+00  0.37396965541E+03  0.37396965541E+03  0.00000000000E+00 0.  1.
          1   -1    0    0  501    0  0.00000000000E+00 -0.00000000000E+00 -0.92549373171E+02  0.92549373171E+02  0.00000000000E+00 0. -1.
          5    1    1    2  502    0 -0.46949410997E+02 -0.14143513363E+03  0.17296595968E+03  0.22834806727E+03  0.41800000000E+01 0. -1.
         -5    1    1    2    0  502 -0.14438042072E+02  0.35793167232E+01 -0.16383922370E+02  0.22520521293E+02  0.41800000000E+01 0. -1.
        -11    1    1    2    0    0  0.68390797068E+02  0.72745103982E+02  0.10989827711E+03  0.14848159007E+03  0.00000000000E+00 0.  1.
         11    1    1    2    0    0 -0.70033439979E+01  0.65110712928E+02  0.14939967817E+02  0.67168849950E+02  0.00000000000E+00 0. -1.
</event>
<event>
 6    1  0.9216756E-006  0.9199832E+02  0.7561462E-02  0.1298083E+00
          2   -1    0    0  501    0  0.00000000000E+00  0.00000000000E+00  0.56252310799E+03  0.56252310799E+03  0.00000000000E+00 0.  1.
         -2   -1    0    0    0  501 -0.00000000000E+00 -0.00000000000E+00 -0.30127440061E+02  0.30127440061E+02  0.00000000000E+00 0. -1.
          5    1    1    2  502    0 -0.26675853785E+02  0.44346006576E+02  0.20473858996E+03  0.21121915655E+03  0.41800000000E+01 0. -1.
         -5    1    1    2    0  502 -0.19859811964E+02 -0.13617471968E+02 -0.10377407238E+02  0.26552036739E+02  0.41800000000E+01 0. -1.
        -11    1    1    2    0    0  0.69635310559E+02 -0.42633677064E+02  0.26885455113E+03  0.28097949491E+03  0.00000000000E+00 0. -1.
         11    1    1    2    0    0 -0.23099644811E+02  0.11905142456E+02  0.69179934072E+02  0.73899859848E+02  0.00000000000E+00 0.  1.
</event>
<event>
 6    1  0.9216756E-006  0.1089308E+03  0.7561462E-02  0.1262563E+00
         -2   -1    0    0    0  501 -0.00000000000E+00  0.00000000000E+00  0.52041074017E+02  0.52041074017E+02  0.00000000000E+00 0.  1.
          2   -1    0    0  501    0  0.00000000000E+00 -0.00000000000E+00 -0.35653558371E+03  0.35653558371E+03  0.00000000000E+00 0. -1.
          5    1    1    2  502    0 -0.46422044899E+02 -0.59440419647E+02 -0.10116117615E+03  0.12625064634E+03  0.41800000000E+01 0. -1.
         -5    1    1    2    0  502  0.61514258589E+02 -0.17207860587E+02 -0.28271918939E+02  0.69977769871E+02  0.41800000000E+01 0. -1.
        -11    1    1    2    0    0 -0.66830111038E+01  0.47787868847E+02 -0.16550901669E+02  0.51012502315E+02  0.00000000000E+00 0.  1.
         11    1    1    2    0    0 -0.84092025862E+01  0.28860411386E+02 -0.15851051294E+03  0.16133573921E+03  0.00000000000E+00 0. -1.
</event>
<event>
 6    1  0.9216756E-006  0.1477350E+03  0.7561462E-02  0.1203284E+00
         -2   -1    0    0    0  501 -0.00000000000E+00  0.00000000000E+00  0.40401369696E+02  0.40401369696E+02  0.00000000000E+00 0.  1.
          2   -1    0    0  501    0  0.00000000000E+00 -0.00000000000E+00 -0.64807988963E+03  0.64807988963E+03  0.00000000000E+00 0. -1.
          5    1    1    2  502    0  0.84184419325E+01 -0.71945993152E+02 -0.68942819537E+02  0.10008836526E+03  0.41800000000E+01 0.  1.
         -5    1    1    2    0  502 -0.83668276636E+02 -0.19799900286E+02 -0.22202015648E+03  0.23812357894E+03  0.41800000000E+01 0.  1.
        -11    1    1    2    0    0  0.45516181774E+02  0.57953268465E+01 -0.47219775775E+02  0.65840837182E+02  0.00000000000E+00 0.  1.
         11    1    1    2    0    0  0.29733652929E+02  0.85950566591E+02 -0.26949576814E+03  0.28442847794E+03  0.00000000000E+00 0. -1.
</event>
<event>
 6    1  0.9216756E-006  0.1139390E+03  0.7561462E-02  0.1253445E+00
         -1   -1    0    0    0  501 -0.00000000000E+00  0.00000000000E+00  0.47931501068E+02  0.47931501068E+02  0.00000000000E+00 0.  1.
          1   -1    0    0  501    0  0.00000000000E+00 -0.00000000000E+00 -0.56328247277E+03  0.56328247277E+03  0.00000000000E+00 0. -1.
          5    1    1    2  502    0  0.96115338103E+02 -0.37345504323E+02 -0.52564206272E+02  0.11581585855E+03  0.41800000000E+01 0.  1.
         -5    1    1    2    0  502 -0.31693914990E+02  0.20090070537E+02 -0.30082019140E+02  0.48275412553E+02  0.41800000000E+01 0.  1.
        -11    1    1    2    0    0 -0.74713098323E+02  0.17015402386E+02 -0.42958557276E+03  0.43636605654E+03  0.00000000000E+00 0. -1.
         11    1    1    2    0    0  0.10291675210E+02  0.24003139872E+00 -0.31191735323E+01  0.10756646189E+02  0.00000000000E+00 0.  1.
</event>
<event>
 6    1  0.9216756E-006  0.9651556E+02  0.7561462E-02  0.1287799E+00
          1   -1    0    0  501    0  0.00000000000E+00  0.00000000000E+00  0.44993995801E+03  0.44993995801E+03  0.00000000000E+00 0. -1.
         -1   -1    0    0    0  501 -0.00000000000E+00 -0.00000000000E+00 -0.61561980652E+02  0.61561980652E+02  0.00000000000E+00 0.  1.
          5    1    1    2  502    0  0.54301473178E+02 -0.15081058566E+02  0.40864563940E+02  0.69738606974E+02  0.41800000000E+01 0. -1.
         -5    1    1    2    0  502 -0.38338967731E+02 -0.76279194946E+00 -0.31661856815E+02  0.49903946489E+02  0.41800000000E+01 0.  1.
        -11    1    1    2    0    0 -0.23150024861E+02  0.54192173729E+02  0.20089535067E+03  0.20936011383E+03  0.00000000000E+00 0. -1.
         11    1    1    2    0    0  0.71875194148E+01 -0.38348323213E+02  0.17827991957E+03  0.18249927137E+03  0.00000000000E+00 0.  1.
</event>
<event>
 6    1  0.9216756E-006  0.1680451E+03  0.7561462E-02  0.1179902E+00
         -2   -1    0    0    0  501 -0.00000000000E+00  0.00000000000E+00  0.31107460530E+02  0.31107460530E+02  0.00000000000E+00 0.  1.
          2   -1    0    0  501    0  0.00000000000E+00 -0.00000000000E+00 -0.11639728387E+04  0.11639728387E+04  0.00000000000E+00 0. -1.
          5    1    1    2  502    0 -0.80098057894E+02  0.28377127120E+02 -0.10926975782E+03  0.13848578481E+03  0.41800000000E+01 0.  1.
         -5    1    1    2    0  502 -0.56554414839E+02  0.45359763606E+02 -0.43795624719E+03  0.44393587019E+03  0.41800000000E+01 0.  1.
        -11    1    1    2    0    0 -0.93551830173E+01 -0.21284454183E+02 -0.52790236162E+02  0.57683242568E+02  0.00000000000E+00 0.  1.
         11    1    1    2    0    0  0.14600765575E+03 -0.52452436543E+02 -0.53284913698E+03  0.55497540163E+03  0.00000000000E+00 0. -1.
</event>
<event>
 6    1  0.9216756E-006  0.2229691E+03  0.7561462E-02  0.1131689E+00
          2   -1    0    0  501    0  0.00000000000E+00  0.00000000000E+00  0.17817032083E+04  0.17817032083E+04  0.00000000000E+00 0.  1.
         -2   -1    0    0    0  501 -0.00000000000E+00 -0.00000000000E+00 -0.29103131080E+02  0.29103131080E+02  0.00000000000E+00 0. -1.
          5    1    1    2  502    0 -0.12660705174E+03 -0.12663038397E+03  0.63581974671E+03  0.66056704611E+03  0.41800000000E+01 0. -1.
         -5    1    1    2    0  502  0.27822658275E+02 -0.43589747066E+02  0.12998410914E+03  0.13995537643E+03  0.41800000000E+01 0. -1.
        -11    1    1    2    0    0  0.13855537176E+02  0.10990555446E+03  0.57030701627E+03  0.58096583344E+03  0.00000000000E+00 0.  1.
         11    1    1    2    0    0  0.84928856285E+02  0.60314576583E+02  0.41648920512E+03  0.42931808343E+03  0.00000000000E+00 0. -1.
</event>
<event>
 6    1  0.9216756E-006  0.9513846E+02  0.7561462E-02  0.1290865E+00
         -2   -1    0    0    0  501 -0.00000000000E+00  0.00000000000E+00  0.95877359396E+02  0.95877359396E+02  0.00000000000E+00 0.  1.
          2   -1    0    0  501    0  0.00000000000E+00 -0.00000000000E+00 -0.13966448150E+03  0.13966448150E+03  0.00000000000E+00 0. -1.
          5    1    1    2  502    0 -0.13695409824E+02  0.60635709040E+02  0.42619491645E+02  0.75486071093E+02  0.41800000000E+01 0.  1.
         -5    1    1    2    0  502  0.13924069322E+02 -0.34774525918E+02 -0.36326549243E+02  0.52347282061E+02  0.41800000000E+01 0.  1.
        -11    1    1    2    0    0 -0.32356689628E+02  0.17130868472E+02 -0.37854886622E+02  0.52663217329E+02  0.00000000000E+00 0. -1.
         11    1    1    2    0    0  0.32128030129E+02 -0.42992051594E+02 -0.12225177880E+02  0.55045270409E+02  0.00000000000E+00 0.  1.
</event>
<event>
 6    1  0.9216756E-006  0.1022260E+03  0.7561462E-02  0.1275683E+00
          1   -1    0    0  501    0  0.00000000000E+00  0.00000000000E+00  0.27077291844E+03  0.27077291844E+03  0.00000000000E+00 0. -1.
         -1   -1    0    0    0  501 -0.00000000000E+00 -0.00000000000E+00 -0.67017242801E+02  0.67017242801E+02  0.00000000000E+00 0.  1.
          5    1    1    2  502    0 -0.43821920152E+02  0.29767080960E+02  0.87096131548E+02  0.10202768411E+03  0.41800000000E+01 0. -1.
         -5    1    1    2    0  502 -0.22108105409E+02 -0.34891266569E+02 -0.29300591523E+02  0.50815016198E+02  0.41800000000E+01 0. -1.
        -11    1    1    2    0    0  0.50948206290E+02  0.44512021036E+02  0.11190552142E+03  0.13076653037E+03  0.00000000000E+00 0. -1.
         11    1    1    2    0    0  0.14981819271E+02 -0.39387835427E+02  0.34054614191E+02  0.54180930557E+02  0.00000000000E+00 0.  1.
</event>
<event>
 6    1  0.9216756E-006  0.9575721E+02  0.7561462E-02  0.1289480E+00
          1   -1    0    0  501    0  0.00000000000E+00  0.00000000000E+00  0.17117393554E+03  0.17117393554E+03  0.00000000000E+00 0. -1.
         -1   -1    0    0    0  501 -0.00000000000E+00 -0.00000000000E+00 -0.75539932622E+02  0.75539932622E+02  0.00000000000E+00 0.  1.
          5    1    1    2  502    0  0.69224148056E+01 -0.53446331938E+02 -0.16561040048E+02  0.56534685565E+02  0.41800000000E+01 0.  1.
         -5    1    1    2    0  502 -0.95223534903E+01  0.60985310731E+02  0.32291011988E+02  0.69785852406E+02  0.41800000000E+01 0.  1.
        -11    1    1    2    0    0  0.52236978017E+01 -0.41351432673E+02  0.75437859587E+02  0.86186418083E+02  0.00000000000E+00 0. -1.
         11    1    1    2    0    0 -0.26237591169E+01  0.33812453881E+02  0.44661713947E+01  0.34206912113E+02  0.00000000000E+00 0.  1.
</event>
<event>
 6    1  0.9216756E-006  0.1138223E+03  0.7561462E-02  0.1253651E+00
         -1   -1    0    0    0  501 -0.00000000000E+00  0.00000000000E+00  0.42205828635E+03  0.42205828635E+03  0.00000000000E+00 0.  1.
          1   -1    0    0  501    0  0.00000000000E+00 -0.00000000000E+00 -0.37472970461E+02  0.37472970461E+02  0.00000000000E+00 0. -1.
          5    1    1    2  502    0  0.36378668651E+02  0.59611175279E+02  0.21654932704E+03  0.22756973259E+03  0.41800000000E+01 0.  1.
         -5    1    1    2    0  502 -0.50565566535E+02 -0.24016554719E+01  0.43187754535E+02  0.66673075598E+02  0.41800000000E+01 0.  1.
        -11    1    1    2    0    0  0.51692831031E+02 -0.41231174515E+02  0.89855146888E+02  0.11156211702E+03  0.00000000000E+00 0.  1.
         11    1    1    2    0    0 -0.37505933147E+02 -0.15978345292E+02  0.34993087430E+02  0.53726331601E+02  0.00000000000E+00 0. -1.
</event>
<event>
 6    1  0.9216756E-006  0.1675320E+03  0.7561462E-02  0.1180446E+00
         -4   -1    0    0    0  501 -0.00000000000E+00  0.00000000000E+00  0.77824332841E+03  0.77824332841E+03  0.00000000000E+00 0.  1.
          4   -1    0    0  501    0  0.00000000000E+00 -0.00000000000E+00 -0.36505962643E+02  0.36505962643E+02  0.00000000000E+00 0. -1.
          5    1    1    2  502    0 -0.37232825482E+02  0.10811524454E+02  0.10420383409E+03  0.11126133108E+03  0.41800000000E+01 0. -1.
         -5    1    1    2    0  502  0.23847738234E+02 -0.13753764614E+03  0.32229636986E+03  0.35125167779E+03  0.41800000000E+01 0. -1.
        -11    1    1    2    0    0 -0.24063100970E+02  0.11453224579E+03  0.24990951854E+03  0.27595549571E+03  0.00000000000E+00 0.  1.
         11    1    1    2    0    0  0.37448188218E+02  0.12193875895E+02  0.65327643274E+02  0.76280786479E+02  0.00000000000E+00 0. -1.
</event>
<event>
 6    1  0.9216756E-006  0.1804263E+03  0.7561462E-02  0.1167391E+00
         -1   -1    0    0    0  501 -0.00000000000E+00  0.00000000000E+00  0.15608508315E+03  0.15608508315E+03  0.00000000000E+00 0.  1.
          1   -1    0    0  501    0  0.00000000000E+00 -0.00000000000E+00 -0.23739612311E+03  0.23739612311E+03  0.00000000000E+00 0. -1.
          5    1    1    2  502    0 -0.33941056106E+02  0.12539414844E+02  0.20047335284E+02  0.41576438835E+02  0.41800000000E+01 0.  1.
         -5    1    1    2    0  502 -0.13089305408E+02 -0.15143574240E+03 -0.14426652425E+01  0.15206468254E+03  0.41800000000E+01 0.  1.
        -11    1    1    2    0    0  0.73906147350E+02  0.88899148517E+02 -0.75308294277E+02  0.13797288288E+03  0.00000000000E+00 0. -1.
         11    1    1    2    0    0 -0.26875785835E+02  0.49997179037E+02 -0.24607415719E+02  0.61867202008E+02  0.00000000000E+00 0.  1.
</event>
<event>
 6    1  0.9216756E-006  0.1201977E+03  0.7561462E-02  0.1242771E+00
         -1   -1    0    0    0  501 -0.00000000000E+00  0.00000000000E+00  0.36139087104E+02  0.36139087104E+02  0.00000000000E+00 0.  1.
          1   -1    0    0  501    0  0.00000000000E+00 -0.00000000000E+00 -0.51723234228E+03  0.51723234228E+03  0.00000000000E+00 0. -1.
          5    1    1    2  502    0 -0.33576662251E+02  0.62459705537E+01 -0.10202073326E+03  0.10766664670E+03  0.41800000000E+01 0. -1.
         -5    1    1    2    0  502  0.93967485954E+02 -0.36582028309E+02 -0.13205134128E+03  0.16620217311E+03  0.41800000000E+01 0. -1.
        -11    1    1    2    0    0 -0.45389509166E+02 -0.22129065927E+02 -0.20359598830E+03  0.20976470044E+03  0.00000000000E+00 0. -1.
         11    1    1    2    0    0 -0.15001314536E+02  0.52465123683E+02 -0.43425192332E+02  0.69737909131E+02  0.00000000000E+00 0.  1.
</event>
<event>
 6    1  0.9216756E-006  0.8701131E+02  0.7561462E-02  0.1310255E+00
         -1   -1    0    0    0  501 -0.00000000000E+00  0.00000000000E+00  0.37590678169E+02  0.37590678169E+02  0.00000000000E+00 0.  1.
          1   -1    0    0  501    0  0.00000000000E+00 -0.00000000000E+00 -0.52413736588E+03  0.52413736588E+03  0.00000000000E+00 0. -1.
          5    1    1    2  502    0 -0.16216647475E+02  0.24674293369E+02  0.18894347693E+02  0.35302537916E+02  0.41800000000E+01 0.  1.
         -5    1    1    2    0  502  0.34953695882E+02  0.23747130920E+02 -0.14030044082E+03  0.14658571955E+03  0.41800000000E+01 0.  1.
        -11    1    1    2    0    0 -0.56342263776E+01  0.25780199948E+02 -0.60235712121E+02  0.65762483461E+02  0.00000000000E+00 0.  1.
         11    1    1    2    0    0 -0.13102822030E+02 -0.74201624237E+02 -0.30490488247E+03  0.31407730312E+03  0.00000000000E+00 0. -1.
</event>
<event>
 6    1  0.9216756E-006  0.1579736E+03  0.7561462E-02  0.1191004E+00
          1   -1    0    0  501    0  0.00000000000E+00  0.00000000000E+00  0.63624263089E+03  0.63624263089E+03  0.00000000000E+00 0. -1.
         -1   -1    0    0    0  501 -0.00000000000E+00 -0.00000000000E+00 -0.48233173530E+02  0.48233173530E+02  0.00000000000E+00 0.  1.
          5    1    1    2  502    0  0.53511881231E+02 -0.11186572168E+03  0.11434180657E+03  0.16872753850E+03  0.41800000000E+01 0. -1.
         -5    1    1    2    0  502  0.35141999602E+02  0.10693437854E+02  0.14137586071E+03  0.14612979210E+03  0.41800000000E+01 0. -1.
        -11    1    1    2    0    0 -0.19926861516E+02  0.80795647124E+02  0.12398780601E+03  0.14932512328E+03  0.00000000000E+00 0.  1.
         11    1    1    2    0    0 -0.68727019316E+02  0.20376636704E+02  0.20830398408E+03  0.22029335053E+03  0.00000000000E+00 0. -1.
</event>
<event>
 6    1  0.9216756E-006  0.1019321E+03  0.7561462E-02  0.1276285E+00
         -1   -1    0    0    0  501 -0.00000000000E+00  0.00000000000E+00  0.48861474899E+03  0.48861474899E+03  0.00000000000E+00 0.  1.
          1   -1    0    0  501    0  0.00000000000E+00 -0.00000000000E+00 -0.28860511547E+02  0.28860511547E+02  0.00000000000E+00 0. -1.
          5    1    1    2  502    0 -0.50898682000E+02  0.26708697374E+02  0.12472718689E+03  0.13739859495E+03  0.41800000000E+01 0. -1.
         -5    1    1    2    0  502  0.73007654146E+02  0.93063843462E+01  0.19937075424E+03  0.21256268816E+03  0.41800000000E+01 0. -1.
        -11    1    1    2    0    0 -0.31423061137E+02  0.37749439323E+01  0.68517815666E+01  0.32382184663E+02  0.00000000000E+00 0. -1.
         11    1    1    2    0    0  0.93140889914E+01 -0.39790025653E+02  0.12880451475E+03  0.13513179276E+03  0.00000000000E+00 0.  1.
</event>
<event>
 6    1  0.9216756E-006  0.5772817E+02  0.7561462E-02  0.1407621E+00
         -2   -1    0    0    0  501 -0.00000000000E+00  0.00000000000E+00  0.21691384108E+02  0.21691384108E+02  0.00000000000E+00 0.  1.
          2   -1    0    0  501    0  0.00000000000E+00 -0.00000000000E+00 -0.59229612187E+03  0.59229612187E+03  0.00000000000E+00 0. -1.
          5    1    1    2  502    0 -0.11022090752E+02  0.13916133706E+02  0.94070653078E+01  0.20520978036E+02  0.41800000000E+01 0. -1.
         -5    1    1    2    0  502  0.19973180389E+01  0.28452141421E+01 -0.26135641352E+03  0.26141295265E+03  0.41800000000E+01 0. -1.
        -11    1    1    2    0    0 -0.40578330724E+02 -0.59202780539E+01 -0.11260504737E+03  0.11983967336E+03  0.00000000000E+00 0.  1.
         11    1    1    2    0    0  0.49603103437E+02 -0.10841069794E+02 -0.20605034217E+03  0.21221390193E+03  0.00000000000E+00 0. -1.
</event>
<event>
 6    1  0.9216756E-006  0.9971745E+02  0.7561462E-02  0.1280891E+00
         -3   -1    0    0    0  501 -0.00000000000E+00  0.00000000000E+00  0.11308377472E+04  0.11308377472E+04  0.00000000000E+00 0.  1.
          3   -1    0    0  501    0  0.00000000000E+00 -0.00000000000E+00 -0.15854657229E+02  0.15854657229E+02  0.00000000000E+00 0. -1.
          5    1    1    2  502    0  0.62507269603E+01 -0.28094725267E+02  0.58096373281E+03  0.58169125524E+03  0.41800000000E+01 0.  1.
         -5    1    1    2    0  502  0.48132578630E+02  0.55913152685E+02  0.24430163085E+03  0.25523280551E+03  0.41800000000E+01 0.  1.
        -11    1    1    2    0    0 -0.50134204514E+02 -0.51807631977E+02  0.26662675246E+03  0.27620154656E+03  0.00000000000E+00 0.  1.
         11    1    1    2    0    0 -0.42491010762E+01  0.23989204559E+02  0.23090973792E+02  0.33566797076E+02  0.00000000000E+00 0. -1.
</event>
<event>
 6    1  0.9216756E-006  0.1008273E+03  0.7561462E-02  0.1278566E+00
          2   -1    0    0  501    0  0.00000000000E+00  0.00000000000E+00  0.58599991044E+03  0.58599991044E+03  0.00000000000E+00 0. -1.
         -2   -1    0    0    0  501 -0.00000000000E+00 -0.00000000000E+00 -0.21280867874E+02  0.21280867874E+02  0.00000000000E+00 0.  1.
          5    1    1    2  502    0 -0.39363172518E+02  0.51539175518E+02  0.24054108350E+03  0.24916506820E+03  0.41800000000E+01 0. -1.
         -5    1    1    2    0  502  0.15415482810E+02 -0.47940834788E+02  0.68584808637E+02  0.85189841685E+02  0.41800000000E+01 0. -1.
        -11    1    1    2    0    0 -0.30452341353E+02 -0.82157518623E+01  0.15783430544E+03  0.16095499882E+03  0.00000000000E+00 0. -1.
         11    1    1    2    0    0  0.54400031061E+02  0.46174111326E+01  0.97758844989E+02  0.11197086960E+03  0.00000000000E+00 0.  1.
</event>
<event>
 6    1  0.9216756E-006  0.8685862E+02  0.7561462E-02  0.1310642E+00
         -2   -1    0    0    0  501 -0.00000000000E+00  0.00000000000E+00  0.71642410176E+02  0.71642410176E+02  0.00000000000E+00 0.  1.
          2   -1    0    0  501    0  0.00000000000E+00 -0.00000000000E+00 -0.20184507243E+03  0.20184507243E+03  0.00000000000E+00 0. -1.
          5    1    1    2  502    0 -0.14698593566E+01 -0.15282279617E+02 -0.84374130590E+02  0.85861370066E+02  0.41800000000E+01 0.  1.
         -5    1    1    2    0  502  0.52279935967E+02  0.14239060951E+02  0.27191909132E+02  0.60768535310E+02  0.41800000000E+01 0.  1.
        -11    1    1    2    0    0 -0.40414219257E+02 -0.42526796793E+02 -0.36812129204E+02  0.69260164742E+02  0.00000000000E+00 0.  1.
         11    1    1    2    0    0 -0.10395857353E+02  0.43570015459E+02 -0.36208311597E+02  0.57597412493E+02  0.00000000000E+00 0. -1.
</event>
<event>
 6    1  0.9216756E-006  0.1180990E+03  0.7561462E-02  0.1246267E+00
         -3   -1    0    0    0  501 -0.00000000000E+00  0.00000000000E+00  0.28588087338E+03  0.28588087338E+03  0.00000000000E+00 0.  1.
          3   -1    0    0  501    0  0.00000000000E+00 -0.00000000000E+00 -0.52589991093E+02  0.52589991093E+02  0.00000000000E+00 0. -1.
          5    1    1    2  502    0  0.22339056773E+02 -0.38082829319E+02  0.38915809662E+02  0.59002101557E+02  0.41800000000E+01 0. -1.
         -5    1    1    2    0  502 -0.13025031911E+02  0.86837203980E+02  0.13083646538E+03  0.15762615432E+03  0.41800000000E+01 0. -1.
        -11    1    1    2    0    0 -0.48366301768E+02 -0.42510541700E+02  0.40593259001E+02  0.76120023507E+02  0.00000000000E+00 0.  1.
         11    1    1    2    0    0  0.39052276905E+02 -0.62438329604E+01  0.22945348242E+02  0.45722585092E+02  0.00000000000E+00 0. -1.
</event>
<event>
 6    1  0.9216756E-006  0.1543080E+03  0.7561462E-02  0.1195277E+00
          2   -1    0    0  501    0  0.00000000000E+00  0.00000000000E+00  0.83585087348E+03  0.83585087348E+03  0.00000000000E+00 0. -1.
         -2   -1    0    0    0  501 -0.00000000000E+00 -0.00000000000E+00 -0.38473607581E+02  0.38473607581E+02  0.00000000000E+00 0.  1.
          5    1    1    2  502    0 -0.43412682748E+02 -0.81405966325E+02  0.36330287754E+03  0.37485736701E+03  0.41800000000E+01 0.  1.
         -5    1    1    2    0  502 -0.72550306562E+02 -0.31450514526E+01  0.83051259479E+02  0.11040118854E+03  0.41800000000E+01 0.  1.
        -11    1    1    2    0    0  0.38864569468E+02  0.27333186842E+02  0.35647032633E+02  0.59399232305E+02  0.00000000000E+00 0.  1.
         11    1    1    2    0    0  0.77098419843E+02  0.57217830936E+02  0.31537609625E+03  0.32966669320E+03  0.00000000000E+00 0. -1.
</event>
<event>
 6    1  0.9216756E-006  0.1842083E+03  0.7561462E-02  0.1163791E+00
          2   -1    0    0  501    0  0.00000000000E+00  0.00000000000E+00  0.22630622512E+03  0.22630622512E+03  0.00000000000E+00 0. -1.
         -2   -1    0    0    0  501 -0.00000000000E+00 -0.00000000000E+00 -0.15238626725E+03  0.15238626725E+03  0.00000000000E+00 0.  1.
          5    1    1    2  502    0 -0.37204205054E+02  0.61430700303E+02  0.28945033390E+02  0.77544639862E+02  0.41800000000E+01 0.  1.
         -5    1    1    2    0  502  0.92804381939E+02  0.78344549299E+02  0.99838906760E+01  0.12193306436E+03  0.41800000000E+01 0.  1.
        -11    1    1    2    0    0 -0.33825400190E+02 -0.33936272889E+00  0.13681670599E+02  0.36489189843E+02  0.00000000000E+00 0.  1.
         11    1    1    2    0    0 -0.21774776696E+02 -0.13943588687E+03  0.21309363203E+02  0.14272559829E+03  0.00000000000E+00 0. -1.
</event>
<event>
 6    1  0.9216756E-006  0.1116609E+03  0.7561462E-02  0.1257525E+00
          1   -1    0    0  501    0  0.00000000000E+00  0.00000000000E+00  0.27060500204E+03  0.27060500204E+03  0.00000000000E+00 0. -1.
         -1   -1    0    0    0  501 -0.00000000000E+00 -0.00000000000E+00 -0.54105052297E+02  0.54105052297E+02  0.00000000000E+00 0.  1.
          5    1    1    2  502    0 -0.56278975299E+02  0.42856706655E+02  0.53794467026E+02  0.88968182226E+02  0.41800000000E+01 0.  1.
         -5    1    1    2    0  502  0.55705033086E+02 -0.62246157367E+01  0.13865834684E+02  0.57892402987E+02  0.41800000000E+01 0.  1.
        -11    1    1    2    0    0  0.16872107467E+02 -0.63018440202E+02  0.87814020914E+02  0.10939512825E+03  0.00000000000E+00 0.  1.
         11    1    1    2    0    0 -0.16298165254E+02  0.26386349283E+02  0.61025627115E+02  0.68454340870E+02  0.00000000000E+00 0. -1.
</event>
<event>
 6    1  0.9216756E-006  0.7050342E+02  0.7561462E-02  0.1358389E+00
          2   -1    0    0  501    0  0.00000000000E+00  0.00000000000E+00  0.12290579681E+03  0.12290579681E+03  0.00000000000E+00 0. -1.
         -2   -1    0    0    0  501 -0.00000000000E+00 -0.00000000000E+00 -0.12994978566E+03  0.12994978566E+03  0.00000000000E+00 0.  1.
          5    1    1    2  502    0  0.57560856802E+02 -0.55265849215E+01 -0.70350930327E+02  0.91162059951E+02  0.41800000000E+01 0. -1.
         -5    1    1    2    0  502 -0.83989056432E+01  0.27081638841E+02  0.39121736456E+02  0.48496798262E+02  0.41800000000E+01 0. -1.
        -11    1    1    2    0    0 -0.14646579214E+02 -0.22380166644E+01  0.58798674962E+02  0.60636747757E+02  0.00000000000E+00 0. -1.
         11    1    1    2    0    0 -0.34515371945E+02 -0.19317037255E+02 -0.34613469941E+02  0.52559976505E+02  0.00000000000E+00 0.  1.
</event>
<event>
 6    1  0.9216756E-006  0.1461204E+03  0.7561462E-02  0.1205323E+00
          2   -1    0    0  501    0  0.00000000000E+00  0.00000000000E+00  0.93056124406E+02  0.93056124406E+02  0.00000000000E+00 0. -1.
         -2   -1    0    0    0  501 -0.00000000000E+00 -0.00000000000E+00 -0.25937960530E+03  0.25937960530E+03  0.00000000000E+00 0.  1.
          5    1    1    2  502    0 -0.27089480361E+02  0.22644266758E+02  0.12399787724E+02  0.37654082101E+02  0.41800000000E+01 0.  1.
         -5    1    1    2    0  502 -0.40659664078E+02 -0.10924941138E+03 -0.83411921317E+02  0.14340035979E+03  0.41800000000E+01 0.  1.
        -11    1    1    2    0    0  0.41428447418E+02 -0.76951533039E+01 -0.14921068920E+02  0.44700894147E+02  0.00000000000E+00 0. -1.
         11    1    1    2    0    0  0.26320697021E+02  0.94300297929E+02 -0.80390278377E+02  0.12668039366E+03  0.00000000000E+00 0.  1.
</event>
<event>
 6    1  0.9216756E-006  0.8199993E+02  0.7561462E-02  0.1323470E+00
          1   -1    0    0  501    0  0.00000000000E+00  0.00000000000E+00  0.44715312514E+02  0.44715312514E+02  0.00000000000E+00 0. -1.
         -1   -1    0    0    0  501 -0.00000000000E+00 -0.00000000000E+00 -0.28031286721E+03  0.28031286721E+03  0.00000000000E+00 0.  1.
          5    1    1    2  502    0 -0.27730955498E+02 -0.20326181469E+01  0.11414941968E+02  0.30346510993E+02  0.41800000000E+01 0. -1.
         -5    1    1    2    0  502  0.31964655265E+02 -0.34330753660E+02 -0.15119844149E+03  0.15836281427E+03  0.41800000000E+01 0.  1.
        -11    1    1    2    0    0  0.19054972520E+02  0.55478411216E+02 -0.34630004843E+02  0.68118891096E+02  0.00000000000E+00 0.  1.
         11    1    1    2    0    0 -0.23288672288E+02 -0.19115039409E+02 -0.61184050330E+02  0.68199963367E+02  0.00000000000E+00 0. -1.
</event>
<event>
 6    1  0.9216756E-006  0.2303755E+03  0.7561462E-02  0.1126376E+00
         -1   -1    0    0    0  501 -0.00000000000E+00  0.00000000000E+00  0.11341351592E+03  0.11341351592E+03  0.00000000000E+00 0.  1.
          1   -1    0    0  501    0  0.00000000000E+00 -0.00000000000E+00 -0.50103331368E+03  0.50103331368E+03  0.00000000000E+00 0. -1.
          5    1    1    2  502    0 -0.86955746663E+02  0.20983415865E+03 -0.18990705454E+03  0.29609768283E+03  0.41800000000E+01 0.  1.
         -5    1    1    2    0  502 -0.31052285678E+01 -0.18052550161E+02 -0.13390362521E+02  0.23071870757E+02  0.41800000000E+01 0.  1.
        -11    1    1    2    0    0  0.24121983936E+02 -0.21993743470E+02  0.44659353999E+01  0.32947525549E+02  0.00000000000E+00 0.  1.
         11    1    1    2    0    0  0.65938991295E+02 -0.16978786502E+03 -0.18878831609E+03  0.26232975046E+03  0.00000000000E+00 0. -1.
</event>
<event>
 6    1  0.9216756E-006  0.1646719E+03  0.7561462E-02  0.1183521E+00
         -1   -1    0    0    0  501 -0.00000000000E+00  0.00000000000E+00  0.47146895022E+02  0.47146895022E+02  0.00000000000E+00 0.  1.
          1   -1    0    0  501    0  0.00000000000E+00 -0.00000000000E+00 -0.62293953244E+03  0.62293953244E+03  0.00000000000E+00 0. -1.
          5    1    1    2  502    0  0.10235624832E+03 -0.11372683696E+03 -0.22348030793E+03  0.27087176938E+03  0.41800000000E+01 0. -1.
         -5    1    1    2    0  502 -0.15644370907E+02  0.18814772966E+02 -0.22079120565E+02  0.33222010592E+02  0.41800000000E+01 0. -1.
        -11    1    1    2    0    0 -0.95336900057E+02  0.53838436049E+02 -0.27931148947E+03  0.30000434974E+03  0.00000000000E+00 0. -1.
         11    1    1    2    0    0  0.86250226440E+01  0.41073627947E+02 -0.50921719444E+02  0.65988297747E+02  0.00000000000E+00 0.  1.
</event>
<event>
 6    1  0.9216756E-006  0.1007105E+03  0.7561462E-02  0.1278809E+00
          1   -1    0    0  501    0  0.00000000000E+00  0.00000000000E+00  0.64428468869E+03  0.64428468869E+03  0.00000000000E+00 0. -1.
         -1   -1    0    0    0  501 -0.00000000000E+00 -0.00000000000E+00 -0.18372240970E+02  0.18372240970E+02  0.00000000000E+00 0.  1.
          5    1    1    2  502    0 -0.53458029214E+02  0.36291418611E+01  0.79929126991E+02  0.96317544090E+02  0.41800000000E+01 0.  1.
         -5    1    1    2    0  502  0.58955915748E+02  0.31830460193E+01  0.24285768531E+03  0.24996651675E+03  0.41800000000E+01 0.  1.
        -11    1    1    2    0    0  0.29660245654E+02  0.26706377282E+02  0.17113577131E+03  0.17572823615E+03  0.00000000000E+00 0. -1.
         11    1    1    2    0    0 -0.35158132188E+02 -0.33518565163E+02  0.13198986411E+03  0.14064463266E+03  0.00000000000E+00 0.  1.
</event>
<event>
 6    1  0.9216756E-006  0.1211636E+03  0.7561462E-02  0.1241190E+00
          1   -1    0    0  501    0  0.00000000000E+00  0.00000000000E+00  0.54252895861E+03  0.54252895861E+03  0.00000000000E+00 0. -1.
         -1   -1    0    0    0  501 -0.00000000000E+00 -0.00000000000E+00 -0.48724598998E+02  0.48724598998E+02  0.00000000000E+00 0.  1.
          5    1    1    2  502    0  0.43705921384E+01  0.83899736515E+02  0.11071249848E+03  0.13904315007E+03  0.41800000000E+01 0. -1.
         -5    1    1    2    0  502 -0.38949197018E+02 -0.12202235026E+02 -0.89114785815E+01  0.41985965971E+02  0.41800000000E+01 0.  1.
        -11    1    1    2    0    0  0.54142774884E+02 -0.13525390467E+02  0.13680386657E+03  0.14774868585E+03  0.00000000000E+00 0. -1.
         11    1    1    2    0    0 -0.19564170005E+02 -0.58172111021E+02  0.25519947314E+03  0.26247575571E+03  0.00000000000E+00 0.  1.
</event>
<event>
 6    1  0.9216756E-006  0.1769725E+03  0.7561462E-02  0.1170766E+00
          2   -1    0    0  501    0  0.00000000000E+00  0.00000000000E+00  0.18323375464E+04  0.18323375464E+04  0.00000000000E+00 0.  1.
         -2   -1    0    0    0  501 -0.00000000000E+00 -0.00000000000E+00 -0.20946722316E+02  0.20946722316E+02  0.00000000000E+00 0. -1.
          5    1    1    2  502    0 -0.59620636803E+02  0.79380825970E+02  0.21772168246E+03  0.23932433908E+03  0.41800000000E+01 0.  1.
         -5    1    1    2    0  502 -0.72848342587E+02  0.33859745410E+00  0.50561786218E+03  0.51085603708E+03  0.41800000000E+01 0.  1.
        -11    1    1    2    0    0  0.65228094455E+02  0.13559823336E+02  0.39949228445E+03  0.40500945477E+03  0.00000000000E+00 0. -1.
         11    1    1    2    0    0  0.67240884935E+02 -0.93279246760E+02  0.68855899504E+03  0.69809443783E+03  0.00000000000E+00 0.  1.
</event>
<event>
 6    1  0.9216756E-006  0.1227649E+03  0.7561462E-02  0.1238604E+00
         -1   -1    0    0    0  501 -0.00000000000E+00  0.00000000000E+00  0.70814257406E+02  0.70814257406E+02  0.00000000000E+00 0.  1.
          1   -1    0    0  501    0  0.00000000000E+00 -0.00000000000E+00 -0.27250621067E+03  0.27250621067E+03  0.00000000000E+00 0. -1.
          5    1    1    2  502    0 -0.43678983659E+02 -0.43989057833E+01 -0.45919143430E+02  0.63665093409E+02  0.41800000000E+01 0.  1.
         -5    1    1    2    0  502  0.66775469257E+02 -0.79914229595E+02 -0.41292923194E+02  0.11210631245E+03  0.41800000000E+01 0.  1.
        -11    1    1    2    0    0 -0.20290691308E+02  0.96103665522E+01  0.81875336215E+01  0.23897845213E+02  0.00000000000E+00 0.  1.
         11    1    1    2    0    0 -0.28057942908E+01  0.74702768826E+02 -0.12266742027E+03  0.14365121700E+03  0.00000000000E+00 0. -1.
</event>
<event>
 6    1  0.9216756E-006  0.1660801E+03  0.7561462E-02  0.1181998E+00
          1   -1    0    0  501    0  0.00000000000E+00  0.00000000000E+00  0.12965828786E+03  0.12965828786E+03  0.00000000000E+00 0. -1.
         -1   -1    0    0    0  501 -0.00000000000E+00 -0.00000000000E+00 -0.28908586822E+03  0.28908586822E+03  0.00000000000E+00 0.  1.
          5    1    1    2  502    0  0.94493096529E+02 -0.11639490997E+03 -0.96219177300E+02  0.17819181474E+03  0.41800000000E+01 0. -1.
         -5    1    1    2    0  502  0.34885176719E+01  0.16659066680E+02 -0.70973527715E+02  0.73105460087E+02  0.41800000000E+01 0. -1.
        -11    1    1    2    0    0  0.12453384233E+02  0.33825880578E+02 -0.10511150753E+02  0.37546787691E+02  0.00000000000E+00 0. -1.
         11    1    1    2    0    0 -0.11043499843E+03  0.65909962714E+02  0.18276275407E+02  0.12990009356E+03  0.00000000000E+00 0.  1.
</event>
<event>
 6    1  0.9216756E-006  0.9716316E+02  0.7561462E-02  0.1286377E+00
          1   -1    0    0  501    0  0.00000000000E+00  0.00000000000E+00  0.31048592010E+03  0.31048592010E+03  0.00000000000E+00 0. -1.
         -1   -1    0    0    0  501 -0.00000000000E+00 -0.00000000000E+00 -0.40792272846E+02  0.40792272846E+02  0.00000000000E+00 0.  1.
          5    1    1    2  502    0  0.40108424855E+02 -0.51723613366E+02  0.28118571526E+02  0.71359262809E+02  0.41800000000E+01 0.  1.
         -5    1    1    2    0  502 -0.27752200548E+02  0.21087746084E+02  0.12134904846E+03  0.12632474671E+03  0.41800000000E+01 0.  1.
        -11    1    1    2    0    0  0.31514796383E+01 -0.30449739194E+02  0.25622904147E+02  0.39920566852E+02  0.00000000000E+00 0. -1.
         11    1    1    2    0    0 -0.15507703945E+02  0.61085606475E+02  0.94603123119E+02  0.11367361657E+03  0.00000000000E+00 0.  1.
</event>
<event>
 6    1  0.9216756E-006  0.1588894E+03  0.7561462E-02  0.1189956E+00
         -2   -1    0    0    0  501 -0.00000000000E+00  0.00000000000E+00  0.42215741357E+02  0.42215741357E+02  0.00000000000E+00 0.  1.
          2   -1    0    0  501    0  0.00000000000E+00 -0.00000000000E+00 -0.67055763981E+03  0.67055763981E+03  0.00000000000E+00 0. -1.
          5    1    1    2  502    0  0.10860600425E+03  0.73520509095E+02 -0.21276219421E+03  0.24997150458E+03  0.41800000000E+01 0. -1.
         -5    1    1    2    0  502  0.13190169710E+02 -0.43538466182E+02 -0.64151631934E+02  0.78755843556E+02  0.41800000000E+01 0. -1.
        -11    1    1    2    0    0 -0.58691005263E+02  0.18236298452E+02 -0.23644588026E+03  0.24430278544E+03  0.00000000000E+00 0. -1.
         11    1    1    2    0    0 -0.63105168696E+02 -0.48218341365E+02 -0.11498219205E+03  0.13974324760E+03  0.00000000000E+00 0.  1.
</event>
<event>
 6    1  0.9216756E-006  0.7850536E+02  0.7561462E-02  0.1333347E+00
         -4   -1    0    0    0  501 -0.00000000000E+00  0.00000000000E+00  0.68626316108E+02  0.68626316108E+02  0.00000000000E+00 0.  1.
          4   -1    0    0  501    0  0.00000000000E+00 -0.00000000000E+00 -0.17623390159E+03  0.17623390159E+03  0.00000000000E+00 0. -1.
          5    1    1    2  502    0 -0.21429888603E+02  0.50758817303E+02 -0.70531834120E+02  0.89598603136E+02  0.41800000000E+01 0. -1.
         -5    1    1    2    0  502  0.44988196573E+01 -0.37169905798E+02  0.25071150226E+02  0.45253466707E+02  0.41800000000E+01 0. -1.
        -11    1    1    2    0    0 -0.16697934489E+02 -0.23676224834E+02 -0.68457853038E+02  0.74336143841E+02  0.00000000000E+00 0. -1.
         11    1    1    2    0    0  0.33629003434E+02  0.10087313329E+02  0.63109514489E+01  0.35672004014E+02  0.00000000000E+00 0.  1.
</event>
<event>
 6    1  0.9216756E-006  0.7518144E+02  0.7561462E-02  0.1343310E+00
         -1   -1    0    0    0  501 -0.00000000000E+00  0.00000000000E+00  0.10418041166E+03  0.10418041166E+03  0.00000000000E+00 0.  1.
          1   -1    0    0  501    0  0.00000000000E+00 -0.00000000000E+00 -0.14423280551E+03  0.14423280551E+03  0.00000000000E+00 0. -1.
          5    1    1    2  502    0 -0.10703384360E+02 -0.10491424531E+02 -0.51354646608E+02  0.53660083430E+02  0.41800000000E+01 0.  1.
         -5    1    1    2    0  502  0.53412465283E+02  0.13978288817E+01  0.58041483510E+02  0.79000832788E+02  0.41800000000E+01 0.  1.
        -11    1    1    2    0    0 -0.10727923585E+02 -0.29322445546E+02 -0.56751406244E+02  0.64773576926E+02  0.00000000000E+00 0. -1.
         11    1    1    2    0    0 -0.31981157338E+02  0.38416041195E+02  0.10012175491E+02  0.50978724031E+02  0.00000000000E+00 0.  1.
</event>
<event>
 6    1  0.9216756E-006  0.1701042E+03  0.7561462E-02  0.1177739E+00
         -1   -1    0    0    0  501 -0.00000000000E+00  0.00000000000E+00  0.20601691460E+03  0.20601691460E+03  0.00000000000E+00 0.  1.
          1   -1    0    0  501    0  0.00000000000E+00 -0.00000000000E+00 -0.37964028493E+03  0.37964028493E+03  0.00000000000E+00 0. -1.
          5    1    1    2  502    0 -0.32085331838E+02  0.11938128179E+03  0.14005112464E+03  0.18685060576E+03  0.41800000000E+01 0.  1.
         -5    1    1    2    0  502  0.57010629091E+01  0.45427335510E+02 -0.23974324955E+02  0.51849644038E+02  0.41800000000E+01 0.  1.
        -11    1    1    2    0    0  0.34730231055E+02 -0.11823385646E+03 -0.12473650146E+03  0.17534146275E+03  0.00000000000E+00 0.  1.
         11    1    1    2    0    0 -0.83459621265E+01 -0.46574760833E+02 -0.16496366855E+03  0.17161548698E+03  0.00000000000E+00 0. -1.
</event>
<event>
 6    1  0.9216756E-006  0.1471368E+03  0.7561462E-02  0.1204036E+00
         -4   -1    0    0    0  501 -0.00000000000E+00  0.00000000000E+00  0.75416113966E+02  0.75416113966E+02  0.00000000000E+00 0.  1.
          4   -1    0    0  501    0  0.00000000000E+00 -0.00000000000E+00 -0.40489230284E+03  0.40489230284E+03  0.00000000000E+00 0. -1.
          5    1    1    2  502    0  0.72853157304E+02  0.71465876922E+02 -0.16240544459E+03  0.19185399377E+03  0.41800000000E+01 0.  1.
         -5    1    1    2    0  502 -0.31362092944E+01  0.45382631294E+02  0.11096367146E+02  0.47010858274E+02  0.41800000000E+01 0.  1.
        -11    1    1    2    0    0 -0.59784920442E+02 -0.47396406949E+02 -0.14498615371E+03  0.16383418713E+03  0.00000000000E+00 0. -1.
         11    1    1    2    0    0 -0.99320275677E+01 -0.69452101266E+02 -0.33180957727E+02  0.77609377639E+02  0.00000000000E+00 0.  1.
</event>
<event>
 6    1  0.9216756E-006  0.1630202E+03  0.7561462E-02  0.1185329E+00
         -2   -1    0    0    0  501 -0.00000000000E+00  0.00000000000E+00  0.20062609466E+02  0.20062609466E+02  0.00000000000E+00 0.  1.
          2   -1    0    0  501    0  0.00000000000E+00 -0.00000000000E+00 -0.14050831281E+04  0.14050831281E+04  0.00000000000E+00 0. -1.
          5    1    1    2  502    0 -0.62608958179E+02 -0.47064184960E+00 -0.29004433545E+03  0.29675459908E+03  0.41800000000E+01 0.  1.
         -5    1    1    2    0  502  0.48710479828E+01 -0.10995848287E+03 -0.32640333245E+03  0.34448686898E+03  0.41800000000E+01 0.  1.
        -11    1    1    2    0    0 -0.16795288238E+02  0.62058936416E+02 -0.27673887594E+03  0.28410877978E+03  0.00000000000E+00 0.  1.
         11    1    1    2    0    0  0.74533198434E+02  0.48370188301E+02 -0.49183397484E+03  0.49979548976E+03  0.00000000000E+00 0. -1.
</event>
<event>
 6    1  0.9216756E-006  0.9123620E+02  0.7561462E-02  0.1299885E+00
          1   -1    0    0  501    0  0.00000000000E+00  0.00000000000E+00  0.17834955650E+03  0.17834955650E+03  0.00000000000E+00 0. -1.
         -1   -1    0    0    0  501 -0.00000000000E+00 -0.00000000000E+00 -0.79043401331E+02  0.79043401331E+02  0.00000000000E+00 0.  1.
          5    1    1    2  502    0  0.17558042052E+02 -0.54120253743E+02  0.45084083669E+02  0.72714054393E+02  0.41800000000E+01 0. -1.
         -5    1    1    2    0  502  0.28468582903E+01  0.42416913162E+02 -0.34636031109E+02  0.54994783165E+02  0.41800000000E+01 0. -1.
        -11    1    1    2    0    0 -0.26135045933E+02 -0.30470397452E+02  0.12119451935E+02  0.41932885210E+02  0.00000000000E+00 0.  1.
         11    1    1    2    0    0  0.57301455913E+01  0.42173738033E+02  0.76738650678E+02  0.87751235069E+02  0.00000000000E+00 0. -1.
</event>
<event>
 6    1  0.9216756E-006  0.1474021E+03  0.7561462E-02  0.1203702E+00
          1   -1    0    0  501    0  0.00000000000E+00  0.00000000000E+00  0.21531910387E+02  0.21531910387E+02  0.00000000000E+00 0. -1.
         -1   -1    0    0    0  501 -0.00000000000E+00 -0.00000000000E+00 -0.12684349364E+04  0.12684349364E+04  0.00000000000E+00 0.  1.
          5    1    1    2  502    0 -0.36902831431E+02  0.33753095651E+02 -0.13742764896E+03  0.14630420887E+03  0.41800000000E+01 0. -1.
         -5    1    1    2    0  502  0.91550447801E+02  0.77294363730E+02 -0.59589588453E+03  0.60783655760E+03  0.41800000000E+01 0. -1.
        -11    1    1    2    0    0 -0.33556192924E+02 -0.83830974806E+02 -0.47746228607E+03  0.48592580199E+03  0.00000000000E+00 0.  1.
         11    1    1    2    0    0 -0.21091423446E+02 -0.27216484575E+02 -0.36117206469E+02  0.49900278343E+02  0.00000000000E+00 0. -1.
</event>
<event>
 6    1  0.9216756E-006  0.1292560E+03  0.7561462E-02  0.1228564E+00
         -3   -1    0    0    0  501 -0.00000000000E+00  0.00000000000E+00  0.24791728675E+02  0.24791728675E+02  0.00000000000E+00 0.  1.
          3   -1    0    0  501    0  0.00000000000E+00 -0.00000000000E+00 -0.72436675466E+03  0.72436675466E+03  0.00000000000E+00 0. -1.
          5    1    1    2  502    0 -0.79343381407E+02  0.57352630725E+02 -0.20529340495E+03  0.22748088039E+03  0.41800000000E+01 0. -1.
         -5    1    1    2    0  502  0.53344984662E+02 -0.91926264310E+01 -0.23502003251E+03  0.24120961808E+03  0.41800000000E+01 0.  1.
        -11    1    1    2    0    0  0.55133614932E+02 -0.66765195676E+01 -0.15207947734E+03  0.16190262147E+03  0.00000000000E+00 0.  1.
         11    1    1    2    0    0 -0.29135218187E+02 -0.41483484726E+02 -0.10718211118E+03  0.11856536341E+03  0.00000000000E+00 0. -1.
</event>
<event>
 6    1  0.9216756E-006  0.1015430E+03  0.7561462E-02  0.1277084E+00
         -2   -1    0    0    0  501 -0.00000000000E+00  0.00000000000E+00  0.13979279749E+03  0.13979279749E+03  0.00000000000E+00 0.  1.
          2   -1    0    0  501    0  0.00000000000E+00 -0.00000000000E+00 -0.90067873326E+02  0.90067873326E+02  0.00000000000E+00 0. -1.
          5    1    1    2  502    0  0.33660200010E+02  0.65969786438E+02 -0.84696194817E+01  0.74660757038E+02  0.41800000000E+01 0. -1.
         -5    1    1    2    0  502 -0.21320612966E+02 -0.35233435208E+02  0.42093658990E+02  0.59036531241E+02  0.41800000000E+01 0. -1.
        -11    1    1    2    0    0  0.33423014110E+02 -0.24249944490E+02  0.26131741750E+02  0.48867428896E+02  0.00000000000E+00 0.  1.
         11    1    1    2    0    0 -0.45762601154E+02 -0.64864067395E+01 -0.10030857096E+02  0.47295953641E+02  0.00000000000E+00 0. -1.
</event>
<event>
 6    1  0.9216756E-006  0.1280859E+03  0.7561462E-02  0.1230324E+00
          1   -1    0    0  501    0  0.00000000000E+00  0.00000000000E+00  0.34391916332E+02  0.34391916332E+02  0.00000000000E+00 0.  1.
         -1   -1    0    0    0  501 -0.00000000000E+00 -0.00000000000E+00 -0.79055090741E+03  0.79055090741E+03  0.00000000000E+00 0. -1.
          5    1    1    2  502    0  0.43910522624E+02  0.11518143176E+03 -0.47275887647E+03  0.48858297545E+03  0.41800000000E+01 0.  1.
         -5    1    1    2    0  502 -0.52846843759E+01  0.17776791244E+01  0.65631817337E+01  0.95726582772E+01  0.41800000000E+01 0.  1.
        -11    1    1    2    0    0 -0.12014907455E+02 -0.76506303511E+02 -0.80123049124E+02  0.11143282945E+03  0.00000000000E+00 0. -1.
         11    1    1    2    0    0 -0.26610930793E+02 -0.40452807372E+02 -0.20984024722E+03  0.21535436057E+03  0.00000000000E+00 0.  1.
</event>
<event>
 6    1  0.9216756E-006  0.1502665E+03  0.7561462E-02  0.1200146E+00
         -2   -1    0    0    0  501 -0.00000000000E+00  0.00000000000E+00  0.32156960498E+02  0.32156960498E+02  0.00000000000E+00 0. -1.
          2   -1    0    0  501    0  0.00000000000E+00 -0.00000000000E+00 -0.85759419794E+03  0.85759419794E+03  0.00000000000E+00 0.  1.
          5    1    1    2  502    0  0.43500774935E+02  0.10298822566E+03 -0.20270868708E+03  0.23153223590E+03  0.41800000000E+01 0.  1.
         -5    1    1    2    0  502  0.39942876821E+02 -0.10440167476E+02 -0.26816712047E+03  0.27135863245E+03  0.41800000000E+01 0.  1.
        -11    1    1    2    0    0 -0.80764345949E+02 -0.32508497589E+02 -0.26556536403E+03  0.27947208191E+03  0.00000000000E+00 0.  1.
         11    1    1    2    0    0 -0.26793058063E+01 -0.60039560598E+02 -0.88996065864E+02  0.10738820818E+03  0.00000000000E+00 0. -1.
</event>
<event>
 6    1  0.9216756E-006  0.8938928E+02  0.7561462E-02  0.1304337E+00
         -1   -1    0    0    0  501 -0.00000000000E+00  0.00000000000E+00  0.80382765854E+02  0.80382765854E+02  0.00000000000E+00 0.  1.
          1   -1    0    0  501    0  0.00000000000E+00 -0.00000000000E+00 -0.16734169834E+03  0.16734169834E+03  0.00000000000E+00 0. -1.
          5    1    1    2  502    0 -0.71163529491E+02  0.28774556955E+02 -0.21118019369E+02  0.79722432224E+02  0.41800000000E+01 0. -1.
         -5    1    1    2    0  502  0.50590115140E+02 -0.56603832390E+01 -0.14356438707E+01  0.51097291138E+02  0.41800000000E+01 0. -1.
        -11    1    1    2    0    0 -0.59346987252E+01 -0.23579307354E+02 -0.81705916248E+02  0.85247059388E+02  0.00000000000E+00 0. -1.
         11    1    1    2    0    0  0.26508113075E+02  0.46513363722E+00  0.17300646999E+02  0.31657681448E+02  0.00000000000E+00 0.  1.
</event>
<event>
 6    1  0.9216756E-006  0.9995364E+02  0.7561462E-02  0.1280393E+00
         -2   -1    0    0    0  501 -0.00000000000E+00  0.00000000000E+00  0.27499175021E+02  0.27499175021E+02  0.00000000000E+00 0.  1.
          2   -1    0    0  501    0  0.00000000000E+00 -0.00000000000E+00 -0.43952795680E+03  0.43952795680E+03  0.00000000000E+00 0. -1.
          5    1    1    2  502    0 -0.50770775685E+02 -0.48624490728E+02 -0.18721449788E+03  0.20002188225E+03  0.41800000000E+01 0.  1.
         -5    1    1    2    0  502  0.40844257603E+02  0.27987256628E+02 -0.59335859638E+02  0.77393517504E+02  0.41800000000E+01 0.  1.
        -11    1    1    2    0    0 -0.53020460449E+01 -0.28171060952E+02 -0.18807825247E+02  0.34284904229E+02  0.00000000000E+00 0.  1.
         11    1    1    2    0    0  0.15228564127E+02  0.48808295053E+02 -0.14667059902E+03  0.15532682785E+03  0.00000000000E+00 0. -1.
</event>
<event>
 6    1  0.9216756E-006  0.1000626E+03  0.7561462E-02  0.1280164E+00
         -2   -1    0    0    0  501 -0.00000000000E+00  0.00000000000E+00  0.10512113483E+03  0.10512113483E+03  0.00000000000E+00 0.  1.
          2   -1    0    0  501    0  0.00000000000E+00 -0.00000000000E+00 -0.20068054120E+03  0.20068054120E+03  0.00000000000E+00 0. -1.
          5    1    1    2  502    0  0.28024063333E+02  0.34188506253E+02  0.24502749020E+02  0.50715472935E+02  0.41800000000E+01 0. -1.
         -5    1    1    2    0  502  0.21248666975E+02  0.33975995985E+02 -0.12279682384E+03  0.12923779051E+03  0.41800000000E+01 0. -1.
        -11    1    1    2    0    0 -0.33277603508E+01 -0.69389848571E+02  0.26196974675E+02  0.74244909292E+02  0.00000000000E+00 0. -1.
         11    1    1    2    0    0 -0.45944969957E+02  0.12253463330E+01 -0.23462306219E+02  0.51603503283E+02  0.00000000000E+00 0.  1.
</event>
<event>
 6    1  0.9216756E-006  0.1963020E+03  0.7561462E-02  0.1152897E+00
         -1   -1    0    0    0  501 -0.00000000000E+00  0.00000000000E+00  0.64980833461E+02  0.64980833461E+02  0.00000000000E+00 0.  1.
          1   -1    0    0  501    0  0.00000000000E+00 -0.00000000000E+00 -0.66255248512E+03  0.66255248512E+03  0.00000000000E+00 0. -1.
          5    1    1    2  502    0  0.95575006383E+01  0.16742878392E+02 -0.11152603238E+02  0.22661040450E+02  0.41800000000E+01 0.  1.
         -5    1    1    2    0  502 -0.69340604543E+02 -0.17713722143E+03 -0.22652905206E+03  0.29583542466E+03  0.41800000000E+01 0.  1.
        -11    1    1    2    0    0  0.38459826116E+02  0.25751013467E+02 -0.16382505611E+03  0.17023783930E+03  0.00000000000E+00 0.  1.
         11    1    1    2    0    0  0.21323277789E+02  0.13464332958E+03 -0.19606494024E+03  0.23879901417E+03  0.00000000000E+00 0. -1.
</event>
<event>
 6    1  0.9216756E-006  0.1179967E+03  0.7561462E-02  0.1246439E+00
         -1   -1    0    0    0  501 -0.00000000000E+00  0.00000000000E+00  0.18341260564E+03  0.18341260564E+03  0.00000000000E+00 0.  1.
          1   -1    0    0  501    0  0.00000000000E+00 -0.00000000000E+00 -0.14545661809E+03  0.14545661809E+03  0.00000000000E+00 0. -1.
          5    1    1    2  502    0 -0.21332530451E+02  0.11562618840E+03  0.92080921355E+02  0.14940167595E+03  0.41800000000E+01 0. -1.
         -5    1    1    2    0  502  0.24883594465E+01 -0.32341688981E+02  0.14398646464E+02  0.35734719795E+02  0.41800000000E+01 0. -1.
        -11    1    1    2    0    0  0.70999378259E+01 -0.18908713224E+02  0.23390366008E+02  0.30904009043E+02  0.00000000000E+00 0.  1.
         11    1    1    2    0    0  0.11744233179E+02 -0.64375786200E+02 -0.91913946278E+02  0.11282881893E+03  0.00000000000E+00 0. -1.
</event>
<event>
 6    1  0.9216756E-006  0.8172833E+02  0.7561462E-02  0.1324217E+00
          1   -1    0    0  501    0  0.00000000000E+00  0.00000000000E+00  0.49506767397E+03  0.49506767397E+03  0.00000000000E+00 0. -1.
         -1   -1    0    0    0  501 -0.00000000000E+00 -0.00000000000E+00 -0.38733405451E+02  0.38733405451E+02  0.00000000000E+00 0.  1.
          5    1    1    2  502    0 -0.34109199583E+02 -0.10003393698E+02  0.16130970581E+03  0.16523256026E+03  0.41800000000E+01 0. -1.
         -5    1    1    2    0  502 -0.19209660429E+02 -0.32953742712E+02 -0.12995908120E+02  0.40513284739E+02  0.41800000000E+01 0. -1.
        -11    1    1    2    0    0 -0.35450985434E+01  0.30979774852E+02  0.27490953028E+02  0.41570021313E+02  0.00000000000E+00 0.  1.
         11    1    1    2    0    0  0.56863958555E+02  0.11977361557E+02  0.28052951779E+03  0.28648521310E+03  0.00000000000E+00 0. -1.
</event>
<event>
 6    1  0.9216756E-006  0.1773788E+03  0.7561462E-02  0.1170364E+00
          1   -1    0    0  501    0  0.00000000000E+00  0.00000000000E+00  0.33524928887E+03  0.33524928887E+03  0.00000000000E+00 0. -1.
         -1   -1    0    0    0  501 -0.00000000000E+00 -0.00000000000E+00 -0.11284910134E+03  0.11284910134E+03  0.00000000000E+00 0.  1.
          5    1    1    2  502    0  0.18794494643E+02 -0.69615732969E+02  0.91822740815E+01  0.72810506542E+02  0.41800000000E+01 0. -1.
         -5    1    1    2    0  502  0.10383885978E+03  0.24154936372E+02  0.47918937729E+02  0.11696010750E+03  0.41800000000E+01 0. -1.
        -11    1    1    2    0    0 -0.42573436888E+02  0.78440065878E+02  0.14358168742E+03  0.16905928671E+03  0.00000000000E+00 0. -1.
         11    1    1    2    0    0 -0.80059917540E+02 -0.32979269281E+02  0.21717288307E+02  0.89268489458E+02  0.00000000000E+00 0.  1.
</event>
<event>
 6    1  0.9216756E-006  0.1040619E+03  0.7561462E-02  0.1271979E+00
          2   -1    0    0  501    0  0.00000000000E+00  0.00000000000E+00  0.62282959754E+03  0.62282959754E+03  0.00000000000E+00 0. -1.
         -2   -1    0    0    0  501 -0.00000000000E+00 -0.00000000000E+00 -0.27339322877E+02  0.27339322877E+02  0.00000000000E+00 0.  1.
          5    1    1    2  502    0 -0.17871112255E+02  0.62770626191E+02  0.43284454934E+02  0.78425407902E+02  0.41800000000E+01 0.  1.
         -5    1    1    2    0  502 -0.17885556379E+02 -0.42740280262E+02  0.13787303237E+03  0.14550969087E+03  0.41800000000E+01 0.  1.
        -11    1    1    2    0    0  0.32541998548E+02 -0.53479276723E+02  0.32072190631E+03  0.32677447253E+03  0.00000000000E+00 0. -1.
         11    1    1    2    0    0  0.32146700850E+01  0.33448930793E+02  0.93610881054E+02  0.99459349116E+02  0.00000000000E+00 0.  1.
</event>
<event>
 6    1  0.9216756E-006  0.2195145E+03  0.7561462E-02  0.1134246E+00
          2   -1    0    0  501    0  0.00000000000E+00  0.00000000000E+00  0.34080524741E+03  0.34080524741E+03  0.00000000000E+00 0. -1.
         -2   -1    0    0    0  501 -0.00000000000E+00 -0.00000000000E+00 -0.14899527532E+03  0.14899527532E+03  0.00000000000E+00 0.  1.
          5    1    1    2  502    0 -0.20050164953E+02 -0.80834399831E+02  0.12653874274E+02  0.84343359222E+02  0.41800000000E+01 0. -1.
         -5    1    1    2    0  502 -0.13667887729E+03 -0.37371130398E+02  0.10551317841E+03  0.17671508170E+03  0.41800000000E+01 0. -1.
        -11    1    1    2    0    0  0.38802458780E+02  0.81681728903E+02  0.49005234416E+02  0.10285450230E+03  0.00000000000E+00 0. -1.
         11    1    1    2    0    0  0.11792658346E+03  0.36523801327E+02  0.24637685001E+02  0.12588757950E+03  0.00000000000E+00 0.  1.
</event>
<event>
 6    1  0.9216756E-006  0.1172074E+03  0.7561462E-02  0.1247776E+00
          2   -1    0    0  501    0  0.00000000000E+00  0.00000000000E+00  0.38800923673E+03  0.38800923673E+03  0.00000000000E+00 0. -1.
         -2   -1    0    0    0  501 -0.00000000000E+00 -0.00000000000E+00 -0.66157817277E+02  0.66157817277E+02  0.00000000000E+00 0.  1.
          5    1    1    2  502    0 -0.55479557600E+02 -0.60329561874E+02  0.87481830813E+01  0.82532662956E+02  0.41800000000E+01 0. -1.
         -5    1    1    2    0  502 -0.35379863028E+02  0.48481115051E+02  0.49905774948E+02  0.78167845036E+02  0.41800000000E+01 0.  1.
        -11    1    1    2    0    0  0.42685546837E+02  0.48724459984E+00  0.23534318078E+02  0.48745845397E+02  0.00000000000E+00 0.  1.
         11    1    1    2    0    0  0.48173873791E+02  0.11361202224E+02  0.23966314334E+03  0.24472070062E+03  0.00000000000E+00 0. -1.
</event>
<event>
 6    1  0.9216756E-006  0.1529005E+03  0.7561462E-02  0.1196954E+00
         -1   -1    0    0    0  501 -0.00000000000E+00  0.00000000000E+00  0.29065542493E+03  0.29065542493E+03  0.00000000000E+00 0.  1.
          1   -1    0    0  501    0  0.00000000000E+00 -0.00000000000E+00 -0.10961898681E+03  0.10961898681E+03  0.00000000000E+00 0. -1.
          5    1    1    2  502    0  0.41999323417E+02  0.76529965255E+02  0.12593354301E+03  0.15328897026E+03  0.41800000000E+01 0. -1.
         -5    1    1    2    0  502  0.64095239387E+02 -0.43228912022E+02  0.69747314263E+02  0.10420699973E+03  0.41800000000E+01 0. -1.
        -11    1    1    2    0    0 -0.61702664753E+02  0.25955774542E+02 -0.15592733042E+02  0.68731756805E+02  0.00000000000E+00 0. -1.
         11    1    1    2    0    0 -0.44391898051E+02 -0.59256827775E+02  0.94831389469E+00  0.74046684935E+02  0.00000000000E+00 0.  1.
</event>
<event>
 6    1  0.9216756E-006  0.1297436E+03  0.7561462E-02  0.1227837E+00
         -2   -1    0    0    0  501 -0.00000000000E+00  0.00000000000E+00  0.76790186347E+02  0.76790186347E+02  0.00000000000E+00 0.  1.
          2   -1    0    0  501    0  0.00000000000E+00 -0.00000000000E+00 -0.35495158988E+03  0.35495158988E+03  0.00000000000E+00 0. -1.
          5    1    1    2  502    0 -0.69317581321E+02 -0.71443303805E+02 -0.11814479880E+03  0.15454688163E+03  0.41800000000E+01 0. -1.
         -5    1    1    2    0  502  0.52155017364E+02  0.37351766900E+02  0.19365820600E+02  0.67140209519E+02  0.41800000000E+01 0.  1.
        -11    1    1    2    0    0  0.14329457158E+02 -0.29034989785E+02 -0.18692780670E+02  0.37386949908E+02  0.00000000000E+00 0.  1.
         11    1    1    2    0    0  0.28331067995E+01  0.63126526690E+02 -0.16068964466E+03  0.17266773517E+03  0.00000000000E+00 0. -1.
</event>
<event>
 6    1  0.9216756E-006  0.1830182E+03  0.7561462E-02  0.1164914E+00
          1   -1    0    0  501    0  0.00000000000E+00  0.00000000000E+00  0.13863565820E+03  0.13863565820E+03  0.00000000000E+00 0. -1.
         -1   -1    0    0    0  501 -0.00000000000E+00 -0.00000000000E+00 -0.26168544185E+03  0.26168544185E+03  0.00000000000E+00 0.  1.
          5    1    1    2  502    0  0.20552062408E+02 -0.15279976987E+02 -0.29164186832E+02  0.39036997317E+02  0.41800000000E+01 0. -1.
         -5    1    1    2    0  502 -0.98987524344E+02  0.14386320085E+03 -0.58725209388E+02  0.18428584632E+03  0.41800000000E+01 0.  1.
        -11    1    1    2    0    0  0.31338232118E+02 -0.11066800537E+03  0.92010985445E+00  0.11502320987E+03  0.00000000000E+00 0. -1.
         11    1    1    2    0    0  0.47097229818E+02 -0.17915218492E+02 -0.36080497284E+02  0.61975046546E+02  0.00000000000E+00 0.  1.
</event>
<event>
 6    1  0.9216756E-006  0.1024538E+03  0.7561462E-02  0.1275219E+00
         -2   -1    0    0    0  501 -0.00000000000E+00  0.00000000000E+00  0.28401593369E+03  0.28401593369E+03  0.00000000000E+00 0.  1.
          2   -1    0    0  501    0  0.00000000000E+00 -0.00000000000E+00 -0.10012855688E+03  0.10012855688E+03  0.00000000000E+00 0. -1.
          5    1    1    2  502    0 -0.27894602406E+02  0.22882330839E+02 -0.57700183016E+01  0.36776016903E+02  0.41800000000E+01 0. -1.
         -5    1    1    2    0  502  0.20760108468E+01  0.57955148207E+02  0.20632840003E+03  0.21436415298E+03  0.41800000000E+01 0. -1.
        -11    1    1    2    0    0  0.11420499394E+02  0.11959800984E+02  0.25235017106E+02  0.30170693302E+02  0.00000000000E+00 0.  1.
         11    1    1    2    0    0  0.14398092166E+02 -0.92797280030E+02 -0.41906022021E+02  0.10283362738E+03  0.00000000000E+00 0. -1.
</event>
<event>
 6    1  0.9216756E-006  0.1186218E+03  0.7561462E-02  0.1245388E+00
          2   -1    0    0  501    0  0.00000000000E+00  0.00000000000E+00  0.35602241676E+03  0.35602241676E+03  0.00000000000E+00 0. -1.
         -2   -1    0    0    0  501 -0.00000000000E+00 -0.00000000000E+00 -0.54597419442E+02  0.54597419442E+02  0.00000000000E+00 0.  1.
          5    1    1    2  502    0  0.36885732363E+02  0.15634434043E+02  0.14836905319E+03  0.15373952363E+03  0.41800000000E+01 0.  1.
         -5    1    1    2    0  502  0.17756151825E+02 -0.73579409855E+02  0.39121881423E+02  0.85306532506E+02  0.41800000000E+01 0.  1.
        -11    1    1    2    0    0 -0.69731842933E+02  0.94510849881E+01  0.37315371019E+02  0.79651050467E+02  0.00000000000E+00 0.  1.
         11    1    1    2    0    0  0.15089958745E+02  0.48493890823E+02  0.76618691688E+02  0.91922729605E+02  0.00000000000E+00 0. -1.
</event>
<event>
 6    1  0.9216756E-006  0.1128145E+03  0.7561462E-02  0.1255445E+00
         -1   -1    0    0    0  501 -0.00000000000E+00  0.00000000000E+00  0.31282807174E+03  0.31282807174E+03  0.00000000000E+00 0.  1.
          1   -1    0    0  501    0  0.00000000000E+00 -0.00000000000E+00 -0.51683289865E+02  0.51683289865E+02  0.00000000000E+00 0. -1.
          5    1    1    2  502    0 -0.67386798458E+01  0.78756373526E+02  0.16066782826E+03  0.17910778770E+03  0.41800000000E+01 0. -1.
         -5    1    1    2    0  502  0.33742586105E+02 -0.21286085388E+02  0.91231562413E+01  0.41138351061E+02  0.41800000000E+01 0. -1.
        -11    1    1    2    0    0 -0.14202574718E+01  0.22424533291E+02  0.34115451517E+01  0.22726976590E+02  0.00000000000E+00 0. -1.
         11    1    1    2    0    0 -0.25583648787E+02 -0.79894821428E+02  0.87942252214E+02  0.12153824625E+03  0.00000000000E+00 0.  1.
</event>
<event>
 6    1  0.9216756E-006  0.1505963E+03  0.7561462E-02  0.1199742E+00
         -2   -1    0    0    0  501 -0.00000000000E+00  0.00000000000E+00  0.66150437670E+02  0.66150437670E+02  0.00000000000E+00 0.  1.
          2   -1    0    0  501    0  0.00000000000E+00 -0.00000000000E+00 -0.40014856541E+03  0.40014856541E+03  0.00000000000E+00 0. -1.
          5    1    1    2  502    0  0.29359304403E+02  0.81055302277E+02 -0.34930459558E+02  0.93110365627E+02  0.41800000000E+01 0. -1.
         -5    1    1    2    0  502 -0.72934054651E+02  0.22375398427E+02 -0.79106754051E+02  0.10997902400E+03  0.41800000000E+01 0. -1.
        -11    1    1    2    0    0 -0.11598832728E+02 -0.75968300643E+02 -0.15861979833E+03  0.17625537168E+03  0.00000000000E+00 0. -1.
         11    1    1    2    0    0  0.55173582976E+02 -0.27462400061E+02 -0.61341115798E+02  0.86954241776E+02  0.00000000000E+00 0.  1.
</event>
<event>
 6    1  0.9216756E-006  0.2534783E+03  0.7561462E-02  0.1111126E+00
         -2   -1    0    0    0  501 -0.00000000000E+00  0.00000000000E+00  0.15598112826E+03  0.15598112826E+03  0.00000000000E+00 0. -1.
          2   -1    0    0  501    0  0.00000000000E+00 -0.00000000000E+00 -0.44539138543E+03  0.44539138543E+03  0.00000000000E+00 0.  1.
          5    1    1    2  502    0 -0.63901800024E+02  0.26785083226E+01  0.66624724281E+01  0.64439703537E+02  0.41800000000E+01 0.  1.
         -5    1    1    2    0  502 -0.13931655093E+03 -0.12965408300E+03 -0.14445870134E+03  0.23896667423E+03  0.41800000000E+01 0.  1.
        -11    1    1    2    0    0  0.91772072074E+02  0.10402036630E+03 -0.10916506206E+03  0.17652014217E+03  0.00000000000E+00 0.  1.
         11    1    1    2    0    0  0.11144627888E+03  0.22955208382E+02 -0.42448966205E+02  0.12144599376E+03  0.00000000000E+00 0. -1.
</event>
<event>
 6    1  0.9216756E-006  0.8012847E+02  0.7561462E-02  0.1328687E+00
          1   -1    0    0  501    0  0.00000000000E+00  0.00000000000E+00  0.56943363305E+02  0.56943363305E+02  0.00000000000E+00 0. -1.
         -1   -1    0    0    0  501 -0.00000000000E+00 -0.00000000000E+00 -0.25217566836E+03  0.25217566836E+03  0.00000000000E+00 0.  1.
          5    1    1    2  502    0  0.14163340348E+02  0.28844038438E+02  0.10431662742E+02  0.34042190746E+02  0.41800000000E+01 0.  1.
         -5    1    1    2    0  502 -0.65591726085E+02 -0.22404909304E+02 -0.12647336994E+03  0.14428180826E+03  0.41800000000E+01 0.  1.
        -11    1    1    2    0    0  0.34949740470E+02  0.87220771757E+01 -0.96169000157E+02  0.10269389261E+03  0.00000000000E+00 0.  1.
         11    1    1    2    0    0  0.16478645267E+02 -0.15161206310E+02  0.16978402304E+02  0.28101140037E+02  0.00000000000E+00 0. -1.
</event>
<event>
 6    1  0.9216756E-006  0.8389495E+02  0.7561462E-02  0.1318348E+00
          1   -1    0    0  501    0  0.00000000000E+00  0.00000000000E+00  0.26197145768E+03  0.26197145768E+03  0.00000000000E+00 0. -1.
         -1   -1    0    0    0  501 -0.00000000000E+00 -0.00000000000E+00 -0.45743234346E+02  0.45743234346E+02  0.00000000000E+00 0.  1.
          5    1    1    2  502    0 -0.46798930428E+02  0.14948183282E+02  0.52698890477E+01  0.49586613145E+02  0.41800000000E+01 0. -1.
         -5    1    1    2    0  502  0.29820393031E+02 -0.29747306920E+02  0.12697081667E+03  0.13384027344E+03  0.41800000000E+01 0. -1.
        -11    1    1    2    0    0 -0.14878046401E+02 -0.22581870762E+02  0.56259245905E-01  0.27042564911E+02  0.00000000000E+00 0.  1.
         11    1    1    2    0    0  0.31856583798E+02  0.37380994401E+02  0.83931258374E+02  0.97245240531E+02  0.00000000000E+00 0. -1.
</event>
<event>
 6    1  0.9216756E-006  0.1304669E+03  0.7561462E-02  0.1226765E+00
         -2   -1    0    0    0  501 -0.00000000000E+00  0.00000000000E+00  0.27520514231E+02  0.27520514231E+02  0.00000000000E+00 0. -1.
          2   -1    0    0  501    0  0.00000000000E+00 -0.00000000000E+00 -0.86930114270E+03  0.86930114270E+03  0.00000000000E+00 0.  1.
          5    1    1    2  502    0 -0.55183734026E+02 -0.30572656766E+02 -0.13609894235E+03  0.15006773921E+03  0.41800000000E+01 0. -1.
         -5    1    1    2    0  502  0.64215490709E+02 -0.47077342673E+02 -0.94106078547E+02  0.12334233604E+03  0.41800000000E+01 0. -1.
        -11    1    1    2    0    0 -0.42120901155E+02  0.10952918345E+02 -0.16355102577E+03  0.16924265055E+03  0.00000000000E+00 0. -1.
         11    1    1    2    0    0  0.33089144472E+02  0.66697081093E+02 -0.44802458180E+03  0.45416893113E+03  0.00000000000E+00 0.  1.
</event>
<event>
 6    1  0.9216756E-006  0.1914283E+03  0.7561462E-02  0.1157179E+00
         -1   -1    0    0    0  501 -0.00000000000E+00  0.00000000000E+00  0.58619875566E+03  0.58619875566E+03  0.00000000000E+00 0.  1.
          1   -1    0    0  501    0  0.00000000000E+00 -0.00000000000E+00 -0.63559486232E+02  0.63559486232E+02  0.00000000000E+00 0. -1.
          5    1    1    2  502    0  0.73284474642E+02  0.12973001264E+02  0.81842106799E+02  0.11070011667E+03  0.41800000000E+01 0. -1.
         -5    1    1    2    0  502  0.33974792788E+01  0.12589155139E+03  0.18995402417E+03  0.22794786525E+03  0.41800000000E+01 0. -1.
        -11    1    1    2    0    0  0.10262141194E+02 -0.71734180124E+02  0.79397288671E+02  0.10749434212E+03  0.00000000000E+00 0. -1.
         11    1    1    2    0    0 -0.86944095115E+02 -0.67130372526E+02  0.17144584979E+03  0.20361591785E+03  0.00000000000E+00 0.  1.
</event>
<event>
 6    1  0.9216756E-006  0.1156724E+03  0.7561462E-02  0.1250412E+00
         -1   -1    0    0    0  501 -0.00000000000E+00  0.00000000000E+00  0.11841015294E+03  0.11841015294E+03  0.00000000000E+00 0.  1.
          1   -1    0    0  501    0  0.00000000000E+00 -0.00000000000E+00 -0.18196530836E+03  0.18196530836E+03  0.00000000000E+00 0. -1.
          5    1    1    2  502    0  0.57561000897E+02 -0.35041744181E+02  0.16059159478E+02  0.69401452885E+02  0.41800000000E+01 0. -1.
         -5    1    1    2    0  502 -0.64439899768E+02  0.50540859196E+02  0.29743763195E+02  0.87229828495E+02  0.41800000000E+01 0.  1.
        -11    1    1    2    0    0 -0.27486229279E+02  0.18777291934E+02 -0.80897288568E+02  0.87478287535E+02  0.00000000000E+00 0.  1.
         11    1    1    2    0    0  0.34365128150E+02 -0.34276406949E+02 -0.28460789524E+02  0.56265892390E+02  0.00000000000E+00 0. -1.
</event>
<event>
 6    1  0.9216756E-006  0.1680341E+03  0.7561462E-02  0.1179914E+00
         -1   -1    0    0    0  501 -0.00000000000E+00  0.00000000000E+00  0.58156752426E+03  0.58156752426E+03  0.00000000000E+00 0.  1.
          1   -1    0    0  501    0  0.00000000000E+00 -0.00000000000E+00 -0.52773075517E+02  0.52773075517E+02  0.00000000000E+00 0. -1.
          5    1    1    2  502    0 -0.15354036580E+02 -0.98505287432E+02  0.22828147898E+03  0.24913639665E+03  0.41800000000E+01 0. -1.
         -5    1    1    2    0  502 -0.77309664635E+02 -0.43939346488E+00  0.89877730738E+02  0.11862738383E+03  0.41800000000E+01 0. -1.
        -11    1    1    2    0    0  0.51782649889E+01 -0.14618400554E+02  0.44596358215E+02  0.47215963710E+02  0.00000000000E+00 0.  1.
         11    1    1    2    0    0  0.87485436226E+02  0.11356308145E+03  0.16603888080E+03  0.21936085558E+03  0.00000000000E+00 0. -1.
</event>
<event>
 6    1  0.9216756E-006  0.1368842E+03  0.7561462E-02  0.1217584E+00
          1   -1    0    0  501    0  0.00000000000E+00  0.00000000000E+00  0.14342119769E+03  0.14342119769E+03  0.00000000000E+00 0. -1.
         -1   -1    0    0    0  501 -0.00000000000E+00 -0.00000000000E+00 -0.13537124575E+03  0.13537124575E+03  0.00000000000E+00 0.  1.
          5    1    1    2  502    0 -0.15583073863E+02  0.57889288214E+02 -0.16741631541E+02  0.62383944310E+02  0.41800000000E+01 0.  1.
         -5    1    1    2    0  502  0.89765378321E+02 -0.88110746984E+01  0.12564962270E+02  0.91163637813E+02  0.41800000000E+01 0.  1.
        -11    1    1    2    0    0 -0.14303874079E+02 -0.60717855438E+02  0.15087417327E+02  0.64178570756E+02  0.00000000000E+00 0. -1.
         11    1    1    2    0    0 -0.59878430379E+02  0.11639641922E+02 -0.28607961167E+01  0.61066290563E+02  0.00000000000E+00 0.  1.
</event>
<event>
 6    1  0.9216756E-006  0.1430786E+03  0.7561462E-02  0.1209246E+00
          2   -1    0    0  501    0  0.00000000000E+00  0.00000000000E+00  0.93615196142E+03  0.93615196142E+03  0.00000000000E+00 0.  1.
         -2   -1    0    0    0  501 -0.00000000000E+00 -0.00000000000E+00 -0.24765179240E+02  0.24765179240E+02  0.00000000000E+00 0. -1.
          5    1    1    2  502    0  0.42361314895E+02  0.52946010941E+02  0.29623980100E+03  0.30392968458E+03  0.41800000000E+01 0. -1.
         -5    1    1    2    0  502 -0.69657371957E+02  0.49023084628E+02  0.16973671342E+03  0.18995640704E+03  0.41800000000E+01 0. -1.
        -11    1    1    2    0    0 -0.56576691350E+01 -0.99751857648E+02  0.25681558003E+03  0.27556611633E+03  0.00000000000E+00 0. -1.
         11    1    1    2    0    0  0.32953726197E+02 -0.22172379208E+01  0.18859468773E+03  0.19146493270E+03  0.00000000000E+00 0.  1.
</event>
<event>
 6    1  0.9216756E-006  0.1701958E+03  0.7561462E-02  0.1177644E+00
         -2   -1    0    0    0  501 -0.00000000000E+00  0.00000000000E+00  0.74718265357E+02  0.74718265357E+02  0.00000000000E+00 0.  1.
          2   -1    0    0  501    0  0.00000000000E+00 -0.00000000000E+00 -0.40973389892E+03  0.40973389892E+03  0.00000000000E+00 0. -1.
          5    1    1    2  502    0 -0.27398612958E+02  0.56146195765E+02 -0.25726972377E+02  0.67693639277E+02  0.41800000000E+01 0. -1.
         -5    1    1    2    0  502  0.99785640015E+02  0.58853408644E+02 -0.12716022302E+03  0.17207002174E+03  0.41800000000E+01 0. -1.
        -11    1    1    2    0    0  0.16961000050E+02 -0.45805735933E+02 -0.71123806085E+02  0.86281149501E+02  0.00000000000E+00 0. -1.
         11    1    1    2    0    0 -0.89348027107E+02 -0.69193868475E+02 -0.11100463208E+03  0.15840735376E+03  0.00000000000E+00 0.  1.
</event>
<event>
 6    1  0.9216756E-006  0.9217002E+02  0.7561462E-02  0.1297680E+00
          3   -1    0    0  501    0  0.00000000000E+00  0.00000000000E+00  0.45947660633E+02  0.45947660633E+02  0.00000000000E+00 0. -1.
         -3   -1    0    0    0  501 -0.00000000000E+00 -0.00000000000E+00 -0.26943228529E+03  0.26943228529E+03  0.00000000000E+00 0.  1.
          5    1    1    2  502    0 -0.31008448511E+02 -0.49881158261E+02 -0.20025283759E+02  0.62194358411E+02  0.41800000000E+01 0.  1.
         -5    1    1    2    0  502  0.21751487000E+02  0.27576639166E+02 -0.12953462869E+03  0.13427691776E+03  0.41800000000E+01 0.  1.
        -11    1    1    2    0    0  0.44069827390E+02  0.31392578338E+02 -0.58721275450E+02  0.79848806198E+02  0.00000000000E+00 0.  1.
         11    1    1    2    0    0 -0.34812865879E+02 -0.90880592426E+01 -0.15203436762E+02  0.39059863554E+02  0.00000000000E+00 0. -1.
</event>
<event>
 6    1  0.9216756E-006  0.1215825E+03  0.7561462E-02  0.1240509E+00
          2   -1    0    0  501    0  0.00000000000E+00  0.00000000000E+00  0.16498513871E+03  0.16498513871E+03  0.00000000000E+00 0. -1.
         -2   -1    0    0    0  501 -0.00000000000E+00 -0.00000000000E+00 -0.12608077702E+03  0.12608077702E+03  0.00000000000E+00 0.  1.
          5    1    1    2  502    0 -0.10830280852E+03  0.32445789765E+02  0.17875030252E+02  0.11453914926E+03  0.41800000000E+01 0.  1.
         -5    1    1    2    0  502  0.23030915042E+02 -0.10217536605E+02 -0.29338951844E+02  0.38898169587E+02  0.41800000000E+01 0.  1.
        -11    1    1    2    0    0  0.54836428119E+02  0.14566497636E+02  0.66324526165E+02  0.87282068451E+02  0.00000000000E+00 0. -1.
         11    1    1    2    0    0  0.30435465364E+02 -0.36794750796E+02 -0.15956242882E+02  0.50346528430E+02  0.00000000000E+00 0.  1.
</event>
<event>
 6    1  0.9216756E-006  0.1297890E+03  0.7561462E-02  0.1227769E+00
          1   -1    0    0  501    0  0.00000000000E+00  0.00000000000E+00  0.67677555638E+02  0.67677555638E+02  0.00000000000E+00 0. -1.
         -1   -1    0    0    0  501 -0.00000000000E+00 -0.00000000000E+00 -0.28779526613E+03  0.28779526613E+03  0.00000000000E+00 0.  1.
          5    1    1    2  502    0 -0.77866863028E+02  0.35121925329E+02 -0.93676179699E+02  0.12684438119E+03  0.41800000000E+01 0.  1.
         -5    1    1    2    0  502  0.43569698693E+02  0.36220702815E+02 -0.84744074217E+02  0.10202592059E+03  0.41800000000E+01 0. -1.
        -11    1    1    2    0    0 -0.89753599583E+01 -0.73374244125E+02 -0.38022601698E+02  0.83126740747E+02  0.00000000000E+00 0.  1.
         11    1    1    2    0    0  0.43272524293E+02  0.20316159819E+01 -0.36748548754E+01  0.43475779241E+02  0.00000000000E+00 0. -1.
</event>
<event>
 6    1  0.9216756E-006  0.1258803E+03  0.7561462E-02  0.1233700E+00
         -2   -1    0    0    0  501 -0.00000000000E+00  0.00000000000E+00  0.13319902516E+04  0.13319902516E+04  0.00000000000E+00 0.  1.
          2   -1    0    0  501    0  0.00000000000E+00 -0.00000000000E+00 -0.22396410443E+02  0.22396410443E+02  0.00000000000E+00 0. -1.
          5    1    1    2  502    0 -0.56025226316E+01 -0.24539821847E+02  0.72019939050E+02  0.76406381519E+02  0.41800000000E+01 0. -1.
         -5    1    1    2    0  502  0.39527957320E+02  0.10777732148E+03  0.10130717405E+04  0.10195637470E+04  0.41800000000E+01 0. -1.
        -11    1    1    2    0    0 -0.28659978484E+02 -0.94601108845E+02  0.22513211378E+03  0.24587645845E+03  0.00000000000E+00 0.  1.
         11    1    1    2    0    0 -0.52654562044E+01  0.11363609215E+02 -0.62995214985E+00  0.12540075085E+02  0.00000000000E+00 0. -1.
</event>
<event>
 6    1  0.9216756E-006  0.1519407E+03  0.7561462E-02  0.1198108E+00
         -2   -1    0    0    0  501 -0.00000000000E+00  0.00000000000E+00  0.88633343366E+03  0.88633343366E+03  0.00000000000E+00 0.  1.
          2   -1    0    0  501    0  0.00000000000E+00 -0.00000000000E+00 -0.35440877769E+02  0.35440877769E+02  0.00000000000E+00 0. -1.
          5    1    1    2  502    0  0.19396453958E+02  0.35790604548E+01  0.23310713121E+03  0.23397743293E+03  0.41800000000E+01 0. -1.
         -5    1    1    2    0  502 -0.95997669753E+02 -0.96527257728E+02  0.40223118170E+03  0.42466511513E+03  0.41800000000E+01 0. -1.
        -11    1    1    2    0    0  0.73085374831E+02  0.21776680184E+02  0.83539496276E+02  0.11311296677E+03  0.00000000000E+00 0. -1.
         11    1    1    2    0    0  0.35158409643E+01  0.71171517089E+02  0.13201474671E+03  0.15001879660E+03  0.00000000000E+00 0.  1.
</event>
<event>
 6    1  0.9216756E-006  0.8037706E+02  0.7561462E-02  0.1327985E+00
         -2   -1    0    0    0  501 -0.00000000000E+00  0.00000000000E+00  0.27019368698E+02  0.27019368698E+02  0.00000000000E+00 0.  1.
          2   -1    0    0  501    0  0.00000000000E+00 -0.00000000000E+00 -0.53699696396E+03  0.53699696396E+03  0.00000000000E+00 0. -1.
          5    1    1    2  502    0  0.16753698507E+02  0.27445636700E+02 -0.15779556924E+03  0.16109271697E+03  0.41800000000E+01 0. -1.
         -5    1    1    2    0  502  0.23764714813E+02 -0.25795436188E+02  0.14758994115E+01  0.35352749219E+02  0.41800000000E+01 0.  1.
        -11    1    1    2    0    0  0.18590957772E+02 -0.23520793516E+02 -0.58230396897E+02  0.65495271289E+02  0.00000000000E+00 0.  1.
         11    1    1    2    0    0 -0.59109371091E+02  0.21870593003E+02 -0.29542752853E+03  0.30207559518E+03  0.00000000000E+00 0. -1.
</event>
<event>
 6    1  0.9216756E-006  0.1176496E+03  0.7561462E-02  0.1247026E+00
         -1   -1    0    0    0  501 -0.00000000000E+00  0.00000000000E+00  0.86548577103E+02  0.86548577103E+02  0.00000000000E+00 0.  1.
          1   -1    0    0  501    0  0.00000000000E+00 -0.00000000000E+00 -0.20961706274E+03  0.20961706274E+03  0.00000000000E+00 0. -1.
          5    1    1    2  502    0  0.32439031460E+02 -0.39303049610E+02 -0.56203686009E+02  0.75982545310E+02  0.41800000000E+01 0.  1.
         -5    1    1    2    0  502 -0.74432471112E+02 -0.26818478018E+02  0.71425025669E+01  0.79548169444E+02  0.41800000000E+01 0.  1.
        -11    1    1    2    0    0 -0.11823544682E+02  0.45983005317E+02 -0.67895242304E+02  0.82849242087E+02  0.00000000000E+00 0. -1.
         11    1    1    2    0    0  0.53816984334E+02  0.20138522310E+02 -0.61120598886E+01  0.57785683000E+02  0.00000000000E+00 0.  1.
</event>
<event>
 6    1  0.9216756E-006  0.1507513E+03  0.7561462E-02  0.1199553E+00
         -1   -1    0    0    0  501 -0.00000000000E+00  0.00000000000E+00  0.27352812093E+02  0.27352812093E+02  0.00000000000E+00 0.  1.
          1   -1    0    0  501    0  0.00000000000E+00 -0.00000000000E+00 -0.99383897423E+03  0.99383897423E+03  0.00000000000E+00 0. -1.
          5    1    1    2  502    0  0.43393324427E+02  0.50843624575E+02 -0.24495920075E+03  0.25394987142E+03  0.41800000000E+01 0. -1.
         -5    1    1    2    0  502 -0.10987572434E+03 -0.14383544831E+00 -0.18051077407E+03  0.21136297557E+03  0.41800000000E+01 0.  1.
        -11    1    1    2    0    0 -0.23891310772E+01 -0.55484313622E+02 -0.18197635544E+03  0.19026195349E+03  0.00000000000E+00 0.  1.
         11    1    1    2    0    0  0.68871530995E+02  0.47845244954E+01 -0.35903983188E+03  0.36561698584E+03  0.00000000000E+00 0. -1.
</event>
<event>
 6    1  0.9216756E-006  0.1745508E+03  0.7561462E-02  0.1173184E+00
          1   -1    0    0  501    0  0.00000000000E+00  0.00000000000E+00  0.33050564194E+03  0.33050564194E+03  0.00000000000E+00 0. -1.
         -1   -1    0    0    0  501 -0.00000000000E+00 -0.00000000000E+00 -0.10649404079E+03  0.10649404079E+03  0.00000000000E+00 0.  1.
          5    1    1    2  502    0 -0.49560061872E+02  0.42133202509E+02  0.25619798960E+02  0.70037511272E+02  0.41800000000E+01 0. -1.
         -5    1    1    2    0  502 -0.93753470560E+02 -0.91219791957E+02  0.71110338616E+02  0.14894601822E+03  0.41800000000E+01 0. -1.
        -11    1    1    2    0    0  0.71645519251E+02  0.13046914989E+02  0.11606030386E+03  0.13701567995E+03  0.00000000000E+00 0. -1.
         11    1    1    2    0    0  0.71668013181E+02  0.36039674458E+02  0.11221159715E+02  0.81000473293E+02  0.00000000000E+00 0.  1.
</event>
<event>
 6    1  0.9216756E-006  0.1466860E+03  0.7561462E-02  0.1204605E+00
          2   -1    0    0  501    0  0.00000000000E+00  0.00000000000E+00  0.24752973211E+03  0.24752973211E+03  0.00000000000E+00 0. -1.
         -2   -1    0    0    0  501 -0.00000000000E+00 -0.00000000000E+00 -0.11459900781E+03  0.11459900781E+03  0.00000000000E+00 0.  1.
          5    1    1    2  502    0  0.74300524107E+02 -0.84479930407E+02 -0.37102835193E+01  0.11264397511E+03  0.41800000000E+01 0.  1.
         -5    1    1    2    0  502 -0.48914124111E+02 -0.24567178113E+02  0.62410016002E+01  0.55249979900E+02  0.41800000000E+01 0.  1.
        -11    1    1    2    0    0 -0.12121629248E+01  0.10011329806E+03  0.13498003809E+03  0.16805877683E+03  0.00000000000E+00 0. -1.
         11    1    1    2    0    0 -0.24174237072E+02  0.89338104559E+01 -0.45800318687E+01  0.26176008083E+02  0.00000000000E+00 0.  1.
</event>
<event>
 6    1  0.9216756E-006  0.9807023E+02  0.7561462E-02  0.1284407E+00
         -2   -1    0    0    0  501 -0.00000000000E+00  0.00000000000E+00  0.16356432030E+04  0.16356432030E+04  0.00000000000E+00 0. -1.
          2   -1    0    0  501    0  0.00000000000E+00 -0.00000000000E+00 -0.13308107658E+02  0.13308107658E+02  0.00000000000E+00 0.  1.
          5    1    1    2  502    0  0.22331304866E+00  0.62939186240E+02  0.58276218023E+03  0.58616603633E+03  0.41800000000E+01 0. -1.
         -5    1    1    2    0  502 -0.25664886217E+02 -0.55342247173E+02  0.91750814970E+03  0.91954343447E+03  0.41800000000E+01 0. -1.
        -11    1    1    2    0    0  0.27161179683E+02 -0.35087124250E+02  0.93855085194E+02  0.10381528301E+03  0.00000000000E+00 0. -1.
         11    1    1    2    0    0 -0.17196065143E+01  0.27490185183E+02  0.28209680237E+02  0.39426556875E+02  0.00000000000E+00 0.  1.
</event>
<event>
 6    1  0.9216756E-006  0.2272045E+03  0.7561462E-02  0.1128623E+00
         -1   -1    0    0    0  501 -0.00000000000E+00  0.00000000000E+00  0.75947361815E+02  0.75947361815E+02  0.00000000000E+00 0.  1.
          1   -1    0    0  501    0  0.00000000000E+00 -0.00000000000E+00 -0.81861479319E+03  0.81861479319E+03  0.00000000000E+00 0. -1.
          5    1    1    2  502    0  0.58769385133E+02 -0.14851232338E+03 -0.20256538561E+03  0.25799216785E+03  0.41800000000E+01 0.  1.
         -5    1    1    2    0  502  0.75689786992E+02 -0.13169707929E+02 -0.40720095511E+02  0.87051614805E+02  0.41800000000E+01 0.  1.
        -11    1    1    2    0    0 -0.46572869953E+02  0.19384638820E+02 -0.20328619126E+03  0.20945183693E+03  0.00000000000E+00 0. -1.
         11    1    1    2    0    0 -0.87886302172E+02  0.14229739249E+03 -0.29609575900E+03  0.34006653542E+03  0.00000000000E+00 0.  1.
</event>
<event>
 6    1  0.9216756E-006  0.9270781E+02  0.7561462E-02  0.1296424E+00
         -1   -1    0    0    0  501 -0.00000000000E+00  0.00000000000E+00  0.16898342115E+03  0.16898342115E+03  0.00000000000E+00 0.  1.
          1   -1    0    0  501    0  0.00000000000E+00 -0.00000000000E+00 -0.73644940661E+02  0.73644940661E+02  0.00000000000E+00 0. -1.
          5    1    1    2  502    0  0.20020336002E+02 -0.44547451270E+02  0.88284825418E+02  0.10098005777E+03  0.41800000000E+01 0.  1.
         -5    1    1    2    0  502 -0.15635299664E+02  0.43223129548E+02 -0.92320550591E+01  0.47068086472E+02  0.41800000000E+01 0.  1.
        -11    1    1    2    0    0 -0.34665941924E+02  0.31973021026E+02 -0.32549446533E+01  0.47271516453E+02  0.00000000000E+00 0. -1.
         11    1    1    2    0    0  0.30280905586E+02 -0.30648699304E+02  0.19540654786E+02  0.47308701119E+02  0.00000000000E+00 0.  1.
</event>
<event>
 6    1  0.9216756E-006  0.9593663E+02  0.7561462E-02  0.1289080E+00
         -1   -1    0    0    0  501 -0.00000000000E+00  0.00000000000E+00  0.38724175184E+03  0.38724175184E+03  0.00000000000E+00 0.  1.
          1   -1    0    0  501    0  0.00000000000E+00 -0.00000000000E+00 -0.36768827863E+02  0.36768827863E+02  0.00000000000E+00 0. -1.
          5    1    1    2  502    0 -0.54542496774E+02  0.35582266602E+01  0.13627017238E+03  0.14688286902E+03  0.41800000000E+01 0.  1.
         -5    1    1    2    0  502  0.53731838709E+02 -0.49838321036E+02  0.94517352755E+02  0.11967443798E+03  0.41800000000E+01 0.  1.
        -11    1    1    2    0    0  0.22117855780E+02  0.20026024788E+02  0.11998547917E+03  0.12363962320E+03  0.00000000000E+00 0.  1.
         11    1    1    2    0    0 -0.21307197715E+02  0.26254069588E+02 -0.30008032651E+00  0.33813649502E+02  0.00000000000E+00 0. -1.
</event>
<event>
 6    1  0.9216756E-006  0.1406075E+03  0.7561462E-02  0.1212514E+00
          4   -1    0    0  501    0  0.00000000000E+00  0.00000000000E+00  0.12455844012E+03  0.12455844012E+03  0.00000000000E+00 0. -1.
         -4   -1    0    0    0  501 -0.00000000000E+00 -0.00000000000E+00 -0.21655227910E+03  0.21655227910E+03  0.00000000000E+00 0.  1.
          5    1    1    2  502    0 -0.29435090827E+02 -0.70219809393E+02  0.33515515951E+02  0.83294708191E+02  0.41800000000E+01 0.  1.
         -5    1    1    2    0  502 -0.58218134879E+02 -0.16568855825E+02 -0.76369089357E+02  0.97537625670E+02  0.41800000000E+01 0.  1.
        -11    1    1    2    0    0  0.41207516203E+02  0.88696774829E+02 -0.56901315078E+02  0.11315006370E+03  0.00000000000E+00 0. -1.
         11    1    1    2    0    0  0.46445709504E+02 -0.19081096105E+01  0.77610495025E+01  0.47128321665E+02  0.00000000000E+00 0.  1.
</event>
<event>
 6    1  0.9216756E-006  0.1157476E+03  0.7561462E-02  0.1250282E+00
         -4   -1    0    0    0  501 -0.00000000000E+00  0.00000000000E+00  0.26915525298E+03  0.26915525298E+03  0.00000000000E+00 0.  1.
          4   -1    0    0  501    0  0.00000000000E+00 -0.00000000000E+00 -0.14750055914E+03  0.14750055914E+03  0.00000000000E+00 0. -1.
          5    1    1    2  502    0 -0.55744782529E+02  0.14946328313E+02 -0.69090304729E+02  0.90121119150E+02  0.41800000000E+01 0. -1.
         -5    1    1    2    0  502  0.39886540403E+02  0.45357224617E+02  0.20279537830E+03  0.21164038318E+03  0.41800000000E+01 0.  1.
        -11    1    1    2    0    0  0.53264517538E+02 -0.17108243024E+02 -0.14180636422E+02  0.57713874044E+02  0.00000000000E+00 0.  1.
         11    1    1    2    0    0 -0.37406275412E+02 -0.43195309907E+02  0.21302566901E+01  0.57180435742E+02  0.00000000000E+00 0. -1.
</event>
<event>
 6    1  0.9216756E-006  0.1569321E+03  0.7561462E-02  0.1192205E+00
          2   -1    0    0  501    0  0.00000000000E+00  0.00000000000E+00  0.11804062763E+03  0.11804062763E+03  0.00000000000E+00 0. -1.
         -2   -1    0    0    0  501 -0.00000000000E+00 -0.00000000000E+00 -0.32043198965E+03  0.32043198965E+03  0.00000000000E+00 0.  1.
          5    1    1    2  502    0  0.13394335493E+02 -0.49930762480E+02 -0.13753797457E+03  0.14699202739E+03  0.41800000000E+01 0.  1.
         -5    1    1    2    0  502  0.27408647190E+02 -0.98546304676E+02 -0.15448756022E+02  0.10353136997E+03  0.41800000000E+01 0.  1.
        -11    1    1    2    0    0 -0.17314483942E+02  0.11815559851E+02  0.23331562199E+02  0.31364958208E+02  0.00000000000E+00 0. -1.
         11    1    1    2    0    0 -0.23488498741E+02  0.13666150730E+03 -0.72736193620E+02  0.15658426171E+03  0.00000000000E+00 0.  1.
</event>
<event>
 6    1  0.9216756E-006  0.1245860E+03  0.7561462E-02  0.1235718E+00
          2   -1    0    0  501    0  0.00000000000E+00  0.00000000000E+00  0.38249220012E+03  0.38249220012E+03  0.00000000000E+00 0.  1.
         -2   -1    0    0    0  501 -0.00000000000E+00 -0.00000000000E+00 -0.50012244674E+02  0.50012244674E+02  0.00000000000E+00 0. -1.
          5    1    1    2  502    0  0.63420537140E+02 -0.39655952636E+02  0.94764748627E+02  0.12079978929E+03  0.41800000000E+01 0.  1.
         -5    1    1    2    0  502 -0.51595546755E+02 -0.33322892312E+02  0.21203938596E+02  0.65112172510E+02  0.41800000000E+01 0.  1.
        -11    1    1    2    0    0 -0.48287691566E+02  0.50441824710E+02  0.16754685769E+03  0.18151591765E+03  0.00000000000E+00 0.  1.
         11    1    1    2    0    0  0.36462701181E+02  0.22537020237E+02  0.48964410532E+02  0.65076565347E+02  0.00000000000E+00 0. -1.
</event>
<event>
 6    1  0.9216756E-006  0.1523222E+03  0.7561462E-02  0.1197648E+00
          4   -1    0    0  501    0  0.00000000000E+00  0.00000000000E+00  0.48596448346E+03  0.48596448346E+03  0.00000000000E+00 0. -1.
         -4   -1    0    0    0  501 -0.00000000000E+00 -0.00000000000E+00 -0.53484762219E+02  0.53484762219E+02  0.00000000000E+00 0.  1.
          5    1    1    2  502    0 -0.39616037777E+02 -0.35859008436E+02  0.31725450579E+02  0.62283830563E+02  0.41800000000E+01 0.  1.
         -5    1    1    2    0  502 -0.60237975945E+02  0.93404730165E+02  0.14842419380E+03  0.18547310066E+03  0.41800000000E+01 0.  1.
        -11    1    1    2    0    0  0.59205378153E+02 -0.75028170435E+02  0.12815775078E+03  0.15987154921E+03  0.00000000000E+00 0.  1.
         11    1    1    2    0    0  0.40648635569E+02  0.17482448706E+02  0.12417232609E+03  0.13182076526E+03  0.00000000000E+00 0. -1.
</event>
<event>
 6    1  0.9216756E-006  0.1021992E+03  0.7561462E-02  0.1275738E+00
         -1   -1    0    0    0  501 -0.00000000000E+00  0.00000000000E+00  0.46596766589E+02  0.46596766589E+02  0.00000000000E+00 0.  1.
          1   -1    0    0  501    0  0.00000000000E+00 -0.00000000000E+00 -0.31793187879E+03  0.31793187879E+03  0.00000000000E+00 0. -1.
          5    1    1    2  502    0  0.35961087144E+02  0.57276057260E+02 -0.58014517325E+02  0.89201475011E+02  0.41800000000E+01 0.  1.
         -5    1    1    2    0  502 -0.22176714046E+02 -0.49522922951E+02 -0.14799211211E+02  0.56398719808E+02  0.41800000000E+01 0.  1.
        -11    1    1    2    0    0 -0.20036133033E+02 -0.42461042369E+02 -0.61110270443E+02  0.77063946821E+02  0.00000000000E+00 0.  1.
         11    1    1    2    0    0  0.62517599357E+01  0.34707908060E+02 -0.13741111322E+03  0.14186450374E+03  0.00000000000E+00 0. -1.
</event>
<event>
 6    1  0.9216756E-006  0.1024432E+03  0.7561462E-02  0.1275241E+00
          1   -1    0    0  501    0  0.00000000000E+00  0.00000000000E+00  0.33453507899E+03  0.33453507899E+03  0.00000000000E+00 0. -1.
         -1   -1    0    0    0  501 -0.00000000000E+00 -0.00000000000E+00 -0.12961913937E+03  0.12961913937E+03  0.00000000000E+00 0.  1.
          5    1    1    2  502    0  0.14257577596E+02 -0.65677316626E+02  0.10374650162E+02  0.68131447982E+02  0.41800000000E+01 0. -1.
         -5    1    1    2    0  502  0.22163157450E+01  0.45169407065E+02 -0.87315143402E+02  0.98420496125E+02  0.41800000000E+01 0.  1.
        -11    1    1    2    0    0  0.34511775168E+02 -0.54177296601E+01  0.14743626391E+03  0.15151853463E+03  0.00000000000E+00 0.  1.
         11    1    1    2    0    0 -0.50985668509E+02  0.25925639222E+02  0.13442016896E+03  0.14608373963E+03  0.00000000000E+00 0. -1.
</event>
<event>
 6    1  0.9216756E-006  0.1413317E+03  0.7561462E-02  0.1211548E+00
          2   -1    0    0  501    0  0.00000000000E+00  0.00000000000E+00  0.57797936139E+02  0.57797936139E+02  0.00000000000E+00 0. -1.
         -2   -1    0    0    0  501 -0.00000000000E+00 -0.00000000000E+00 -0.57078282180E+03  0.57078282180E+03  0.00000000000E+00 0.  1.
          5    1    1    2  502    0 -0.12765878698E+02 -0.62360620200E+02 -0.10919610702E+03  0.12646373709E+03  0.41800000000E+01 0.  1.
         -5    1    1    2    0  502  0.83180337584E+02 -0.73826062721E+01 -0.34386231469E+03  0.35388166850E+03  0.41800000000E+01 0.  1.
        -11    1    1    2    0    0  0.48091289022E+01  0.59091164377E+02 -0.31347606080E+02  0.67063893678E+02  0.00000000000E+00 0.  1.
         11    1    1    2    0    0 -0.75223587789E+02  0.10652062094E+02 -0.28578857883E+02  0.81171458682E+02  0.00000000000E+00 0. -1.
</event>
<event>
 6    1  0.9216756E-006  0.1032934E+03  0.7561462E-02  0.1273519E+00
          3   -1    0    0  501    0  0.00000000000E+00  0.00000000000E+00  0.42227164999E+03  0.42227164999E+03  0.00000000000E+00 0. -1.
         -3   -1    0    0    0  501 -0.00000000000E+00 -0.00000000000E+00 -0.34163046197E+02  0.34163046197E+02  0.00000000000E+00 0.  1.
          5    1    1    2  502    0  0.58048374634E+02  0.81415321839E+01  0.61354920456E+02  0.84957618894E+02  0.41800000000E+01 0. -1.
         -5    1    1    2    0  502 -0.53966870145E+02  0.14782369399E+02  0.37340712127E+02  0.67399871665E+02  0.41800000000E+01 0.  1.
        -11    1    1    2    0    0 -0.45244302182E+02 -0.14133523022E+01  0.17076733020E+03  0.17666500929E+03  0.00000000000E+00 0.  1.
         11    1    1    2    0    0  0.41162797693E+02 -0.21510549280E+02  0.11864564101E+03  0.12741219634E+03  0.00000000000E+00 0. -1.
</event>
<event>
 6    1  0.9216756E-006  0.1001124E+03  0.7561462E-02  0.1280060E+00
          2   -1    0    0  501    0  0.00000000000E+00  0.00000000000E+00  0.61074852479E+03  0.61074852479E+03  0.00000000000E+00 0. -1.
         -2   -1    0    0    0  501 -0.00000000000E+00 -0.00000000000E+00 -0.20401440231E+02  0.20401440231E+02  0.00000000000E+00 0.  1.
          5    1    1    2  502    0 -0.59651333102E+02 -0.11472730900E+02  0.20811709060E+03  0.21684118819E+03  0.41800000000E+01 0.  1.
         -5    1    1    2    0  502  0.59767559576E+02 -0.95967297446E+01  0.10980637484E+03  0.12545585181E+03  0.41800000000E+01 0.  1.
        -11    1    1    2    0    0  0.28196834529E+02 -0.15683649023E+02  0.37852441138E+02  0.49737768590E+02  0.00000000000E+00 0.  1.
         11    1    1    2    0    0 -0.28313061003E+02  0.36753109668E+02  0.23457117798E+03  0.23911515642E+03  0.00000000000E+00 0. -1.
</event>
<event>
 6    1  0.9216756E-006  0.1085596E+03  0.7561462E-02  0.1263261E+00
          1   -1    0    0  501    0  0.00000000000E+00  0.00000000000E+00  0.10754743735E+04  0.10754743735E+04  0.00000000000E+00 0. -1.
         -1   -1    0    0    0  501 -0.00000000000E+00 -0.00000000000E+00 -0.11748027782E+02  0.11748027782E+02  0.00000000000E+00 0.  1.
          5    1    1    2  502    0  0.23296226642E+02  0.40587814660E+02  0.34081308599E+03  0.34403650512E+03  0.41800000000E+01 0.  1.
         -5    1    1    2    0  502 -0.47042386243E+02 -0.56596348477E+02  0.25504282147E+03  0.26548153599E+03  0.41800000000E+01 0.  1.
        -11    1    1    2    0    0  0.41751755459E+02 -0.27050951291E+02  0.24453559843E+03  0.24954482954E+03  0.00000000000E+00 0. -1.
         11    1    1    2    0    0 -0.18005595858E+02  0.43059485108E+02  0.22333483978E+03  0.22815953059E+03  0.00000000000E+00 0.  1.
</event>
<event>
 6    1  0.9216756E-006  0.9245037E+02  0.7561462E-02  0.1297024E+00
         -1   -1    0    0    0  501 -0.00000000000E+00  0.00000000000E+00  0.17131927384E+03  0.17131927384E+03  0.00000000000E+00 0.  1.
          1   -1    0    0  501    0  0.00000000000E+00 -0.00000000000E+00 -0.10173250146E+03  0.10173250146E+03  0.00000000000E+00 0. -1.
          5    1    1    2  502    0 -0.11383790789E+02 -0.18293130815E+02  0.87813954545E+02  0.90515149784E+02  0.41800000000E+01 0. -1.
         -5    1    1    2    0  502  0.13982147595E+02  0.64430613894E+02 -0.53506804884E+01  0.66279006026E+02  0.41800000000E+01 0. -1.
        -11    1    1    2    0    0 -0.42312079222E+02 -0.10651491206E+02  0.25569641253E+02  0.50572451659E+02  0.00000000000E+00 0.  1.
         11    1    1    2    0    0  0.39713722416E+02 -0.35485991874E+02 -0.38446142929E+02  0.65685167835E+02  0.00000000000E+00 0. -1.
</event>
<event>
 6    1  0.9216756E-006  0.1980971E+03  0.7561462E-02  0.1151355E+00
         -1   -1    0    0    0  501 -0.00000000000E+00  0.00000000000E+00  0.49259489728E+02  0.49259489728E+02  0.00000000000E+00 0.  1.
          1   -1    0    0  501    0  0.00000000000E+00 -0.00000000000E+00 -0.92547289992E+03  0.92547289992E+03  0.00000000000E+00 0. -1.
          5    1    1    2  502    0  0.91023125273E+02  0.29325195710E+02 -0.86292251380E+02  0.12887591507E+03  0.41800000000E+01 0.  1.
         -5    1    1    2    0  502  0.24677129593E+02  0.10152128532E+03 -0.24004576488E+03  0.26183004742E+03  0.41800000000E+01 0.  1.
        -11    1    1    2    0    0  0.10635493244E+02 -0.37095831841E+02 -0.13169374564E+03  0.13723139983E+03  0.00000000000E+00 0.  1.
         11    1    1    2    0    0 -0.12633574811E+03 -0.93750649191E+02 -0.41818164829E+03  0.44679502733E+03  0.00000000000E+00 0. -1.
</event>
<event>
 6    1  0.9216756E-006  0.2828539E+03  0.7561462E-02  0.1094140E+00
         -1   -1    0    0    0  501 -0.00000000000E+00  0.00000000000E+00  0.19780723387E+03  0.19780723387E+03  0.00000000000E+00 0.  1.
          1   -1    0    0  501    0  0.00000000000E+00 -0.00000000000E+00 -0.53754631448E+03  0.53754631448E+03  0.00000000000E+00 0. -1.
          5    1    1    2  502    0 -0.13142949267E+03  0.17885910993E+03 -0.16643330619E+02  0.22261798131E+03  0.41800000000E+01 0.  1.
         -5    1    1    2    0  502 -0.67063787683E+02 -0.37800776019E+01  0.19775367021E+02  0.70145407161E+02  0.41800000000E+01 0.  1.
        -11    1    1    2    0    0  0.53391812070E+01 -0.40851210103E+02 -0.79036545563E+02  0.89129701881E+02  0.00000000000E+00 0. -1.
         11    1    1    2    0    0  0.19315409914E+03 -0.13422782223E+03 -0.26383457145E+03  0.35346045799E+03  0.00000000000E+00 0.  1.
</event>
<event>
 6    1  0.9216756E-006  0.1574880E+03  0.7561462E-02  0.1191562E+00
          1   -1    0    0  501    0  0.00000000000E+00  0.00000000000E+00  0.51868776037E+03  0.51868776037E+03  0.00000000000E+00 0. -1.
         -1   -1    0    0    0  501 -0.00000000000E+00 -0.00000000000E+00 -0.58301283629E+02  0.58301283629E+02  0.00000000000E+00 0.  1.
          5    1    1    2  502    0  0.82322140915E+02 -0.98317908546E+02  0.82817890299E+02  0.15270763366E+03  0.41800000000E+01 0.  1.
         -5    1    1    2    0  502  0.17247166439E+02  0.35290470847E+02  0.54287375099E+02  0.67137720977E+02  0.41800000000E+01 0.  1.
        -11    1    1    2    0    0 -0.88198965021E+02  0.53213444723E+01  0.14927153046E+03  0.17346286042E+03  0.00000000000E+00 0.  1.
         11    1    1    2    0    0 -0.11370342333E+02  0.57706093227E+02  0.17400968089E+03  0.18368082895E+03  0.00000000000E+00 0. -1.
</event>
<event>
 6    1  0.9216756E-006  0.7309535E+02  0.7561462E-02  0.1349873E+00
         -4   -1    0    0    0  501 -0.00000000000E+00  0.00000000000E+00  0.99415959214E+02  0.99415959214E+02  0.00000000000E+00 0.  1.
          4   -1    0    0  501    0  0.00000000000E+00 -0.00000000000E+00 -0.13731193575E+03  0.13731193575E+03  0.00000000000E+00 0. -1.
          5    1    1    2  502    0 -0.53453900130E+02 -0.42250239976E+02  0.53497383453E+02  0.86728568842E+02  0.41800000000E+01 0. -1.
         -5    1    1    2    0  502  0.27619920029E+02  0.20696516715E+02 -0.28793337084E+02  0.45141272102E+02  0.41800000000E+01 0. -1.
        -11    1    1    2    0    0  0.26762471750E+02  0.58043721471E+01 -0.78087441280E+02  0.82750039975E+02  0.00000000000E+00 0. -1.
         11    1    1    2    0    0 -0.92849164952E+00  0.15749351114E+02  0.15487418373E+02  0.22108014047E+02  0.00000000000E+00 0.  1.
</event>
<event>
 6    1  0.9216756E-006  0.1135727E+03  0.7561462E-02  0.1254093E+00
         -2   -1    0    0    0  501 -0.00000000000E+00  0.00000000000E+00  0.50544849773E+02  0.50544849773E+02  0.00000000000E+00 0. -1.
          2   -1    0    0  501    0  0.00000000000E+00 -0.00000000000E+00 -0.35896990413E+03  0.35896990413E+03  0.00000000000E+00 0.  1.
          5    1    1    2  502    0  0.66758493341E+02 -0.37899689563E+02 -0.33429586712E+02  0.83833719767E+02  0.41800000000E+01 0. -1.
         -5    1    1    2    0  502 -0.26215864976E+02  0.47859517015E+02 -0.31663505072E+02  0.63228592415E+02  0.41800000000E+01 0. -1.
        -11    1    1    2    0    0 -0.32193551880E+02 -0.47331895189E+02 -0.11390980619E+03  0.12748402657E+03  0.00000000000E+00 0. -1.
         11    1    1    2    0    0 -0.83490764855E+01  0.37372067737E+02 -0.12942215638E+03  0.13496841515E+03  0.00000000000E+00 0.  1.
</event>
<event>
 6    1  0.9216756E-006  0.2271942E+03  0.7561462E-02  0.1128630E+00
         -1   -1    0    0    0  501 -0.00000000000E+00  0.00000000000E+00  0.56159194692E+03  0.56159194692E+03  0.00000000000E+00 0.  1.
          1   -1    0    0  501    0  0.00000000000E+00 -0.00000000000E+00 -0.10239090431E+03  0.10239090431E+03  0.00000000000E+00 0. -1.
          5    1    1    2  502    0  0.18495065178E+02  0.99813111539E+02  0.15042829823E+03  0.18152374495E+03  0.41800000000E+01 0. -1.
         -5    1    1    2    0  502 -0.99004186156E+02  0.97903935060E+02  0.10805171969E+03  0.17629423106E+03  0.41800000000E+01 0. -1.
        -11    1    1    2    0    0  0.19179822379E+02 -0.44793980728E+02  0.10465167969E+03  0.11543976940E+03  0.00000000000E+00 0.  1.
         11    1    1    2    0    0  0.61329298599E+02 -0.15292306587E+03  0.96069344992E+02  0.19072510582E+03  0.00000000000E+00 0. -1.
</event>
<event>
 6    1  0.9216756E-006  0.1553187E+03  0.7561462E-02  0.1194086E+00
          2   -1    0    0  501    0  0.00000000000E+00  0.00000000000E+00  0.72627967922E+02  0.72627967922E+02  0.00000000000E+00 0. -1.
         -2   -1    0    0    0  501 -0.00000000000E+00 -0.00000000000E+00 -0.39346042907E+03  0.39346042907E+03  0.00000000000E+00 0.  1.
          5    1    1    2  502    0 -0.12829523640E+03 -0.40798871506E+02 -0.20448624969E+03  0.24485978500E+03  0.41800000000E+01 0.  1.
         -5    1    1    2    0  502  0.30162779997E+02 -0.99437064307E+01 -0.55541229989E+02  0.64116856001E+02  0.41800000000E+01 0.  1.
        -11    1    1    2    0    0  0.10418022038E+03  0.12192592392E+02 -0.36111697205E+02  0.11093345890E+03  0.00000000000E+00 0.  1.
         11    1    1    2    0    0 -0.60477639743E+01  0.38549985545E+02 -0.24693284269E+02  0.46178297095E+02  0.00000000000E+00 0. -1.
</event>
<event>
 6    1  0.9216756E-006  0.9656346E+02  0.7561462E-02  0.1287693E+00
          1   -1    0    0  501    0  0.00000000000E+00  0.00000000000E+00  0.15794181736E+03  0.15794181736E+03  0.00000000000E+00 0. -1.
         -1   -1    0    0    0  501 -0.00000000000E+00 -0.00000000000E+00 -0.11612307545E+03  0.11612307545E+03  0.00000000000E+00 0.  1.
          5    1    1    2  502    0 -0.10907741991E+02  0.52480718505E+01  0.51618494180E+02  0.53183290937E+02  0.41800000000E+01 0.  1.
         -5    1    1    2    0  502 -0.51544560921E+02 -0.44474369722E+02 -0.62378422198E+02  0.92430250885E+02  0.41800000000E+01 0.  1.
        -11    1    1    2    0    0  0.68421468521E+02  0.59688830206E+02  0.26130793739E+02  0.94483184680E+02  0.00000000000E+00 0.  1.
         11    1    1    2    0    0 -0.59691656086E+01 -0.20462532335E+02  0.26447876182E+02  0.33968166306E+02  0.00000000000E+00 0. -1.
</event>
<event>
 6    1  0.9216756E-006  0.1683006E+03  0.7561462E-02  0.1179632E+00
          1   -1    0    0  501    0  0.00000000000E+00  0.00000000000E+00  0.65919821478E+03  0.65919821478E+03  0.00000000000E+00 0. -1.
         -1   -1    0    0    0  501 -0.00000000000E+00 -0.00000000000E+00 -0.60508509742E+02  0.60508509742E+02  0.00000000000E+00 0.  1.
          5    1    1    2  502    0 -0.33630989902E+02  0.15540670523E+03  0.17619798016E+03  0.23737204579E+03  0.41800000000E+01 0.  1.
         -5    1    1    2    0  502  0.33356351887E+01  0.87130934842E+01  0.14652547578E+03  0.14688169359E+03  0.41800000000E+01 0.  1.
        -11    1    1    2    0    0  0.68550138023E+00 -0.28328620509E+02  0.13330737562E+03  0.13628586517E+03  0.00000000000E+00 0. -1.
         11    1    1    2    0    0  0.29609853333E+02 -0.13579117820E+03  0.14265887348E+03  0.19916711996E+03  0.00000000000E+00 0.  1.
</event>
<event>
 6    1  0.9216756E-006  0.1101957E+03  0.7561462E-02  0.1260208E+00
         -2   -1    0    0    0  501 -0.00000000000E+00  0.00000000000E+00  0.45044668967E+03  0.45044668967E+03  0.00000000000E+00 0.  1.
          2   -1    0    0  501    0  0.00000000000E+00 -0.00000000000E+00 -0.83320270739E+02  0.83320270739E+02  0.00000000000E+00 0. -1.
          5    1    1    2  502    0  0.20949065649E+02 -0.33867274083E+02  0.57196793910E+02  0.69819776847E+02  0.41800000000E+01 0. -1.
         -5    1    1    2    0  502  0.25472518892E+02  0.94308628127E+02  0.32961985673E+03  0.34381635928E+03  0.41800000000E+01 0. -1.
        -11    1    1    2    0    0 -0.23647562365E+02 -0.72874073960E+01  0.33441268894E+02  0.41600865106E+02  0.00000000000E+00 0.  1.
         11    1    1    2    0    0 -0.22774022176E+02 -0.53153946648E+02 -0.53131500609E+02  0.78529959171E+02  0.00000000000E+00 0. -1.
</event>
<event>
 6    1  0.9216756E-006  0.1045429E+03  0.7561462E-02  0.1271023E+00
         -1   -1    0    0    0  501 -0.00000000000E+00  0.00000000000E+00  0.11051063417E+03  0.11051063417E+03  0.00000000000E+00 0.  1.
          1   -1    0    0  501    0  0.00000000000E+00 -0.00000000000E+00 -0.11543990187E+03  0.11543990187E+03  0.00000000000E+00 0. -1.
          5    1    1    2  502    0 -0.12419728414E+02  0.52858067183E+02  0.88178165951E+01  0.55167483264E+02  0.41800000000E+01 0. -1.
         -5    1    1    2    0  502  0.96147019147E+01 -0.71112769355E+02  0.17718813165E+02  0.74033081782E+02  0.41800000000E+01 0. -1.
        -11    1    1    2    0    0  0.40020097903E+02  0.21428753985E+02  0.35738544404E+01  0.45536492718E+02  0.00000000000E+00 0.  1.
         11    1    1    2    0    0 -0.37215071404E+02 -0.31740518128E+01 -0.35039751899E+02  0.51213478281E+02  0.00000000000E+00 0. -1.
</event>
<event>
 6    1  0.9216756E-006  0.1543503E+03  0.7561462E-02  0.1195227E+00
          3   -1    0    0  501    0  0.00000000000E+00  0.00000000000E+00  0.93006777735E+02  0.93006777735E+02  0.00000000000E+00 0. -1.
         -3   -1    0    0    0  501 -0.00000000000E+00 -0.00000000000E+00 -0.30720125436E+03  0.30720125436E+03  0.00000000000E+00 0.  1.
          5    1    1    2  502    0  0.73834383519E+02 -0.93705423228E+02 -0.90541185906E+02  0.14982456834E+03  0.41800000000E+01 0.  1.
         -5    1    1    2    0  502 -0.48000895710E+02 -0.33689665247E+02 -0.21876543477E+02  0.62730655089E+02  0.41800000000E+01 0.  1.
        -11    1    1    2    0    0 -0.18784149075E+02  0.62570963081E+02  0.16917273747E+01  0.65351599971E+02  0.00000000000E+00 0. -1.
         11    1    1    2    0    0 -0.70493387346E+01  0.64824125394E+02 -0.10346847462E+03  0.12230120870E+03  0.00000000000E+00 0.  1.
</event>
<event>
 6    1  0.9216756E-006  0.1786928E+03  0.7561462E-02  0.1169074E+00
         -1   -1    0    0    0  501 -0.00000000000E+00  0.00000000000E+00  0.11996444867E+03  0.11996444867E+03  0.00000000000E+00 0.  1.
          1   -1    0    0  501    0  0.00000000000E+00 -0.00000000000E+00 -0.30799627528E+03  0.30799627528E+03  0.00000000000E+00 0. -1.
          5    1    1    2  502    0 -0.13462829039E+03 -0.42915995606E+02 -0.20090047631E+02  0.14278529920E+03  0.41800000000E+01 0. -1.
         -5    1    1    2    0  502  0.30952124514E+01 -0.43203570274E+02 -0.58589983183E+02  0.72982102970E+02  0.41800000000E+01 0. -1.
        -11    1    1    2    0    0  0.40947419853E+02  0.69119558440E+02 -0.17805308010E+02  0.82287505399E+02  0.00000000000E+00 0.  1.
         11    1    1    2    0    0  0.90585658086E+02  0.17000007440E+02 -0.91546487784E+02  0.12990581638E+03  0.00000000000E+00 0. -1.
</event>
<event>
 6    1  0.9216756E-006  0.1118842E+03  0.7561462E-02  0.1257120E+00
          1   -1    0    0  501    0  0.00000000000E+00  0.00000000000E+00  0.56132280584E+03  0.56132280584E+03  0.00000000000E+00 0. -1.
         -1   -1    0    0    0  501 -0.00000000000E+00 -0.00000000000E+00 -0.32948551747E+02  0.32948551747E+02  0.00000000000E+00 0.  1.
          5    1    1    2  502    0  0.98855221855E+02  0.20577780303E+02  0.18406032110E+03  0.20997969934E+03  0.41800000000E+01 0.  1.
         -5    1    1    2    0  502 -0.33067204015E+02  0.57226249393E+01  0.18903303221E+02  0.38742685636E+02  0.41800000000E+01 0.  1.
        -11    1    1    2    0    0  0.93873414516E+01 -0.55407240741E+01 -0.23321761248E-01  0.10900566348E+02  0.00000000000E+00 0.  1.
         11    1    1    2    0    0 -0.75175359291E+02 -0.20759681168E+02  0.32543395153E+03  0.33464840627E+03  0.00000000000E+00 0. -1.
</event>
<event>
 6    1  0.9216756E-006  0.1133818E+03  0.7561462E-02  0.1254432E+00
         -2   -1    0    0    0  501 -0.00000000000E+00  0.00000000000E+00  0.81957882659E+03  0.81957882659E+03  0.00000000000E+00 0.  1.
          2   -1    0    0  501    0  0.00000000000E+00 -0.00000000000E+00 -0.18694726365E+02  0.18694726365E+02  0.00000000000E+00 0. -1.
          5    1    1    2  502    0  0.13777940424E+02 -0.84666178416E+02  0.39206639153E+03  0.40136233154E+03  0.41800000000E+01 0. -1.
         -5    1    1    2    0  502 -0.45227902252E+01  0.45187802920E+02  0.20150619781E+03  0.20660254916E+03  0.41800000000E+01 0. -1.
        -11    1    1    2    0    0  0.34911357242E+02 -0.16158897736E+01  0.11363055446E+03  0.11888362743E+03  0.00000000000E+00 0.  1.
         11    1    1    2    0    0 -0.44166507442E+02  0.41094265270E+02  0.93680956426E+02  0.11142504483E+03  0.00000000000E+00 0. -1.
</event>
<event>
 6    1  0.9216756E-006  0.8702508E+02  0.7561462E-02  0.1310220E+00
         -2   -1    0    0    0  501 -0.00000000000E+00  0.00000000000E+00  0.20290868211E+03  0.20290868211E+03  0.00000000000E+00 0.  1.
          2   -1    0    0  501    0  0.00000000000E+00 -0.00000000000E+00 -0.14573000590E+03  0.14573000590E+03  0.00000000000E+00 0. -1.
          5    1    1    2  502    0  0.35458755425E+02  0.23107440699E+02  0.15483581355E+03  0.16057047895E+03  0.41800000000E+01 0. -1.
         -5    1    1    2    0  502 -0.33005573665E+02  0.33350644819E+02 -0.65888127247E+01  0.47565935878E+02  0.41800000000E+01 0.  1.
        -11    1    1    2    0    0  0.29786012372E+02 -0.33548497342E+02 -0.42062584611E+01  0.45059969121E+02  0.00000000000E+00 0.  1.
         11    1    1    2    0    0 -0.32239194132E+02 -0.22909588176E+02 -0.86862066158E+02  0.95442304068E+02  0.00000000000E+00 0. -1.
</event>
<event>
 6    1  0.9216756E-006  0.1529054E+03  0.7561462E-02  0.1196948E+00
         -1   -1    0    0    0  501 -0.00000000000E+00  0.00000000000E+00  0.91690563749E+02  0.91690563749E+02  0.00000000000E+00 0.  1.
          1   -1    0    0  501    0  0.00000000000E+00 -0.00000000000E+00 -0.33555708064E+03  0.33555708064E+03  0.00000000000E+00 0. -1.
          5    1    1    2  502    0  0.57455146783E+02 -0.69244037082E+01  0.83653511467E+01  0.58621606583E+02  0.41800000000E+01 0.  1.
         -5    1    1    2    0  502  0.75205914394E+02  0.42090120645E+02 -0.15733912395E+03  0.17944520094E+03  0.41800000000E+01 0.  1.
        -11    1    1    2    0    0 -0.79502482055E+02  0.22945317064E+02 -0.33290375104E+02  0.89192944242E+02  0.00000000000E+00 0. -1.
         11    1    1    2    0    0 -0.53158579122E+02 -0.58111034001E+02 -0.61602368986E+02  0.99987892625E+02  0.00000000000E+00 0.  1.
</event>
<event>
 6    1  0.9216756E-006  0.1276878E+03  0.7561462E-02  0.1230928E+00
         -1   -1    0    0    0  501 -0.00000000000E+00  0.00000000000E+00  0.26215119502E+02  0.26215119502E+02  0.00000000000E+00 0.  1.
          1   -1    0    0  501    0  0.00000000000E+00 -0.00000000000E+00 -0.77707978210E+03  0.77707978210E+03  0.00000000000E+00 0. -1.
          5    1    1    2  502    0  0.88963954591E+02 -0.19758958625E+02 -0.12626437769E+03  0.15577280615E+03  0.41800000000E+01 0.  1.
         -5    1    1    2    0  502 -0.12738859791E+02  0.47696174511E+02 -0.15287765769E+03  0.16070548912E+03  0.41800000000E+01 0.  1.
        -11    1    1    2    0    0 -0.54282255747E+02  0.23142635007E+02 -0.31613197361E+03  0.32159224117E+03  0.00000000000E+00 0. -1.
         11    1    1    2    0    0 -0.21942839053E+02 -0.51079850893E+02 -0.15559065360E+03  0.16522436515E+03  0.00000000000E+00 0.  1.
</event>
<event>
 6    1  0.9216756E-006  0.8300116E+02  0.7561462E-02  0.1320744E+00
          2   -1    0    0  501    0  0.00000000000E+00  0.00000000000E+00  0.48706032957E+03  0.48706032957E+03  0.00000000000E+00 0. -1.
         -2   -1    0    0    0  501 -0.00000000000E+00 -0.00000000000E+00 -0.31943455064E+02  0.31943455064E+02  0.00000000000E+00 0.  1.
          5    1    1    2  502    0  0.44566857169E+01  0.12246392801E+02 -0.15981723469E+02  0.21041009226E+02  0.41800000000E+01 0. -1.
         -5    1    1    2    0  502  0.49429248000E+02 -0.15298895987E+02  0.20811099154E+03  0.21448767791E+03  0.41800000000E+01 0. -1.
        -11    1    1    2    0    0  0.17276188390E+02  0.20823919094E+02  0.11711836739E+03  0.12020322072E+03  0.00000000000E+00 0.  1.
         11    1    1    2    0    0 -0.71162122107E+02 -0.17771415908E+02  0.14586923905E+03  0.16327187678E+03  0.00000000000E+00 0. -1.
</event>
<event>
 6    1  0.9216756E-006  0.1630930E+03  0.7561462E-02  0.1185248E+00
          2   -1    0    0  501    0  0.00000000000E+00  0.00000000000E+00  0.77766346663E+03  0.77766346663E+03  0.00000000000E+00 0. -1.
         -2   -1    0    0    0  501 -0.00000000000E+00 -0.00000000000E+00 -0.38429172390E+02  0.38429172390E+02  0.00000000000E+00 0.  1.
          5    1    1    2  502    0 -0.47929434425E+02  0.11762627459E+03  0.17569600350E+03  0.21684033113E+03  0.41800000000E+01 0.  1.
         -5    1    1    2    0  502  0.43373780352E+02  0.11373924007E+02  0.13253448712E+03  0.13997683253E+03  0.41800000000E+01 0.  1.
        -11    1    1    2    0    0 -0.38760640595E+02 -0.43805820700E+02  0.11330587156E+03  0.12751297077E+03  0.00000000000E+00 0.  1.
         11    1    1    2    0    0  0.43316294668E+02 -0.85194377902E+02  0.31769793207E+03  0.33176250459E+03  0.00000000000E+00 0. -1.
</event>
<event>
 6    1  0.9216756E-006  0.1230396E+03  0.7561462E-02  0.1238165E+00
          2   -1    0    0  501    0  0.00000000000E+00  0.00000000000E+00  0.52135664477E+03  0.52135664477E+03  0.00000000000E+00 0. -1.
         -2   -1    0    0    0  501 -0.00000000000E+00 -0.00000000000E+00 -0.33303154548E+02  0.33303154548E+02  0.00000000000E+00 0.  1.
          5    1    1    2  502    0 -0.82807621395E+02  0.45406632962E+02  0.12001694189E+03  0.15277566304E+03  0.41800000000E+01 0. -1.
         -5    1    1    2    0  502  0.40622000249E+02  0.28612047116E+02  0.13318049396E+03  0.14220869353E+03  0.41800000000E+01 0. -1.
        -11    1    1    2    0    0 -0.44521882294E+01 -0.48144768519E+02  0.61089228155E+02  0.77907859118E+02  0.00000000000E+00 0.  1.
         11    1    1    2    0    0  0.46637809375E+02 -0.25873911558E+02  0.17376682622E+03  0.18176758363E+03  0.00000000000E+00 0. -1.
</event>
<event>
 6    1  0.9216756E-006  0.9919596E+02  0.7561462E-02  0.1281996E+00
          2   -1    0    0  501    0  0.00000000000E+00  0.00000000000E+00  0.30441498162E+03  0.30441498162E+03  0.00000000000E+00 0. -1.
         -2   -1    0    0    0  501 -0.00000000000E+00 -0.00000000000E+00 -0.61540097060E+02  0.61540097060E+02  0.00000000000E+00 0.  1.
          5    1    1    2  502    0  0.35130887572E+02  0.22840082825E+01  0.79641243607E+02  0.87175661963E+02  0.41800000000E+01 0. -1.
         -5    1    1    2    0  502 -0.15372566365E+02  0.52797171143E+02 -0.25827653068E+02  0.60896610253E+02  0.41800000000E+01 0. -1.
        -11    1    1    2    0    0 -0.38704830069E+02  0.10026904758E+02  0.60170398037E+02  0.72243196840E+02  0.00000000000E+00 0.  1.
         11    1    1    2    0    0  0.18946508861E+02 -0.65108084183E+02  0.12889089598E+03  0.14563960962E+03  0.00000000000E+00 0. -1.
</event>
<event>
 6    1  0.9216756E-006  0.8708383E+02  0.7561462E-02  0.1310071E+00
         -2   -1    0    0    0  501 -0.00000000000E+00  0.00000000000E+00  0.24232556425E+02  0.24232556425E+02  0.00000000000E+00 0.  1.
          2   -1    0    0  501    0  0.00000000000E+00 -0.00000000000E+00 -0.73213113531E+03  0.73213113531E+03  0.00000000000E+00 0. -1.
          5    1    1    2  502    0 -0.52239008175E+01  0.31959915127E+02  0.97528051438E+00  0.32667244860E+02  0.41800000000E+01 0. -1.
         -5    1    1    2    0  502 -0.27627547761E+02  0.20882421152E+02 -0.25384156320E+03  0.25622718146E+03  0.41800000000E+01 0. -1.
        -11    1    1    2    0    0  0.11129043253E+02  0.24172950611E+02 -0.95406856153E+02  0.99048752369E+02  0.00000000000E+00 0.  1.
         11    1    1    2    0    0  0.21722405326E+02 -0.77015286890E+02 -0.35962544004E+03  0.36842051305E+03  0.00000000000E+00 0. -1.
</event>
<event>
 6    1  0.9216756E-006  0.2551478E+03  0.7561462E-02  0.1110094E+00
          2   -1    0    0  501    0  0.00000000000E+00  0.00000000000E+00  0.46735237337E+03  0.46735237337E+03  0.00000000000E+00 0. -1.
         -2   -1    0    0    0  501 -0.00000000000E+00 -0.00000000000E+00 -0.29535849830E+03  0.29535849830E+03  0.00000000000E+00 0.  1.
          5    1    1    2  502    0 -0.90178359665E+02  0.12878563303E+03 -0.16850037994E+03  0.23049452546E+03  0.41800000000E+01 0.  1.
         -5    1    1    2    0  502 -0.33962356783E+02  0.91935663969E+02  0.58304708138E+00  0.98099033285E+02  0.41800000000E+01 0.  1.
        -11    1    1    2    0    0  0.91780271032E+02 -0.18629089428E+03  0.32286093856E+03  0.38388422876E+03  0.00000000000E+00 0.  1.
         11    1    1    2    0    0  0.32360445416E+02 -0.34430402718E+02  0.17050269370E+02  0.50233084162E+02  0.00000000000E+00 0. -1.
</event>
<event>
 6    1  0.9216756E-006  0.8885256E+02  0.7561462E-02  0.1305654E+00
         -1   -1    0    0    0  501 -0.00000000000E+00  0.00000000000E+00  0.33240742385E+02  0.33240742385E+02  0.00000000000E+00 0.  1.
          1   -1    0    0  501    0  0.00000000000E+00 -0.00000000000E+00 -0.61054811732E+03  0.61054811732E+03  0.00000000000E+00 0. -1.
          5    1    1    2  502    0  0.12286379098E+02 -0.49294065390E+02  0.51085129175E+00  0.50976400059E+02  0.41800000000E+01 0.  1.
         -5    1    1    2    0  502  0.25027214361E+02  0.13451332951E+02 -0.14185927455E+03  0.14473709267E+03  0.41800000000E+01 0.  1.
        -11    1    1    2    0    0 -0.55334369571E+02 -0.27677342965E+01 -0.31490233665E+03  0.31973900988E+03  0.00000000000E+00 0. -1.
         11    1    1    2    0    0  0.18020776113E+02  0.38610466735E+02 -0.12105661502E+03  0.12833635710E+03  0.00000000000E+00 0.  1.
</event>
<event>
 6    1  0.9216756E-006  0.1162363E+03  0.7561462E-02  0.1249438E+00
          1   -1    0    0  501    0  0.00000000000E+00  0.00000000000E+00  0.40450686351E+02  0.40450686351E+02  0.00000000000E+00 0. -1.
         -1   -1    0    0    0  501 -0.00000000000E+00 -0.00000000000E+00 -0.62765601610E+03  0.62765601610E+03  0.00000000000E+00 0.  1.
          5    1    1    2  502    0 -0.10658830780E+02  0.29320530216E+02 -0.15485398114E+02  0.35079539913E+02  0.41800000000E+01 0. -1.
         -5    1    1    2    0  502  0.81220358520E+02  0.48850734518E+02 -0.40783109809E+03  0.41872045313E+03  0.41800000000E+01 0. -1.
        -11    1    1    2    0    0 -0.35257519574E+02 -0.29345209680E+02 -0.72013301116E+01  0.46433750366E+02  0.00000000000E+00 0. -1.
         11    1    1    2    0    0 -0.35304008165E+02 -0.48826055054E+02 -0.15668750344E+03  0.16787295905E+03  0.00000000000E+00 0.  1.
</event>
<event>
 6    1  0.9216756E-006  0.8680913E+02  0.7561462E-02  0.1310768E+00
          3   -1    0    0  501    0  0.00000000000E+00  0.00000000000E+00  0.38511562380E+03  0.38511562380E+03  0.00000000000E+00 0. -1.
         -3   -1    0    0    0  501 -0.00000000000E+00 -0.00000000000E+00 -0.39252658243E+02  0.39252658243E+02  0.00000000000E+00 0.  1.
          5    1    1    2  502    0  0.32966932302E+02  0.90274495289E+01  0.10977656804E+03  0.11505077471E+03  0.41800000000E+01 0. -1.
         -5    1    1    2    0  502 -0.53906932229E+02 -0.17848585715E+02  0.20864166141E+01  0.56976792545E+02  0.41800000000E+01 0.  1.
        -11    1    1    2    0    0 -0.31610793882E+01 -0.33442639856E+02  0.16198444650E+03  0.16543084202E+03  0.00000000000E+00 0.  1.
         11    1    1    2    0    0  0.24101079316E+02  0.42263776042E+02  0.72015534400E+02  0.86909872767E+02  0.00000000000E+00 0. -1.
</event>
<event>
 6    1  0.9216756E-006  0.1196895E+03  0.7561462E-02  0.1243610E+00
         -2   -1    0    0    0  501 -0.00000000000E+00  0.00000000000E+00  0.11998869755E+03  0.11998869755E+03  0.00000000000E+00 0.  1.
          2   -1    0    0  501    0  0.00000000000E+00 -0.00000000000E+00 -0.12842419360E+03  0.12842419360E+03  0.00000000000E+00 0. -1.
          5    1    1    2  502    0  0.89274227079E+00 -0.54705962443E+02 -0.12809776014E+02  0.56348044128E+02  0.41800000000E+01 0. -1.
         -5    1    1    2    0  502  0.58684904013E+02  0.54667955627E+02  0.17998597429E+02  0.82303859210E+02  0.41800000000E+01 0. -1.
        -11    1    1    2    0    0  0.20404454339E+02  0.11457932963E+02 -0.16956655592E+02  0.28899033782E+02  0.00000000000E+00 0. -1.
         11    1    1    2    0    0 -0.79982100623E+02 -0.11419926147E+02  0.33323381260E+01  0.80861954037E+02  0.00000000000E+00 0.  1.
</event>
<event>
 6    1  0.9216756E-006  0.9852809E+02  0.7561462E-02  0.1283422E+00
         -1   -1    0    0    0  501 -0.00000000000E+00  0.00000000000E+00  0.41311026113E+02  0.41311026113E+02  0.00000000000E+00 0.  1.
          1   -1    0    0  501    0  0.00000000000E+00 -0.00000000000E+00 -0.44030747842E+03  0.44030747842E+03  0.00000000000E+00 0. -1.
          5    1    1    2  502    0  0.34310413749E+02 -0.26255102620E+02 -0.12776133343E+03  0.13493318949E+03  0.41800000000E+01 0.  1.
         -5    1    1    2    0  502 -0.45056032128E+02 -0.36915588522E+02 -0.53476129031E+01  0.58641930995E+02  0.41800000000E+01 0.  1.
        -11    1    1    2    0    0  0.28010620540E+02 -0.17606902465E+01 -0.16137606529E+03  0.16379844121E+03  0.00000000000E+00 0. -1.
         11    1    1    2    0    0 -0.17265002161E+02  0.64931381389E+02 -0.10451144068E+03  0.12424494284E+03  0.00000000000E+00 0.  1.
</event>
<event>
 6    1  0.9216756E-006  0.1146639E+03  0.7561462E-02  0.1252169E+00
          3   -1    0    0  501    0  0.00000000000E+00  0.00000000000E+00  0.71816181710E+03  0.71816181710E+03  0.00000000000E+00 0. -1.
         -3   -1    0    0    0  501 -0.00000000000E+00 -0.00000000000E+00 -0.33212683285E+02  0.33212683285E+02  0.00000000000E+00 0.  1.
          5    1    1    2  502    0  0.14249322341E+02  0.26383761928E+02 -0.44952354122E+01  0.30607607258E+02  0.41800000000E+01 0.  1.
         -5    1    1    2    0  502 -0.81511859665E+02  0.46373188312E+01  0.17737243133E+03  0.19530524772E+03  0.41800000000E+01 0.  1.
        -11    1    1    2    0    0  0.42084427881E+02  0.29738818385E+02  0.25073512910E+03  0.25597578275E+03  0.00000000000E+00 0. -1.
         11    1    1    2    0    0  0.25178109442E+02 -0.60759899144E+02  0.26133680879E+03  0.26948586265E+03  0.00000000000E+00 0.  1.
</event>
<event>
 6    1  0.9216756E-006  0.9402975E+02  0.7561462E-02  0.1293376E+00
          1   -1    0    0  501    0  0.00000000000E+00  0.00000000000E+00  0.11766164838E+03  0.11766164838E+03  0.00000000000E+00 0. -1.
         -1   -1    0    0    0  501 -0.00000000000E+00 -0.00000000000E+00 -0.11696081397E+03  0.11696081397E+03  0.00000000000E+00 0.  1.
          5    1    1    2  502    0 -0.35520905314E+02 -0.36096085840E+02  0.27810751635E+02  0.57927303008E+02  0.41800000000E+01 0. -1.
         -5    1    1    2    0  502  0.69319757019E+02  0.54304999564E+01 -0.28409640661E+02  0.75228313323E+02  0.41800000000E+01 0. -1.
        -11    1    1    2    0    0 -0.24204668567E+02  0.44555629804E+02 -0.34878862504E+02  0.61543522626E+02  0.00000000000E+00 0.  1.
         11    1    1    2    0    0 -0.95941831379E+01 -0.13890043920E+02  0.36178585942E+02  0.39923323396E+02  0.00000000000E+00 0. -1.
</event>
<event>
 6    1  0.1300159E-005  0.2920850E+03  0.7561462E-02  0.1089266E+00
         -1   -1    0    0    0  501 -0.00000000000E+00  0.00000000000E+00  0.29571507992E+03  0.29571507992E+03  0.00000000000E+00 0.  1.
          1   -1    0    0  501    0  0.00000000000E+00 -0.00000000000E+00 -0.32953146243E+03  0.32953146243E+03  0.00000000000E+00 0. -1.
          5    1    1    2  502    0 -0.59090241979E+02 -0.31941821993E+02  0.60742152747E+02  0.90658801060E+02  0.41800000000E+01 0. -1.
         -5    1    1    2    0  502 -0.15470041550E+03 -0.16050638448E+03 -0.28022167135E+02  0.22471589233E+03  0.41800000000E+01 0. -1.
        -11    1    1    2    0    0  0.14178926125E+03  0.16320313771E+03 -0.80914444229E+02  0.23083891797E+03  0.00000000000E+00 0.  1.
         11    1    1    2    0    0  0.72001396229E+02  0.29245068768E+02  0.14378076107E+02  0.79032930977E+02  0.00000000000E+00 0. -1.
</event>
<event>
 6    1  0.9216756E-006  0.1428699E+03  0.7561462E-02  0.1209519E+00
         -1   -1    0    0    0  501 -0.00000000000E+00  0.00000000000E+00  0.31420215210E+03  0.31420215210E+03  0.00000000000E+00 0.  1.
          1   -1    0    0  501    0  0.00000000000E+00 -0.00000000000E+00 -0.76360454822E+02  0.76360454822E+02  0.00000000000E+00 0. -1.
          5    1    1    2  502    0 -0.46662559809E+02 -0.56827637022E+02  0.45665223977E+02  0.86657716900E+02  0.41800000000E+01 0. -1.
         -5    1    1    2    0  502 -0.65019181766E+02  0.63922734266E+02  0.10220403110E+03  0.13702826835E+03  0.41800000000E+01 0. -1.
        -11    1    1    2    0    0  0.17525557551E+02 -0.19071188167E+02 -0.11140216246E+02  0.28195031541E+02  0.00000000000E+00 0. -1.
         11    1    1    2    0    0  0.94156184024E+02  0.11976090923E+02  0.10111265845E+03  0.13868159013E+03  0.00000000000E+00 0.  1.
</event>
<event>
 6    1  0.9216756E-006  0.1138571E+03  0.7561462E-02  0.1253589E+00
         -1   -1    0    0    0  501 -0.00000000000E+00  0.00000000000E+00  0.52939890907E+02  0.52939890907E+02  0.00000000000E+00 0.  1.
          1   -1    0    0  501    0  0.00000000000E+00 -0.00000000000E+00 -0.51277363945E+03  0.51277363945E+03  0.00000000000E+00 0. -1.
          5    1    1    2  502    0  0.30531447624E+02 -0.27516919565E+02  0.16915030230E+02  0.44642365574E+02  0.41800000000E+01 0.  1.
         -5    1    1    2    0  502 -0.62488315510E+02 -0.42065021004E+02 -0.95646531884E+02  0.12181948542E+03  0.41800000000E+01 0.  1.
        -11    1    1    2    0    0  0.48315493780E+02  0.10223025283E+02 -0.10056001335E+03  0.11203219836E+03  0.00000000000E+00 0.  1.
         11    1    1    2    0    0 -0.16358625894E+02  0.59358915286E+02 -0.28054223354E+03  0.28721948100E+03  0.00000000000E+00 0. -1.
</event>
<event>
 6    1  0.9216756E-006  0.1169079E+03  0.7561462E-02  0.1248287E+00
          2   -1    0    0  501    0  0.00000000000E+00  0.00000000000E+00  0.92518534659E+03  0.92518534659E+03  0.00000000000E+00 0. -1.
         -2   -1    0    0    0  501 -0.00000000000E+00 -0.00000000000E+00 -0.23337104344E+02  0.23337104344E+02  0.00000000000E+00 0.  1.
          5    1    1    2  502    0 -0.16808236386E+02  0.20166629960E+01 -0.69107423688E+00  0.17450894638E+02  0.41800000000E+01 0.  1.
         -5    1    1    2    0  502 -0.21332887438E+02 -0.90616082886E+02  0.43046857323E+03  0.44043958894E+03  0.41800000000E+01 0.  1.
        -11    1    1    2    0    0 -0.17975387544E+02 -0.39739376770E+00  0.21926273657E+02  0.28355492512E+02  0.00000000000E+00 0. -1.
         11    1    1    2    0    0  0.56116511368E+02  0.88996813658E+02  0.45014446959E+03  0.46227647484E+03  0.00000000000E+00 0.  1.
</event>
<event>
 6    1  0.9216756E-006  0.8916603E+02  0.7561462E-02  0.1304884E+00
          4   -1    0    0  501    0  0.00000000000E+00  0.00000000000E+00  0.36233601270E+03  0.36233601270E+03  0.00000000000E+00 0. -1.
         -4   -1    0    0    0  501 -0.00000000000E+00 -0.00000000000E+00 -0.33758725213E+02  0.33758725213E+02  0.00000000000E+00 0.  1.
          5    1    1    2  502    0 -0.38830519935E+02 -0.29005964254E+02  0.14329767534E+02  0.50714592361E+02  0.41800000000E+01 0. -1.
         -5    1    1    2    0  502  0.17028319059E+02  0.33104944237E+02  0.16410294478E+03  0.16832453733E+03  0.41800000000E+01 0. -1.
        -11    1    1    2    0    0 -0.17390485531E+02 -0.37108225265E+02  0.50753750766E+02  0.65233370189E+02  0.00000000000E+00 0.  1.
         11    1    1    2    0    0  0.39192686407E+02  0.33009245281E+02  0.99390824411E+02  0.11182223803E+03  0.00000000000E+00 0. -1.
</event>
<event>
 6    1  0.9216756E-006  0.1177781E+03  0.7561462E-02  0.1246808E+00
          1   -1    0    0  501    0  0.00000000000E+00  0.00000000000E+00  0.25934595947E+03  0.25934595947E+03  0.00000000000E+00 0. -1.
         -1   -1    0    0    0  501 -0.00000000000E+00 -0.00000000000E+00 -0.13172890677E+03  0.13172890677E+03  0.00000000000E+00 0.  1.
          5    1    1    2  502    0  0.48781243378E+02  0.40349982282E+02  0.20210786908E+01  0.63476672366E+02  0.41800000000E+01 0. -1.
         -5    1    1    2    0  502 -0.41359900783E+02 -0.62991202678E+02 -0.74022880219E+02  0.10571372760E+03  0.41800000000E+01 0.  1.
        -11    1    1    2    0    0  0.41022853814E+02  0.25171152535E+02  0.91670707516E+02  0.10353733661E+03  0.00000000000E+00 0. -1.
         11    1    1    2    0    0 -0.48444196409E+02 -0.25299321393E+01  0.10794814671E+03  0.11834712967E+03  0.00000000000E+00 0.  1.
</event>
<event>
 6    1  0.9216756E-006  0.8438162E+02  0.7561462E-02  0.1317058E+00
          3   -1    0    0  501    0  0.00000000000E+00  0.00000000000E+00  0.14093947424E+03  0.14093947424E+03  0.00000000000E+00 0. -1.
         -3   -1    0    0    0  501 -0.00000000000E+00 -0.00000000000E+00 -0.12792845457E+03  0.12792845457E+03  0.00000000000E+00 0.  1.
          5    1    1    2  502    0  0.31103422172E+01  0.49847936710E+02  0.43494699291E+02  0.66360773725E+02  0.41800000000E+01 0.  1.
         -5    1    1    2    0  502 -0.35255342424E+02  0.13714605849E+02 -0.70480436552E+02  0.80099899623E+02  0.41800000000E+01 0.  1.
        -11    1    1    2    0    0  0.37507490537E+02 -0.34272411084E+02 -0.20650786806E+02  0.54844006086E+02  0.00000000000E+00 0.  1.
         11    1    1    2    0    0 -0.53624903297E+01 -0.29290131476E+02  0.60647543734E+02  0.67563249370E+02  0.00000000000E+00 0. -1.
</event>
<event>
 6    1  0.9216756E-006  0.1385471E+03  0.7561462E-02  0.1215297E+00
         -1   -1    0    0    0  501 -0.00000000000E+00  0.00000000000E+00  0.22830150720E+03  0.22830150720E+03  0.00000000000E+00 0.  1.
          1   -1    0    0  501    0  0.00000000000E+00 -0.00000000000E+00 -0.91286924919E+02  0.91286924919E+02  0.00000000000E+00 0. -1.
          5    1    1    2  502    0 -0.15910660960E+01  0.25957695085E+02 -0.87827189146E+01  0.27765841910E+02  0.41800000000E+01 0.  1.
         -5    1    1    2    0  502 -0.27752201062E+02 -0.11564667492E+03  0.86655130683E+02  0.14721046892E+03  0.41800000000E+01 0.  1.
        -11    1    1    2    0    0  0.58771377638E+02  0.82781371716E+02  0.42049878953E+02  0.10988640795E+03  0.00000000000E+00 0. -1.
         11    1    1    2    0    0 -0.29428110480E+02  0.69076081235E+01  0.17092291562E+02  0.34725713344E+02  0.00000000000E+00 0.  1.
</event>
<event>
 6    1  0.9216756E-006  0.1475369E+03  0.7561462E-02  0.1203533E+00
          2   -1    0    0  501    0  0.00000000000E+00  0.00000000000E+00  0.48777378130E+03  0.48777378130E+03  0.00000000000E+00 0. -1.
         -2   -1    0    0    0  501 -0.00000000000E+00 -0.00000000000E+00 -0.47787264100E+02  0.47787264100E+02  0.00000000000E+00 0.  1.
          5    1    1    2  502    0  0.88754511468E+01  0.30112686658E+02  0.30735718209E+02  0.44132803046E+02  0.41800000000E+01 0. -1.
         -5    1    1    2    0  502  0.14669739388E+02 -0.12780293181E+03  0.13886214182E+03  0.18933820920E+03  0.41800000000E+01 0. -1.
        -11    1    1    2    0    0  0.24926183095E+02  0.78838424480E+02  0.16866418131E+03  0.18784146996E+03  0.00000000000E+00 0.  1.
         11    1    1    2    0    0 -0.48471373630E+02  0.18851820668E+02  0.10172447586E+03  0.11424856320E+03  0.00000000000E+00 0. -1.
</event>
<event>
 6    1  0.9216756E-006  0.9129616E+02  0.7561462E-02  0.1299743E+00
          2   -1    0    0  501    0  0.00000000000E+00  0.00000000000E+00  0.11673817830E+03  0.11673817830E+03  0.00000000000E+00 0. -1.
         -2   -1    0    0    0  501 -0.00000000000E+00 -0.00000000000E+00 -0.13464556586E+03  0.13464556586E+03  0.00000000000E+00 0.  1.
          5    1    1    2  502    0 -0.63805182961E+02 -0.26889163347E+02  0.16962737109E+01  0.69386441202E+02  0.41800000000E+01 0.  1.
         -5    1    1    2    0  502  0.27612411624E+02  0.27926523620E+02 -0.63439395137E+02  0.74728610670E+02  0.41800000000E+01 0.  1.
        -11    1    1    2    0    0  0.80975533707E+01 -0.31363500220E+02  0.55546923885E+02  0.64301635047E+02  0.00000000000E+00 0. -1.
         11    1    1    2    0    0  0.28095217966E+02  0.30326139947E+02 -0.11711190022E+02  0.42967057246E+02  0.00000000000E+00 0.  1.
</event>
<event>
 6    1  0.9216756E-006  0.8114157E+02  0.7561462E-02  0.1325843E+00
          2   -1    0    0  501    0  0.00000000000E+00  0.00000000000E+00  0.14771377557E+03  0.14771377557E+03  0.00000000000E+00 0. -1.
         -2   -1    0    0    0  501 -0.00000000000E+00 -0.00000000000E+00 -0.13528142797E+03  0.13528142797E+03  0.00000000000E+00 0.  1.
          5    1    1    2  502    0 -0.50617008050E+02  0.91324783638E+01  0.34990081337E+02  0.62347909804E+02  0.41800000000E+01 0. -1.
         -5    1    1    2    0  502  0.93988881125E+01 -0.11748995345E+02 -0.96135415422E+02  0.97395423341E+02  0.41800000000E+01 0.  1.
        -11    1    1    2    0    0  0.42470672771E+02 -0.36455755257E+02  0.59534290535E+02  0.81713596705E+02  0.00000000000E+00 0. -1.
         11    1    1    2    0    0 -0.12525528335E+01  0.39072272238E+02  0.14043391149E+02  0.41538273693E+02  0.00000000000E+00 0.  1.
</event>
<event>
 6    1  0.9216756E-006  0.1894386E+03  0.7561462E-02  0.1158969E+00
         -2   -1    0    0    0  501 -0.00000000000E+00  0.00000000000E+00  0.10971461285E+03  0.10971461285E+03  0.00000000000E+00 0. -1.
          2   -1    0    0  501    0  0.00000000000E+00 -0.00000000000E+00 -0.38721579556E+03  0.38721579556E+03  0.00000000000E+00 0.  1.
          5    1    1    2  502    0  0.48405592497E+02  0.78676193100E+02 -0.88433620166E+02  0.12794929590E+03  0.41800000000E+01 0.  1.
         -5    1    1    2    0  502  0.91058296155E+02 -0.36580348470E+02 -0.12882513193E+03  0.16199729075E+03  0.41800000000E+01 0.  1.
        -11    1    1    2    0    0 -0.22402756878E+02 -0.65135992242E+02  0.83165526572E+01  0.69381164945E+02  0.00000000000E+00 0. -1.
         11    1    1    2    0    0 -0.11706113177E+03  0.23040147612E+02 -0.68558983271E+02  0.13760265681E+03  0.00000000000E+00 0.  1.
</event>
<event>
 6    1  0.9216756E-006  0.1434824E+03  0.7561462E-02  0.1208718E+00
          3   -1    0    0  501    0  0.00000000000E+00  0.00000000000E+00  0.98624229258E+02  0.98624229258E+02  0.00000000000E+00 0.  1.
         -3   -1    0    0    0  501 -0.00000000000E+00 -0.00000000000E+00 -0.35683466084E+03  0.35683466084E+03  0.00000000000E+00 0. -1.
          5    1    1    2  502    0 -0.71785141813E+00  0.99702835457E+02 -0.18494383399E+03  0.21014962488E+03  0.41800000000E+01 0. -1.
         -5    1    1    2    0  502 -0.66668260322E+02 -0.37035815165E+01 -0.67579707333E+02  0.95093967704E+02  0.41800000000E+01 0. -1.
        -11    1    1    2    0    0  0.10442893489E+02 -0.24077171354E+01  0.32481294218E+02  0.34203590459E+02  0.00000000000E+00 0.  1.
         11    1    1    2    0    0  0.56943218252E+02 -0.93591536805E+02 -0.38168184477E+02  0.11601170705E+03  0.00000000000E+00 0. -1.
</event>
<event>
 6    1  0.9216756E-006  0.1263904E+03  0.7561462E-02  0.1232912E+00
         -2   -1    0    0    0  501 -0.00000000000E+00  0.00000000000E+00  0.43203525646E+03  0.43203525646E+03  0.00000000000E+00 0.  1.
          2   -1    0    0  501    0  0.00000000000E+00 -0.00000000000E+00 -0.54791933228E+02  0.54791933228E+02  0.00000000000E+00 0. -1.
          5    1    1    2  502    0 -0.92016873289E+01  0.97372717057E+02  0.28000514443E+03  0.29662513444E+03  0.41800000000E+01 0. -1.
         -5    1    1    2    0  502  0.30069986220E+02 -0.58907499851E+01  0.93981660731E+01  0.32321864615E+02  0.41800000000E+01 0. -1.
        -11    1    1    2    0    0  0.31213673882E+02 -0.28871833377E+02  0.56285614814E+02  0.70540390095E+02  0.00000000000E+00 0. -1.
         11    1    1    2    0    0 -0.52081972772E+02 -0.62610133695E+02  0.31554397912E+02  0.87339800531E+02  0.00000000000E+00 0.  1.
</event>
<event>
 6    1  0.9216756E-006  0.1729730E+03  0.7561462E-02  0.1174783E+00
         -1   -1    0    0    0  501 -0.00000000000E+00  0.00000000000E+00  0.31171372317E+03  0.31171372317E+03  0.00000000000E+00 0.  1.
          1   -1    0    0  501    0  0.00000000000E+00 -0.00000000000E+00 -0.11945481575E+03  0.11945481575E+03  0.00000000000E+00 0. -1.
          5    1    1    2  502    0  0.17957611336E+01  0.17418998547E+02 -0.99038848077E+01  0.20547642266E+02  0.41800000000E+01 0.  1.
         -5    1    1    2    0  502  0.11321668909E+03 -0.12517113022E+03  0.13727476246E+03  0.21759518225E+03  0.41800000000E+01 0.  1.
        -11    1    1    2    0    0 -0.69263398123E+02  0.79071062950E+02 -0.43677777347E+01  0.10520802630E+03  0.00000000000E+00 0.  1.
         11    1    1    2    0    0 -0.45749052104E+02  0.28681068721E+02  0.69255807501E+02  0.87817688104E+02  0.00000000000E+00 0. -1.
</event>
<event>
 6    1  0.9216756E-006  0.1251335E+03  0.7561462E-02  0.1234861E+00
          2   -1    0    0  501    0  0.00000000000E+00  0.00000000000E+00  0.28930194741E+03  0.28930194741E+03  0.00000000000E+00 0. -1.
         -2   -1    0    0    0  501 -0.00000000000E+00 -0.00000000000E+00 -0.13296540513E+03  0.13296540513E+03  0.00000000000E+00 0.  1.
          5    1    1    2  502    0 -0.22905981721E+02 -0.26302790800E+02  0.95303347774E+01  0.36398083513E+02  0.41800000000E+01 0. -1.
         -5    1    1    2    0  502 -0.26468980263E+02  0.86466938267E+02 -0.62665167242E+02  0.11009783792E+03  0.41800000000E+01 0.  1.
        -11    1    1    2    0    0  0.70232721898E+01  0.26896990174E+02 -0.14801405741E+02  0.31493746118E+02  0.00000000000E+00 0.  1.
         11    1    1    2    0    0  0.42351689794E+02 -0.87061137641E+02  0.22427278048E+03  0.24427768499E+03  0.00000000000E+00 0. -1.
</event>
<event>
 6    1  0.9216756E-006  0.1283048E+03  0.7561462E-02  0.1229993E+00
          2   -1    0    0  501    0  0.00000000000E+00  0.00000000000E+00  0.14542554999E+03  0.14542554999E+03  0.00000000000E+00 0. -1.
         -2   -1    0    0    0  501 -0.00000000000E+00 -0.00000000000E+00 -0.12711462691E+03  0.12711462691E+03  0.00000000000E+00 0.  1.
          5    1    1    2  502    0  0.43619672447E+02 -0.80787825260E+02 -0.35874305539E+02  0.98659955060E+02  0.41800000000E+01 0.  1.
         -5    1    1    2    0  502  0.95370707531E+01  0.40788388794E+02  0.14706420051E+02  0.44591474181E+02  0.41800000000E+01 0.  1.
        -11    1    1    2    0    0 -0.83257689106E+02  0.17630154786E+02  0.21933865457E+02  0.87884922524E+02  0.00000000000E+00 0.  1.
         11    1    1    2    0    0  0.30100945907E+02  0.22369281680E+02  0.17544943105E+02  0.41403825136E+02  0.00000000000E+00 0. -1.
</event>
<event>
 6    1  0.9216756E-006  0.1033382E+03  0.7561462E-02  0.1273429E+00
          2   -1    0    0  501    0  0.00000000000E+00  0.00000000000E+00  0.37039443103E+03  0.37039443103E+03  0.00000000000E+00 0. -1.
         -2   -1    0    0    0  501 -0.00000000000E+00 -0.00000000000E+00 -0.40532425347E+02  0.40532425347E+02  0.00000000000E+00 0.  1.
          5    1    1    2  502    0 -0.24889945401E+02 -0.26941763170E+02 -0.18514532566E+01  0.36963066214E+02  0.41800000000E+01 0. -1.
         -5    1    1    2    0  502 -0.22493943961E+02  0.64750408562E+02  0.15663960045E+03  0.17103224770E+03  0.41800000000E+01 0. -1.
        -11    1    1    2    0    0  0.15792339834E+02 -0.60282161275E+02  0.90325298114E+02  0.10973603075E+03  0.00000000000E+00 0.  1.
         11    1    1    2    0    0  0.31591549529E+02  0.22473515883E+02  0.84748560378E+02  0.93195511716E+02  0.00000000000E+00 0. -1.
</event>
<event>
 6    1  0.9216756E-006  0.1711421E+03  0.7561462E-02  0.1176662E+00
         -2   -1    0    0    0  501 -0.00000000000E+00  0.00000000000E+00  0.49323532064E+02  0.49323532064E+02  0.00000000000E+00 0. -1.
          2   -1    0    0  501    0  0.00000000000E+00 -0.00000000000E+00 -0.72626689152E+03  0.72626689152E+03  0.00000000000E+00 0.  1.
          5    1    1    2  502    0 -0.16477361698E+03  0.11283937759E+02 -0.21901369070E+03  0.27433946348E+03  0.41800000000E+01 0. -1.
         -5    1    1    2    0  502  0.11003491522E+02 -0.13554340440E+01 -0.10473545656E+03  0.10540352123E+03  0.41800000000E+01 0. -1.
        -11    1    1    2    0    0  0.58742912734E+02 -0.33079787353E+02 -0.74431517440E+02  0.10042436416E+03  0.00000000000E+00 0. -1.
         11    1    1    2    0    0  0.95027212724E+02  0.23151283638E+02 -0.27876269475E+03  0.29542307472E+03  0.00000000000E+00 0.  1.
</event>
<event>
 6    1  0.9216756E-006  0.1210960E+03  0.7561462E-02  0.1241300E+00
          2   -1    0    0  501    0  0.00000000000E+00  0.00000000000E+00  0.59454395302E+03  0.59454395302E+03  0.00000000000E+00 0. -1.
         -2   -1    0    0    0  501 -0.00000000000E+00 -0.00000000000E+00 -0.34436401548E+02  0.34436401548E+02  0.00000000000E+00 0.  1.
          5    1    1    2  502    0 -0.60690803855E+02 -0.83334090316E+02  0.24075859502E+03  0.26193533125E+03  0.41800000000E+01 0. -1.
         -5    1    1    2    0  502  0.41597006850E+02 -0.82107639824E+01  0.35679001551E+02  0.55571496073E+02  0.41800000000E+01 0. -1.
        -11    1    1    2    0    0  0.22156394953E+02  0.49246001467E+02  0.25409562109E+03  0.25977039699E+03  0.00000000000E+00 0. -1.
         11    1    1    2    0    0 -0.30625979481E+01  0.42298852831E+02  0.29574333805E+02  0.51703130244E+02  0.00000000000E+00 0.  1.
</event>
<event>
 6    1  0.9216756E-006  0.8944120E+02  0.7561462E-02  0.1304211E+00
          2   -1    0    0  501    0  0.00000000000E+00  0.00000000000E+00  0.10860606705E+03  0.10860606705E+03  0.00000000000E+00 0.  1.
         -2   -1    0    0    0  501 -0.00000000000E+00 -0.00000000000E+00 -0.11497280108E+03  0.11497280108E+03  0.00000000000E+00 0. -1.
          5    1    1    2  502    0 -0.42110792724E+02  0.57357687584E+02  0.11951344553E+02  0.72273994115E+02  0.41800000000E+01 0. -1.
         -5    1    1    2    0  502  0.32540333433E+02 -0.35941893159E+02 -0.27621607081E+02  0.55956398754E+02  0.41800000000E+01 0. -1.
        -11    1    1    2    0    0  0.31052789636E+02 -0.20937334291E+02  0.41968601291E+02  0.56249544049E+02  0.00000000000E+00 0.  1.
         11    1    1    2    0    0 -0.21482330345E+02 -0.47846013295E+00 -0.32665072799E+02  0.39098931214E+02  0.00000000000E+00 0. -1.
</event>
<event>
 6    1  0.9216756E-006  0.1676744E+03  0.7561462E-02  0.1180295E+00
          2   -1    0    0  501    0  0.00000000000E+00  0.00000000000E+00  0.25000495311E+03  0.25000495311E+03  0.00000000000E+00 0. -1.
         -2   -1    0    0    0  501 -0.00000000000E+00 -0.00000000000E+00 -0.14291570734E+03  0.14291570734E+03  0.00000000000E+00 0.  1.
          5    1    1    2  502    0  0.10170769956E+03 -0.30085310805E+02 -0.37038172002E+02  0.11242277644E+03  0.41800000000E+01 0.  1.
         -5    1    1    2    0  502  0.16495913149E+02 -0.62091197733E+02  0.53133137693E+02  0.83474754913E+02  0.41800000000E+01 0.  1.
        -11    1    1    2    0    0 -0.46045428649E+02 -0.21075949690E+01 -0.21122027832E+01  0.46142007506E+02  0.00000000000E+00 0.  1.
         11    1    1    2    0    0 -0.72158184062E+02  0.94284103507E+02  0.93106482861E+02  0.15088112159E+03  0.00000000000E+00 0. -1.
</event>
<event>
 6    1  0.9216756E-006  0.6625535E+02  0.7561462E-02  0.1373311E+00
         -3   -1    0    0    0  501 -0.00000000000E+00  0.00000000000E+00  0.15948158391E+03  0.15948158391E+03  0.00000000000E+00 0.  1.
          3   -1    0    0  501    0  0.00000000000E+00 -0.00000000000E+00 -0.84140976610E+02  0.84140976610E+02  0.00000000000E+00 0. -1.
          5    1    1    2  502    0  0.15694176967E+02  0.20722786531E+02  0.10253591323E+03  0.10586230195E+03  0.41800000000E+01 0. -1.
         -5    1    1    2    0  502 -0.35870496315E+02 -0.19135532915E+02 -0.19862565363E+02  0.45440675926E+02  0.41800000000E+01 0. -1.
        -11    1    1    2    0    0 -0.19388022616E+02 -0.13922867347E+02  0.28751919177E+02  0.37368630059E+02  0.00000000000E+00 0.  1.
         11    1    1    2    0    0  0.39564341964E+02  0.12335613731E+02 -0.36084659744E+02  0.54950952585E+02  0.00000000000E+00 0. -1.
</event>
<event>
 6    1  0.9216756E-006  0.8370609E+02  0.7561462E-02  0.1318851E+00
          1   -1    0    0  501    0  0.00000000000E+00  0.00000000000E+00  0.53231214498E+02  0.53231214498E+02  0.00000000000E+00 0. -1.
         -1   -1    0    0    0  501 -0.00000000000E+00 -0.00000000000E+00 -0.44268500925E+03  0.44268500925E+03  0.00000000000E+00 0.  1.
          5    1    1    2  502    0 -0.25692209713E+02  0.59197511845E+01 -0.28792686875E+03  0.28916169740E+03  0.41800000000E+01 0.  1.
         -5    1    1    2    0  502 -0.39634182063E+02  0.41994015398E+02 -0.38078837578E+02  0.69295281141E+02  0.41800000000E+01 0.  1.
        -11    1    1    2    0    0  0.33406513368E+02 -0.35015607593E+02  0.15919718504E+02  0.50946298666E+02  0.00000000000E+00 0. -1.
         11    1    1    2    0    0  0.31919878409E+02 -0.12898158990E+02 -0.79367806926E+02  0.86512946541E+02  0.00000000000E+00 0.  1.
</event>
<event>
 6    1  0.9216756E-006  0.8421864E+02  0.7561462E-02  0.1317489E+00
         -2   -1    0    0    0  501 -0.00000000000E+00  0.00000000000E+00  0.50584564011E+02  0.50584564011E+02  0.00000000000E+00 0.  1.
          2   -1    0    0  501    0  0.00000000000E+00 -0.00000000000E+00 -0.35645547815E+03  0.35645547815E+03  0.00000000000E+00 0. -1.
          5    1    1    2  502    0 -0.12627662582E+02 -0.41673738816E+02 -0.83441841542E+02  0.94213436883E+02  0.41800000000E+01 0. -1.
         -5    1    1    2    0  502  0.22740147771E+02  0.26664829402E+02  0.28491283653E+02  0.45358054322E+02  0.41800000000E+01 0.  1.
        -11    1    1    2    0    0  0.34397942951E+02  0.26508563278E+02 -0.15707880659E+03  0.16297138978E+03  0.00000000000E+00 0.  1.
         11    1    1    2    0    0 -0.44510428139E+02 -0.11499653863E+02 -0.93841549660E+02  0.10449716118E+03  0.00000000000E+00 0. -1.
</event>
<event>
 6    1  0.9216756E-006  0.1794060E+03  0.7561462E-02  0.1168379E+00
         -1   -1    0    0    0  501 -0.00000000000E+00  0.00000000000E+00  0.36534324872E+03  0.36534324872E+03  0.00000000000E+00 0.  1.
          1   -1    0    0  501    0  0.00000000000E+00 -0.00000000000E+00 -0.10909189239E+03  0.10909189239E+03  0.00000000000E+00 0. -1.
          5    1    1    2  502    0  0.97927937864E+02  0.10848320230E+03  0.14309239479E+03  0.20457612774E+03  0.41800000000E+01 0. -1.
         -5    1    1    2    0  502  0.42458609385E+01  0.23438277233E+02 -0.25247065580E+02  0.34960933843E+02  0.41800000000E+01 0. -1.
        -11    1    1    2    0    0 -0.78119273195E+02 -0.29967699551E+02  0.75563044368E+02  0.11274066496E+03  0.00000000000E+00 0.  1.
         11    1    1    2    0    0 -0.24054525608E+02 -0.10195377998E+03  0.62842982750E+02  0.12215741457E+03  0.00000000000E+00 0. -1.
</event>
<event>
 6    1  0.9216756E-006  0.1292330E+03  0.7561462E-02  0.1228598E+00
         -2   -1    0    0    0  501 -0.00000000000E+00  0.00000000000E+00  0.39151966820E+02  0.39151966820E+02  0.00000000000E+00 0.  1.
          2   -1    0    0  501    0  0.00000000000E+00 -0.00000000000E+00 -0.60561804330E+03  0.60561804330E+03  0.00000000000E+00 0. -1.
          5    1    1    2  502    0  0.94996248770E+02 -0.75324351021E+01 -0.13791609264E+03  0.16768824010E+03  0.41800000000E+01 0. -1.
         -5    1    1    2    0  502 -0.41754350970E+02  0.32528555722E+02 -0.24800829998E+02  0.58601077898E+02  0.41800000000E+01 0.  1.
        -11    1    1    2    0    0  0.60390932092E+01  0.29107285776E+02 -0.10251758596E+03  0.10674062096E+03  0.00000000000E+00 0.  1.
         11    1    1    2    0    0 -0.59280991009E+02 -0.54103406395E+02 -0.30123156787E+03  0.31174007115E+03  0.00000000000E+00 0. -1.
</event>
<event>
 6    1  0.9216756E-006  0.1709858E+03  0.7561462E-02  0.1176824E+00
         -2   -1    0    0    0  501 -0.00000000000E+00  0.00000000000E+00  0.17566770653E+03  0.17566770653E+03  0.00000000000E+00 0.  1.
          2   -1    0    0  501    0  0.00000000000E+00 -0.00000000000E+00 -0.22529658182E+03  0.22529658182E+03  0.00000000000E+00 0. -1.
          5    1    1    2  502    0  0.13595695663E+03 -0.43577581177E+02  0.56308573954E+02  0.15352989135E+03  0.41800000000E+01 0. -1.
         -5    1    1    2    0  502 -0.24833555212E+02 -0.32116539374E+02  0.16722890335E+02  0.44105612194E+02  0.41800000000E+01 0. -1.
        -11    1    1    2    0    0 -0.12120005027E+03  0.50696319072E+02 -0.11670576356E+03  0.17572650398E+03  0.00000000000E+00 0.  1.
         11    1    1    2    0    0  0.10076648853E+02  0.24997801480E+02 -0.59545760199E+01  0.27602280821E+02  0.00000000000E+00 0. -1.
</event>
<event>
 6    1  0.9216756E-006  0.1658935E+03  0.7561462E-02  0.1182199E+00
          2   -1    0    0  501    0  0.00000000000E+00  0.00000000000E+00  0.15010624750E+03  0.15010624750E+03  0.00000000000E+00 0.  1.
         -2   -1    0    0    0  501 -0.00000000000E+00 -0.00000000000E+00 -0.31313300383E+03  0.31313300383E+03  0.00000000000E+00 0. -1.
          5    1    1    2  502    0  0.70767547878E+02  0.60617160067E+02 -0.16505497966E+03  0.18958666788E+03  0.41800000000E+01 0. -1.
         -5    1    1    2    0  502 -0.27467826642E+02  0.77635220875E+02 -0.42539801188E+02  0.92783706037E+02  0.41800000000E+01 0. -1.
        -11    1    1    2    0    0 -0.36240379756E+02 -0.28571708400E+02 -0.23298320020E+02  0.51696415364E+02  0.00000000000E+00 0. -1.
         11    1    1    2    0    0 -0.70593414799E+01 -0.10968067254E+03  0.67866344543E+02  0.12917246205E+03  0.00000000000E+00 0.  1.
</event>
<event>
 6    1  0.9216756E-006  0.1320576E+03  0.7561462E-02  0.1224434E+00
          1   -1    0    0  501    0  0.00000000000E+00  0.00000000000E+00  0.38647852400E+02  0.38647852400E+02  0.00000000000E+00 0. -1.
         -1   -1    0    0    0  501 -0.00000000000E+00 -0.00000000000E+00 -0.55527385772E+03  0.55527385772E+03  0.00000000000E+00 0.  1.
          5    1    1    2  502    0  0.31294483314E+02 -0.10202362859E+02 -0.52012329695E+02  0.61694308766E+02  0.41800000000E+01 0. -1.
         -5    1    1    2    0  502 -0.11095621663E+03 -0.69362785375E+01 -0.34285105578E+03  0.36044932073E+03  0.41800000000E+01 0. -1.
        -11    1    1    2    0    0  0.20421390671E+02  0.48521915305E+02 -0.40432201599E+02  0.66379005626E+02  0.00000000000E+00 0. -1.
         11    1    1    2    0    0  0.59240342642E+02 -0.31383273909E+02 -0.81330418247E+02  0.10539907500E+03  0.00000000000E+00 0.  1.
</event>
<event>
 6    1  0.9216756E-006  0.1716849E+03  0.7561462E-02  0.1176102E+00
         -2   -1    0    0    0  501 -0.00000000000E+00  0.00000000000E+00  0.36842049443E+02  0.36842049443E+02  0.00000000000E+00 0.  1.
          2   -1    0    0  501    0  0.00000000000E+00 -0.00000000000E+00 -0.96218804487E+03  0.96218804487E+03  0.00000000000E+00 0. -1.
          5    1    1    2  502    0  0.10895172856E+03 -0.13606281519E+02 -0.15554612327E+03  0.19044074909E+03  0.41800000000E+01 0. -1.
         -5    1    1    2    0  502  0.14647500657E+02  0.72028415032E+02 -0.14566439389E+03  0.16321222348E+03  0.41800000000E+01 0. -1.
        -11    1    1    2    0    0 -0.65494516160E+02  0.14047169541E+02 -0.19133699467E+03  0.20272321068E+03  0.00000000000E+00 0.  1.
         11    1    1    2    0    0 -0.58104713053E+02 -0.72469303054E+02 -0.43279848360E+03  0.44265391106E+03  0.00000000000E+00 0. -1.
</event>
<event>
 6    1  0.9216756E-006  0.1328130E+03  0.7561462E-02  0.1223341E+00
          1   -1    0    0  501    0  0.00000000000E+00  0.00000000000E+00  0.34883127656E+03  0.34883127656E+03  0.00000000000E+00 0. -1.
         -1   -1    0    0    0  501 -0.00000000000E+00 -0.00000000000E+00 -0.69614927976E+02  0.69614927976E+02  0.00000000000E+00 0.  1.
          5    1    1    2  502    0 -0.18057097718E+02 -0.29792878212E+02  0.75067042611E+02  0.82862582971E+02  0.41800000000E+01 0.  1.
         -5    1    1    2    0  502 -0.81332423972E+02  0.75519362089E+02  0.34951366857E+02  0.11643542281E+03  0.41800000000E+01 0.  1.
        -11    1    1    2    0    0  0.41851324537E+02  0.57796879221E+01  0.12088863088E+03  0.12805857735E+03  0.00000000000E+00 0. -1.
         11    1    1    2    0    0  0.57538197153E+02 -0.51506171799E+02  0.48309308236E+02  0.91089621402E+02  0.00000000000E+00 0.  1.
</event>
<event>
 6    1  0.9216756E-006  0.1063508E+03  0.7561462E-02  0.1267481E+00
          2   -1    0    0  501    0  0.00000000000E+00  0.00000000000E+00  0.23505552874E+03  0.23505552874E+03  0.00000000000E+00 0. -1.
         -2   -1    0    0    0  501 -0.00000000000E+00 -0.00000000000E+00 -0.51883349456E+02  0.51883349456E+02  0.00000000000E+00 0.  1.
          5    1    1    2  502    0 -0.17838635713E+02  0.69535121674E+02  0.29781057752E+02  0.77831445260E+02  0.41800000000E+01 0.  1.
         -5    1    1    2    0  502  0.70255371200E+01 -0.51109918126E+02  0.50608869608E+02  0.72389999210E+02  0.41800000000E+01 0.  1.
        -11    1    1    2    0    0 -0.14179028107E+02  0.30755734544E+02  0.28967280198E+02  0.44565270867E+02  0.00000000000E+00 0.  1.
         11    1    1    2    0    0  0.24992126700E+02 -0.49180938092E+02  0.73814971722E+02  0.92152162856E+02  0.00000000000E+00 0. -1.
</event>
<event>
 6    1  0.9216756E-006  0.1052157E+03  0.7561462E-02  0.1269695E+00
          2   -1    0    0  501    0  0.00000000000E+00  0.00000000000E+00  0.54344098656E+03  0.54344098656E+03  0.00000000000E+00 0. -1.
         -2   -1    0    0    0  501 -0.00000000000E+00 -0.00000000000E+00 -0.31402946422E+02  0.31402946422E+02  0.00000000000E+00 0.  1.
          5    1    1    2  502    0 -0.40998822703E+02  0.57026491813E+02  0.12262170325E+03  0.14137354328E+03  0.41800000000E+01 0. -1.
         -5    1    1    2    0  502  0.98865358277E+01 -0.44452184796E+02  0.16283317562E+02  0.48542343935E+02  0.41800000000E+01 0. -1.
        -11    1    1    2    0    0  0.58414344793E+02  0.95649418360E+01  0.22131678712E+03  0.22909570936E+03  0.00000000000E+00 0.  1.
         11    1    1    2    0    0 -0.27302057918E+02 -0.22139248853E+02  0.15181623221E+03  0.15583233641E+03  0.00000000000E+00 0. -1.
</event>
<event>
 6    1  0.9216756E-006  0.1362853E+03  0.7561462E-02  0.1218417E+00
          3   -1    0    0  501    0  0.00000000000E+00  0.00000000000E+00  0.89618080896E+03  0.89618080896E+03  0.00000000000E+00 0. -1.
         -3   -1    0    0    0  501 -0.00000000000E+00 -0.00000000000E+00 -0.27007023466E+02  0.27007023466E+02  0.00000000000E+00 0.  1.
          5    1    1    2  502    0  0.69852487107E+02  0.51758069237E-01  0.16964725530E+03  0.18351304113E+03  0.41800000000E+01 0. -1.
         -5    1    1    2    0  502 -0.19438626666E+02 -0.85151886057E+02  0.14751554041E+03  0.17148472517E+03  0.41800000000E+01 0. -1.
        -11    1    1    2    0    0 -0.63019779414E+02  0.79253140243E+02  0.54118210233E+03  0.55057299308E+03  0.00000000000E+00 0. -1.
         11    1    1    2    0    0  0.12605918973E+02  0.58469877445E+01  0.10828887459E+02  0.17617073038E+02  0.00000000000E+00 0.  1.
</event>
<event>
 6    1  0.9216756E-006  0.1189990E+03  0.7561462E-02  0.1244758E+00
          2   -1    0    0  501    0  0.00000000000E+00  0.00000000000E+00  0.79705544743E+03  0.79705544743E+03  0.00000000000E+00 0. -1.
         -2   -1    0    0    0  501 -0.00000000000E+00 -0.00000000000E+00 -0.20655744976E+02  0.20655744976E+02  0.00000000000E+00 0.  1.
          5    1    1    2  502    0  0.42593992965E+02 -0.27954485941E+02  0.18477765362E+03  0.19171842686E+03  0.41800000000E+01 0. -1.
         -5    1    1    2    0  502 -0.12612936344E+02  0.79055663612E+02  0.13700997627E+03  0.15873906297E+03  0.41800000000E+01 0.  1.
        -11    1    1    2    0    0  0.27299826298E+02  0.35680293800E+01  0.88807621287E+02  0.92977443223E+02  0.00000000000E+00 0.  1.
         11    1    1    2    0    0 -0.57280882919E+02 -0.54669207052E+02  0.36580445128E+03  0.37427625936E+03  0.00000000000E+00 0. -1.
</event>
<event>
 6    1  0.9216756E-006  0.8932820E+02  0.7561462E-02  0.1304487E+00
          1   -1    0    0  501    0  0.00000000000E+00  0.00000000000E+00  0.14723537736E+02  0.14723537736E+02  0.00000000000E+00 0. -1.
         -1   -1    0    0    0  501 -0.00000000000E+00 -0.00000000000E+00 -0.85210230879E+03  0.85210230879E+03  0.00000000000E+00 0.  1.
          5    1    1    2  502    0 -0.51624834159E+02 -0.16756195975E+02 -0.17716164288E+03  0.18533648781E+03  0.41800000000E+01 0. -1.
         -5    1    1    2    0  502  0.32720213297E+02  0.14555498245E+02 -0.47142433108E+03  0.47280106516E+03  0.41800000000E+01 0.  1.
        -11    1    1    2    0    0 -0.18259958642E+01  0.42662445758E+02 -0.77860650302E+02  0.88801460599E+02  0.00000000000E+00 0. -1.
         11    1    1    2    0    0  0.20730616727E+02 -0.40461748029E+02 -0.11093214679E+03  0.11988683295E+03  0.00000000000E+00 0.  1.
</event>
<event>
 6    1  0.9216756E-006  0.1201564E+03  0.7561462E-02  0.1242839E+00
         -1   -1    0    0    0  501 -0.00000000000E+00  0.00000000000E+00  0.96805754995E+02  0.96805754995E+02  0.00000000000E+00 0.  1.
          1   -1    0    0  501    0  0.00000000000E+00 -0.00000000000E+00 -0.19155465269E+03  0.19155465269E+03  0.00000000000E+00 0. -1.
          5    1    1    2  502    0  0.43474654254E+02 -0.59587699953E+02 -0.61144683133E+02  0.95900386984E+02  0.41800000000E+01 0.  1.
         -5    1    1    2    0  502  0.37695036529E+02  0.50787684768E+02  0.52266168498E+01  0.63601058377E+02  0.41800000000E+01 0.  1.
        -11    1    1    2    0    0 -0.91909066226E+02  0.72197760516E+01 -0.38937501589E+01  0.92274389248E+02  0.00000000000E+00 0.  1.
         11    1    1    2    0    0  0.10739375443E+02  0.15802391341E+01 -0.34937081253E+02  0.36584573075E+02  0.00000000000E+00 0. -1.
</event>
<event>
 6    1  0.9216756E-006  0.1043497E+03  0.7561462E-02  0.1271406E+00
         -1   -1    0    0    0  501 -0.00000000000E+00  0.00000000000E+00  0.27906399025E+02  0.27906399025E+02  0.00000000000E+00 0.  1.
          1   -1    0    0  501    0  0.00000000000E+00 -0.00000000000E+00 -0.56245440319E+03  0.56245440319E+03  0.00000000000E+00 0. -1.
          5    1    1    2  502    0  0.39408953133E+02  0.54446704429E+02 -0.22852494394E+03  0.23824070100E+03  0.41800000000E+01 0.  1.
         -5    1    1    2    0  502 -0.47467949887E+02  0.43832073713E+01 -0.34454496988E+02  0.58966121935E+02  0.41800000000E+01 0.  1.
        -11    1    1    2    0    0 -0.12956029067E+02  0.13185390070E+02 -0.99523909140E+01  0.20994363181E+02  0.00000000000E+00 0.  1.
         11    1    1    2    0    0  0.21015025822E+02 -0.72015301870E+02 -0.26161617232E+03  0.27215961610E+03  0.00000000000E+00 0. -1.
</event>
<event>
 6    1  0.9216756E-006  0.7751461E+02  0.7561462E-02  0.1336256E+00
         -1   -1    0    0    0  501 -0.00000000000E+00  0.00000000000E+00  0.24995457970E+02  0.24995457970E+02  0.00000000000E+00 0.  1.
          1   -1    0    0  501    0  0.00000000000E+00 -0.00000000000E+00 -0.53028416749E+03  0.53028416749E+03  0.00000000000E+00 0. -1.
          5    1    1    2  502    0  0.38435483856E+02  0.23397486921E+02 -0.24295335148E+03  0.24712048116E+03  0.41800000000E+01 0. -1.
         -5    1    1    2    0  502 -0.61040647972E+01 -0.31756529119E+02 -0.55318172440E+01  0.33072800770E+02  0.41800000000E+01 0. -1.
        -11    1    1    2    0    0 -0.10493373580E+02  0.38560033449E+02 -0.45656663945E+02  0.60675514264E+02  0.00000000000E+00 0.  1.
         11    1    1    2    0    0 -0.21838045479E+02 -0.30200991251E+02 -0.21114687685E+03  0.21441082927E+03  0.00000000000E+00 0. -1.
</event>
<event>
 6    1  0.9216756E-006  0.1206044E+03  0.7561462E-02  0.1242103E+00
          4   -1    0    0  501    0  0.00000000000E+00  0.00000000000E+00  0.12553260585E+04  0.12553260585E+04  0.00000000000E+00 0. -1.
         -4   -1    0    0    0  501 -0.00000000000E+00 -0.00000000000E+00 -0.12015384751E+02  0.12015384751E+02  0.00000000000E+00 0.  1.
          5    1    1    2  502    0 -0.21440291978E+02 -0.31970908651E+02  0.12576394308E+03  0.13158976746E+03  0.41800000000E+01 0. -1.
         -5    1    1    2    0  502  0.74008917807E+02  0.62398084864E+02  0.52468651710E+03  0.53355810793E+03  0.41800000000E+01 0. -1.
        -11    1    1    2    0    0 -0.76653490936E+02 -0.26987575500E+02  0.45165290520E+03  0.45890569149E+03  0.00000000000E+00 0.  1.
         11    1    1    2    0    0  0.24084865107E+02 -0.34396007126E+01  0.14120730839E+03  0.14328787640E+03  0.00000000000E+00 0. -1.
</event>
<event>
 6    1  0.9216756E-006  0.1186588E+03  0.7561462E-02  0.1245326E+00
          3   -1    0    0  501    0  0.00000000000E+00  0.00000000000E+00  0.29741845057E+02  0.29741845057E+02  0.00000000000E+00 0. -1.
         -3   -1    0    0    0  501 -0.00000000000E+00 -0.00000000000E+00 -0.54647498129E+03  0.54647498129E+03  0.00000000000E+00 0.  1.
          5    1    1    2  502    0  0.34858758636E+02  0.86128173417E+02 -0.24243110320E+03  0.25966036954E+03  0.41800000000E+01 0.  1.
         -5    1    1    2    0  502 -0.21512608179E+02 -0.36080346782E+02 -0.12345062813E+03  0.13046882279E+03  0.41800000000E+01 0.  1.
        -11    1    1    2    0    0  0.69023580562E+01 -0.71941876573E+02 -0.13289825535E+03  0.15127862515E+03  0.00000000000E+00 0. -1.
         11    1    1    2    0    0 -0.20248508514E+02  0.21894049937E+02 -0.17953149554E+02  0.34809008871E+02  0.00000000000E+00 0.  1.
</event>
<event>
 6    1  0.9216756E-006  0.6508471E+02  0.7561462E-02  0.1377653E+00
         -1   -1    0    0    0  501 -0.00000000000E+00  0.00000000000E+00  0.34258357717E+02  0.34258357717E+02  0.00000000000E+00 0.  1.
          1   -1    0    0  501    0  0.00000000000E+00 -0.00000000000E+00 -0.35263513061E+03  0.35263513061E+03  0.00000000000E+00 0. -1.
          5    1    1    2  502    0  0.12157413257E+02  0.31501007734E+01 -0.19378727545E+03  0.19423878695E+03  0.41800000000E+01 0.  1.
         -5    1    1    2    0  502 -0.23637642299E+02  0.21478175022E+02  0.62593400123E+01  0.32813135679E+02  0.41800000000E+01 0.  1.
        -11    1    1    2    0    0 -0.25972854902E+02  0.15165065958E+02 -0.78920802038E+02  0.84457453262E+02  0.00000000000E+00 0. -1.
         11    1    1    2    0    0  0.37453083944E+02 -0.39793341753E+02 -0.51928035423E+02  0.75384112435E+02  0.00000000000E+00 0.  1.
</event>
<event>
 6    1  0.9216756E-006  0.8360603E+02  0.7561462E-02  0.1319119E+00
          1   -1    0    0  501    0  0.00000000000E+00  0.00000000000E+00  0.22751467246E+03  0.22751467246E+03  0.00000000000E+00 0. -1.
         -1   -1    0    0    0  501 -0.00000000000E+00 -0.00000000000E+00 -0.10926232990E+03  0.10926232990E+03  0.00000000000E+00 0.  1.
          5    1    1    2  502    0 -0.69822912135E+01  0.25045519861E+02  0.24862554635E+02  0.36216701654E+02  0.41800000000E+01 0. -1.
         -5    1    1    2    0  502  0.36869730072E+02 -0.35101927369E+02 -0.85605570876E+02  0.99686049503E+02  0.41800000000E+01 0.  1.
        -11    1    1    2    0    0 -0.45954341594E+02 -0.24218435338E+02  0.12023819742E+03  0.13097922828E+03  0.00000000000E+00 0. -1.
         11    1    1    2    0    0  0.16066902736E+02  0.34274842845E+02  0.58757161384E+02  0.69895022924E+02  0.00000000000E+00 0.  1.
</event>
<event>
 6    1  0.9216756E-006  0.1064444E+03  0.7561462E-02  0.1267300E+00
          2   -1    0    0  501    0  0.00000000000E+00  0.00000000000E+00  0.10661066687E+04  0.10661066687E+04  0.00000000000E+00 0. -1.
         -2   -1    0    0    0  501 -0.00000000000E+00 -0.00000000000E+00 -0.11209551270E+02  0.11209551270E+02  0.00000000000E+00 0.  1.
          5    1    1    2  502    0 -0.65680295263E+02  0.38183490107E+02  0.49592853460E+03  0.50173146596E+03  0.41800000000E+01 0. -1.
         -5    1    1    2    0  502  0.33357216871E+02 -0.21506544895E+02  0.14167107586E+03  0.14718492289E+03  0.41800000000E+01 0.  1.
        -11    1    1    2    0    0 -0.25806983711E+02 -0.27555250097E+02  0.16486727102E+03  0.16913458922E+03  0.00000000000E+00 0.  1.
         11    1    1    2    0    0  0.58130062103E+02  0.10878304885E+02  0.25243023591E+03  0.25926524186E+03  0.00000000000E+00 0. -1.
</event>
<event>
 6    1  0.9216756E-006  0.7533283E+02  0.7561462E-02  0.1342843E+00
         -2   -1    0    0    0  501 -0.00000000000E+00  0.00000000000E+00  0.38003622387E+02  0.38003622387E+02  0.00000000000E+00 0.  1.
          2   -1    0    0  501    0  0.00000000000E+00 -0.00000000000E+00 -0.24710989196E+03  0.24710989196E+03  0.00000000000E+00 0. -1.
          5    1    1    2  502    0 -0.30227772652E+02 -0.40301607036E+02  0.62156582856E+00  0.50554886146E+02  0.41800000000E+01 0. -1.
         -5    1    1    2    0  502  0.21501729092E+02  0.51853934736E+02 -0.81697377221E+02  0.99212341704E+02  0.41800000000E+01 0. -1.
        -11    1    1    2    0    0 -0.78928709881E+01  0.12383216765E+02 -0.39323705097E+02  0.41976127173E+02  0.00000000000E+00 0.  1.
         11    1    1    2    0    0  0.16618914547E+02 -0.23935544465E+02 -0.88706753079E+02  0.93370159320E+02  0.00000000000E+00 0. -1.
</event>
<event>
 6    1  0.9216756E-006  0.6960266E+02  0.7561462E-02  0.1361449E+00
          1   -1    0    0  501    0  0.00000000000E+00  0.00000000000E+00  0.68758191539E+03  0.68758191539E+03  0.00000000000E+00 0. -1.
         -1   -1    0    0    0  501 -0.00000000000E+00 -0.00000000000E+00 -0.18877766709E+02  0.18877766709E+02  0.00000000000E+00 0.  1.
          5    1    1    2  502    0  0.71285122183E+01  0.32789050769E+02  0.38851610973E+03  0.38998484260E+03  0.41800000000E+01 0.  1.
         -5    1    1    2    0  502 -0.10126907591E+02  0.36281918641E+01 -0.67784479409E+01  0.13384236625E+02  0.41800000000E+01 0.  1.
        -11    1    1    2    0    0  0.35222554277E+02  0.10660160898E+02  0.15521408939E+03  0.15951702387E+03  0.00000000000E+00 0. -1.
         11    1    1    2    0    0 -0.32224158904E+02 -0.47077403531E+02  0.13175239750E+03  0.14357357900E+03  0.00000000000E+00 0.  1.
</event>
<event>
 6    1  0.9216756E-006  0.1145621E+03  0.7561462E-02  0.1252347E+00
          1   -1    0    0  501    0  0.00000000000E+00  0.00000000000E+00  0.43004666938E+03  0.43004666938E+03  0.00000000000E+00 0. -1.
         -1   -1    0    0    0  501 -0.00000000000E+00 -0.00000000000E+00 -0.38389814372E+02  0.38389814372E+02  0.00000000000E+00 0.  1.
          5    1    1    2  502    0  0.48381648000E+02  0.52567653349E+02  0.49055759423E+02  0.86764520251E+02  0.41800000000E+01 0. -1.
         -5    1    1    2    0  502  0.14764863957E+02 -0.55276393407E+02  0.11867834157E+03  0.13181616758E+03  0.41800000000E+01 0. -1.
        -11    1    1    2    0    0  0.22393577645E+01  0.29460206615E+02  0.24806750914E+02  0.38578405720E+02  0.00000000000E+00 0.  1.
         11    1    1    2    0    0 -0.65385869721E+02 -0.26751466558E+02  0.19911600310E+03  0.21127739021E+03  0.00000000000E+00 0. -1.
</event>
<event>
 6    1  0.9216756E-006  0.1038081E+03  0.7561462E-02  0.1272486E+00
          1   -1    0    0  501    0  0.00000000000E+00  0.00000000000E+00  0.16636208198E+04  0.16636208198E+04  0.00000000000E+00 0. -1.
         -1   -1    0    0    0  501 -0.00000000000E+00 -0.00000000000E+00 -0.10993928894E+02  0.10993928894E+02  0.00000000000E+00 0.  1.
          5    1    1    2  502    0  0.79887243971E+02 -0.12623151621E+02  0.98493834651E+03  0.98826228023E+03  0.41800000000E+01 0. -1.
         -5    1    1    2    0  502 -0.26092922827E+01 -0.20263682072E+01 -0.20221650707E+01  0.56987828438E+01  0.41800000000E+01 0. -1.
        -11    1    1    2    0    0 -0.25119766675E+02  0.51594564298E+02  0.29473575444E+03  0.30027015617E+03  0.00000000000E+00 0.  1.
         11    1    1    2    0    0 -0.52158185013E+02 -0.36945044469E+02  0.37497495500E+03  0.38038352942E+03  0.00000000000E+00 0. -1.
</event>
<event>
 6    1  0.9216756E-006  0.1237045E+03  0.7561462E-02  0.1237108E+00
          2   -1    0    0  501    0  0.00000000000E+00  0.00000000000E+00  0.79131841877E+03  0.79131841877E+03  0.00000000000E+00 0. -1.
         -2   -1    0    0    0  501 -0.00000000000E+00 -0.00000000000E+00 -0.26444272869E+02  0.26444272869E+02  0.00000000000E+00 0.  1.
          5    1    1    2  502    0  0.17843589557E+02 -0.18260529395E+02  0.17212588268E+02  0.31073883197E+02  0.41800000000E+01 0.  1.
         -5    1    1    2    0  502 -0.11222048413E+03  0.12937744243E+02  0.36356212613E+03  0.38073050080E+03  0.41800000000E+01 0.  1.
        -11    1    1    2    0    0  0.93719725002E+02  0.18311163298E+02  0.38073178058E+03  0.39252436141E+03  0.00000000000E+00 0. -1.
         11    1    1    2    0    0  0.65716956860E+00 -0.12988378146E+02  0.33676509288E+01  0.13433946237E+02  0.00000000000E+00 0.  1.
</event>
<event>
 6    1  0.9216756E-006  0.1149466E+03  0.7561462E-02  0.1251674E+00
         -1   -1    0    0    0  501 -0.00000000000E+00  0.00000000000E+00  0.28627089106E+02  0.28627089106E+02  0.00000000000E+00 0.  1.
          1   -1    0    0  501    0  0.00000000000E+00 -0.00000000000E+00 -0.59337661597E+03  0.59337661597E+03  0.00000000000E+00 0. -1.
          5    1    1    2  502    0  0.10367643478E+02 -0.23576482909E+02 -0.14676093908E+03  0.14906235010E+03  0.41800000000E+01 0. -1.
         -5    1    1    2    0  502 -0.73876253147E+02  0.61502260720E+02 -0.11146913544E+03  0.14725172124E+03  0.41800000000E+01 0. -1.
        -11    1    1    2    0    0 -0.18135215880E+02 -0.12670834519E+02 -0.38839161755E+02  0.44698060230E+02  0.00000000000E+00 0. -1.
         11    1    1    2    0    0  0.81643825549E+02 -0.25254943291E+02 -0.26768029058E+03  0.28099157350E+03  0.00000000000E+00 0.  1.
</event>
<event>
 6    1  0.9216756E-006  0.9904289E+02  0.7561462E-02  0.1282322E+00
         -3   -1    0    0    0  501 -0.00000000000E+00  0.00000000000E+00  0.10598049367E+03  0.10598049367E+03  0.00000000000E+00 0.  1.
          3   -1    0    0  501    0  0.00000000000E+00 -0.00000000000E+00 -0.13633217103E+03  0.13633217103E+03  0.00000000000E+00 0. -1.
          5    1    1    2  502    0  0.10457807309E+02 -0.74713824250E+02  0.37058119549E+02  0.84156389492E+02  0.41800000000E+01 0.  1.
         -5    1    1    2    0  502  0.57491861674E+00  0.24132261390E+02 -0.45268108333E+02  0.51472037100E+02  0.41800000000E+01 0.  1.
        -11    1    1    2    0    0 -0.10000812370E+02 -0.22666241298E+02  0.99631935970E+01  0.26702808266E+02  0.00000000000E+00 0.  1.
         11    1    1    2    0    0 -0.10319135564E+01  0.73247804158E+02 -0.32104882177E+02  0.79981429839E+02  0.00000000000E+00 0. -1.
</event>
<event>
 6    1  0.9216756E-006  0.2317119E+03  0.7561462E-02  0.1125441E+00
          2   -1    0    0  501    0  0.00000000000E+00  0.00000000000E+00  0.10749538400E+04  0.10749538400E+04  0.00000000000E+00 0. -1.
         -2   -1    0    0    0  501 -0.00000000000E+00 -0.00000000000E+00 -0.76385145841E+02  0.76385145841E+02  0.00000000000E+00 0.  1.
          5    1    1    2  502    0 -0.63415451708E+02 -0.33523519839E+02  0.26788461022E+01  0.71902673902E+02  0.41800000000E+01 0.  1.
         -5    1    1    2    0  502 -0.14204546300E+03 -0.52119773670E+02  0.21911064103E+03  0.26630871142E+03  0.41800000000E+01 0.  1.
        -11    1    1    2    0    0  0.11559227597E+02  0.39134977224E+02  0.14447340905E+03  0.15012570769E+03  0.00000000000E+00 0.  1.
         11    1    1    2    0    0  0.19390168711E+03  0.46508316285E+02  0.63230579798E+03  0.66300189284E+03  0.00000000000E+00 0. -1.
</event>
<event>
 6    1  0.9216756E-006  0.7930841E+02  0.7561462E-02  0.1331026E+00
          1   -1    0    0  501    0  0.00000000000E+00  0.00000000000E+00  0.28826391191E+03  0.28826391191E+03  0.00000000000E+00 0. -1.
         -1   -1    0    0    0  501 -0.00000000000E+00 -0.00000000000E+00 -0.78476193547E+02  0.78476193547E+02  0.00000000000E+00 0.  1.
          5    1    1    2  502    0 -0.27447311230E+01 -0.39433805276E+02  0.44132870650E+02  0.59394791180E+02  0.41800000000E+01 0. -1.
         -5    1    1    2    0  502 -0.11253557317E+02  0.34959942423E+02 -0.56019227148E+02  0.67115321178E+02  0.41800000000E+01 0. -1.
        -11    1    1    2    0    0 -0.21832844554E+02  0.30577621877E+02  0.47829689469E+02  0.60822226659E+02  0.00000000000E+00 0.  1.
         11    1    1    2    0    0  0.35831132994E+02 -0.26103759023E+02  0.17384438539E+03  0.17940776644E+03  0.00000000000E+00 0. -1.
</event>
<event>
 6    1  0.9216756E-006  0.1161291E+03  0.7561462E-02  0.1249623E+00
         -2   -1    0    0    0  501 -0.00000000000E+00  0.00000000000E+00  0.26372792113E+03  0.26372792113E+03  0.00000000000E+00 0. -1.
          2   -1    0    0  501    0  0.00000000000E+00 -0.00000000000E+00 -0.11137645439E+03  0.11137645439E+03  0.00000000000E+00 0.  1.
          5    1    1    2  502    0 -0.12921834251E+01  0.48670255787E+02  0.11939159351E+03  0.12900499423E+03  0.41800000000E+01 0.  1.
         -5    1    1    2    0  502 -0.42037264089E+02 -0.67029756508E+02  0.95890477108E+02  0.12438880910E+03  0.41800000000E+01 0.  1.
        -11    1    1    2    0    0 -0.21000496401E+02 -0.20217032822E+02 -0.18641084572E+02  0.34601145923E+02  0.00000000000E+00 0.  1.
         11    1    1    2    0    0  0.64329943916E+02  0.38576533542E+02 -0.44289519307E+02  0.87109426268E+02  0.00000000000E+00 0. -1.
</event>
<event>
 6    1  0.9216756E-006  0.1685864E+03  0.7561462E-02  0.1179330E+00
         -1   -1    0    0    0  501 -0.00000000000E+00  0.00000000000E+00  0.51879775898E+03  0.51879775898E+03  0.00000000000E+00 0.  1.
          1   -1    0    0  501    0  0.00000000000E+00 -0.00000000000E+00 -0.74133309119E+02  0.74133309119E+02  0.00000000000E+00 0. -1.
          5    1    1    2  502    0  0.14428300746E+03  0.13743965116E+02  0.17410498538E+03  0.22657559699E+03  0.41800000000E+01 0.  1.
         -5    1    1    2    0  502  0.85405683508E+01  0.13748654853E+02 -0.19536526070E+02  0.25712157998E+02  0.41800000000E+01 0.  1.
        -11    1    1    2    0    0 -0.11031538216E+03  0.19574586712E+02  0.21424284441E+03  0.24176981690E+03  0.00000000000E+00 0. -1.
         11    1    1    2    0    0 -0.42508193650E+02 -0.47067206680E+02  0.75853146135E+02  0.98873496199E+02  0.00000000000E+00 0.  1.
</event>
<event>
 6    1  0.9216756E-006  0.8144882E+02  0.7561462E-02  0.1324989E+00
          2   -1    0    0  501    0  0.00000000000E+00  0.00000000000E+00  0.11527175968E+03  0.11527175968E+03  0.00000000000E+00 0. -1.
         -2   -1    0    0    0  501 -0.00000000000E+00 -0.00000000000E+00 -0.13510014418E+03  0.13510014418E+03  0.00000000000E+00 0.  1.
          5    1    1    2  502    0 -0.15379161220E+02  0.65235773574E+02 -0.76878899400E+02  0.10207870653E+03  0.41800000000E+01 0. -1.
         -5    1    1    2    0  502  0.47586666561E+00 -0.20106047326E+02  0.32890597114E+02  0.38778130005E+02  0.41800000000E+01 0. -1.
        -11    1    1    2    0    0 -0.16768610568E+02 -0.39662481611E+02  0.51633078893E+02  0.67232979882E+02  0.00000000000E+00 0. -1.
         11    1    1    2    0    0  0.31671905122E+02 -0.54672446373E+01 -0.27473161104E+02  0.42282087449E+02  0.00000000000E+00 0.  1.
</event>
<event>
 6    1  0.9216756E-006  0.1114917E+03  0.7561462E-02  0.1257832E+00
         -2   -1    0    0    0  501 -0.00000000000E+00  0.00000000000E+00  0.36668056659E+02  0.36668056659E+02  0.00000000000E+00 0. -1.
          2   -1    0    0  501    0  0.00000000000E+00 -0.00000000000E+00 -0.61098190576E+03  0.61098190576E+03  0.00000000000E+00 0.  1.
          5    1    1    2  502    0  0.90816681904E+02  0.44719137818E+02 -0.35304896011E+03  0.36729894043E+03  0.41800000000E+01 0.  1.
         -5    1    1    2    0  502 -0.24289389125E+01  0.43946927847E+01  0.97933877390E+01  0.11772676515E+02  0.41800000000E+01 0.  1.
        -11    1    1    2    0    0 -0.70745350838E+02 -0.61368030365E+02 -0.22849766823E+03  0.24694558956E+03  0.00000000000E+00 0.  1.
         11    1    1    2    0    0 -0.17642392153E+02  0.12254199762E+02 -0.25606084916E+01  0.21632755917E+02  0.00000000000E+00 0. -1.
</event>
<event>
 6    1  0.9216756E-006  0.8454073E+02  0.7561462E-02  0.1316638E+00
          3   -1    0    0  501    0  0.00000000000E+00  0.00000000000E+00  0.53021090788E+02  0.53021090788E+02  0.00000000000E+00 0. -1.
         -3   -1    0    0    0  501 -0.00000000000E+00 -0.00000000000E+00 -0.32829061111E+03  0.32829061111E+03  0.00000000000E+00 0.  1.
          5    1    1    2  502    0 -0.15432358968E+02  0.62052904870E+02 -0.18444660204E+03  0.19526070294E+03  0.41800000000E+01 0.  1.
         -5    1    1    2    0  502 -0.15905912260E+02 -0.53804065154E+02 -0.67350372227E+02  0.87757737613E+02  0.41800000000E+01 0.  1.
        -11    1    1    2    0    0  0.31257050199E+01 -0.18470620105E+02  0.30931767376E+02  0.36162246500E+02  0.00000000000E+00 0. -1.
         11    1    1    2    0    0  0.28212566209E+02  0.10221780388E+02 -0.54404313431E+02  0.62131014850E+02  0.00000000000E+00 0.  1.
</event>
<event>
 6    1  0.9216756E-006  0.1924905E+03  0.7561462E-02  0.1156234E+00
          3   -1    0    0  501    0  0.00000000000E+00  0.00000000000E+00  0.40662916623E+03  0.40662916623E+03  0.00000000000E+00 0. -1.
         -3   -1    0    0    0  501 -0.00000000000E+00 -0.00000000000E+00 -0.10269130427E+03  0.10269130427E+03  0.00000000000E+00 0.  1.
          5    1    1    2  502    0 -0.43011376687E+02 -0.72049102855E+02  0.73170416259E+01  0.84333049541E+02  0.41800000000E+01 0. -1.
         -5    1    1    2    0  502  0.81422121433E+02 -0.83158416747E+02  0.99454805674E+02  0.15314573094E+03  0.41800000000E+01 0.  1.
        -11    1    1    2    0    0 -0.64861860957E+02  0.13925394572E+03  0.14515705790E+03  0.21135111512E+03  0.00000000000E+00 0. -1.
         11    1    1    2    0    0  0.26451116211E+02  0.15953573879E+02  0.52008956762E+02  0.60490574900E+02  0.00000000000E+00 0.  1.
</event>
<event>
 6    1  0.9216756E-006  0.7218309E+02  0.7561462E-02  0.1352823E+00
         -2   -1    0    0    0  501 -0.00000000000E+00  0.00000000000E+00  0.17180964658E+03  0.17180964658E+03  0.00000000000E+00 0.  1.
          2   -1    0    0  501    0  0.00000000000E+00 -0.00000000000E+00 -0.53833775541E+02  0.53833775541E+02  0.00000000000E+00 0. -1.
          5    1    1    2  502    0  0.10877141562E+02  0.35861121236E+02 -0.32548961784E+01  0.37847047097E+02  0.41800000000E+01 0. -1.
         -5    1    1    2    0  502  0.37946050736E+02 -0.42792394840E+02  0.11564897213E+03  0.12908620754E+03  0.41800000000E+01 0.  1.
        -11    1    1    2    0    0 -0.13831002769E+02  0.20742040994E+01  0.16598074426E+02  0.21704723792E+02  0.00000000000E+00 0.  1.
         11    1    1    2    0    0 -0.34992189529E+02  0.48570695043E+01 -0.11016279339E+02  0.37005443690E+02  0.00000000000E+00 0. -1.
</event>
<event>
 6    1  0.9216756E-006  0.1011931E+03  0.7561462E-02  0.1277807E+00
          2   -1    0    0  501    0  0.00000000000E+00  0.00000000000E+00  0.58933104529E+03  0.58933104529E+03  0.00000000000E+00 0. -1.
         -2   -1    0    0    0  501 -0.00000000000E+00 -0.00000000000E+00 -0.29068331358E+02  0.29068331358E+02  0.00000000000E+00 0.  1.
          5    1    1    2  502    0  0.30426732003E+02 -0.32181020156E+02  0.11173453341E+02  0.45866355188E+02  0.41800000000E+01 0.  1.
         -5    1    1    2    0  502  0.40922516807E+01  0.61635955270E+02  0.15574570334E+03  0.16760051914E+03  0.41800000000E+01 0.  1.
        -11    1    1    2    0    0 -0.57056939094E+02  0.22359762776E+01  0.24646904657E+03  0.25299700553E+03  0.00000000000E+00 0.  1.
         11    1    1    2    0    0  0.22537955410E+02 -0.31690911391E+02  0.14687451068E+03  0.15193549679E+03  0.00000000000E+00 0. -1.
</event>
<event>
 6    1  0.9216756E-006  0.2212526E+03  0.7561462E-02  0.1132953E+00
         -3   -1    0    0    0  501 -0.00000000000E+00  0.00000000000E+00  0.27871023600E+04  0.27871023600E+04  0.00000000000E+00 0.  1.
          3   -1    0    0  501    0  0.00000000000E+00 -0.00000000000E+00 -0.31160327433E+02  0.31160327433E+02  0.00000000000E+00 0. -1.
          5    1    1    2  502    0  0.12172369255E+03  0.29039651034E+02  0.15312999740E+04  0.15364104404E+04  0.41800000000E+01 0. -1.
         -5    1    1    2    0  502  0.30658910950E+02  0.98028346472E+02  0.77551885294E+03  0.78230204473E+03  0.41800000000E+01 0. -1.
        -11    1    1    2    0    0 -0.11579331020E+03 -0.44252044897E+02  0.20995393064E+03  0.24381752840E+03  0.00000000000E+00 0.  1.
         11    1    1    2    0    0 -0.36589293304E+02 -0.82815952610E+02  0.23916927503E+03  0.25573267392E+03  0.00000000000E+00 0. -1.
</event>
<event>
 6    1  0.9216756E-006  0.5657974E+02  0.7561462E-02  0.1412773E+00
         -2   -1    0    0    0  501 -0.00000000000E+00  0.00000000000E+00  0.42789751888E+02  0.42789751888E+02  0.00000000000E+00 0.  1.
          2   -1    0    0  501    0  0.00000000000E+00 -0.00000000000E+00 -0.32378787457E+03  0.32378787457E+03  0.00000000000E+00 0. -1.
          5    1    1    2  502    0 -0.17244731870E+02  0.16810336648E+02 -0.15133092865E+03  0.15329217385E+03  0.41800000000E+01 0.  1.
         -5    1    1    2    0  502 -0.21105767755E+02 -0.47237168093E+01  0.21958518542E+02  0.31103309624E+02  0.41800000000E+01 0.  1.
        -11    1    1    2    0    0  0.11970491934E+02 -0.31655324638E+02 -0.79024051712E+01  0.34753420875E+02  0.00000000000E+00 0.  1.
         11    1    1    2    0    0  0.26380007691E+02  0.19568704798E+02 -0.14372330739E+03  0.14742872211E+03  0.00000000000E+00 0. -1.
</event>
<event>
 6    1  0.9513727E-006  0.1002645E+03  0.7561462E-02  0.1279741E+00
          1   -1    0    0  501    0  0.00000000000E+00  0.00000000000E+00  0.41951645956E+03  0.41951645956E+03  0.00000000000E+00 0. -1.
         -1   -1    0    0    0  501 -0.00000000000E+00 -0.00000000000E+00 -0.42953091742E+02  0.42953091742E+02  0.00000000000E+00 0.  1.
          5    1    1    2  502    0  0.34038506768E+02 -0.54003357138E+01  0.62284531293E+02  0.71306513077E+02  0.41800000000E+01 0.  1.
         -5    1    1    2    0  502 -0.99506555908E+02  0.91931449476E+01  0.68872856365E+02  0.12143727322E+03  0.41800000000E+01 0.  1.
        -11    1    1    2    0    0  0.45791464725E+02 -0.19644620726E+00  0.24548870525E+03  0.24972304907E+03  0.00000000000E+00 0. -1.
         11    1    1    2    0    0  0.19676584415E+02 -0.35963630265E+01 -0.82725091528E-01  0.20002715933E+02  0.00000000000E+00 0.  1.
</event>
<event>
 6    1  0.9216756E-006  0.1826369E+03  0.7561462E-02  0.1165275E+00
         -1   -1    0    0    0  501 -0.00000000000E+00  0.00000000000E+00  0.35608154746E+02  0.35608154746E+02  0.00000000000E+00 0.  1.
          1   -1    0    0  501    0  0.00000000000E+00 -0.00000000000E+00 -0.10618486865E+04  0.10618486865E+04  0.00000000000E+00 0. -1.
          5    1    1    2  502    0  0.18587215061E+02 -0.51485396508E+02 -0.80794066767E+02  0.97680009429E+02  0.41800000000E+01 0.  1.
         -5    1    1    2    0  502 -0.11187569411E+03 -0.80434571062E+02 -0.46988002498E+03  0.48968418540E+03  0.41800000000E+01 0.  1.
        -11    1    1    2    0    0  0.80157419203E+02  0.61880255813E+02 -0.18484745504E+03  0.21076754861E+03  0.00000000000E+00 0.  1.
         11    1    1    2    0    0  0.13131059850E+02  0.70039711757E+02 -0.29071898493E+03  0.29932509777E+03  0.00000000000E+00 0. -1.
</event>
<event>
 6    1  0.9216756E-006  0.9625367E+02  0.7561462E-02  0.1288377E+00
         -1   -1    0    0    0  501 -0.00000000000E+00  0.00000000000E+00  0.62690246632E+02  0.62690246632E+02  0.00000000000E+00 0.  1.
          1   -1    0    0  501    0  0.00000000000E+00 -0.00000000000E+00 -0.24893194003E+03  0.24893194003E+03  0.00000000000E+00 0. -1.
          5    1    1    2  502    0 -0.59006429521E+02 -0.26235569477E+02 -0.12991035353E+03  0.14513523413E+03  0.41800000000E+01 0.  1.
         -5    1    1    2    0  502  0.10898136836E+02 -0.15980108723E+02  0.23793105425E+02  0.30947011601E+02  0.41800000000E+01 0.  1.
        -11    1    1    2    0    0 -0.63150111593E+01  0.52280902364E+02 -0.28616648026E+02  0.59934002554E+02  0.00000000000E+00 0.  1.
         11    1    1    2    0    0  0.54423303845E+02 -0.10065224164E+02 -0.51507797267E+02  0.75605938379E+02  0.00000000000E+00 0. -1.
</event>
<event>
 6    1  0.9216756E-006  0.1495887E+03  0.7561462E-02  0.1200979E+00
          1   -1    0    0  501    0  0.00000000000E+00  0.00000000000E+00  0.16548381257E+04  0.16548381257E+04  0.00000000000E+00 0. -1.
         -1   -1    0    0    0  501 -0.00000000000E+00 -0.00000000000E+00 -0.14953602959E+02  0.14953602959E+02  0.00000000000E+00 0.  1.
          5    1    1    2  502    0  0.31909331008E+02  0.21769967612E+01  0.36553965188E+03  0.36696001720E+03  0.41800000000E+01 0. -1.
         -5    1    1    2    0  502 -0.43573827802E+02 -0.10968607047E+03  0.45517814687E+03  0.47024922149E+03  0.41800000000E+01 0. -1.
        -11    1    1    2    0    0 -0.42560767665E+02  0.73145845182E+02  0.45659872971E+03  0.46437499242E+03  0.00000000000E+00 0.  1.
         11    1    1    2    0    0  0.54225264459E+02  0.34363228525E+02  0.36256799424E+03  0.36820749751E+03  0.00000000000E+00 0. -1.
</event>
<event>
 6    1  0.9216756E-006  0.1319573E+03  0.7561462E-02  0.1224580E+00
         -1   -1    0    0    0  501 -0.00000000000E+00  0.00000000000E+00  0.34410424402E+02  0.34410424402E+02  0.00000000000E+00 0. -1.
          1   -1    0    0  501    0  0.00000000000E+00 -0.00000000000E+00 -0.59144221636E+03  0.59144221636E+03  0.00000000000E+00 0.  1.
          5    1    1    2  502    0 -0.41070050169E+02 -0.78070197519E+02 -0.26009396967E+03  0.27467808471E+03  0.41800000000E+01 0. -1.
         -5    1    1    2    0  502 -0.44087214860E+02  0.31228564839E+02 -0.50944316093E+02  0.74375409365E+02  0.41800000000E+01 0. -1.
        -11    1    1    2    0    0 -0.79263102680E+01  0.24410492948E+02 -0.91587618901E+02  0.95115669037E+02  0.00000000000E+00 0.  1.
         11    1    1    2    0    0  0.93083575297E+02  0.22431139733E+02 -0.15440588730E+03  0.18168347765E+03  0.00000000000E+00 0. -1.
</event>
<event>
 6    1  0.9216756E-006  0.1738062E+03  0.7561462E-02  0.1173936E+00
          1   -1    0    0  501    0  0.00000000000E+00  0.00000000000E+00  0.85279423083E+02  0.85279423083E+02  0.00000000000E+00 0. -1.
         -1   -1    0    0    0  501 -0.00000000000E+00 -0.00000000000E+00 -0.51781815498E+03  0.51781815498E+03  0.00000000000E+00 0.  1.
          5    1    1    2  502    0 -0.89641825866E+02 -0.10227937598E+03 -0.51253156802E+02  0.14539974614E+03  0.41800000000E+01 0. -1.
         -5    1    1    2    0  502  0.71592989885E+02  0.99919368457E+02 -0.32962987342E+03  0.35182774513E+03  0.41800000000E+01 0.  1.
        -11    1    1    2    0    0 -0.23280088768E+02  0.30636245756E+02 -0.77041040243E+01  0.39241499792E+02  0.00000000000E+00 0. -1.
         11    1    1    2    0    0  0.41328924749E+02 -0.28276238228E+02 -0.43951597653E+02  0.66628586999E+02  0.00000000000E+00 0.  1.
</event>
<event>
 6    1  0.9216756E-006  0.9985276E+02  0.7561462E-02  0.1280606E+00
         -4   -1    0    0    0  501 -0.00000000000E+00  0.00000000000E+00  0.74417651513E+02  0.74417651513E+02  0.00000000000E+00 0.  1.
          4   -1    0    0  501    0  0.00000000000E+00 -0.00000000000E+00 -0.25960422623E+03  0.25960422623E+03  0.00000000000E+00 0. -1.
          5    1    1    2  502    0  0.60977800050E+01 -0.44230938031E+01  0.38128353544E+02  0.39089518080E+02  0.41800000000E+01 0. -1.
         -5    1    1    2    0  502 -0.66456432205E+02  0.39278242415E+02 -0.77414681472E+02  0.10940632073E+03  0.41800000000E+01 0. -1.
        -11    1    1    2    0    0 -0.16730818925E+02  0.14588786558E+02 -0.20291052924E+02  0.30074571051E+02  0.00000000000E+00 0.  1.
         11    1    1    2    0    0  0.77089471124E+02 -0.49443935170E+02 -0.12560919387E+03  0.15545146789E+03  0.00000000000E+00 0. -1.
</event>
<event>
 6    1  0.9216756E-006  0.1243801E+03  0.7561462E-02  0.1236041E+00
         -2   -1    0    0    0  501 -0.00000000000E+00  0.00000000000E+00  0.67740207036E+02  0.67740207036E+02  0.00000000000E+00 0.  1.
          2   -1    0    0  501    0  0.00000000000E+00 -0.00000000000E+00 -0.61922639678E+03  0.61922639678E+03  0.00000000000E+00 0. -1.
          5    1    1    2  502    0  0.44312625141E+02 -0.50791993814E+00 -0.24370070601E+03  0.24773246303E+03  0.41800000000E+01 0. -1.
         -5    1    1    2    0  502  0.52393677677E+02  0.41576270076E+02  0.30822543819E+02  0.73764390470E+02  0.41800000000E+01 0.  1.
        -11    1    1    2    0    0 -0.91083643195E+02  0.46182430948E+01 -0.21355852918E+03  0.23221714754E+03  0.00000000000E+00 0. -1.
         11    1    1    2    0    0 -0.56226596224E+01 -0.45686593232E+02 -0.12504949838E+03  0.13325260278E+03  0.00000000000E+00 0.  1.
</event>
<event>
 6    1  0.9216756E-006  0.1015029E+03  0.7561462E-02  0.1277167E+00
         -2   -1    0    0    0  501 -0.00000000000E+00  0.00000000000E+00  0.39245274093E+02  0.39245274093E+02  0.00000000000E+00 0.  1.
          2   -1    0    0  501    0  0.00000000000E+00 -0.00000000000E+00 -0.42201701150E+03  0.42201701150E+03  0.00000000000E+00 0. -1.
          5    1    1    2  502    0  0.12129018209E+02  0.67158488954E+02 -0.41117418971E+02  0.79784022612E+02  0.41800000000E+01 0. -1.
         -5    1    1    2    0  502 -0.58714491200E+02 -0.30100570324E+02 -0.83900073128E+02  0.10681821231E+03  0.41800000000E+01 0. -1.
        -11    1    1    2    0    0  0.10034463091E+01 -0.19730151901E+02 -0.99812185620E+01  0.22133922438E+02  0.00000000000E+00 0.  1.
         11    1    1    2    0    0  0.45582026682E+02 -0.17327766730E+02 -0.24777302675E+03  0.25252612823E+03  0.00000000000E+00 0. -1.
</event>
<event>
 6    1  0.9216756E-006  0.1250425E+03  0.7561462E-02  0.1235003E+00
          1   -1    0    0  501    0  0.00000000000E+00  0.00000000000E+00  0.40044687832E+02  0.40044687832E+02  0.00000000000E+00 0. -1.
         -1   -1    0    0    0  501 -0.00000000000E+00 -0.00000000000E+00 -0.48439098735E+03  0.48439098735E+03  0.00000000000E+00 0.  1.
          5    1    1    2  502    0 -0.98529651237E+02 -0.32937387881E+02 -0.30206029924E+03  0.31945400369E+03  0.41800000000E+01 0. -1.
         -5    1    1    2    0  502  0.26043638017E+02  0.87864279231E+01 -0.19564860167E+02  0.33996007856E+02  0.41800000000E+01 0. -1.
        -11    1    1    2    0    0  0.26247373795E+02  0.56215587658E+02 -0.73896524936E+02  0.96487373912E+02  0.00000000000E+00 0.  1.
         11    1    1    2    0    0  0.46238639425E+02 -0.32064627700E+02 -0.48824615173E+02  0.74498289727E+02  0.00000000000E+00 0. -1.
</event>
<event>
 6    1  0.9216756E-006  0.2999404E+03  0.7561462E-02  0.1085270E+00
         -2   -1    0    0    0  501 -0.00000000000E+00  0.00000000000E+00  0.16025679823E+03  0.16025679823E+03  0.00000000000E+00 0.  1.
          2   -1    0    0  501    0  0.00000000000E+00 -0.00000000000E+00 -0.13172154876E+04  0.13172154876E+04  0.00000000000E+00 0. -1.
          5    1    1    2  502    0  0.91183984548E+02 -0.10174972330E+02 -0.53189565491E+02  0.10613506196E+03  0.41800000000E+01 0. -1.
         -5    1    1    2    0  502  0.18149482551E+03  0.10788884758E+03  0.14825282534E+02  0.21170176315E+03  0.41800000000E+01 0. -1.
        -11    1    1    2    0    0 -0.11036386003E+03 -0.62454096580E+01 -0.29001669162E+03  0.31036892268E+03  0.00000000000E+00 0.  1.
         11    1    1    2    0    0 -0.16231495003E+03 -0.91468465595E+02 -0.82857771483E+03  0.84926653809E+03  0.00000000000E+00 0. -1.
</event>
<event>
 6    1  0.9216756E-006  0.1617967E+03  0.7561462E-02  0.1186683E+00
         -1   -1    0    0    0  501 -0.00000000000E+00  0.00000000000E+00  0.51094606627E+03  0.51094606627E+03  0.00000000000E+00 0.  1.
          1   -1    0    0  501    0  0.00000000000E+00 -0.00000000000E+00 -0.59702792212E+02  0.59702792212E+02  0.00000000000E+00 0. -1.
          5    1    1    2  502    0 -0.15114570557E+02 -0.12906814116E+03  0.15373299496E+03  0.20134135552E+03  0.41800000000E+01 0.  1.
         -5    1    1    2    0  502  0.51839359245E+02 -0.22684024034E+01  0.99619402735E+02  0.11240090132E+03  0.41800000000E+01 0.  1.
        -11    1    1    2    0    0 -0.41100449651E+02  0.79479398131E+02  0.55472637988E+02  0.10527789537E+03  0.00000000000E+00 0. -1.
         11    1    1    2    0    0  0.43756609634E+01  0.51857145432E+02  0.14241823837E+03  0.15162870626E+03  0.00000000000E+00 0.  1.
</event>
<event>
 6    1  0.9216756E-006  0.5507856E+02  0.7561462E-02  0.1419728E+00
         -2   -1    0    0    0  501 -0.00000000000E+00  0.00000000000E+00  0.15425893876E+02  0.15425893876E+02  0.00000000000E+00 0.  1.
          2   -1    0    0  501    0  0.00000000000E+00 -0.00000000000E+00 -0.67502123717E+03  0.67502123717E+03  0.00000000000E+00 0. -1.
          5    1    1    2  502    0 -0.84825543084E+01 -0.37577280141E+02 -0.18191677583E+02  0.42806719609E+02  0.41800000000E+01 0.  1.
         -5    1    1    2    0  502  0.59263589482E+01 -0.74064758579E+01 -0.32629920123E+03  0.32646380923E+03  0.41800000000E+01 0.  1.
        -11    1    1    2    0    0  0.21078007921E+02  0.32390562665E+02 -0.22722837198E+03  0.23049113649E+03  0.00000000000E+00 0.  1.
         11    1    1    2    0    0 -0.18521812561E+02  0.12593193334E+02 -0.87876092506E+02  0.90685465721E+02  0.00000000000E+00 0. -1.
</event>
<event>
 6    1  0.9216756E-006  0.1386026E+03  0.7561462E-02  0.1215222E+00
          2   -1    0    0  501    0  0.00000000000E+00  0.00000000000E+00  0.10368443211E+03  0.10368443211E+03  0.00000000000E+00 0. -1.
         -2   -1    0    0    0  501 -0.00000000000E+00 -0.00000000000E+00 -0.24912629613E+03  0.24912629613E+03  0.00000000000E+00 0.  1.
          5    1    1    2  502    0  0.20231276380E+02 -0.24878742048E+02 -0.31047607917E+02  0.44829484798E+02  0.41800000000E+01 0. -1.
         -5    1    1    2    0  502 -0.25250219454E+02  0.11437675820E+03 -0.13339041864E+03  0.17756714951E+03  0.41800000000E+01 0.  1.
        -11    1    1    2    0    0 -0.42172447034E+02 -0.30164111103E+02 -0.15291050898E+01  0.51872218478E+02  0.00000000000E+00 0.  1.
         11    1    1    2    0    0  0.47191390108E+02 -0.59333905050E+02  0.20525267635E+02  0.78541875457E+02  0.00000000000E+00 0. -1.
</event>
<event>
 6    1  0.9216756E-006  0.9860463E+02  0.7561462E-02  0.1283258E+00
          3   -1    0    0  501    0  0.00000000000E+00  0.00000000000E+00  0.89803042850E+02  0.89803042850E+02  0.00000000000E+00 0. -1.
         -3   -1    0    0    0  501 -0.00000000000E+00 -0.00000000000E+00 -0.17243522291E+03  0.17243522291E+03  0.00000000000E+00 0.  1.
          5    1    1    2  502    0 -0.30021482269E+02 -0.70867274489E+02 -0.93016919935E+02  0.12080182029E+03  0.41800000000E+01 0.  1.
         -5    1    1    2    0  502  0.67844712776E+01  0.41261175156E+02 -0.46043247254E+01  0.42275120721E+02  0.41800000000E+01 0.  1.
        -11    1    1    2    0    0  0.47754304411E+02  0.19004839550E+02 -0.19991852923E+02  0.55148270140E+02  0.00000000000E+00 0.  1.
         11    1    1    2    0    0 -0.24517293420E+02  0.10601259784E+02  0.34980917521E+02  0.44013054612E+02  0.00000000000E+00 0. -1.
</event>
<event>
 6    1  0.9216756E-006  0.7941628E+02  0.7561462E-02  0.1330716E+00
          4   -1    0    0  501    0  0.00000000000E+00  0.00000000000E+00  0.74893994822E+02  0.74893994822E+02  0.00000000000E+00 0. -1.
         -4   -1    0    0    0  501 -0.00000000000E+00 -0.00000000000E+00 -0.19813202151E+03  0.19813202151E+03  0.00000000000E+00 0.  1.
          5    1    1    2  502    0  0.29507925319E+02 -0.19539357247E+02  0.12806686205E+02  0.37868030709E+02  0.41800000000E+01 0. -1.
         -5    1    1    2    0  502 -0.30611356562E+02 -0.98759718908E+01 -0.13720689228E+03  0.14098862954E+03  0.41800000000E+01 0. -1.
        -11    1    1    2    0    0 -0.11327891002E+02  0.58259902809E+02 -0.11229518029E+02  0.60403968951E+02  0.00000000000E+00 0.  1.
         11    1    1    2    0    0  0.12431322245E+02 -0.28844573671E+02  0.12391697417E+02  0.33765387128E+02  0.00000000000E+00 0. -1.
</event>
<event>
 6    1  0.9216756E-006  0.8813492E+02  0.7561462E-02  0.1307432E+00
         -1   -1    0    0    0  501 -0.00000000000E+00  0.00000000000E+00  0.11749943776E+04  0.11749943776E+04  0.00000000000E+00 0.  1.
          1   -1    0    0  501    0  0.00000000000E+00 -0.00000000000E+00 -0.14162721509E+02  0.14162721509E+02  0.00000000000E+00 0. -1.
          5    1    1    2  502    0 -0.20581581001E+02 -0.54713679102E+02  0.17644734555E+03  0.18592559348E+03  0.41800000000E+01 0. -1.
         -5    1    1    2    0  502  0.16371736998E+02  0.10561961062E+02  0.72166655745E+03  0.72194160522E+03  0.41800000000E+01 0. -1.
        -11    1    1    2    0    0  0.34229826841E+02  0.55861267642E+02  0.20464841105E+03  0.21487934850E+03  0.00000000000E+00 0.  1.
         11    1    1    2    0    0 -0.30019982837E+02 -0.11709549602E+02  0.58069342069E+02  0.66410551946E+02  0.00000000000E+00 0. -1.
</event>
<event>
 6    1  0.9216756E-006  0.1364674E+03  0.7561462E-02  0.1218163E+00
          3   -1    0    0  501    0  0.00000000000E+00  0.00000000000E+00  0.52777790286E+03  0.52777790286E+03  0.00000000000E+00 0. -1.
         -3   -1    0    0    0  501 -0.00000000000E+00 -0.00000000000E+00 -0.48452765512E+02  0.48452765512E+02  0.00000000000E+00 0.  1.
          5    1    1    2  502    0  0.29382113981E+02  0.36568374397E+02  0.19809237292E+02  0.51092395815E+02  0.41800000000E+01 0.  1.
         -5    1    1    2    0  502  0.64888868972E+02 -0.86324097248E+02  0.15372071364E+03  0.18790940712E+03  0.41800000000E+01 0.  1.
        -11    1    1    2    0    0 -0.66023120251E+02  0.68252335042E+01  0.72309220562E+02  0.98154264290E+02  0.00000000000E+00 0.  1.
         11    1    1    2    0    0 -0.28247862702E+02  0.42930489347E+02  0.23348596585E+03  0.23907460115E+03  0.00000000000E+00 0. -1.
</event>
<event>
 6    1  0.9216756E-006  0.2628311E+03  0.7561462E-02  0.1105454E+00
         -2   -1    0    0    0  501 -0.00000000000E+00  0.00000000000E+00  0.17254465392E+03  0.17254465392E+03  0.00000000000E+00 0.  1.
          2   -1    0    0  501    0  0.00000000000E+00 -0.00000000000E+00 -0.47315187732E+03  0.47315187732E+03  0.00000000000E+00 0. -1.
          5    1    1    2  502    0 -0.13179823780E+03  0.15895413008E+03 -0.13834487227E+03  0.24858392354E+03  0.41800000000E+01 0. -1.
         -5    1    1    2    0  502 -0.26426769633E+02  0.38454788859E+02  0.27854362837E+02  0.54502136366E+02  0.41800000000E+01 0. -1.
        -11    1    1    2    0    0  0.33140639536E+02 -0.12156985631E+03 -0.13910760523E+03  0.18769245532E+03  0.00000000000E+00 0. -1.
         11    1    1    2    0    0  0.12508436790E+03 -0.75839062637E+02 -0.51009108744E+02  0.15491801602E+03  0.00000000000E+00 0.  1.
</event>
<event>
 6    1  0.9216756E-006  0.2080799E+03  0.7561462E-02  0.1143096E+00
          1   -1    0    0  501    0  0.00000000000E+00  0.00000000000E+00  0.18505452996E+04  0.18505452996E+04  0.00000000000E+00 0.  1.
         -1   -1    0    0    0  501 -0.00000000000E+00 -0.00000000000E+00 -0.25204290885E+02  0.25204290885E+02  0.00000000000E+00 0. -1.
          5    1    1    2  502    0 -0.14379777427E+02  0.11905100355E+02  0.15841478457E+03  0.15956574126E+03  0.41800000000E+01 0. -1.
         -5    1    1    2    0  502  0.20059132932E+03 -0.70914734417E+01  0.81158994054E+03  0.83605195674E+03  0.41800000000E+01 0. -1.
        -11    1    1    2    0    0 -0.15183086418E+03 -0.28548169741E+02  0.76713440629E+03  0.78253613758E+03  0.00000000000E+00 0.  1.
         11    1    1    2    0    0 -0.34380687714E+02  0.23734542827E+02  0.88201877302E+02  0.97595754879E+02  0.00000000000E+00 0. -1.
</event>
<event>
 6    1  0.9216756E-006  0.1065411E+03  0.7561462E-02  0.1267113E+00
          2   -1    0    0  501    0  0.00000000000E+00  0.00000000000E+00  0.49522141226E+03  0.49522141226E+03  0.00000000000E+00 0. -1.
         -2   -1    0    0    0  501 -0.00000000000E+00 -0.00000000000E+00 -0.27876680396E+02  0.27876680396E+02  0.00000000000E+00 0.  1.
          5    1    1    2  502    0 -0.43474165112E+01  0.75545947018E+02  0.16460115907E+03  0.18121011039E+03  0.41800000000E+01 0. -1.
         -5    1    1    2    0  502  0.34316520960E+02 -0.42623199030E+02  0.78385752220E+02  0.95687821887E+02  0.41800000000E+01 0. -1.
        -11    1    1    2    0    0  0.90833070796E+01 -0.41458067989E+02  0.42730955606E+02  0.60226343372E+02  0.00000000000E+00 0.  1.
         11    1    1    2    0    0 -0.39052411529E+02  0.85353200017E+01  0.18162686497E+03  0.18597381700E+03  0.00000000000E+00 0. -1.
</event>
<event>
 6    1  0.9216756E-006  0.2353882E+03  0.7561462E-02  0.1122904E+00
         -2   -1    0    0    0  501 -0.00000000000E+00  0.00000000000E+00  0.47925957336E+02  0.47925957336E+02  0.00000000000E+00 0.  1.
          2   -1    0    0  501    0  0.00000000000E+00 -0.00000000000E+00 -0.14112446461E+04  0.14112446461E+04  0.00000000000E+00 0. -1.
          5    1    1    2  502    0 -0.36819721520E+01  0.54682747587E+01 -0.13424216118E+03  0.13446891532E+03  0.41800000000E+01 0.  1.
         -5    1    1    2    0  502 -0.21370413396E+03 -0.82330489139E+02 -0.40832948121E+03  0.46818607832E+03  0.41800000000E+01 0.  1.
        -11    1    1    2    0    0  0.81428197051E+02  0.88809337253E+01 -0.41990233822E+03  0.42781701217E+03  0.00000000000E+00 0. -1.
         11    1    1    2    0    0  0.13595790906E+03  0.67981280655E+02 -0.40084470820E+03  0.42869859767E+03  0.00000000000E+00 0.  1.
</event>
<event>
 6    1  0.9216756E-006  0.1487089E+03  0.7561462E-02  0.1202069E+00
         -2   -1    0    0    0  501 -0.00000000000E+00  0.00000000000E+00  0.55911516611E+02  0.55911516611E+02  0.00000000000E+00 0.  1.
          2   -1    0    0  501    0  0.00000000000E+00 -0.00000000000E+00 -0.89448541224E+03  0.89448541224E+03  0.00000000000E+00 0. -1.
          5    1    1    2  502    0 -0.94964900377E+02 -0.34776439507E+01 -0.19073956087E+03  0.21314192171E+03  0.41800000000E+01 0. -1.
         -5    1    1    2    0  502 -0.40236682314E+02  0.36847419793E+02  0.13261701211E+02  0.56303357520E+02  0.41800000000E+01 0.  1.
        -11    1    1    2    0    0  0.59280271208E+02  0.10037176144E+02 -0.13704736426E+03  0.14965585692E+03  0.00000000000E+00 0.  1.
         11    1    1    2    0    0  0.75921311483E+02 -0.43406951986E+02 -0.52404867171E+03  0.53129579270E+03  0.00000000000E+00 0. -1.
</event>
<event>
 6    1  0.9216756E-006  0.2309247E+03  0.7561462E-02  0.1125991E+00
          2   -1    0    0  501    0  0.00000000000E+00  0.00000000000E+00  0.90139305009E+03  0.90139305009E+03  0.00000000000E+00 0. -1.
         -2   -1    0    0    0  501 -0.00000000000E+00 -0.00000000000E+00 -0.64914117325E+02  0.64914117325E+02  0.00000000000E+00 0.  1.
          5    1    1    2  502    0  0.53726364416E+02 -0.21219590093E+03  0.43455547003E+03  0.48658971582E+03  0.41800000000E+01 0.  1.
         -5    1    1    2    0  502  0.24633120283E+02  0.11955353588E+02  0.33507087154E+02  0.43473191553E+02  0.41800000000E+01 0.  1.
        -11    1    1    2    0    0 -0.35795829505E+02  0.10396583407E+03  0.27244930313E+03  0.29380071280E+03  0.00000000000E+00 0. -1.
         11    1    1    2    0    0 -0.42563655195E+02  0.96274713267E+02  0.95967072450E+02  0.14244354725E+03  0.00000000000E+00 0.  1.
</event>
<event>
 6    1  0.9216756E-006  0.9667257E+02  0.7561462E-02  0.1287453E+00
          2   -1    0    0  501    0  0.00000000000E+00  0.00000000000E+00  0.63220909824E+03  0.63220909824E+03  0.00000000000E+00 0. -1.
         -2   -1    0    0    0  501 -0.00000000000E+00 -0.00000000000E+00 -0.18806883316E+02  0.18806883316E+02  0.00000000000E+00 0.  1.
          5    1    1    2  502    0  0.36321197186E+02  0.47521732415E+02  0.27631789964E+03  0.28274829527E+03  0.41800000000E+01 0. -1.
         -5    1    1    2    0  502 -0.33619619783E+02 -0.58931908114E+01  0.30052881620E+02  0.45668989763E+02  0.41800000000E+01 0.  1.
        -11    1    1    2    0    0  0.33406231384E+02  0.11003967271E+02  0.11041203910E+03  0.11587873821E+03  0.00000000000E+00 0.  1.
         11    1    1    2    0    0 -0.36107808787E+02 -0.52632508874E+02  0.19661939456E+03  0.20671995831E+03  0.00000000000E+00 0. -1.
</event>
<event>
 6    1  0.9216756E-006  0.7800135E+02  0.7561462E-02  0.1334821E+00
          2   -1    0    0  501    0  0.00000000000E+00  0.00000000000E+00  0.31983758953E+03  0.31983758953E+03  0.00000000000E+00 0. -1.
         -2   -1    0    0    0  501 -0.00000000000E+00 -0.00000000000E+00 -0.59486144198E+02  0.59486144198E+02  0.00000000000E+00 0.  1.
          5    1    1    2  502    0  0.46996016454E+01 -0.20686243184E+02  0.13306650847E+03  0.13481162780E+03  0.41800000000E+01 0. -1.
         -5    1    1    2    0  502 -0.25866455016E+02 -0.36567672970E+02 -0.29430900692E+02  0.53757962360E+02  0.41800000000E+01 0.  1.
        -11    1    1    2    0    0  0.43258065119E+02  0.23992366216E+02  0.13811273627E+03  0.14670385732E+03  0.00000000000E+00 0.  1.
         11    1    1    2    0    0 -0.22091211749E+02  0.33261549938E+02  0.18603101282E+02  0.44050286243E+02  0.00000000000E+00 0. -1.
</event>
<event>
 6    1  0.9216756E-006  0.1665865E+03  0.7561462E-02  0.1181455E+00
         -2   -1    0    0    0  501 -0.00000000000E+00  0.00000000000E+00  0.35632726972E+02  0.35632726972E+02  0.00000000000E+00 0.  1.
          2   -1    0    0  501    0  0.00000000000E+00 -0.00000000000E+00 -0.96287160818E+03  0.96287160818E+03  0.00000000000E+00 0. -1.
          5    1    1    2  502    0  0.84140162277E-01  0.14632526886E+03 -0.36282712709E+03  0.39124428167E+03  0.41800000000E+01 0.  1.
         -5    1    1    2    0  502 -0.28759489019E+02 -0.42291666315E+01 -0.16542278057E+02  0.33706281645E+02  0.41800000000E+01 0.  1.
        -11    1    1    2    0    0 -0.19062231556E+02 -0.53289021035E+02 -0.31117502527E+03  0.31627991524E+03  0.00000000000E+00 0. -1.
         11    1    1    2    0    0  0.47737580412E+02 -0.88807081189E+02 -0.23669445080E+03  0.25727385660E+03  0.00000000000E+00 0.  1.
</event>
<event>
 6    1  0.9216756E-006  0.1405869E+03  0.7561462E-02  0.1212541E+00
          1   -1    0    0  501    0  0.00000000000E+00  0.00000000000E+00  0.46077540546E+03  0.46077540546E+03  0.00000000000E+00 0. -1.
         -1   -1    0    0    0  501 -0.00000000000E+00 -0.00000000000E+00 -0.66167116526E+02  0.66167116526E+02  0.00000000000E+00 0.  1.
          5    1    1    2  502    0 -0.91480811192E+02 -0.20097701154E+02  0.10663591166E+03  0.14199065626E+03  0.41800000000E+01 0. -1.
         -5    1    1    2    0  502 -0.20436107117E+02  0.42790672630E+02 -0.15858501586E+02  0.50176096010E+02  0.41800000000E+01 0. -1.
        -11    1    1    2    0    0 -0.24206395234E+01 -0.25330569374E+02  0.42860639153E+02  0.49845076278E+02  0.00000000000E+00 0. -1.
         11    1    1    2    0    0  0.11433755783E+03  0.26375978980E+01  0.26097023970E+03  0.28493069344E+03  0.00000000000E+00 0.  1.
</event>
<event>
 6    1  0.9216756E-006  0.9593824E+02  0.7561462E-02  0.1289077E+00
         -1   -1    0    0    0  501 -0.00000000000E+00  0.00000000000E+00  0.29300557943E+02  0.29300557943E+02  0.00000000000E+00 0.  1.
          1   -1    0    0  501    0  0.00000000000E+00 -0.00000000000E+00 -0.47753716223E+03  0.47753716223E+03  0.00000000000E+00 0. -1.
          5    1    1    2  502    0 -0.38735246831E+02 -0.21789012263E+02 -0.28543021600E+02  0.52984496643E+02  0.41800000000E+01 0.  1.
         -5    1    1    2    0  502  0.23073014458E+02  0.64928815518E+02 -0.19982173629E+03  0.21141029723E+03  0.41800000000E+01 0.  1.
        -11    1    1    2    0    0 -0.24778184906E+02 -0.15709941112E+02 -0.17039791557E+03  0.17290520619E+03  0.00000000000E+00 0. -1.
         11    1    1    2    0    0  0.40440417278E+02 -0.27429862142E+02 -0.49473930827E+02  0.69537720111E+02  0.00000000000E+00 0.  1.
</event>
<event>
 6    1  0.9216756E-006  0.1186319E+03  0.7561462E-02  0.1245371E+00
         -1   -1    0    0    0  501 -0.00000000000E+00  0.00000000000E+00  0.53238626558E+02  0.53238626558E+02  0.00000000000E+00 0.  1.
          1   -1    0    0  501    0  0.00000000000E+00 -0.00000000000E+00 -0.40977910275E+03  0.40977910275E+03  0.00000000000E+00 0. -1.
          5    1    1    2  502    0 -0.36294862014E+02 -0.26806384581E+02 -0.12452133136E+03  0.13251012651E+03  0.41800000000E+01 0. -1.
         -5    1    1    2    0  502  0.36760890800E+02  0.79439559114E+02 -0.16158814205E+02  0.89109967575E+02  0.41800000000E+01 0.  1.
        -11    1    1    2    0    0 -0.39463203287E+02 -0.82457395758E+00 -0.52851018574E+02  0.65964039447E+02  0.00000000000E+00 0.  1.
         11    1    1    2    0    0  0.38997174502E+02 -0.51808600576E+02 -0.16300931205E+03  0.17543359578E+03  0.00000000000E+00 0. -1.
</event>
<event>
 6    1  0.9216756E-006  0.1053174E+03  0.7561462E-02  0.1269496E+00
         -1   -1    0    0    0  501 -0.00000000000E+00  0.00000000000E+00  0.19265264931E+03  0.19265264931E+03  0.00000000000E+00 0.  1.
          1   -1    0    0  501    0  0.00000000000E+00 -0.00000000000E+00 -0.72738235992E+02  0.72738235992E+02  0.00000000000E+00 0. -1.
          5    1    1    2  502    0 -0.43335110992E+02  0.53785398416E+02  0.24803779196E+02  0.73508508282E+02  0.41800000000E+01 0.  1.
         -5    1    1    2    0  502 -0.10333689254E+02 -0.60564507609E+02  0.65978093365E+02  0.90252013383E+02  0.41800000000E+01 0.  1.
        -11    1    1    2    0    0  0.66494078898E+02  0.79941027408E+01 -0.29706712334E+01  0.67038743236E+02  0.00000000000E+00 0. -1.
         11    1    1    2    0    0 -0.12825278651E+02 -0.12149935473E+01  0.32103211988E+02  0.34591620397E+02  0.00000000000E+00 0.  1.
</event>
<event>
 6    1  0.9216756E-006  0.1932070E+03  0.7561462E-02  0.1155600E+00
         -1   -1    0    0    0  501 -0.00000000000E+00  0.00000000000E+00  0.11108905726E+03  0.11108905726E+03  0.00000000000E+00 0.  1.
          1   -1    0    0  501    0  0.00000000000E+00 -0.00000000000E+00 -0.40605703050E+03  0.40605703050E+03  0.00000000000E+00 0. -1.
          5    1    1    2  502    0 -0.14440971349E+03  0.12480767664E+03 -0.69083522957E+02  0.20302986736E+03  0.41800000000E+01 0.  1.
         -5    1    1    2    0  502  0.15887667697E+02 -0.12266138838E+02 -0.11548696145E+02  0.23531275561E+02  0.41800000000E+01 0.  1.
        -11    1    1    2    0    0  0.78164528992E+02 -0.43228995210E+02 -0.43240730228E+02  0.99238099388E+02  0.00000000000E+00 0.  1.
         11    1    1    2    0    0  0.50357516799E+02 -0.69312542592E+02 -0.17109502390E+03  0.19134684545E+03  0.00000000000E+00 0. -1.
</event>
<event>
 6    1  0.9216756E-006  0.1435629E+03  0.7561462E-02  0.1208614E+00
          2   -1    0    0  501    0  0.00000000000E+00  0.00000000000E+00  0.12040293310E+04  0.12040293310E+04  0.00000000000E+00 0.  1.
         -2   -1    0    0    0  501 -0.00000000000E+00 -0.00000000000E+00 -0.17673899729E+02  0.17673899729E+02  0.00000000000E+00 0. -1.
          5    1    1    2  502    0 -0.87513764238E+02 -0.33573689147E+02  0.31456898041E+03  0.32826356388E+03  0.41800000000E+01 0.  1.
         -5    1    1    2    0  502 -0.67038509471E+01  0.60026505002E+02  0.33575865861E+03  0.34117366861E+03  0.41800000000E+01 0.  1.
        -11    1    1    2    0    0 -0.12328341982E+02 -0.23068260905E+02  0.94606893649E+02  0.98155983022E+02  0.00000000000E+00 0.  1.
         11    1    1    2    0    0  0.10654595717E+03 -0.33845549501E+01  0.44142089860E+03  0.45411001522E+03  0.00000000000E+00 0. -1.
</event>
<event>
 6    1  0.9216756E-006  0.1079108E+03  0.7561462E-02  0.1264488E+00
          1   -1    0    0  501    0  0.00000000000E+00  0.00000000000E+00  0.84057865759E+03  0.84057865759E+03  0.00000000000E+00 0. -1.
         -1   -1    0    0    0  501 -0.00000000000E+00 -0.00000000000E+00 -0.15639601152E+02  0.15639601152E+02  0.00000000000E+00 0.  1.
          5    1    1    2  502    0  0.34047378676E+02  0.31734225806E+02  0.22763547877E+03  0.23238259116E+03  0.41800000000E+01 0. -1.
         -5    1    1    2    0  502 -0.61338994020E+02 -0.53253416802E+02  0.27788899496E+03  0.28954820758E+03  0.41800000000E+01 0. -1.
        -11    1    1    2    0    0 -0.14165573155E+02 -0.22941642451E+02  0.39349460455E+02  0.47700759524E+02  0.00000000000E+00 0.  1.
         11    1    1    2    0    0  0.41457188498E+02  0.44460833446E+02  0.28006512225E+03  0.28658670048E+03  0.00000000000E+00 0. -1.
</event>
<event>
 6    1  0.9216756E-006  0.2183558E+03  0.7561462E-02  0.1135115E+00
         -2   -1    0    0    0  501 -0.00000000000E+00  0.00000000000E+00  0.25422929684E+03  0.25422929684E+03  0.00000000000E+00 0.  1.
          2   -1    0    0  501    0  0.00000000000E+00 -0.00000000000E+00 -0.20225461835E+03  0.20225461835E+03  0.00000000000E+00 0. -1.
          5    1    1    2  502    0  0.96322359558E+01  0.40870889073E+02  0.41423726349E+02  0.59132115198E+02  0.41800000000E+01 0.  1.
         -5    1    1    2    0  502 -0.16013735153E+03  0.82377839229E+02  0.27651419619E+02  0.18224201809E+03  0.41800000000E+01 0.  1.
        -11    1    1    2    0    0  0.15428329802E+03 -0.85395003136E+02 -0.12331438776E+02  0.17677020957E+03  0.00000000000E+00 0.  1.
         11    1    1    2    0    0 -0.37781824496E+01 -0.37853725166E+02 -0.47690287019E+01  0.38339572328E+02  0.00000000000E+00 0. -1.
</event>
<event>
 6    1  0.9216756E-006  0.1158254E+03  0.7561462E-02  0.1250147E+00
          1   -1    0    0  501    0  0.00000000000E+00  0.00000000000E+00  0.21216628766E+03  0.21216628766E+03  0.00000000000E+00 0. -1.
         -1   -1    0    0    0  501 -0.00000000000E+00 -0.00000000000E+00 -0.76697101969E+02  0.76697101969E+02  0.00000000000E+00 0.  1.
          5    1    1    2  502    0 -0.25141592397E+02 -0.26688756024E+02  0.10532877639E+02  0.38377119195E+02  0.41800000000E+01 0. -1.
         -5    1    1    2    0  502  0.67043091719E+02  0.69418120113E+02  0.99131167974E+02  0.13841283326E+03  0.41800000000E+01 0. -1.
        -11    1    1    2    0    0  0.12879034222E+02 -0.41395725321E+02 -0.12613410885E+02  0.45150567344E+02  0.00000000000E+00 0. -1.
         11    1    1    2    0    0 -0.54780533545E+02 -0.13336387672E+01  0.38418550960E+02  0.66922869825E+02  0.00000000000E+00 0.  1.
</event>
<event>
 6    1  0.9216756E-006  0.1395056E+03  0.7561462E-02  0.1213996E+00
         -2   -1    0    0    0  501 -0.00000000000E+00  0.00000000000E+00  0.79973538533E+02  0.79973538533E+02  0.00000000000E+00 0.  1.
          2   -1    0    0  501    0  0.00000000000E+00 -0.00000000000E+00 -0.37337332383E+03  0.37337332383E+03  0.00000000000E+00 0. -1.
          5    1    1    2  502    0  0.30000281075E+01  0.20435727505E+02  0.17424639691E+02  0.27344279029E+02  0.41800000000E+01 0. -1.
         -5    1    1    2    0  502  0.10940923528E+03  0.50963570518E+02 -0.18280862066E+03  0.21909844926E+03  0.41800000000E+01 0. -1.
        -11    1    1    2    0    0 -0.52767363774E+02 -0.52913790324E+02 -0.12743744585E+02  0.75806773524E+02  0.00000000000E+00 0.  1.
         11    1    1    2    0    0 -0.59641899610E+02 -0.18485507699E+02 -0.11527205975E+03  0.13109736055E+03  0.00000000000E+00 0. -1.
</event>
<event>
 6    1  0.9216756E-006  0.5237421E+02  0.7561462E-02  0.1432941E+00
          1   -1    0    0  501    0  0.00000000000E+00  0.00000000000E+00  0.32991294294E+03  0.32991294294E+03  0.00000000000E+00 0. -1.
         -1   -1    0    0    0  501 -0.00000000000E+00 -0.00000000000E+00 -0.42924402831E+02  0.42924402831E+02  0.00000000000E+00 0.  1.
          5    1    1    2  502    0 -0.11067560766E+02 -0.27021891851E+02  0.11450422917E+03  0.11824281982E+03  0.41800000000E+01 0.  1.
         -5    1    1    2    0  502  0.38922959858E+01  0.10123080328E+02 -0.31109640281E+02  0.33210071391E+02  0.41800000000E+01 0.  1.
        -11    1    1    2    0    0 -0.16353238238E+02 -0.16199162120E+02  0.12842831587E+02  0.26358671769E+02  0.00000000000E+00 0.  1.
         11    1    1    2    0    0  0.23528503018E+02  0.33097973643E+02  0.19075111963E+03  0.19502578280E+03  0.00000000000E+00 0. -1.
</event>
<event>
 6    1  0.9216756E-006  0.3149910E+03  0.7561462E-02  0.1077978E+00
         -2   -1    0    0    0  501 -0.00000000000E+00  0.00000000000E+00  0.45122837280E+02  0.45122837280E+02  0.00000000000E+00 0.  1.
          2   -1    0    0  501    0  0.00000000000E+00 -0.00000000000E+00 -0.23361163241E+04  0.23361163241E+04  0.00000000000E+00 0. -1.
          5    1    1    2  502    0  0.25852166192E+02 -0.12115742174E+03 -0.39322415745E+03  0.41229863660E+03  0.41800000000E+01 0. -1.
         -5    1    1    2    0  502  0.17287877276E+03 -0.10707634758E+03 -0.60925827334E+03  0.64231264219E+03  0.41800000000E+01 0. -1.
        -11    1    1    2    0    0 -0.80908758953E+02  0.93546338876E+02 -0.35004199432E+03  0.37124997317E+03  0.00000000000E+00 0.  1.
         11    1    1    2    0    0 -0.11782218000E+03  0.13468743045E+03 -0.93846906169E+03  0.95537790940E+03  0.00000000000E+00 0. -1.
</event>
<event>
 6    1  0.9216756E-006  0.1064912E+03  0.7561462E-02  0.1267209E+00
         -2   -1    0    0    0  501 -0.00000000000E+00  0.00000000000E+00  0.18460617029E+02  0.18460617029E+02  0.00000000000E+00 0.  1.
          2   -1    0    0  501    0  0.00000000000E+00 -0.00000000000E+00 -0.89758350751E+03  0.89758350751E+03  0.00000000000E+00 0. -1.
          5    1    1    2  502    0  0.57702979943E+01  0.17950223266E+02 -0.63283199469E+01  0.20323062948E+02  0.41800000000E+01 0. -1.
         -5    1    1    2    0  502  0.32735073504E+02 -0.74150524924E+02 -0.46602214108E+03  0.47303698985E+03  0.41800000000E+01 0. -1.
        -11    1    1    2    0    0 -0.58372294735E+01 -0.24636672182E+02 -0.60092707724E+02  0.65208683361E+02  0.00000000000E+00 0.  1.
         11    1    1    2    0    0 -0.32668142025E+02  0.80836973840E+02 -0.34667972173E+03  0.35747538838E+03  0.00000000000E+00 0. -1.
</event>
<event>
 6    1  0.9216756E-006  0.1871396E+03  0.7561462E-02  0.1161067E+00
          2   -1    0    0  501    0  0.00000000000E+00  0.00000000000E+00  0.10606808136E+04  0.10606808136E+04  0.00000000000E+00 0.  1.
         -2   -1    0    0    0  501 -0.00000000000E+00 -0.00000000000E+00 -0.42680691941E+02  0.42680691941E+02  0.00000000000E+00 0. -1.
          5    1    1    2  502    0  0.17810426195E+02  0.18173700312E+02  0.43986029743E+02  0.50987624742E+02  0.41800000000E+01 0.  1.
         -5    1    1    2    0  502 -0.76877967796E+01 -0.17242620933E+03  0.23356807474E+03  0.29045037067E+03  0.41800000000E+01 0.  1.
        -11    1    1    2    0    0  0.29049807724E+02  0.12106990962E+03  0.58890708441E+03  0.60192471988E+03  0.00000000000E+00 0.  1.
         11    1    1    2    0    0 -0.39172437140E+02  0.33182599403E+02  0.15153893276E+03  0.15999879023E+03  0.00000000000E+00 0. -1.
</event>
<event>
 6    1  0.9216756E-006  0.1326602E+03  0.7561462E-02  0.1223561E+00
          2   -1    0    0  501    0  0.00000000000E+00  0.00000000000E+00  0.52894942694E+03  0.52894942694E+03  0.00000000000E+00 0. -1.
         -2   -1    0    0    0  501 -0.00000000000E+00 -0.00000000000E+00 -0.56705673477E+02  0.56705673477E+02  0.00000000000E+00 0.  1.
          5    1    1    2  502    0 -0.32961250536E+02  0.36105230452E+02 -0.39599559343E+01  0.49225860621E+02  0.41800000000E+01 0.  1.
         -5    1    1    2    0  502  0.31068146733E+02  0.87235405748E+02  0.16419661600E+03  0.18855568637E+03  0.41800000000E+01 0.  1.
        -11    1    1    2    0    0 -0.19150227695E+01 -0.86322205514E+02  0.97812266058E+02  0.13047003437E+03  0.00000000000E+00 0.  1.
         11    1    1    2    0    0  0.38081265723E+01 -0.37018430685E+02  0.21419482734E+03  0.21740351905E+03  0.00000000000E+00 0. -1.
</event>
<event>
 6    1  0.9216756E-006  0.9775846E+02  0.7561462E-02  0.1285081E+00
         -2   -1    0    0    0  501 -0.00000000000E+00  0.00000000000E+00  0.29176956395E+03  0.29176956395E+03  0.00000000000E+00 0.  1.
          2   -1    0    0  501    0  0.00000000000E+00 -0.00000000000E+00 -0.50004858934E+02  0.50004858934E+02  0.00000000000E+00 0. -1.
          5    1    1    2  502    0 -0.48377713456E+02 -0.40350596677E+02  0.97714017462E+02  0.11633604523E+03  0.41800000000E+01 0.  1.
         -5    1    1    2    0  502  0.68712347974E+02  0.10481261222E+01  0.82456301334E+02  0.10741973451E+03  0.41800000000E+01 0.  1.
        -11    1    1    2    0    0 -0.20707523115E+02 -0.32667140490E+01  0.71331704497E+02  0.74348402812E+02  0.00000000000E+00 0.  1.
         11    1    1    2    0    0  0.37288859662E+00  0.42569184604E+02 -0.97373182735E+01  0.43670240335E+02  0.00000000000E+00 0. -1.
</event>
<event>
 6    1  0.9216756E-006  0.1040327E+03  0.7561462E-02  0.1272037E+00
          2   -1    0    0  501    0  0.00000000000E+00  0.00000000000E+00  0.10091042716E+04  0.10091042716E+04  0.00000000000E+00 0. -1.
         -2   -1    0    0    0  501 -0.00000000000E+00 -0.00000000000E+00 -0.11222945138E+02  0.11222945138E+02  0.00000000000E+00 0.  1.
          5    1    1    2  502    0 -0.22856008476E+02  0.44860451842E+02  0.26562508351E+03  0.27038678713E+03  0.41800000000E+01 0. -1.
         -5    1    1    2    0  502  0.25072225006E+02 -0.61413582094E+02  0.22774285458E+03  0.23724359790E+03  0.41800000000E+01 0.  1.
        -11    1    1    2    0    0 -0.15056875065E+02 -0.34920206061E+02  0.19588693063E+03  0.19954402990E+03  0.00000000000E+00 0.  1.
         11    1    1    2    0    0  0.12840658535E+02  0.51473336313E+02  0.30862645778E+03  0.31315280185E+03  0.00000000000E+00 0. -1.
</event>
<event>
 6    1  0.9216756E-006  0.1024910E+03  0.7561462E-02  0.1275143E+00
          2   -1    0    0  501    0  0.00000000000E+00  0.00000000000E+00  0.12337374680E+03  0.12337374680E+03  0.00000000000E+00 0.  1.
         -2   -1    0    0    0  501 -0.00000000000E+00 -0.00000000000E+00 -0.14167714119E+03  0.14167714119E+03  0.00000000000E+00 0. -1.
          5    1    1    2  502    0 -0.79936641680E+02 -0.17321686700E+02  0.73289405316E+01  0.82225867478E+02  0.41800000000E+01 0.  1.
         -5    1    1    2    0  502  0.19605211014E+02  0.11483887241E+02 -0.63718692715E+02  0.67777490115E+02  0.41800000000E+01 0.  1.
        -11    1    1    2    0    0  0.59579678482E+02 -0.28213034140E+02  0.27649826242E+01  0.65979985695E+02  0.00000000000E+00 0. -1.
         11    1    1    2    0    0  0.75175218396E+00  0.34050833599E+02  0.35321375164E+02  0.49067544708E+02  0.00000000000E+00 0.  1.
</event>
<event>
 6    1  0.9216756E-006  0.9777009E+02  0.7561462E-02  0.1285056E+00
          2   -1    0    0  501    0  0.00000000000E+00  0.00000000000E+00  0.32910596018E+03  0.32910596018E+03  0.00000000000E+00 0.  1.
         -2   -1    0    0    0  501 -0.00000000000E+00 -0.00000000000E+00 -0.40519761324E+02  0.40519761324E+02  0.00000000000E+00 0. -1.
          5    1    1    2  502    0 -0.13118614437E+02 -0.50869219419E+02  0.92636369408E+02  0.10657741255E+03  0.41800000000E+01 0. -1.
         -5    1    1    2    0  502 -0.17563190896E+02  0.66170837688E+02  0.42302412636E+02  0.80585432614E+02  0.41800000000E+01 0. -1.
        -11    1    1    2    0    0 -0.15673094207E+02 -0.22417640005E+02  0.12399684376E+03  0.12697800490E+03  0.00000000000E+00 0.  1.
         11    1    1    2    0    0  0.46354899540E+02  0.71160217368E+01  0.29650573058E+02  0.55484871447E+02  0.00000000000E+00 0. -1.
</event>
<event>
 6    1  0.9216756E-006  0.1097206E+03  0.7561462E-02  0.1261088E+00
         -1   -1    0    0    0  501 -0.00000000000E+00  0.00000000000E+00  0.50232642955E+02  0.50232642955E+02  0.00000000000E+00 0.  1.
          1   -1    0    0  501    0  0.00000000000E+00 -0.00000000000E+00 -0.36182101783E+03  0.36182101783E+03  0.00000000000E+00 0. -1.
          5    1    1    2  502    0  0.51294373970E+02 -0.18890509134E+02 -0.11036066669E+01  0.54832968951E+02  0.41800000000E+01 0.  1.
         -5    1    1    2    0  502 -0.59653037022E+02 -0.28692248660E+02 -0.71997515147E+02  0.97892004507E+02  0.41800000000E+01 0.  1.
        -11    1    1    2    0    0  0.10048355253E+02 -0.24349180927E+02 -0.98125685739E+02  0.10159971583E+03  0.00000000000E+00 0. -1.
         11    1    1    2    0    0 -0.16896922016E+01  0.71931938721E+02 -0.14036156733E+03  0.15772897150E+03  0.00000000000E+00 0.  1.
</event>
<event>
 6    1  0.9216756E-006  0.1527062E+03  0.7561462E-02  0.1197186E+00
          1   -1    0    0  501    0  0.00000000000E+00  0.00000000000E+00  0.21245676278E+03  0.21245676278E+03  0.00000000000E+00 0. -1.
         -1   -1    0    0    0  501 -0.00000000000E+00 -0.00000000000E+00 -0.17716946620E+03  0.17716946620E+03  0.00000000000E+00 0.  1.
          5    1    1    2  502    0 -0.42769712464E+02  0.11555823454E+03 -0.95375005022E+02  0.15587436562E+03  0.41800000000E+01 0.  1.
         -5    1    1    2    0  502 -0.31229354582E+02 -0.52046889817E+01  0.24125229568E+02  0.40023249202E+02  0.41800000000E+01 0.  1.
        -11    1    1    2    0    0  0.87935242331E+02 -0.94849995212E+02  0.59684812840E+02  0.14244790388E+03  0.00000000000E+00 0.  1.
         11    1    1    2    0    0 -0.13936175285E+02 -0.15503550348E+02  0.46852259194E+02  0.51280710277E+02  0.00000000000E+00 0. -1.
</event>
<event>
 6    1  0.9216756E-006  0.1117191E+03  0.7561462E-02  0.1257419E+00
         -1   -1    0    0    0  501 -0.00000000000E+00  0.00000000000E+00  0.11339155057E+04  0.11339155057E+04  0.00000000000E+00 0.  1.
          1   -1    0    0  501    0  0.00000000000E+00 -0.00000000000E+00 -0.16583262073E+02  0.16583262073E+02  0.00000000000E+00 0. -1.
          5    1    1    2  502    0 -0.40305287320E+02 -0.21199339549E+01  0.11701030061E+03  0.12384624804E+03  0.41800000000E+01 0. -1.
         -5    1    1    2    0  502  0.58499981746E+02 -0.56997712674E+02  0.73222553554E+03  0.73677859253E+03  0.41800000000E+01 0. -1.
        -11    1    1    2    0    0  0.30996799107E+02  0.12876180327E+02  0.41175759495E+02  0.53122883437E+02  0.00000000000E+00 0.  1.
         11    1    1    2    0    0 -0.49191493533E+02  0.46241466301E+02  0.22692064803E+03  0.23675104381E+03  0.00000000000E+00 0. -1.
</event>
<event>
 6    1  0.9216756E-006  0.7237617E+02  0.7561462E-02  0.1352194E+00
          1   -1    0    0  501    0  0.00000000000E+00  0.00000000000E+00  0.57539063575E+03  0.57539063575E+03  0.00000000000E+00 0. -1.
         -1   -1    0    0    0  501 -0.00000000000E+00 -0.00000000000E+00 -0.20525064645E+02  0.20525064645E+02  0.00000000000E+00 0.  1.
          5    1    1    2  502    0  0.19498036106E+02 -0.37064062336E+02  0.27696021380E+03  0.28013987677E+03  0.41800000000E+01 0.  1.
         -5    1    1    2    0  502 -0.78756628505E+01  0.16702843657E+02 -0.54579079184E+01  0.19704624087E+02  0.41800000000E+01 0.  1.
        -11    1    1    2    0    0  0.23302140941E+02  0.38022299710E+02  0.11814861146E+03  0.12628451781E+03  0.00000000000E+00 0.  1.
         11    1    1    2    0    0 -0.34924514197E+02 -0.17661081031E+02  0.16521465375E+03  0.16978668172E+03  0.00000000000E+00 0. -1.
</event>
<event>
 6    1  0.9216756E-006  0.7425475E+02  0.7561462E-02  0.1346194E+00
          1   -1    0    0  501    0  0.00000000000E+00  0.00000000000E+00  0.20077682889E+03  0.20077682889E+03  0.00000000000E+00 0. -1.
         -1   -1    0    0    0  501 -0.00000000000E+00 -0.00000000000E+00 -0.66273011773E+02  0.66273011773E+02  0.00000000000E+00 0.  1.
          5    1    1    2  502    0  0.17386775279E+02  0.59504153822E+02  0.84398473811E+02  0.10480276265E+03  0.41800000000E+01 0.  1.
         -5    1    1    2    0  502  0.15995485477E+02 -0.48331850571E+02  0.17561550144E+01  0.51111445056E+02  0.41800000000E+01 0.  1.
        -11    1    1    2    0    0 -0.12227554741E+02 -0.54015761248E+01 -0.28360754578E+02  0.31353189947E+02  0.00000000000E+00 0.  1.
         11    1    1    2    0    0 -0.21154706015E+02 -0.57707271266E+01  0.76709942869E+02  0.79782443013E+02  0.00000000000E+00 0. -1.
</event>
<event>
 6    1  0.9216756E-006  0.1274514E+03  0.7561462E-02  0.1231287E+00
          2   -1    0    0  501    0  0.00000000000E+00  0.00000000000E+00  0.26196110288E+03  0.26196110288E+03  0.00000000000E+00 0. -1.
         -2   -1    0    0    0  501 -0.00000000000E+00 -0.00000000000E+00 -0.77201097186E+02  0.77201097186E+02  0.00000000000E+00 0.  1.
          5    1    1    2  502    0 -0.81535364548E+01 -0.11604051665E+03  0.66560502727E+02  0.13408823432E+03  0.41800000000E+01 0.  1.
         -5    1    1    2    0  502 -0.18350504276E+02  0.31609312534E+02  0.23160983244E+02  0.43471751642E+02  0.41800000000E+01 0.  1.
        -11    1    1    2    0    0 -0.11116158984E+02  0.48263209273E+02  0.97500033594E+02  0.10935795769E+03  0.00000000000E+00 0. -1.
         11    1    1    2    0    0  0.37620199714E+02  0.36167994840E+02 -0.24615138700E+01  0.52244256410E+02  0.00000000000E+00 0.  1.
</event>
<event>
 6    1  0.9216756E-006  0.7704601E+02  0.7561462E-02  0.1337650E+00
         -1   -1    0    0    0  501 -0.00000000000E+00  0.00000000000E+00  0.42976882444E+03  0.42976882444E+03  0.00000000000E+00 0.  1.
          1   -1    0    0  501    0  0.00000000000E+00 -0.00000000000E+00 -0.32176260262E+02  0.32176260262E+02  0.00000000000E+00 0. -1.
          5    1    1    2  502    0  0.62954885646E+02  0.40987492487E+00  0.66121971168E+02  0.91395148095E+02  0.41800000000E+01 0.  1.
         -5    1    1    2    0  502 -0.30073799405E+02 -0.12105576673E+02  0.22523272141E+03  0.22759224413E+03  0.41800000000E+01 0.  1.
        -11    1    1    2    0    0  0.11917242677E+02 -0.34339762403E+00 -0.11405387827E+02  0.16499135323E+02  0.00000000000E+00 0. -1.
         11    1    1    2    0    0 -0.44798328917E+02  0.12039099372E+02  0.11764325943E+03  0.12645855715E+03  0.00000000000E+00 0.  1.
</event>
<event>
 6    1  0.9216756E-006  0.9961035E+02  0.7561462E-02  0.1281117E+00
         -3   -1    0    0    0  501 -0.00000000000E+00  0.00000000000E+00  0.22472233228E+03  0.22472233228E+03  0.00000000000E+00 0.  1.
          3   -1    0    0  501    0  0.00000000000E+00 -0.00000000000E+00 -0.73876041410E+02  0.73876041410E+02  0.00000000000E+00 0. -1.
          5    1    1    2  502    0 -0.92114102267E+01  0.19793906875E+02 -0.26556123654E+02  0.34631617508E+02  0.41800000000E+01 0. -1.
         -5    1    1    2    0  502 -0.50494260916E+02 -0.47216105106E+02  0.10846195797E+03  0.12868760505E+03  0.41800000000E+01 0. -1.
        -11    1    1    2    0    0  0.81228942068E+02  0.14159981918E+02  0.27842381147E+02  0.87027836382E+02  0.00000000000E+00 0. -1.
         11    1    1    2    0    0 -0.21523270926E+02  0.13262216313E+02  0.41098075407E+02  0.48251314750E+02  0.00000000000E+00 0.  1.
</event>
<event>
 6    1  0.9216756E-006  0.1538892E+03  0.7561462E-02  0.1195774E+00
         -1   -1    0    0    0  501 -0.00000000000E+00  0.00000000000E+00  0.36336942076E+02  0.36336942076E+02  0.00000000000E+00 0.  1.
          1   -1    0    0  501    0  0.00000000000E+00 -0.00000000000E+00 -0.70814261886E+03  0.70814261886E+03  0.00000000000E+00 0. -1.
          5    1    1    2  502    0 -0.82840583657E+01 -0.10904128364E+03 -0.27745335358E+03  0.29825570065E+03  0.41800000000E+01 0. -1.
         -5    1    1    2    0  502  0.57831884815E+02  0.29397240383E+01 -0.88762116129E+02  0.10606297440E+03  0.41800000000E+01 0. -1.
        -11    1    1    2    0    0  0.19497815530E+02  0.98892727543E+01 -0.10474602356E+03  0.10700323349E+03  0.00000000000E+00 0. -1.
         11    1    1    2    0    0 -0.69045641979E+02  0.96212286847E+02 -0.20084418352E+03  0.23315765240E+03  0.00000000000E+00 0.  1.
</event>
<event>
 6    1  0.9216756E-006  0.2337698E+03  0.7561462E-02  0.1124014E+00
         -2   -1    0    0    0  501 -0.00000000000E+00  0.00000000000E+00  0.13557906635E+03  0.13557906635E+03  0.00000000000E+00 0. -1.
          2   -1    0    0  501    0  0.00000000000E+00 -0.00000000000E+00 -0.47070092746E+03  0.47070092746E+03  0.00000000000E+00 0.  1.
          5    1    1    2  502    0 -0.38741886079E+02 -0.16726401195E+03 -0.28039951825E+02  0.17401693805E+03  0.41800000000E+01 0.  1.
         -5    1    1    2    0  502  0.36505050677E+02 -0.53097462902E+02 -0.76479025977E+02  0.10009232291E+03  0.41800000000E+01 0.  1.
        -11    1    1    2    0    0  0.34287937689E+02  0.76432787026E+02 -0.44899433434E+02  0.95045214115E+02  0.00000000000E+00 0. -1.
         11    1    1    2    0    0 -0.32051102286E+02  0.14392868783E+03 -0.18570344987E+03  0.23712551873E+03  0.00000000000E+00 0.  1.
</event>
<event>
 6    1  0.9216756E-006  0.1144328E+03  0.7561462E-02  0.1252574E+00
         -2   -1    0    0    0  501 -0.00000000000E+00  0.00000000000E+00  0.36652644318E+03  0.36652644318E+03  0.00000000000E+00 0. -1.
          2   -1    0    0  501    0  0.00000000000E+00 -0.00000000000E+00 -0.48696143181E+02  0.48696143181E+02  0.00000000000E+00 0.  1.
          5    1    1    2  502    0 -0.43514053814E+02 -0.16930888445E+02  0.65635225980E+02  0.80657195292E+02  0.41800000000E+01 0.  1.
         -5    1    1    2    0  502  0.40510294208E+02  0.87207368383E+02  0.16242114848E+03  0.18879700980E+03  0.41800000000E+01 0.  1.
        -11    1    1    2    0    0  0.24632274828E+02 -0.22785780408E+02 -0.83969985777E+01  0.34589743236E+02  0.00000000000E+00 0.  1.
         11    1    1    2    0    0 -0.21628515221E+02 -0.47490699530E+02  0.98170924120E+02  0.11117863803E+03  0.00000000000E+00 0. -1.
</event>
<event>
 6    1  0.9216756E-006  0.1681410E+03  0.7561462E-02  0.1179800E+00
         -2   -1    0    0    0  501 -0.00000000000E+00  0.00000000000E+00  0.39995239909E+02  0.39995239909E+02  0.00000000000E+00 0.  1.
          2   -1    0    0  501    0  0.00000000000E+00 -0.00000000000E+00 -0.99232284524E+03  0.99232284524E+03  0.00000000000E+00 0. -1.
          5    1    1    2  502    0 -0.49080849961E+02  0.66469976713E+02 -0.58219924450E+02  0.10116432000E+03  0.41800000000E+01 0.  1.
         -5    1    1    2    0  502 -0.73931198572E+02 -0.22450031580E+02 -0.20032065339E+03  0.21474557647E+03  0.41800000000E+01 0. -1.
        -11    1    1    2    0    0  0.13915273755E+02 -0.63797098247E+02 -0.20258852216E+03  0.21285162414E+03  0.00000000000E+00 0.  1.
         11    1    1    2    0    0  0.10909677478E+03  0.19777153114E+02 -0.49119850533E+03  0.50355656454E+03  0.00000000000E+00 0. -1.
</event>
<event>
 6    1  0.9216756E-006  0.9047734E+02  0.7561462E-02  0.1301700E+00
         -4   -1    0    0    0  501 -0.00000000000E+00  0.00000000000E+00  0.26569178345E+03  0.26569178345E+03  0.00000000000E+00 0.  1.
          4   -1    0    0  501    0  0.00000000000E+00 -0.00000000000E+00 -0.74485040537E+02  0.74485040537E+02  0.00000000000E+00 0. -1.
          5    1    1    2  502    0 -0.82501713573E+01  0.29762048082E+02 -0.24123326024E+02  0.39411319338E+02  0.41800000000E+01 0.  1.
         -5    1    1    2    0  502 -0.35478730343E+02  0.47453316567E+02  0.14232077714E+03  0.15421813631E+03  0.41800000000E+01 0.  1.
        -11    1    1    2    0    0  0.21923302047E+02 -0.22145880187E+02  0.80994177391E+02  0.86782071611E+02  0.00000000000E+00 0.  1.
         11    1    1    2    0    0  0.21805599654E+02 -0.55069484463E+02 -0.79848855952E+01  0.59765296730E+02  0.00000000000E+00 0. -1.
</event>
<event>
 6    1  0.9216756E-006  0.1110513E+03  0.7561462E-02  0.1258635E+00
          1   -1    0    0  501    0  0.00000000000E+00  0.00000000000E+00  0.21919193642E+03  0.21919193642E+03  0.00000000000E+00 0. -1.
         -1   -1    0    0    0  501 -0.00000000000E+00 -0.00000000000E+00 -0.67088216608E+02  0.67088216608E+02  0.00000000000E+00 0.  1.
          5    1    1    2  502    0  0.46831874757E+02 -0.40797438573E+02  0.21818219026E+02  0.65963342614E+02  0.41800000000E+01 0. -1.
         -5    1    1    2    0  502 -0.66098216139E+02  0.12333679288E+02  0.28093459024E+02  0.72991839691E+02  0.41800000000E+01 0. -1.
        -11    1    1    2    0    0 -0.15513022806E+02 -0.24572992006E+02  0.24988116250E+01  0.29167273994E+02  0.00000000000E+00 0.  1.
         11    1    1    2    0    0  0.34779364188E+02  0.53036751291E+02  0.99693230141E+02  0.11815769673E+03  0.00000000000E+00 0. -1.
</event>
<event>
 6    1  0.9216756E-006  0.1215550E+03  0.7561462E-02  0.1240554E+00
          4   -1    0    0  501    0  0.00000000000E+00  0.00000000000E+00  0.34313521454E+02  0.34313521454E+02  0.00000000000E+00 0.  1.
         -4   -1    0    0    0  501 -0.00000000000E+00 -0.00000000000E+00 -0.53583639710E+03  0.53583639710E+03  0.00000000000E+00 0. -1.
          5    1    1    2  502    0 -0.78384795881E+02  0.44015932066E+02 -0.24313770038E+03  0.25925854324E+03  0.41800000000E+01 0.  1.
         -5    1    1    2    0  502  0.23818952111E+02 -0.38947300203E+02 -0.15592206060E+03  0.16252198637E+03  0.41800000000E+01 0.  1.
        -11    1    1    2    0    0  0.15903289425E+02  0.42846431712E+02 -0.45562466733E+02  0.64534252144E+02  0.00000000000E+00 0.  1.
         11    1    1    2    0    0  0.38662554344E+02 -0.47915063575E+02 -0.56900647942E+02  0.83835136798E+02  0.00000000000E+00 0. -1.
</event>
<event>
 6    1  0.9216756E-006  0.1016374E+03  0.7561462E-02  0.1276890E+00
          2   -1    0    0  501    0  0.00000000000E+00  0.00000000000E+00  0.76445374908E+02  0.76445374908E+02  0.00000000000E+00 0. -1.
         -2   -1    0    0    0  501 -0.00000000000E+00 -0.00000000000E+00 -0.29842307052E+03  0.29842307052E+03  0.00000000000E+00 0.  1.
          5    1    1    2  502    0  0.62238434948E+01 -0.63112223189E+02 -0.53439306289E+02  0.83036864105E+02  0.41800000000E+01 0.  1.
         -5    1    1    2    0  502 -0.50700377529E+02  0.26322313443E+02 -0.17070257512E+03  0.18005619683E+03  0.41800000000E+01 0.  1.
        -11    1    1    2    0    0  0.14907896646E+02  0.48422502267E+02  0.38406125285E+02  0.63576839868E+02  0.00000000000E+00 0. -1.
         11    1    1    2    0    0  0.29568637388E+02 -0.11632592521E+02 -0.36241939494E+02  0.48198544625E+02  0.00000000000E+00 0.  1.
</event>
<event>
 6    1  0.9216756E-006  0.1052113E+03  0.7561462E-02  0.1269704E+00
         -2   -1    0    0    0  501 -0.00000000000E+00  0.00000000000E+00  0.27718274127E+03  0.27718274127E+03  0.00000000000E+00 0.  1.
          2   -1    0    0  501    0  0.00000000000E+00 -0.00000000000E+00 -0.48913793971E+02  0.48913793971E+02  0.00000000000E+00 0. -1.
          5    1    1    2  502    0  0.24367154841E+02 -0.25527605544E+02  0.16450990379E+01  0.35575210901E+02  0.41800000000E+01 0. -1.
         -5    1    1    2    0  502 -0.52153375525E+02  0.56739019639E+02  0.12737306981E+03  0.14893173685E+03  0.41800000000E+01 0. -1.
        -11    1    1    2    0    0 -0.32216983425E+02 -0.15079318183E+02  0.54246921885E+02  0.64869471956E+02  0.00000000000E+00 0.  1.
         11    1    1    2    0    0  0.60003204109E+02 -0.16132095912E+02  0.45003856569E+02  0.76720115537E+02  0.00000000000E+00 0. -1.
</event>
<event>
 6    1  0.9216756E-006  0.1550958E+03  0.7561462E-02  0.1194347E+00
          1   -1    0    0  501    0  0.00000000000E+00  0.00000000000E+00  0.12915254430E+03  0.12915254430E+03  0.00000000000E+00 0. -1.
         -1   -1    0    0    0  501 -0.00000000000E+00 -0.00000000000E+00 -0.20188139546E+03  0.20188139546E+03  0.00000000000E+00 0.  1.
          5    1    1    2  502    0  0.11225707629E+03 -0.27181538946E+02  0.70745121640E+01  0.11579295471E+03  0.41800000000E+01 0. -1.
         -5    1    1    2    0  502 -0.26243143513E+02 -0.44749351466E+02 -0.43834323853E+01  0.52229243892E+02  0.41800000000E+01 0. -1.
        -11    1    1    2    0    0 -0.71053358455E+02  0.20260292409E+01 -0.24277652679E+02  0.75113840015E+02  0.00000000000E+00 0. -1.
         11    1    1    2    0    0 -0.14960574325E+02  0.69904861171E+02 -0.51142278258E+02  0.87897901140E+02  0.00000000000E+00 0.  1.
</event>
<event>
 6    1  0.9216756E-006  0.1659508E+03  0.7561462E-02  0.1182138E+00
          1   -1    0    0  501    0  0.00000000000E+00  0.00000000000E+00  0.64876067036E+03  0.64876067036E+03  0.00000000000E+00 0. -1.
         -1   -1    0    0    0  501 -0.00000000000E+00 -0.00000000000E+00 -0.49333730109E+02  0.49333730109E+02  0.00000000000E+00 0.  1.
          5    1    1    2  502    0  0.55855786789E+02 -0.69738753148E+02  0.27607512596E+03  0.29020391139E+03  0.41800000000E+01 0. -1.
         -5    1    1    2    0  502  0.74817597862E+02  0.11865644065E+02  0.63756292750E+02  0.99099968336E+02  0.41800000000E+01 0. -1.
        -11    1    1    2    0    0 -0.10999919238E+03  0.80219402241E+02  0.20114762208E+03  0.24288956480E+03  0.00000000000E+00 0. -1.
         11    1    1    2    0    0 -0.20674192272E+02 -0.22346293158E+02  0.58447899456E+02  0.65900955948E+02  0.00000000000E+00 0.  1.
</event>
<event>
 6    1  0.9216756E-006  0.3771099E+03  0.7561462E-02  0.1052007E+00
          2   -1    0    0  501    0  0.00000000000E+00  0.00000000000E+00  0.41189480619E+03  0.41189480619E+03  0.00000000000E+00 0. -1.
         -2   -1    0    0    0  501 -0.00000000000E+00 -0.00000000000E+00 -0.45206614558E+03  0.45206614558E+03  0.00000000000E+00 0.  1.
          5    1    1    2  502    0  0.99127926996E+02  0.23115740715E+03 -0.67115512110E+02  0.26034987451E+03  0.41800000000E+01 0.  1.
         -5    1    1    2    0  502  0.29860017025E+02  0.12161225927E+03 -0.13490723207E+03  0.18411571331E+03  0.41800000000E+01 0.  1.
        -11    1    1    2    0    0 -0.36872356095E+02 -0.15316335017E+03  0.11413853474E+03  0.19454096636E+03  0.00000000000E+00 0.  1.
         11    1    1    2    0    0 -0.92115587926E+02 -0.19960631625E+03  0.47712870055E+02  0.22495439759E+03  0.00000000000E+00 0. -1.
</event>
<event>
 6    1  0.9216756E-006  0.1265567E+03  0.7561462E-02  0.1232656E+00
         -2   -1    0    0    0  501 -0.00000000000E+00  0.00000000000E+00  0.34127460382E+02  0.34127460382E+02  0.00000000000E+00 0.  1.
          2   -1    0    0  501    0  0.00000000000E+00 -0.00000000000E+00 -0.57901199117E+03  0.57901199117E+03  0.00000000000E+00 0. -1.
          5    1    1    2  502    0  0.15740157378E+02  0.80858610048E+02 -0.23993901082E+03  0.25372045382E+03  0.41800000000E+01 0.  1.
         -5    1    1    2    0  502  0.45657703414E+02 -0.16431038286E+02 -0.31137141030E+02  0.57806564088E+02  0.41800000000E+01 0.  1.
        -11    1    1    2    0    0 -0.83321040077E+01 -0.68219014837E+02 -0.19292729847E+03  0.20480283308E+03  0.00000000000E+00 0. -1.
         11    1    1    2    0    0 -0.53065756784E+02  0.37914430748E+01 -0.80881080468E+02  0.96809600564E+02  0.00000000000E+00 0.  1.
</event>
<event>
 6    1  0.9216756E-006  0.1082917E+03  0.7561462E-02  0.1263766E+00
          2   -1    0    0  501    0  0.00000000000E+00  0.00000000000E+00  0.39353926543E+02  0.39353926543E+02  0.00000000000E+00 0. -1.
         -2   -1    0    0    0  501 -0.00000000000E+00 -0.00000000000E+00 -0.34871229096E+03  0.34871229096E+03  0.00000000000E+00 0.  1.
          5    1    1    2  502    0 -0.40666701012E+02  0.28390663031E+02 -0.13031295867E+03  0.13949462326E+03  0.41800000000E+01 0. -1.
         -5    1    1    2    0  502  0.48486396024E+02 -0.57238627978E+02 -0.11247792636E+03  0.13526251310E+03  0.41800000000E+01 0. -1.
        -11    1    1    2    0    0 -0.76584389578E+01  0.60020556180E+02 -0.44848608936E+02  0.75316110992E+02  0.00000000000E+00 0. -1.
         11    1    1    2    0    0 -0.16125605425E+00 -0.31172591232E+02 -0.21718870445E+02  0.37992970153E+02  0.00000000000E+00 0.  1.
</event>
<event>
 6    1  0.9216756E-006  0.1210371E+03  0.7561462E-02  0.1241396E+00
         -3   -1    0    0    0  501 -0.00000000000E+00  0.00000000000E+00  0.59040467398E+02  0.59040467398E+02  0.00000000000E+00 0.  1.
          3   -1    0    0  501    0  0.00000000000E+00 -0.00000000000E+00 -0.33032741825E+03  0.33032741825E+03  0.00000000000E+00 0. -1.
          5    1    1    2  502    0  0.27763696851E+02  0.10934605025E+03 -0.10698613739E+03  0.15553420062E+03  0.41800000000E+01 0. -1.
         -5    1    1    2    0  502  0.18233116032E+02 -0.35019699615E+02 -0.36601904612E+02  0.53999978728E+02  0.41800000000E+01 0. -1.
        -11    1    1    2    0    0 -0.19275419099E+01 -0.17306022519E+02  0.13014933220E+02  0.21739418574E+02  0.00000000000E+00 0.  1.
         11    1    1    2    0    0 -0.44069270973E+02 -0.57020328115E+02 -0.14071384207E+03  0.15809428773E+03  0.00000000000E+00 0. -1.
</event>
<event>
 6    1  0.9216756E-006  0.1020223E+03  0.7561462E-02  0.1276100E+00
          2   -1    0    0  501    0  0.00000000000E+00  0.00000000000E+00  0.63185821933E+03  0.63185821933E+03  0.00000000000E+00 0.  1.
         -2   -1    0    0    0  501 -0.00000000000E+00 -0.00000000000E+00 -0.25985766557E+02  0.25985766557E+02  0.00000000000E+00 0. -1.
          5    1    1    2  502    0  0.60490342463E+02 -0.28986351495E+02  0.26307155461E+03  0.27152054315E+03  0.41800000000E+01 0.  1.
         -5    1    1    2    0  502  0.18764758087E+01  0.27346274044E+02  0.15719398108E+01  0.27771986971E+02  0.41800000000E+01 0.  1.
        -11    1    1    2    0    0 -0.75308460676E+02 -0.25118013538E+02  0.26828501507E+03  0.27978407418E+03  0.00000000000E+00 0. -1.
         11    1    1    2    0    0  0.12941642405E+02  0.26758090988E+02  0.72943943284E+02  0.78767381595E+02  0.00000000000E+00 0.  1.
</event>
<event>
 6    1  0.9216756E-006  0.1625210E+03  0.7561462E-02  0.1185880E+00
          2   -1    0    0  501    0  0.00000000000E+00  0.00000000000E+00  0.67419330715E+02  0.67419330715E+02  0.00000000000E+00 0. -1.
         -2   -1    0    0    0  501 -0.00000000000E+00 -0.00000000000E+00 -0.40274497394E+03  0.40274497394E+03  0.00000000000E+00 0.  1.
          5    1    1    2  502    0  0.11691785143E+03 -0.15784991551E+02 -0.12006613893E+03  0.16838141246E+03  0.41800000000E+01 0. -1.
         -5    1    1    2    0  502 -0.62478447747E+01 -0.51222623103E+02 -0.57931405796E+02  0.77693711839E+02  0.41800000000E+01 0.  1.
        -11    1    1    2    0    0 -0.21441005204E+02 -0.20912962264E+02 -0.53811372678E+02  0.61585164807E+02  0.00000000000E+00 0.  1.
         11    1    1    2    0    0 -0.89229001457E+02  0.87920576917E+02 -0.10351672582E+03  0.16250401555E+03  0.00000000000E+00 0. -1.
</event>
<event>
 6    1  0.9216756E-006  0.1097059E+03  0.7561462E-02  0.1261115E+00
         -2   -1    0    0    0  501 -0.00000000000E+00  0.00000000000E+00  0.16372035244E+02  0.16372035244E+02  0.00000000000E+00 0. -1.
          2   -1    0    0  501    0  0.00000000000E+00 -0.00000000000E+00 -0.79648726472E+03  0.79648726472E+03  0.00000000000E+00 0.  1.
          5    1    1    2  502    0 -0.30781414221E+02  0.68250824432E+02 -0.27378052453E+03  0.28386426071E+03  0.41800000000E+01 0.  1.
         -5    1    1    2    0  502  0.75437902187E+01 -0.48282644561E+02 -0.97918965763E+02  0.10951583809E+03  0.41800000000E+01 0.  1.
        -11    1    1    2    0    0 -0.21289037373E+02 -0.40951161576E+02 -0.18035997698E+03  0.18617180786E+03  0.00000000000E+00 0. -1.
         11    1    1    2    0    0  0.44526661375E+02  0.20982981705E+02 -0.22805576220E+03  0.23330739330E+03  0.00000000000E+00 0.  1.
</event>
<event>
 6    1  0.9216756E-006  0.2414323E+03  0.7561462E-02  0.1118842E+00
          2   -1    0    0  501    0  0.00000000000E+00  0.00000000000E+00  0.61915098571E+03  0.61915098571E+03  0.00000000000E+00 0. -1.
         -2   -1    0    0    0  501 -0.00000000000E+00 -0.00000000000E+00 -0.10014464041E+03  0.10014464041E+03  0.00000000000E+00 0.  1.
          5    1    1    2  502    0 -0.31422450218E+02  0.93002924064E+02  0.15719972790E+03  0.18538107000E+03  0.41800000000E+01 0. -1.
         -5    1    1    2    0  502  0.99916300217E+02  0.11266452574E+03  0.18510341044E+03  0.23865730110E+03  0.41800000000E+01 0. -1.
        -11    1    1    2    0    0 -0.89112455162E+02 -0.14844378859E+03  0.11070267498E+03  0.20550345565E+03  0.00000000000E+00 0.  1.
         11    1    1    2    0    0  0.20618605162E+02 -0.57223661218E+02  0.66000531974E+02  0.89753799379E+02  0.00000000000E+00 0. -1.
</event>
<event>
 6    1  0.9216756E-006  0.1338353E+03  0.7561462E-02  0.1221873E+00
         -1   -1    0    0    0  501 -0.00000000000E+00  0.00000000000E+00  0.43182351729E+02  0.43182351729E+02  0.00000000000E+00 0.  1.
          1   -1    0    0  501    0  0.00000000000E+00 -0.00000000000E+00 -0.55277721794E+03  0.55277721794E+03  0.00000000000E+00 0. -1.
          5    1    1    2  502    0 -0.24163130849E-01 -0.10320892283E+03 -0.11568392558E+03  0.15508812132E+03  0.41800000000E+01 0. -1.
         -5    1    1    2    0  502 -0.30466266046E+02  0.27943861282E+02 -0.18323350751E+02  0.45412226689E+02  0.41800000000E+01 0. -1.
        -11    1    1    2    0    0 -0.31012284972E+02  0.44003495565E+02 -0.18932187085E+03  0.19682692962E+03  0.00000000000E+00 0.  1.
         11    1    1    2    0    0  0.61502714149E+02  0.31261565988E+02 -0.18626571903E+03  0.19863229204E+03  0.00000000000E+00 0. -1.
</event>
<event>
 6    1  0.9216756E-006  0.1846547E+03  0.7561462E-02  0.1163373E+00
         -3   -1    0    0    0  501 -0.00000000000E+00  0.00000000000E+00  0.15387244701E+03  0.15387244701E+03  0.00000000000E+00 0.  1.
          3   -1    0    0  501    0  0.00000000000E+00 -0.00000000000E+00 -0.24683884343E+03  0.24683884343E+03  0.00000000000E+00 0. -1.
          5    1    1    2  502    0 -0.58927430151E+02 -0.20755363621E+02 -0.24894899722E+02  0.67382902694E+02  0.41800000000E+01 0.  1.
         -5    1    1    2    0  502 -0.67240497969E+02  0.11379915799E+03  0.16993567820E+02  0.13333336669E+03  0.41800000000E+01 0.  1.
        -11    1    1    2    0    0  0.95013669196E+02 -0.10451585373E+03 -0.88397004350E+02  0.16662890323E+03  0.00000000000E+00 0. -1.
         11    1    1    2    0    0  0.31154258923E+02  0.11472059355E+02  0.33319398344E+01  0.33366117814E+02  0.00000000000E+00 0.  1.
</event>
<event>
 6    1  0.9216756E-006  0.1486391E+03  0.7561462E-02  0.1202155E+00
         -2   -1    0    0    0  501 -0.00000000000E+00  0.00000000000E+00  0.52599306202E+02  0.52599306202E+02  0.00000000000E+00 0.  1.
          2   -1    0    0  501    0  0.00000000000E+00 -0.00000000000E+00 -0.72250722263E+03  0.72250722263E+03  0.00000000000E+00 0. -1.
          5    1    1    2  502    0  0.12581771550E+03 -0.56567013540E+02 -0.84916417829E+02  0.16204380572E+03  0.41800000000E+01 0. -1.
         -5    1    1    2    0  502  0.43951075669E+01  0.14033181053E+02 -0.95524913919E+02  0.96740522637E+02  0.41800000000E+01 0. -1.
        -11    1    1    2    0    0 -0.12818147000E+03  0.30481878439E+02 -0.48610780510E+03  0.50364713078E+03  0.00000000000E+00 0. -1.
         11    1    1    2    0    0 -0.20313530647E+01  0.12051954048E+02 -0.33587795887E+01  0.12675069703E+02  0.00000000000E+00 0.  1.
</event>
<event>
 6    1  0.9216756E-006  0.1014810E+03  0.7561462E-02  0.1277212E+00
          2   -1    0    0  501    0  0.00000000000E+00  0.00000000000E+00  0.28128394123E+03  0.28128394123E+03  0.00000000000E+00 0. -1.
         -2   -1    0    0    0  501 -0.00000000000E+00 -0.00000000000E+00 -0.43061725490E+02  0.43061725490E+02  0.00000000000E+00 0.  1.
          5    1    1    2  502    0 -0.43159307479E+02  0.32313498148E+01  0.10343750481E+03  0.11220497870E+03  0.41800000000E+01 0. -1.
         -5    1    1    2    0  502  0.67538825582E+02 -0.76426346665E+00  0.35767810204E+02  0.76543358343E+02  0.41800000000E+01 0. -1.
        -11    1    1    2    0    0  0.33634188116E+02 -0.32336517318E+01  0.27922595311E+02  0.43833622285E+02  0.00000000000E+00 0.  1.
         11    1    1    2    0    0 -0.58013706219E+02  0.76656538356E+00  0.71094305413E+02  0.91763707390E+02  0.00000000000E+00 0. -1.
</event>
<event>
 6    1  0.9216756E-006  0.2289007E+03  0.7561462E-02  0.1127416E+00
          2   -1    0    0  501    0  0.00000000000E+00  0.00000000000E+00  0.11998354150E+04  0.11998354150E+04  0.00000000000E+00 0. -1.
         -2   -1    0    0    0  501 -0.00000000000E+00 -0.00000000000E+00 -0.48171418203E+02  0.48171418203E+02  0.00000000000E+00 0.  1.
          5    1    1    2  502    0  0.44358504398E+02  0.68558147255E+02  0.18222564729E+03  0.19972870449E+03  0.41800000000E+01 0.  1.
         -5    1    1    2    0  502  0.15833392821E+03 -0.21540914007E+02  0.28221879270E+03  0.32434327980E+03  0.41800000000E+01 0.  1.
        -11    1    1    2    0    0 -0.13661133936E+03 -0.27257413121E+01  0.53510108386E+03  0.55227100020E+03  0.00000000000E+00 0.  1.
         11    1    1    2    0    0 -0.66081093256E+02 -0.44291491936E+02  0.15211847293E+03  0.17166384870E+03  0.00000000000E+00 0. -1.
</event>
<event>
 6    1  0.9216756E-006  0.1299347E+03  0.7561462E-02  0.1227553E+00
         -2   -1    0    0    0  501 -0.00000000000E+00  0.00000000000E+00  0.45013859056E+03  0.45013859056E+03  0.00000000000E+00 0.  1.
          2   -1    0    0  501    0  0.00000000000E+00 -0.00000000000E+00 -0.59748815270E+02  0.59748815270E+02  0.00000000000E+00 0. -1.
          5    1    1    2  502    0  0.19975550895E+02 -0.19921386358E+02  0.16631179113E+03  0.16873935088E+03  0.41800000000E+01 0. -1.
         -5    1    1    2    0  502  0.94758060632E+02  0.52068351767E+02  0.92050664799E+02  0.14205984866E+03  0.41800000000E+01 0. -1.
        -11    1    1    2    0    0 -0.43058573748E+02  0.33037236994E+01  0.10686315795E+03  0.11525922909E+03  0.00000000000E+00 0.  1.
         11    1    1    2    0    0 -0.71675037779E+02 -0.35450689109E+02  0.25164161415E+02  0.83828977202E+02  0.00000000000E+00 0. -1.
</event>
<event>
 6    1  0.9216756E-006  0.1680225E+03  0.7561462E-02  0.1179926E+00
          1   -1    0    0  501    0  0.00000000000E+00  0.00000000000E+00  0.21322527619E+03  0.21322527619E+03  0.00000000000E+00 0. -1.
         -1   -1    0    0    0  501 -0.00000000000E+00 -0.00000000000E+00 -0.26021966786E+03  0.26021966786E+03  0.00000000000E+00 0.  1.
          5    1    1    2  502    0 -0.44576244456E+02 -0.74707293047E+02 -0.25672111340E+02  0.90800610708E+02  0.41800000000E+01 0.  1.
         -5    1    1    2    0  502 -0.84080171068E+02 -0.24468748070E+00 -0.14633652766E+03  0.16882353736E+03  0.41800000000E+01 0.  1.
        -11    1    1    2    0    0  0.20279159486E+02  0.49422440570E+02  0.74200096503E+02  0.91430171510E+02  0.00000000000E+00 0. -1.
         11    1    1    2    0    0  0.10837725604E+03  0.25529539958E+02  0.50814150827E+02  0.12239062448E+03  0.00000000000E+00 0.  1.
</event>
<event>
 6    1  0.9216756E-006  0.9656316E+02  0.7561462E-02  0.1287694E+00
         -1   -1    0    0    0  501 -0.00000000000E+00  0.00000000000E+00  0.37511266790E+03  0.37511266790E+03  0.00000000000E+00 0.  1.
          1   -1    0    0  501    0  0.00000000000E+00 -0.00000000000E+00 -0.39775558771E+02  0.39775558771E+02  0.00000000000E+00 0. -1.
          5    1    1    2  502    0 -0.61548449317E+02  0.15619775447E+02  0.10790889449E+03  0.12527565968E+03  0.41800000000E+01 0.  1.
         -5    1    1    2    0  502  0.52950614543E+02 -0.23423433163E+02  0.17203805532E+03  0.18156814060E+03  0.41800000000E+01 0.  1.
        -11    1    1    2    0    0  0.26540664017E+02 -0.23439756875E+02  0.62014246891E+02  0.71411454727E+02  0.00000000000E+00 0.  1.
         11    1    1    2    0    0 -0.17942829243E+02  0.31243414591E+02 -0.66240875762E+01  0.36632971662E+02  0.00000000000E+00 0. -1.
</event>
<event>
 6    1  0.9216756E-006  0.1098590E+03  0.7561462E-02  0.1260831E+00
          2   -1    0    0  501    0  0.00000000000E+00  0.00000000000E+00  0.65852263056E+03  0.65852263056E+03  0.00000000000E+00 0. -1.
         -2   -1    0    0    0  501 -0.00000000000E+00 -0.00000000000E+00 -0.25498365753E+02  0.25498365753E+02  0.00000000000E+00 0.  1.
          5    1    1    2  502    0  0.94122679533E+01 -0.45467619446E+02  0.25246851773E+03  0.25673667453E+03  0.41800000000E+01 0.  1.
         -5    1    1    2    0  502  0.52789240092E+02  0.23543462631E+02  0.47647483626E+02  0.75025019814E+02  0.41800000000E+01 0.  1.
        -11    1    1    2    0    0 -0.90275839078E+01 -0.35649128421E+02  0.10659890882E+03  0.11276384611E+03  0.00000000000E+00 0.  1.
         11    1    1    2    0    0 -0.53173924137E+02  0.57573285236E+02  0.22630935463E+03  0.23949545585E+03  0.00000000000E+00 0. -1.
</event>
<event>
 6    1  0.9216756E-006  0.1043225E+03  0.7561462E-02  0.1271460E+00
         -1   -1    0    0    0  501 -0.00000000000E+00  0.00000000000E+00  0.92827264037E+02  0.92827264037E+02  0.00000000000E+00 0.  1.
          1   -1    0    0  501    0  0.00000000000E+00 -0.00000000000E+00 -0.16335672978E+03  0.16335672978E+03  0.00000000000E+00 0. -1.
          5    1    1    2  502    0 -0.65780736092E+02  0.35138077347E+02 -0.60126280983E+02  0.95887599747E+02  0.41800000000E+01 0. -1.
         -5    1    1    2    0  502  0.27051080014E+02  0.68090211578E+01  0.33892138365E+02  0.44093912755E+02  0.41800000000E+01 0. -1.
        -11    1    1    2    0    0  0.56493727700E+02  0.38478262636E+01 -0.33894345929E+02  0.65993740024E+02  0.00000000000E+00 0. -1.
         11    1    1    2    0    0 -0.17764071623E+02 -0.45794924768E+02 -0.10400977194E+02  0.50208741288E+02  0.00000000000E+00 0.  1.
</event>
<event>
 6    1  0.9216756E-006  0.1033673E+03  0.7561462E-02  0.1273370E+00
         -3   -1    0    0    0  501 -0.00000000000E+00  0.00000000000E+00  0.99589014352E+02  0.99589014352E+02  0.00000000000E+00 0.  1.
          3   -1    0    0  501    0  0.00000000000E+00 -0.00000000000E+00 -0.19588906274E+03  0.19588906274E+03  0.00000000000E+00 0. -1.
          5    1    1    2  502    0  0.75968738958E+02  0.77907269721E+00  0.29028167881E+02  0.81436866244E+02  0.41800000000E+01 0.  1.
         -5    1    1    2    0  502 -0.25189114436E+02  0.49323209511E+02 -0.28802157351E+02  0.62564424001E+02  0.41800000000E+01 0.  1.
        -11    1    1    2    0    0 -0.18677791968E+02 -0.34907292346E+02 -0.10729303095E+03  0.11436421408E+03  0.00000000000E+00 0. -1.
         11    1    1    2    0    0 -0.32101832555E+02 -0.15194989863E+02  0.10766972035E+02  0.37112572763E+02  0.00000000000E+00 0.  1.
</event>
<event>
 6    1  0.9216756E-006  0.1090343E+03  0.7561462E-02  0.1262369E+00
         -2   -1    0    0    0  501 -0.00000000000E+00  0.00000000000E+00  0.13917629582E+03  0.13917629582E+03  0.00000000000E+00 0.  1.
          2   -1    0    0  501    0  0.00000000000E+00 -0.00000000000E+00 -0.97234791708E+02  0.97234791708E+02  0.00000000000E+00 0. -1.
          5    1    1    2  502    0  0.23205916507E+02  0.37526747772E+02  0.10785392478E+01  0.44332911095E+02  0.41800000000E+01 0. -1.
         -5    1    1    2    0  502 -0.61267112367E+02 -0.60506679167E+02  0.36695143804E+02  0.93694841162E+02  0.41800000000E+01 0. -1.
        -11    1    1    2    0    0 -0.12991000922E+02 -0.17913148838E+02  0.21355257367E+02  0.30752138519E+02  0.00000000000E+00 0.  1.
         11    1    1    2    0    0  0.51052196781E+02  0.40893080234E+02 -0.17187436308E+02  0.67631196751E+02  0.00000000000E+00 0. -1.
</event>
<event>
 6    1  0.9216756E-006  0.8279037E+02  0.7561462E-02  0.1321314E+00
          1   -1    0    0  501    0  0.00000000000E+00  0.00000000000E+00  0.11733294151E+03  0.11733294151E+03  0.00000000000E+00 0. -1.
         -1   -1    0    0    0  501 -0.00000000000E+00 -0.00000000000E+00 -0.14382222046E+03  0.14382222046E+03  0.00000000000E+00 0.  1.
          5    1    1    2  502    0 -0.24398936693E+02 -0.60591357769E+02 -0.59279044585E+02  0.88306841609E+02  0.41800000000E+01 0. -1.
         -5    1    1    2    0  502  0.24736318887E+02  0.51944484458E+02 -0.25600930706E+02  0.63110973615E+02  0.41800000000E+01 0. -1.
        -11    1    1    2    0    0  0.12204008334E+02 -0.12744747766E+02 -0.20495869413E+02  0.27045278294E+02  0.00000000000E+00 0.  1.
         11    1    1    2    0    0 -0.12541390527E+02  0.21391621076E+02  0.78886565751E+02  0.82692068451E+02  0.00000000000E+00 0. -1.
</event>
<event>
 6    1  0.9216756E-006  0.1155478E+03  0.7561462E-02  0.1250628E+00
          2   -1    0    0  501    0  0.00000000000E+00  0.00000000000E+00  0.46315378962E+03  0.46315378962E+03  0.00000000000E+00 0.  1.
         -2   -1    0    0    0  501 -0.00000000000E+00 -0.00000000000E+00 -0.34542140491E+02  0.34542140491E+02  0.00000000000E+00 0. -1.
          5    1    1    2  502    0 -0.12453682961E+02  0.40659034825E+02  0.64710703693E+02  0.77544818683E+02  0.41800000000E+01 0.  1.
         -5    1    1    2    0  502  0.60894913855E+02 -0.72663681091E+02  0.12100057267E+03  0.15377519979E+03  0.41800000000E+01 0.  1.
        -11    1    1    2    0    0 -0.25212286764E+02 -0.22769859767E+02  0.16441674195E+03  0.16788981789E+03  0.00000000000E+00 0.  1.
         11    1    1    2    0    0 -0.23228944129E+02  0.54774506033E+02  0.78483630819E+02  0.98486093754E+02  0.00000000000E+00 0. -1.
</event>
<event>
 6    1  0.9216756E-006  0.7097062E+02  0.7561462E-02  0.1356823E+00
          2   -1    0    0  501    0  0.00000000000E+00  0.00000000000E+00  0.71607701148E+02  0.71607701148E+02  0.00000000000E+00 0. -1.
         -2   -1    0    0    0  501 -0.00000000000E+00 -0.00000000000E+00 -0.19712139350E+03  0.19712139350E+03  0.00000000000E+00 0.  1.
          5    1    1    2  502    0 -0.39083947057E+02  0.29997318204E+02 -0.10889381771E+03  0.11959402139E+03  0.41800000000E+01 0. -1.
         -5    1    1    2    0  502 -0.75048245973E+01 -0.14963479186E+02  0.31150370383E+02  0.35609634603E+02  0.41800000000E+01 0. -1.
        -11    1    1    2    0    0 -0.80200340430E+01 -0.18864603975E+02 -0.54634808421E+02  0.58353718994E+02  0.00000000000E+00 0.  1.
         11    1    1    2    0    0  0.54608805697E+02  0.38307649574E+01  0.68645633945E+01  0.55171719662E+02  0.00000000000E+00 0. -1.
</event>
<event>
 6    1  0.9216756E-006  0.1583828E+03  0.7561462E-02  0.1190535E+00
          2   -1    0    0  501    0  0.00000000000E+00  0.00000000000E+00  0.42960782948E+03  0.42960782948E+03  0.00000000000E+00 0.  1.
         -2   -1    0    0    0  501 -0.00000000000E+00 -0.00000000000E+00 -0.83735179964E+02  0.83735179964E+02  0.00000000000E+00 0. -1.
          5    1    1    2  502    0  0.25758251435E+02  0.74557362301E+02 -0.13166277191E+02  0.80081902109E+02  0.41800000000E+01 0. -1.
         -5    1    1    2    0  502  0.49232578085E+02  0.49482805376E+02  0.12075381188E+03  0.13953978019E+03  0.41800000000E+01 0. -1.
        -11    1    1    2    0    0  0.86481870726E+01 -0.64746785453E+02  0.63583241286E+02  0.91157917586E+02  0.00000000000E+00 0. -1.
         11    1    1    2    0    0 -0.83639016593E+02 -0.59293382224E+02  0.17470187353E+03  0.20256340955E+03  0.00000000000E+00 0.  1.
</event>
<event>
 6    1  0.9216756E-006  0.9440066E+02  0.7561462E-02  0.1292532E+00
         -2   -1    0    0    0  501 -0.00000000000E+00  0.00000000000E+00  0.39913914639E+02  0.39913914639E+02  0.00000000000E+00 0.  1.
          2   -1    0    0  501    0  0.00000000000E+00 -0.00000000000E+00 -0.39486461853E+03  0.39486461853E+03  0.00000000000E+00 0. -1.
          5    1    1    2  502    0  0.88368301908E+01  0.37560805519E+02 -0.63485335733E+00  0.38817252837E+02  0.41800000000E+01 0.  1.
         -5    1    1    2    0  502 -0.55636545267E+02 -0.42298189813E+02 -0.13229520252E+03  0.14967984180E+03  0.41800000000E+01 0.  1.
        -11    1    1    2    0    0 -0.21607703002E+01  0.26362664683E+02 -0.11117343640E+02  0.28692409224E+02  0.00000000000E+00 0.  1.
         11    1    1    2    0    0  0.48960485376E+02 -0.21625280389E+02 -0.21090330438E+03  0.21758902931E+03  0.00000000000E+00 0. -1.
</event>
<event>
 6    1  0.9216756E-006  0.9873299E+02  0.7561462E-02  0.1282983E+00
         -1   -1    0    0    0  501 -0.00000000000E+00  0.00000000000E+00  0.20941806561E+02  0.20941806561E+02  0.00000000000E+00 0.  1.
          1   -1    0    0  501    0  0.00000000000E+00 -0.00000000000E+00 -0.63359429089E+03  0.63359429089E+03  0.00000000000E+00 0. -1.
          5    1    1    2  502    0  0.31025715271E+02  0.40662910922E+01 -0.24656045403E+03  0.24857324800E+03  0.41800000000E+01 0. -1.
         -5    1    1    2    0  502 -0.61457907449E+02 -0.29064010976E+02 -0.91760005304E+02  0.11427669095E+03  0.41800000000E+01 0. -1.
        -11    1    1    2    0    0  0.60382583437E+02  0.26950400682E+01 -0.19182254871E+03  0.20111988917E+03  0.00000000000E+00 0.  1.
         11    1    1    2    0    0 -0.29950391259E+02  0.22302679816E+02 -0.82509476284E+02  0.90566269329E+02  0.00000000000E+00 0. -1.
</event>
<event>
 6    1  0.9216756E-006  0.5890168E+02  0.7561462E-02  0.1402500E+00
         -2   -1    0    0    0  501 -0.00000000000E+00  0.00000000000E+00  0.15932871879E+02  0.15932871879E+02  0.00000000000E+00 0.  1.
          2   -1    0    0  501    0  0.00000000000E+00 -0.00000000000E+00 -0.51366372731E+03  0.51366372731E+03  0.00000000000E+00 0. -1.
          5    1    1    2  502    0  0.76186583957E+01 -0.33027104836E+02 -0.29650054057E+03  0.29846084596E+03  0.41800000000E+01 0. -1.
         -5    1    1    2    0  502 -0.35922863713E+02 -0.12838524884E+01 -0.18985393002E+02  0.40865853252E+02  0.41800000000E+01 0.  1.
        -11    1    1    2    0    0  0.27615965106E+02  0.22468348255E+02 -0.16800761995E+03  0.17173825597E+03  0.00000000000E+00 0. -1.
         11    1    1    2    0    0  0.68824021085E+00  0.11842609070E+02 -0.14237301909E+02  0.18531644012E+02  0.00000000000E+00 0.  1.
</event>
<event>
 6    1  0.9216756E-006  0.8449678E+02  0.7561462E-02  0.1316754E+00
          2   -1    0    0  501    0  0.00000000000E+00  0.00000000000E+00  0.77505745474E+02  0.77505745474E+02  0.00000000000E+00 0. -1.
         -2   -1    0    0    0  501 -0.00000000000E+00 -0.00000000000E+00 -0.18798405855E+03  0.18798405855E+03  0.00000000000E+00 0.  1.
          5    1    1    2  502    0  0.47377323506E+01 -0.82028766931E+02 -0.66466919991E+02  0.10576619765E+03  0.41800000000E+01 0. -1.
         -5    1    1    2    0  502 -0.12523192158E+02  0.33023640492E+02  0.14612735649E+02  0.38449910485E+02  0.41800000000E+01 0. -1.
        -11    1    1    2    0    0  0.73385760421E+01  0.11454901053E+02  0.25637191604E+02  0.29023008972E+02  0.00000000000E+00 0. -1.
         11    1    1    2    0    0  0.44688376491E+00  0.37550225385E+02 -0.84261320338E+02  0.92250686917E+02  0.00000000000E+00 0.  1.
</event>
<event>
 6    1  0.9216756E-006  0.6185349E+02  0.7561462E-02  0.1390214E+00
         -4   -1    0    0    0  501 -0.00000000000E+00  0.00000000000E+00  0.53136106906E+03  0.53136106906E+03  0.00000000000E+00 0.  1.
          4   -1    0    0  501    0  0.00000000000E+00 -0.00000000000E+00 -0.26486561307E+02  0.26486561307E+02  0.00000000000E+00 0. -1.
          5    1    1    2  502    0 -0.22624205574E+02 -0.11564196900E+02  0.38466765592E+03  0.38552855049E+03  0.41800000000E+01 0. -1.
         -5    1    1    2    0  502  0.22668456850E+02  0.43516880866E+00  0.46190104780E+01  0.23512889352E+02  0.41800000000E+01 0. -1.
        -11    1    1    2    0    0  0.21390981659E+02  0.36119392228E+02  0.10676407639E+03  0.11472032339E+03  0.00000000000E+00 0.  1.
         11    1    1    2    0    0 -0.21435232935E+02 -0.24990364137E+02  0.88237649654E+01  0.34085867142E+02  0.00000000000E+00 0. -1.
</event>
<event>
 6    1  0.9216756E-006  0.1238734E+03  0.7561462E-02  0.1236841E+00
         -3   -1    0    0    0  501 -0.00000000000E+00  0.00000000000E+00  0.52751186526E+03  0.52751186526E+03  0.00000000000E+00 0.  1.
          3   -1    0    0  501    0  0.00000000000E+00 -0.00000000000E+00 -0.31915594348E+02  0.31915594348E+02  0.00000000000E+00 0. -1.
          5    1    1    2  502    0  0.76558337535E+02  0.42942245653E+01  0.22164430976E+03  0.23457044115E+03  0.41800000000E+01 0.  1.
         -5    1    1    2    0  502 -0.31827043245E+02  0.60709480733E+02  0.13320158191E+03  0.14986238873E+03  0.41800000000E+01 0.  1.
        -11    1    1    2    0    0 -0.61811290540E+02 -0.49047102577E+02  0.94013102894E+02  0.12273841055E+03  0.00000000000E+00 0.  1.
         11    1    1    2    0    0  0.17079996250E+02 -0.15956602721E+02  0.46737276345E+02  0.52256219176E+02  0.00000000000E+00 0. -1.
</event>
<event>
 6    1  0.9216756E-006  0.9448082E+02  0.7561462E-02  0.1292350E+00
         -1   -1    0    0    0  501 -0.00000000000E+00  0.00000000000E+00  0.65746134443E+03  0.65746134443E+03  0.00000000000E+00 0.  1.
          1   -1    0    0  501    0  0.00000000000E+00 -0.00000000000E+00 -0.25185968300E+02  0.25185968300E+02  0.00000000000E+00 0. -1.
          5    1    1    2  502    0  0.30067599702E+02 -0.47742281720E+01  0.37608852805E+02  0.48566984834E+02  0.41800000000E+01 0. -1.
         -5    1    1    2    0  502 -0.74532338420E+02 -0.22374382570E+02  0.43672724753E+03  0.44362579231E+03  0.41800000000E+01 0.  1.
        -11    1    1    2    0    0 -0.18305515978E+01  0.33519719889E+02  0.13362257840E+03  0.13777487434E+03  0.00000000000E+00 0.  1.
         11    1    1    2    0    0  0.46295290316E+02 -0.63711091468E+01  0.24316697394E+02  0.52679661249E+02  0.00000000000E+00 0. -1.
</event>
<event>
 6    1  0.9216756E-006  0.9165661E+02  0.7561462E-02  0.1298889E+00
          1   -1    0    0  501    0  0.00000000000E+00  0.00000000000E+00  0.29921572058E+03  0.29921572058E+03  0.00000000000E+00 0. -1.
         -1   -1    0    0    0  501 -0.00000000000E+00 -0.00000000000E+00 -0.42149416403E+02  0.42149416403E+02  0.00000000000E+00 0.  1.
          5    1    1    2  502    0 -0.37515426200E+02 -0.22762896987E+02  0.10845318302E+03  0.11706887712E+03  0.41800000000E+01 0. -1.
         -5    1    1    2    0  502  0.53727434810E+02  0.13994838797E+02  0.61966120949E+01  0.56021095720E+02  0.41800000000E+01 0.  1.
        -11    1    1    2    0    0  0.62344586835E+01 -0.34368215232E+02  0.30969062564E+02  0.46681104629E+02  0.00000000000E+00 0. -1.
         11    1    1    2    0    0 -0.22446467294E+02  0.43136273422E+02  0.11144744650E+03  0.12159405952E+03  0.00000000000E+00 0.  1.
</event>
<event>
 6    1  0.9216756E-006  0.1052487E+03  0.7561462E-02  0.1269630E+00
         -1   -1    0    0    0  501 -0.00000000000E+00  0.00000000000E+00  0.12155346768E+03  0.12155346768E+03  0.00000000000E+00 0.  1.
          1   -1    0    0  501    0  0.00000000000E+00 -0.00000000000E+00 -0.36567749545E+03  0.36567749545E+03  0.00000000000E+00 0. -1.
          5    1    1    2  502    0 -0.16718007906E+01  0.32410089674E+02 -0.14525673930E+02  0.35800508847E+02  0.41800000000E+01 0. -1.
         -5    1    1    2    0  502 -0.41868053485E+02 -0.62463894955E+02  0.88522559723E+02  0.11622559122E+03  0.41800000000E+01 0.  1.
        -11    1    1    2    0    0 -0.20472245417E+02 -0.13959829246E+02 -0.46456126345E+02  0.52651318501E+02  0.00000000000E+00 0.  1.
         11    1    1    2    0    0  0.64012099692E+02  0.44013634528E+02 -0.27166478721E+03  0.28255354456E+03  0.00000000000E+00 0. -1.
</event>
<event>
 6    1  0.9216756E-006  0.8682944E+02  0.7561462E-02  0.1310717E+00
          1   -1    0    0  501    0  0.00000000000E+00  0.00000000000E+00  0.27555986695E+03  0.27555986695E+03  0.00000000000E+00 0. -1.
         -1   -1    0    0    0  501 -0.00000000000E+00 -0.00000000000E+00 -0.54942634941E+02  0.54942634941E+02  0.00000000000E+00 0.  1.
          5    1    1    2  502    0 -0.32605785327E+02  0.70547156436E+00  0.75066403480E+02  0.81951645855E+02  0.41800000000E+01 0.  1.
         -5    1    1    2    0  502  0.49700782076E+02 -0.51049822704E+01 -0.22404245981E+02  0.54914945333E+02  0.41800000000E+01 0.  1.
        -11    1    1    2    0    0  0.29028496085E+02 -0.22962864330E+02  0.37983874415E+02  0.53035096293E+02  0.00000000000E+00 0.  1.
         11    1    1    2    0    0 -0.46123492834E+02  0.27362375036E+02  0.12997120010E+03  0.14060081441E+03  0.00000000000E+00 0. -1.
</event>
<event>
 6    1  0.9216756E-006  0.9839932E+02  0.7561462E-02  0.1283698E+00
          1   -1    0    0  501    0  0.00000000000E+00  0.00000000000E+00  0.81882710749E+02  0.81882710749E+02  0.00000000000E+00 0. -1.
         -1   -1    0    0    0  501 -0.00000000000E+00 -0.00000000000E+00 -0.16698540199E+03  0.16698540199E+03  0.00000000000E+00 0.  1.
          5    1    1    2  502    0  0.36675240055E+02 -0.68644900881E+01  0.13755490072E+02  0.39986002106E+02  0.41800000000E+01 0. -1.
         -5    1    1    2    0  502 -0.74070485173E+02  0.28201972107E+02 -0.62419094642E+02  0.10097229214E+03  0.41800000000E+01 0. -1.
        -11    1    1    2    0    0  0.47043506057E+02  0.91346203911E+01 -0.53379559038E+02  0.71734998954E+02  0.00000000000E+00 0. -1.
         11    1    1    2    0    0 -0.96482609395E+01 -0.30472102410E+02  0.16940472368E+02  0.36174819537E+02  0.00000000000E+00 0.  1.
</event>
<event>
 6    1  0.9216756E-006  0.1678391E+03  0.7561462E-02  0.1180120E+00
         -1   -1    0    0    0  501 -0.00000000000E+00  0.00000000000E+00  0.58799262392E+02  0.58799262392E+02  0.00000000000E+00 0.  1.
          1   -1    0    0  501    0  0.00000000000E+00 -0.00000000000E+00 -0.57784473619E+03  0.57784473619E+03  0.00000000000E+00 0. -1.
          5    1    1    2  502    0  0.73556089941E+02 -0.42902017699E+02 -0.15872083721E+03  0.18016897084E+03  0.41800000000E+01 0.  1.
         -5    1    1    2    0  502 -0.21204288268E+02 -0.94623172347E+02 -0.72773335461E+02  0.12131198350E+03  0.41800000000E+01 0.  1.
        -11    1    1    2    0    0 -0.59879697325E+02  0.11572394045E+03 -0.16391458730E+03  0.20939341077E+03  0.00000000000E+00 0.  1.
         11    1    1    2    0    0  0.75278956518E+01  0.21801249592E+02 -0.12363671383E+03  0.12576963347E+03  0.00000000000E+00 0. -1.
</event>
<event>
 6    1  0.9216756E-006  0.1625729E+03  0.7561462E-02  0.1185822E+00
         -1   -1    0    0    0  501 -0.00000000000E+00  0.00000000000E+00  0.47697544263E+02  0.47697544263E+02  0.00000000000E+00 0.  1.
          1   -1    0    0  501    0  0.00000000000E+00 -0.00000000000E+00 -0.73940035538E+03  0.73940035538E+03  0.00000000000E+00 0. -1.
          5    1    1    2  502    0  0.18206635071E+02 -0.81340257852E+01  0.47327777091E+01  0.20916871681E+02  0.41800000000E+01 0. -1.
         -5    1    1    2    0  502  0.93808216656E+02  0.10779974082E+03 -0.31111853974E+03  0.34239302534E+03  0.41800000000E+01 0. -1.
        -11    1    1    2    0    0 -0.24111583654E+02 -0.61350114484E+02 -0.79413051669E+02  0.10320677201E+03  0.00000000000E+00 0.  1.
         11    1    1    2    0    0 -0.87903268073E+02 -0.38315600550E+02 -0.30590399741E+03  0.32058123061E+03  0.00000000000E+00 0. -1.
</event>
<event>
 6    1  0.9216756E-006  0.1651375E+03  0.7561462E-02  0.1183016E+00
          2   -1    0    0  501    0  0.00000000000E+00  0.00000000000E+00  0.62080018418E+03  0.62080018418E+03  0.00000000000E+00 0. -1.
         -2   -1    0    0    0  501 -0.00000000000E+00 -0.00000000000E+00 -0.67328190792E+02  0.67328190792E+02  0.00000000000E+00 0.  1.
          5    1    1    2  502    0  0.98739262213E+02  0.11699279939E+03  0.70605352813E+02  0.16863969063E+03  0.41800000000E+01 0.  1.
         -5    1    1    2    0  502 -0.16805697024E+02  0.45852672734E+01  0.63943871816E+02  0.66405927983E+02  0.41800000000E+01 0.  1.
        -11    1    1    2    0    0 -0.23694507771E+02  0.77391337551E+00  0.17672363572E+02  0.29569258947E+02  0.00000000000E+00 0.  1.
         11    1    1    2    0    0 -0.58239057418E+02 -0.12235198003E+03  0.40125040519E+03  0.42351349741E+03  0.00000000000E+00 0. -1.
</event>
<event>
 6    1  0.9216756E-006  0.1759024E+03  0.7561462E-02  0.1171829E+00
         -2   -1    0    0    0  501 -0.00000000000E+00  0.00000000000E+00  0.25157576347E+03  0.25157576347E+03  0.00000000000E+00 0. -1.
          2   -1    0    0  501    0  0.00000000000E+00 -0.00000000000E+00 -0.25458906050E+03  0.25458906050E+03  0.00000000000E+00 0.  1.
          5    1    1    2  502    0 -0.62571280438E+02 -0.21161921026E+02  0.64760706871E+02  0.92598129525E+02  0.41800000000E+01 0.  1.
         -5    1    1    2    0  502  0.33525881166E+02 -0.11961870072E+03  0.11194207785E+03  0.16727557940E+03  0.41800000000E+01 0.  1.
        -11    1    1    2    0    0 -0.19780609883E+02  0.84630766800E+02 -0.60996841052E+02  0.10618028930E+03  0.00000000000E+00 0.  1.
         11    1    1    2    0    0  0.48826009155E+02  0.56149854945E+02 -0.11871924070E+03  0.14011082575E+03  0.00000000000E+00 0. -1.
</event>
<event>
 6    1  0.9216756E-006  0.1234624E+03  0.7561462E-02  0.1237492E+00
          2   -1    0    0  501    0  0.00000000000E+00  0.00000000000E+00  0.33895570672E+02  0.33895570672E+02  0.00000000000E+00 0. -1.
         -2   -1    0    0    0  501 -0.00000000000E+00 -0.00000000000E+00 -0.55125480494E+03  0.55125480494E+03  0.00000000000E+00 0.  1.
          5    1    1    2  502    0  0.38998248560E+02 -0.74584216706E+01 -0.57586248087E+02  0.70072389807E+02  0.41800000000E+01 0.  1.
         -5    1    1    2    0  502 -0.84891436115E+02 -0.49622039446E+02 -0.30193621686E+03  0.31757180948E+03  0.41800000000E+01 0.  1.
        -11    1    1    2    0    0 -0.22495444260E+02  0.61790477881E+01 -0.75357360954E+02  0.78885724273E+02  0.00000000000E+00 0.  1.
         11    1    1    2    0    0  0.68388631816E+02  0.50901413329E+02 -0.82479408362E+02  0.11862045205E+03  0.00000000000E+00 0. -1.
</event>
<event>
 6    1  0.9216756E-006  0.1455647E+03  0.7561462E-02  0.1206031E+00
          1   -1    0    0  501    0  0.00000000000E+00  0.00000000000E+00  0.32378333651E+03  0.32378333651E+03  0.00000000000E+00 0. -1.
         -1   -1    0    0    0  501 -0.00000000000E+00 -0.00000000000E+00 -0.76281894376E+02  0.76281894376E+02  0.00000000000E+00 0.  1.
          5    1    1    2  502    0 -0.86679364453E+02 -0.18054996314E+02  0.40493053049E+02  0.97449755562E+02  0.41800000000E+01 0. -1.
         -5    1    1    2    0  502  0.22733045489E+02 -0.72604882012E+02  0.65809674625E+02  0.10068091142E+03  0.41800000000E+01 0. -1.
        -11    1    1    2    0    0  0.18902240093E+02  0.76911422518E+02  0.13201785728E+03  0.15395251292E+03  0.00000000000E+00 0. -1.
         11    1    1    2    0    0  0.45044078871E+02  0.13748455808E+02  0.91808571819E+01  0.47982050988E+02  0.00000000000E+00 0.  1.
</event>
<event>
 6    1  0.9216756E-006  0.1558629E+03  0.7561462E-02  0.1193448E+00
         -1   -1    0    0    0  501 -0.00000000000E+00  0.00000000000E+00  0.19927506485E+03  0.19927506485E+03  0.00000000000E+00 0.  1.
          1   -1    0    0  501    0  0.00000000000E+00 -0.00000000000E+00 -0.15930909364E+03  0.15930909364E+03  0.00000000000E+00 0. -1.
          5    1    1    2  502    0  0.22895491427E+02  0.76672826704E+02  0.57486098814E+02  0.98615667312E+02  0.41800000000E+01 0.  1.
         -5    1    1    2    0  502  0.76504319144E+02 -0.35073733138E+02  0.42130640419E+02  0.94210088982E+02  0.41800000000E+01 0.  1.
        -11    1    1    2    0    0 -0.10667232191E+03 -0.16056814446E+01 -0.19174456832E+02  0.10839382948E+03  0.00000000000E+00 0.  1.
         11    1    1    2    0    0  0.72725113430E+01 -0.39993412122E+02 -0.40476311193E+02  0.57364572710E+02  0.00000000000E+00 0. -1.
</event>
<event>
 6    1  0.9216756E-006  0.2462503E+03  0.7561462E-02  0.1115698E+00
         -1   -1    0    0    0  501 -0.00000000000E+00  0.00000000000E+00  0.10447994909E+04  0.10447994909E+04  0.00000000000E+00 0.  1.
          1   -1    0    0  501    0  0.00000000000E+00 -0.00000000000E+00 -0.70334964632E+02  0.70334964632E+02  0.00000000000E+00 0. -1.
          5    1    1    2  502    0  0.10471104776E+03 -0.98239096210E+02  0.27298795302E+03  0.30847239494E+03  0.41800000000E+01 0. -1.
         -5    1    1    2    0  502  0.10999397751E+03  0.57377645428E+01  0.39866885196E+03  0.41362534129E+03  0.41800000000E+01 0. -1.
        -11    1    1    2    0    0 -0.18424360170E+02  0.25036762774E+02  0.92397309949E+02  0.97486201196E+02  0.00000000000E+00 0.  1.
         11    1    1    2    0    0 -0.19628066510E+03  0.67464568893E+02  0.21041041130E+03  0.29555051807E+03  0.00000000000E+00 0. -1.
</event>
<event>
 6    1  0.9216756E-006  0.9882324E+02  0.7561462E-02  0.1282790E+00
         -1   -1    0    0    0  501 -0.00000000000E+00  0.00000000000E+00  0.49054489185E+02  0.49054489185E+02  0.00000000000E+00 0.  1.
          1   -1    0    0  501    0  0.00000000000E+00 -0.00000000000E+00 -0.25154643320E+03  0.25154643320E+03  0.00000000000E+00 0. -1.
          5    1    1    2  502    0 -0.74350977950E+01  0.58012243765E+02 -0.93494641617E+02  0.11036041644E+03  0.41800000000E+01 0. -1.
         -5    1    1    2    0  502  0.11978613408E+02 -0.44104024089E+02  0.97874764537E+00  0.45902967954E+02  0.41800000000E+01 0. -1.
        -11    1    1    2    0    0  0.16935620188E+01 -0.53254014793E+02 -0.56582613032E+02  0.77720334157E+02  0.00000000000E+00 0.  1.
         11    1    1    2    0    0 -0.62370776322E+01  0.39345795118E+02 -0.53393437016E+02  0.66617203838E+02  0.00000000000E+00 0. -1.
</event>
<event>
 6    1  0.9216756E-006  0.1157832E+03  0.7561462E-02  0.1250220E+00
          1   -1    0    0  501    0  0.00000000000E+00  0.00000000000E+00  0.32116376031E+03  0.32116376031E+03  0.00000000000E+00 0. -1.
         -1   -1    0    0    0  501 -0.00000000000E+00 -0.00000000000E+00 -0.10376029871E+03  0.10376029871E+03  0.00000000000E+00 0.  1.
          5    1    1    2  502    0 -0.20636838387E+02  0.47758531512E+02 -0.53703324076E+02  0.74888422654E+02  0.41800000000E+01 0. -1.
         -5    1    1    2    0  502  0.50023528553E+02  0.53602812389E+02  0.49911010544E+02  0.88792996787E+02  0.41800000000E+01 0. -1.
        -11    1    1    2    0    0 -0.88937985706E+01 -0.47099942027E+02  0.18883555968E+03  0.19482395333E+03  0.00000000000E+00 0. -1.
         11    1    1    2    0    0 -0.20492891595E+02 -0.54261401874E+02  0.32360215452E+02  0.66418686251E+02  0.00000000000E+00 0.  1.
</event>
<event>
 6    1  0.9216756E-006  0.1006053E+03  0.7561462E-02  0.1279028E+00
          1   -1    0    0  501    0  0.00000000000E+00  0.00000000000E+00  0.64443053554E+02  0.64443053554E+02  0.00000000000E+00 0. -1.
         -1   -1    0    0    0  501 -0.00000000000E+00 -0.00000000000E+00 -0.39997943802E+03  0.39997943802E+03  0.00000000000E+00 0.  1.
          5    1    1    2  502    0 -0.41438903552E+02  0.29526644527E+02 -0.11230307801E+03  0.12336311927E+03  0.41800000000E+01 0. -1.
         -5    1    1    2    0  502  0.65166329980E+02 -0.36560091157E+02 -0.23364195092E+03  0.24533512683E+03  0.41800000000E+01 0. -1.
        -11    1    1    2    0    0 -0.13583448674E+02 -0.32119181663E+02 -0.24237091363E+02  0.42468676767E+02  0.00000000000E+00 0.  1.
         11    1    1    2    0    0 -0.10143977754E+02  0.39152628294E+02  0.34645735829E+02  0.53255568705E+02  0.00000000000E+00 0. -1.
</event>
<event>
 6    1  0.9216756E-006  0.8286721E+02  0.7561462E-02  0.1321106E+00
          1   -1    0    0  501    0  0.00000000000E+00  0.00000000000E+00  0.41795981251E+02  0.41795981251E+02  0.00000000000E+00 0. -1.
         -1   -1    0    0    0  501 -0.00000000000E+00 -0.00000000000E+00 -0.32915402266E+03  0.32915402266E+03  0.00000000000E+00 0.  1.
          5    1    1    2  502    0  0.39197775718E+02  0.34688279538E+02 -0.10241845677E+03  0.11509454829E+03  0.41800000000E+01 0.  1.
         -5    1    1    2    0  502 -0.73055960983E+02 -0.19543752112E+02 -0.93893381212E+02  0.12063403797E+03  0.41800000000E+01 0.  1.
        -11    1    1    2    0    0  0.10829910659E+02 -0.76812818148E+01  0.18645791316E+02  0.22890054369E+02  0.00000000000E+00 0. -1.
         11    1    1    2    0    0  0.23028274605E+02 -0.74632456110E+01 -0.10969199474E+03  0.11233136328E+03  0.00000000000E+00 0.  1.
</event>
<event>
 6    1  0.9216756E-006  0.1801681E+03  0.7561462E-02  0.1167640E+00
         -1   -1    0    0    0  501 -0.00000000000E+00  0.00000000000E+00  0.76668771807E+02  0.76668771807E+02  0.00000000000E+00 0.  1.
          1   -1    0    0  501    0  0.00000000000E+00 -0.00000000000E+00 -0.54350686873E+03  0.54350686873E+03  0.00000000000E+00 0. -1.
          5    1    1    2  502    0  0.70263182110E+01  0.34800845624E+02 -0.17557221141E+02  0.39827081464E+02  0.41800000000E+01 0. -1.
         -5    1    1    2    0  502  0.19740160055E+02 -0.16543650852E+03 -0.96104507142E+02  0.19238622862E+03  0.41800000000E+01 0.  1.
        -11    1    1    2    0    0  0.28714191447E+02  0.70409626763E+02 -0.20527221660E+03  0.21890341075E+03  0.00000000000E+00 0. -1.
         11    1    1    2    0    0 -0.55480669713E+02  0.60226036131E+02 -0.14790415204E+03  0.16905891971E+03  0.00000000000E+00 0.  1.
</event>
<event>
 6    1  0.9216756E-006  0.1054722E+03  0.7561462E-02  0.1269192E+00
         -3   -1    0    0    0  501 -0.00000000000E+00  0.00000000000E+00  0.21157623649E+03  0.21157623649E+03  0.00000000000E+00 0.  1.
          3   -1    0    0  501    0  0.00000000000E+00 -0.00000000000E+00 -0.63389576401E+02  0.63389576401E+02  0.00000000000E+00 0. -1.
          5    1    1    2  502    0  0.80685429183E+02 -0.24244554160E+02  0.35196063696E+02  0.91401160762E+02  0.41800000000E+01 0. -1.
         -5    1    1    2    0  502 -0.42002134903E+02  0.14122358545E+02  0.40461987963E+02  0.60152017565E+02  0.41800000000E+01 0. -1.
        -11    1    1    2    0    0 -0.59537060388E+02  0.16126564028E+01  0.79952202470E+02  0.99697627354E+02  0.00000000000E+00 0.  1.
         11    1    1    2    0    0  0.20853766107E+02  0.85095392123E+01 -0.74235940391E+01  0.23715007209E+02  0.00000000000E+00 0. -1.
</event>
<event>
 6    1  0.9216756E-006  0.1275247E+03  0.7561462E-02  0.1231176E+00
         -1   -1    0    0    0  501 -0.00000000000E+00  0.00000000000E+00  0.11094823313E+03  0.11094823313E+03  0.00000000000E+00 0.  1.
          1   -1    0    0  501    0  0.00000000000E+00 -0.00000000000E+00 -0.15761244841E+03  0.15761244841E+03  0.00000000000E+00 0. -1.
          5    1    1    2  502    0 -0.29733857119E+02 -0.30855896450E+02  0.35114275893E+01  0.43197119449E+02  0.41800000000E+01 0. -1.
         -5    1    1    2    0  502  0.15946819019E+02  0.98383698417E+02  0.23927884267E+01  0.99784021704E+02  0.41800000000E+01 0.  1.
        -11    1    1    2    0    0  0.30494217990E+02  0.10647209798E+02 -0.25594717182E+02  0.41211041663E+02  0.00000000000E+00 0.  1.
         11    1    1    2    0    0 -0.16707179889E+02 -0.78175011765E+02 -0.26973714114E+02  0.84368498727E+02  0.00000000000E+00 0. -1.
</event>
<event>
 6    1  0.9216756E-006  0.1230377E+03  0.7561462E-02  0.1238168E+00
         -2   -1    0    0    0  501 -0.00000000000E+00  0.00000000000E+00  0.38607317540E+02  0.38607317540E+02  0.00000000000E+00 0.  1.
          2   -1    0    0  501    0  0.00000000000E+00 -0.00000000000E+00 -0.53644293740E+03  0.53644293740E+03  0.00000000000E+00 0. -1.
          5    1    1    2  502    0 -0.14420587651E+02  0.32879879240E+02 -0.19018486752E+03  0.19358924567E+03  0.41800000000E+01 0.  1.
         -5    1    1    2    0  502  0.88819779729E+02  0.24903736135E+02 -0.10046241974E+03  0.13645262740E+03  0.41800000000E+01 0.  1.
        -11    1    1    2    0    0 -0.31217530875E+02  0.13687920385E+02 -0.18763917389E+02  0.38909870139E+02  0.00000000000E+00 0.  1.
         11    1    1    2    0    0 -0.43181661202E+02 -0.71471535760E+02 -0.18842441521E+03  0.20609851173E+03  0.00000000000E+00 0. -1.
</event>
<event>
 6    1  0.9216756E-006  0.1806250E+03  0.7561462E-02  0.1167200E+00
         -1   -1    0    0    0  501 -0.00000000000E+00  0.00000000000E+00  0.38814779107E+02  0.38814779107E+02  0.00000000000E+00 0.  1.
          1   -1    0    0  501    0  0.00000000000E+00 -0.00000000000E+00 -0.10955223862E+04  0.10955223862E+04  0.00000000000E+00 0. -1.
          5    1    1    2  502    0 -0.34685094714E+02 -0.28323156892E+02 -0.28098754193E+02  0.53030834416E+02  0.41800000000E+01 0. -1.
         -5    1    1    2    0  502 -0.13190907486E+03  0.49049785876E+02 -0.38818935495E+03  0.41293381216E+03  0.41800000000E+01 0. -1.
        -11    1    1    2    0    0  0.83790194143E+02  0.15304043316E+02 -0.17941828906E+03  0.19861000183E+03  0.00000000000E+00 0. -1.
         11    1    1    2    0    0  0.82803975433E+02 -0.36030672300E+02 -0.46100120886E+03  0.46976251688E+03  0.00000000000E+00 0.  1.
</event>
<event>
 6    1  0.9216756E-006  0.1304169E+03  0.7561462E-02  0.1226838E+00
         -2   -1    0    0    0  501 -0.00000000000E+00  0.00000000000E+00  0.87177357667E+02  0.87177357667E+02  0.00000000000E+00 0.  1.
          2   -1    0    0  501    0  0.00000000000E+00 -0.00000000000E+00 -0.37864935410E+03  0.37864935410E+03  0.00000000000E+00 0. -1.
          5    1    1    2  502    0 -0.33141967830E+02 -0.61828281013E+02  0.30645578442E+02  0.76666487090E+02  0.41800000000E+01 0. -1.
         -5    1    1    2    0  502 -0.61682740787E+02  0.29513962929E+02 -0.49888095604E+02  0.84747442449E+02  0.41800000000E+01 0. -1.
        -11    1    1    2    0    0  0.88014093450E+02 -0.10280475458E+01 -0.12237064993E+03  0.15073856007E+03  0.00000000000E+00 0.  1.
         11    1    1    2    0    0  0.68106151671E+01  0.33342365630E+02 -0.14985882935E+03  0.15367422217E+03  0.00000000000E+00 0. -1.
</event>
<event>
 6    1  0.9216756E-006  0.1479229E+03  0.7561462E-02  0.1203049E+00
         -1   -1    0    0    0  501 -0.00000000000E+00  0.00000000000E+00  0.70041465591E+03  0.70041465591E+03  0.00000000000E+00 0.  1.
          1   -1    0    0  501    0  0.00000000000E+00 -0.00000000000E+00 -0.39141824585E+02  0.39141824585E+02  0.00000000000E+00 0. -1.
          5    1    1    2  502    0 -0.12764518879E+03  0.47470503983E+02  0.21085581618E+03  0.25104659047E+03  0.41800000000E+01 0. -1.
         -5    1    1    2    0  502  0.22938998958E+02  0.20346022823E+02  0.12111103715E+03  0.12500205613E+03  0.41800000000E+01 0. -1.
        -11    1    1    2    0    0  0.66450088615E+02 -0.60155090306E+02  0.11564998017E+03  0.14631871746E+03  0.00000000000E+00 0. -1.
         11    1    1    2    0    0  0.38256101213E+02 -0.76614364999E+01  0.21365599783E+03  0.21718911643E+03  0.00000000000E+00 0.  1.
</event>
<event>
 6    1  0.9216756E-006  0.1383976E+03  0.7561462E-02  0.1215502E+00
         -2   -1    0    0    0  501 -0.00000000000E+00  0.00000000000E+00  0.25017055012E+03  0.25017055012E+03  0.00000000000E+00 0.  1.
          2   -1    0    0  501    0  0.00000000000E+00 -0.00000000000E+00 -0.10589363607E+03  0.10589363607E+03  0.00000000000E+00 0. -1.
          5    1    1    2  502    0  0.22067490761E+02  0.89246047256E+01 -0.15225987808E+01  0.24215974584E+02  0.41800000000E+01 0.  1.
         -5    1    1    2    0  502 -0.11605561702E+03 -0.71367551112E+02  0.12157895363E+03  0.18265034344E+03  0.41800000000E+01 0.  1.
        -11    1    1    2    0    0  0.27524649026E+01  0.11500569726E+02  0.41617747276E+02  0.43265182947E+02  0.00000000000E+00 0.  1.
         11    1    1    2    0    0  0.91235661361E+02  0.50942376660E+02 -0.17397188078E+02  0.10593268521E+03  0.00000000000E+00 0. -1.
</event>
<event>
 6    1  0.9216756E-006  0.1177275E+03  0.7561462E-02  0.1246894E+00
          1   -1    0    0  501    0  0.00000000000E+00  0.00000000000E+00  0.43990279892E+02  0.43990279892E+02  0.00000000000E+00 0. -1.
         -1   -1    0    0    0  501 -0.00000000000E+00 -0.00000000000E+00 -0.56508099865E+03  0.56508099865E+03  0.00000000000E+00 0.  1.
          5    1    1    2  502    0 -0.77920213973E+02  0.48095074757E+02 -0.41109315367E+03  0.42118849623E+03  0.41800000000E+01 0. -1.
         -5    1    1    2    0  502 -0.70940345060E+01 -0.14101032820E+02  0.18453177413E+01  0.16432956208E+02  0.41800000000E+01 0. -1.
        -11    1    1    2    0    0  0.81845193554E+02  0.10801678717E+02 -0.55845736092E+02  0.99669745714E+02  0.00000000000E+00 0. -1.
         11    1    1    2    0    0  0.31690549256E+01 -0.44795720654E+02 -0.55997146727E+02  0.71780080382E+02  0.00000000000E+00 0.  1.
</event>
<event>
 6    1  0.9216756E-006  0.8280315E+02  0.7561462E-02  0.1321280E+00
         -1   -1    0    0    0  501 -0.00000000000E+00  0.00000000000E+00  0.37287891634E+02  0.37287891634E+02  0.00000000000E+00 0.  1.
          1   -1    0    0  501    0  0.00000000000E+00 -0.00000000000E+00 -0.35125347870E+03  0.35125347870E+03  0.00000000000E+00 0. -1.
          5    1    1    2  502    0 -0.25513374912E+01 -0.45053448123E+02 -0.30073421205E+02  0.54389388430E+02  0.41800000000E+01 0.  1.
         -5    1    1    2    0  502  0.26722803045E+02  0.71846825906E+02 -0.14159671403E+03  0.16106885614E+03  0.41800000000E+01 0.  1.
        -11    1    1    2    0    0  0.13061517805E+01 -0.15659476822E+02  0.97655016235E+01  0.18501088313E+02  0.00000000000E+00 0.  1.
         11    1    1    2    0    0 -0.25477617334E+02 -0.11133900961E+02 -0.15206095345E+03  0.15458203745E+03  0.00000000000E+00 0. -1.
</event>
<event>
 6    1  0.9216756E-006  0.8425075E+02  0.7561462E-02  0.1317404E+00
          1   -1    0    0  501    0  0.00000000000E+00  0.00000000000E+00  0.33026235418E+03  0.33026235418E+03  0.00000000000E+00 0. -1.
         -1   -1    0    0    0  501 -0.00000000000E+00 -0.00000000000E+00 -0.97964756069E+02  0.97964756069E+02  0.00000000000E+00 0.  1.
          5    1    1    2  502    0 -0.21658535851E+01 -0.29573107129E+02  0.38418116447E+02  0.48710200763E+02  0.41800000000E+01 0. -1.
         -5    1    1    2    0  502 -0.32055094866E+02  0.22444840599E+02 -0.77504896596E+02  0.86923997681E+02  0.41800000000E+01 0. -1.
        -11    1    1    2    0    0  0.54097367933E+02 -0.26422355790E+02  0.99136147102E+02  0.11598552395E+03  0.00000000000E+00 0.  1.
         11    1    1    2    0    0 -0.19876419482E+02  0.33550622320E+02  0.17224823116E+03  0.17660738786E+03  0.00000000000E+00 0. -1.
</event>
<event>
 6    1  0.9216756E-006  0.1073491E+03  0.7561462E-02  0.1265559E+00
         -1   -1    0    0    0  501 -0.00000000000E+00  0.00000000000E+00  0.27180241255E+02  0.27180241255E+02  0.00000000000E+00 0.  1.
          1   -1    0    0  501    0  0.00000000000E+00 -0.00000000000E+00 -0.48304078466E+03  0.48304078466E+03  0.00000000000E+00 0. -1.
          5    1    1    2  502    0 -0.67447630957E+01  0.40931157440E+02 -0.32776877360E+02  0.53034399856E+02  0.41800000000E+01 0.  1.
         -5    1    1    2    0  502  0.12281311734E+01 -0.78931807191E+02 -0.18257495787E+03  0.19895433178E+03  0.41800000000E+01 0.  1.
        -11    1    1    2    0    0 -0.34156261127E+02  0.41935595038E+02 -0.13366686100E+03  0.14419457006E+03  0.00000000000E+00 0.  1.
         11    1    1    2    0    0  0.39672893050E+02 -0.39349452871E+01 -0.10684184717E+03  0.11403772422E+03  0.00000000000E+00 0. -1.
</event>
<event>
 6    1  0.9216756E-006  0.1061376E+03  0.7561462E-02  0.1267894E+00
          2   -1    0    0  501    0  0.00000000000E+00  0.00000000000E+00  0.11896161459E+03  0.11896161459E+03  0.00000000000E+00 0. -1.
         -2   -1    0    0    0  501 -0.00000000000E+00 -0.00000000000E+00 -0.13537028932E+03  0.13537028932E+03  0.00000000000E+00 0.  1.
          5    1    1    2  502    0  0.25397208755E+01 -0.34992874772E+02 -0.36266473861E+02  0.50632805504E+02  0.41800000000E+01 0. -1.
         -5    1    1    2    0  502  0.29202087401E+02  0.88314147852E+02  0.20589396769E+01  0.93133572100E+02  0.41800000000E+01 0. -1.
        -11    1    1    2    0    0 -0.37036610968E+01 -0.55579129288E+02 -0.23615564274E+02  0.60501666042E+02  0.00000000000E+00 0.  1.
         11    1    1    2    0    0 -0.28038147180E+02  0.22578562071E+01  0.41414423732E+02  0.50063860268E+02  0.00000000000E+00 0. -1.
</event>
<event>
 6    1  0.9216756E-006  0.1041142E+03  0.7561462E-02  0.1271875E+00
         -1   -1    0    0    0  501 -0.00000000000E+00  0.00000000000E+00  0.33760930096E+03  0.33760930096E+03  0.00000000000E+00 0.  1.
          1   -1    0    0  501    0  0.00000000000E+00 -0.00000000000E+00 -0.54644283942E+02  0.54644283942E+02  0.00000000000E+00 0. -1.
          5    1    1    2  502    0  0.73957971200E+02  0.14391163226E+02  0.22761297354E+03  0.23979579897E+03  0.41800000000E+01 0.  1.
         -5    1    1    2    0  502 -0.21566550911E+02  0.20308868294E+02  0.31159050979E+01  0.30079021164E+02  0.41800000000E+01 0.  1.
        -11    1    1    2    0    0 -0.46010092273E+02  0.18264514436E+02  0.47854038497E+02  0.68851507456E+02  0.00000000000E+00 0.  1.
         11    1    1    2    0    0 -0.63813280151E+01 -0.52964545955E+02  0.43820998847E+01  0.53527257308E+02  0.00000000000E+00 0. -1.
</event>
<event>
 6    1  0.9216756E-006  0.1045503E+03  0.7561462E-02  0.1271008E+00
          1   -1    0    0  501    0  0.00000000000E+00  0.00000000000E+00  0.19481008186E+03  0.19481008186E+03  0.00000000000E+00 0. -1.
         -1   -1    0    0    0  501 -0.00000000000E+00 -0.00000000000E+00 -0.88536779312E+02  0.88536779312E+02  0.00000000000E+00 0.  1.
          5    1    1    2  502    0 -0.55983931889E+02 -0.25264397826E+02  0.53278414911E+02  0.81415921800E+02  0.41800000000E+01 0. -1.
         -5    1    1    2    0  502  0.46451232308E+02 -0.44826249692E+02 -0.16835092858E+02  0.66843117790E+02  0.41800000000E+01 0. -1.
        -11    1    1    2    0    0 -0.16184355479E+02  0.40678621292E+02  0.83016254714E+02  0.93852981514E+02  0.00000000000E+00 0. -1.
         11    1    1    2    0    0  0.25717055060E+02  0.29412026226E+02 -0.13186274218E+02  0.41234840068E+02  0.00000000000E+00 0.  1.
</event>
<event>
 6    1  0.9216756E-006  0.1184212E+03  0.7561462E-02  0.1245724E+00
          2   -1    0    0  501    0  0.00000000000E+00  0.00000000000E+00  0.85790269738E+02  0.85790269738E+02  0.00000000000E+00 0. -1.
         -2   -1    0    0    0  501 -0.00000000000E+00 -0.00000000000E+00 -0.26757154819E+03  0.26757154819E+03  0.00000000000E+00 0.  1.
          5    1    1    2  502    0  0.91009691755E+02 -0.80165149299E+01 -0.18225370376E+02  0.93255911504E+02  0.41800000000E+01 0. -1.
         -5    1    1    2    0  502  0.15274463184E+01  0.23390669436E+02 -0.11551296651E+03  0.11794140215E+03  0.41800000000E+01 0.  1.
        -11    1    1    2    0    0 -0.87449730859E+02 -0.40189822845E+02 -0.10415748898E+02  0.96804778357E+02  0.00000000000E+00 0.  1.
         11    1    1    2    0    0 -0.50874072142E+01  0.24815668339E+02 -0.37627192666E+02  0.45359725916E+02  0.00000000000E+00 0. -1.
</event>
<event>
 6    1  0.9216756E-006  0.1781364E+03  0.7561462E-02  0.1169619E+00
          1   -1    0    0  501    0  0.00000000000E+00  0.00000000000E+00  0.13843575142E+03  0.13843575142E+03  0.00000000000E+00 0. -1.
         -1   -1    0    0    0  501 -0.00000000000E+00 -0.00000000000E+00 -0.25989180565E+03  0.25989180565E+03  0.00000000000E+00 0.  1.
          5    1    1    2  502    0  0.43733101556E+02  0.20150649126E+02 -0.30822461804E+02  0.57324771116E+02  0.41800000000E+01 0. -1.
         -5    1    1    2    0  502  0.62247868830E+02 -0.13326406966E+03 -0.22334744229E+02  0.14883018053E+03  0.41800000000E+01 0. -1.
        -11    1    1    2    0    0 -0.59245020145E+02  0.92197857416E+02 -0.84589834022E+02  0.13844080809E+03  0.00000000000E+00 0.  1.
         11    1    1    2    0    0 -0.46735950240E+02  0.20915563119E+02  0.16290985823E+02  0.53731797332E+02  0.00000000000E+00 0. -1.
</event>
<event>
 6    1  0.9216756E-006  0.9057014E+02  0.7561462E-02  0.1301477E+00
         -3   -1    0    0    0  501 -0.00000000000E+00  0.00000000000E+00  0.41653650763E+03  0.41653650763E+03  0.00000000000E+00 0.  1.
          3   -1    0    0  501    0  0.00000000000E+00 -0.00000000000E+00 -0.31274495078E+02  0.31274495078E+02  0.00000000000E+00 0. -1.
          5    1    1    2  502    0 -0.50679441336E+02  0.42823085267E+01  0.42484348284E+02  0.66401326715E+02  0.41800000000E+01 0. -1.
         -5    1    1    2    0  502  0.38691514772E+02  0.93322201359E+01  0.23675619228E+03  0.24011474472E+03  0.41800000000E+01 0. -1.
        -11    1    1    2    0    0 -0.15873304745E+02 -0.45238406651E+02  0.74794169441E+02  0.88840548300E+02  0.00000000000E+00 0.  1.
         11    1    1    2    0    0  0.27861231308E+02  0.31623877988E+02  0.31227302551E+02  0.52454382979E+02  0.00000000000E+00 0. -1.
</event>
<event>
 6    1  0.9216756E-006  0.8127227E+02  0.7561462E-02  0.1325479E+00
          2   -1    0    0  501    0  0.00000000000E+00  0.00000000000E+00  0.55401695368E+03  0.55401695368E+03  0.00000000000E+00 0. -1.
         -2   -1    0    0    0  501 -0.00000000000E+00 -0.00000000000E+00 -0.27474351698E+02  0.27474351698E+02  0.00000000000E+00 0.  1.
          5    1    1    2  502    0  0.34961303950E+02 -0.38122322194E+02  0.21563040389E+03  0.22178716759E+03  0.41800000000E+01 0.  1.
         -5    1    1    2    0  502 -0.11807267697E+02 -0.48948743873E+01 -0.14678163377E+02  0.19907090341E+02  0.41800000000E+01 0.  1.
        -11    1    1    2    0    0  0.29964214499E+02  0.18913294371E+01  0.10411899536E+03  0.10836141597E+03  0.00000000000E+00 0.  1.
         11    1    1    2    0    0 -0.53118250752E+02  0.41125867144E+02  0.22147136611E+03  0.23143563148E+03  0.00000000000E+00 0. -1.
</event>
<event>
 6    1  0.9216756E-006  0.3111976E+03  0.7561462E-02  0.1079773E+00
          2   -1    0    0  501    0  0.00000000000E+00  0.00000000000E+00  0.50282186327E+03  0.50282186327E+03  0.00000000000E+00 0. -1.
         -2   -1    0    0    0  501 -0.00000000000E+00 -0.00000000000E+00 -0.21096300131E+03  0.21096300131E+03  0.00000000000E+00 0.  1.
          5    1    1    2  502    0 -0.39503528287E+02 -0.25636029971E+02  0.63807069976E+02  0.79413785697E+02  0.41800000000E+01 0.  1.
         -5    1    1    2    0  502 -0.93221005266E+02 -0.25007885050E+03  0.59944990351E+02  0.27356984768E+03  0.41800000000E+01 0.  1.
        -11    1    1    2    0    0  0.70949816779E+02  0.18773181463E+03  0.62736755878E+02  0.21026890228E+03  0.00000000000E+00 0.  1.
         11    1    1    2    0    0  0.61774716774E+02  0.87983065840E+02  0.10537004575E+03  0.15053232892E+03  0.00000000000E+00 0. -1.
</event>
<event>
 6    1  0.9216756E-006  0.7920713E+02  0.7561462E-02  0.1331317E+00
          4   -1    0    0  501    0  0.00000000000E+00  0.00000000000E+00  0.12155537883E+03  0.12155537883E+03  0.00000000000E+00 0. -1.
         -4   -1    0    0    0  501 -0.00000000000E+00 -0.00000000000E+00 -0.13597850980E+03  0.13597850980E+03  0.00000000000E+00 0.  1.
          5    1    1    2  502    0 -0.12197959635E+02  0.70923698470E+01  0.41335867564E+02  0.43877309359E+02  0.41800000000E+01 0.  1.
         -5    1    1    2    0  502  0.45410518549E+02  0.45277305985E+02 -0.76867275669E+02  0.10019081845E+03  0.41800000000E+01 0.  1.
        -11    1    1    2    0    0 -0.46221198418E+02 -0.36366799299E+02 -0.24267868205E+02  0.63622894477E+02  0.00000000000E+00 0.  1.
         11    1    1    2    0    0  0.13008639504E+02 -0.16002876533E+02  0.45376145341E+02  0.49842866341E+02  0.00000000000E+00 0. -1.
</event>
<event>
 6    1  0.9216756E-006  0.1439327E+03  0.7561462E-02  0.1208133E+00
         -2   -1    0    0    0  501 -0.00000000000E+00  0.00000000000E+00  0.29408989149E+02  0.29408989149E+02  0.00000000000E+00 0.  1.
          2   -1    0    0  501    0  0.00000000000E+00 -0.00000000000E+00 -0.74638088801E+03  0.74638088801E+03  0.00000000000E+00 0. -1.
          5    1    1    2  502    0  0.15710282637E+02 -0.11428796314E+03 -0.25129399700E+03  0.27654058803E+03  0.41800000000E+01 0.  1.
         -5    1    1    2    0  502 -0.39652717105E+02  0.18453950913E+02 -0.99099988256E+02  0.10840279678E+03  0.41800000000E+01 0.  1.
        -11    1    1    2    0    0 -0.27484869299E+02  0.59446164570E+02 -0.12413642178E+03  0.14035353838E+03  0.00000000000E+00 0.  1.
         11    1    1    2    0    0  0.51427303767E+02  0.36387847658E+02 -0.24244149183E+03  0.25049295398E+03  0.00000000000E+00 0. -1.
</event>
<event>
 6    1  0.9216756E-006  0.1120399E+03  0.7561462E-02  0.1256838E+00
          2   -1    0    0  501    0  0.00000000000E+00  0.00000000000E+00  0.24910469743E+02  0.24910469743E+02  0.00000000000E+00 0.  1.
         -2   -1    0    0    0  501 -0.00000000000E+00 -0.00000000000E+00 -0.59942358898E+03  0.59942358898E+03  0.00000000000E+00 0. -1.
          5    1    1    2  502    0  0.54155386947E+02  0.23255553361E+02 -0.14398037645E+03  0.15563241276E+03  0.41800000000E+01 0. -1.
         -5    1    1    2    0  502 -0.30085759978E+02 -0.69865555626E+02 -0.21786805013E+03  0.23080361454E+03  0.41800000000E+01 0. -1.
        -11    1    1    2    0    0 -0.49789812232E+02  0.28692079943E+02 -0.19184746397E+03  0.20026909468E+03  0.00000000000E+00 0.  1.
         11    1    1    2    0    0  0.25720185263E+02  0.17917922321E+02 -0.20817228681E+02  0.37628936741E+02  0.00000000000E+00 0. -1.
</event>
<event>
 6    1  0.9216756E-006  0.1001438E+03  0.7561462E-02  0.1279994E+00
          1   -1    0    0  501    0  0.00000000000E+00  0.00000000000E+00  0.13113996493E+03  0.13113996493E+03  0.00000000000E+00 0. -1.
         -1   -1    0    0    0  501 -0.00000000000E+00 -0.00000000000E+00 -0.10567145716E+03  0.10567145716E+03  0.00000000000E+00 0.  1.
          5    1    1    2  502    0 -0.13418995689E+02  0.32362931222E+02  0.38749002738E+01  0.35495295670E+02  0.41800000000E+01 0. -1.
         -5    1    1    2    0  502  0.35858556174E+02 -0.71170313613E+02 -0.43010329572E+02  0.90655449039E+02  0.41800000000E+01 0.  1.
        -11    1    1    2    0    0 -0.44877752458E+02  0.43251497223E+02  0.29979191842E+02  0.69162537701E+02  0.00000000000E+00 0. -1.
         11    1    1    2    0    0  0.22438191973E+02 -0.44441148318E+01  0.34624745218E+02  0.41498139682E+02  0.00000000000E+00 0.  1.
</event>
<event>
 6    1  0.9216756E-006  0.2199611E+03  0.7561462E-02  0.1133912E+00
         -1   -1    0    0    0  501 -0.00000000000E+00  0.00000000000E+00  0.51315343597E+02  0.51315343597E+02  0.00000000000E+00 0.  1.
          1   -1    0    0  501    0  0.00000000000E+00 -0.00000000000E+00 -0.11183844120E+04  0.11183844120E+04  0.00000000000E+00 0. -1.
          5    1    1    2  502    0  0.30817946806E+02 -0.49289108868E+01 -0.93453032564E+01  0.32845807965E+02  0.41800000000E+01 0.  1.
         -5    1    1    2    0  502  0.10636289821E+03 -0.15338477019E+03 -0.45209972165E+03  0.48913350382E+03  0.41800000000E+01 0.  1.
        -11    1    1    2    0    0 -0.21517495611E+02  0.78015020072E+02 -0.14498795692E+03  0.16604473381E+03  0.00000000000E+00 0.  1.
         11    1    1    2    0    0 -0.11566334941E+03  0.80298661001E+02 -0.46063608661E+03  0.48167571004E+03  0.00000000000E+00 0. -1.
</event>
<event>
 6    1  0.9216756E-006  0.1058161E+03  0.7561462E-02  0.1268520E+00
          1   -1    0    0  501    0  0.00000000000E+00  0.00000000000E+00  0.51360417806E+02  0.51360417806E+02  0.00000000000E+00 0. -1.
         -1   -1    0    0    0  501 -0.00000000000E+00 -0.00000000000E+00 -0.30614181661E+03  0.30614181661E+03  0.00000000000E+00 0.  1.
          5    1    1    2  502    0  0.16752732426E+02 -0.65781693568E+02 -0.63243766498E+02  0.92871586900E+02  0.41800000000E+01 0.  1.
         -5    1    1    2    0  502  0.11426027745E+02  0.45403973083E+02 -0.14600183261E+03  0.15338214500E+03  0.41800000000E+01 0.  1.
        -11    1    1    2    0    0 -0.43270132494E+02 -0.24183127962E+02 -0.40351171947E+02  0.63916704558E+02  0.00000000000E+00 0. -1.
         11    1    1    2    0    0  0.15091372323E+02  0.44560848447E+02 -0.51846277563E+01  0.47331797957E+02  0.00000000000E+00 0.  1.
</event>
<event>
 6    1  0.9216756E-006  0.1091353E+03  0.7561462E-02  0.1262180E+00
          2   -1    0    0  501    0  0.00000000000E+00  0.00000000000E+00  0.49566571557E+03  0.49566571557E+03  0.00000000000E+00 0.  1.
         -2   -1    0    0    0  501 -0.00000000000E+00 -0.00000000000E+00 -0.37825242197E+02  0.37825242197E+02  0.00000000000E+00 0. -1.
          5    1    1    2  502    0  0.27502770799E+02  0.51238655321E+02  0.15414635392E+02  0.60306596530E+02  0.41800000000E+01 0.  1.
         -5    1    1    2    0  502  0.28623704293E+02 -0.50264617300E+02  0.11561004561E+03  0.12934064808E+03  0.41800000000E+01 0.  1.
        -11    1    1    2    0    0  0.11752173102E+02 -0.26865974721E+02  0.53189464526E+02  0.60737248101E+02  0.00000000000E+00 0. -1.
         11    1    1    2    0    0 -0.67878648194E+02  0.25891936700E+02  0.27362632785E+03  0.28310646506E+03  0.00000000000E+00 0.  1.
</event>
<event>
 6    1  0.9216756E-006  0.1367432E+03  0.7561462E-02  0.1217780E+00
         -1   -1    0    0    0  501 -0.00000000000E+00  0.00000000000E+00  0.32357052907E+03  0.32357052907E+03  0.00000000000E+00 0.  1.
          1   -1    0    0  501    0  0.00000000000E+00 -0.00000000000E+00 -0.67664194828E+02  0.67664194828E+02  0.00000000000E+00 0. -1.
          5    1    1    2  502    0  0.40439659493E+02 -0.35543054490E+02  0.11550423828E+03  0.12750441656E+03  0.41800000000E+01 0. -1.
         -5    1    1    2    0  502 -0.71408137351E+02 -0.55503361061E+02  0.60609644149E+02  0.10895295559E+03  0.41800000000E+01 0. -1.
        -11    1    1    2    0    0  0.36550099213E+02  0.10645682155E+03  0.55559816822E+02  0.12552234006E+03  0.00000000000E+00 0.  1.
         11    1    1    2    0    0 -0.55816213557E+01 -0.15410406002E+02  0.24232634998E+02  0.29255011691E+02  0.00000000000E+00 0. -1.
</event>
<event>
 6    1  0.9216756E-006  0.2158652E+03  0.7561462E-02  0.1137004E+00
         -2   -1    0    0    0  501 -0.00000000000E+00  0.00000000000E+00  0.16346001697E+03  0.16346001697E+03  0.00000000000E+00 0.  1.
          2   -1    0    0  501    0  0.00000000000E+00 -0.00000000000E+00 -0.43445951903E+03  0.43445951903E+03  0.00000000000E+00 0. -1.
          5    1    1    2  502    0 -0.93298015837E+02 -0.20261993787E+02 -0.16563856976E+03  0.19122938148E+03  0.41800000000E+01 0. -1.
         -5    1    1    2    0  502 -0.48845876832E+02 -0.11487637174E+03  0.56066443572E+02  0.13690660671E+03  0.41800000000E+01 0.  1.
        -11    1    1    2    0    0  0.14880671555E+03  0.10943824115E+03 -0.11898662682E+03  0.21972251724E+03  0.00000000000E+00 0.  1.
         11    1    1    2    0    0 -0.66628228778E+01  0.25700124378E+02 -0.42440749046E+02  0.50061030566E+02  0.00000000000E+00 0. -1.
</event>
<event>
 6    1  0.9216756E-006  0.9091229E+02  0.7561462E-02  0.1300657E+00
          1   -1    0    0  501    0  0.00000000000E+00  0.00000000000E+00  0.46844983220E+02  0.46844983220E+02  0.00000000000E+00 0. -1.
         -1   -1    0    0    0  501 -0.00000000000E+00 -0.00000000000E+00 -0.29029775434E+03  0.29029775434E+03  0.00000000000E+00 0.  1.
          5    1    1    2  502    0  0.39101447117E+02  0.86312272450E+01  0.81702616464E+00  0.40268612866E+02  0.41800000000E+01 0. -1.
         -5    1    1    2    0  502 -0.16277669430E+02 -0.42924709567E+02 -0.15908527219E+03  0.16562937373E+03  0.41800000000E+01 0. -1.
        -11    1    1    2    0    0  0.16846828447E+02 -0.21308444979E+02 -0.43321403697E+02  0.51133252140E+02  0.00000000000E+00 0.  1.
         11    1    1    2    0    0 -0.39670606134E+02  0.55601927302E+02 -0.41863121391E+02  0.80111498821E+02  0.00000000000E+00 0. -1.
</event>
<event>
 6    1  0.9216756E-006  0.1256448E+03  0.7561462E-02  0.1234065E+00
         -1   -1    0    0    0  501 -0.00000000000E+00  0.00000000000E+00  0.86444889145E+02  0.86444889145E+02  0.00000000000E+00 0.  1.
          1   -1    0    0  501    0  0.00000000000E+00 -0.00000000000E+00 -0.27133895343E+03  0.27133895343E+03  0.00000000000E+00 0. -1.
          5    1    1    2  502    0  0.36833376599E+02 -0.21450857249E+01  0.15969583524E+02  0.40420279840E+02  0.41800000000E+01 0.  1.
         -5    1    1    2    0  502 -0.77513474151E+02  0.68866093603E+02 -0.28451746394E+02  0.10760042656E+03  0.41800000000E+01 0.  1.
        -11    1    1    2    0    0  0.18005759324E+01 -0.71224937319E+02 -0.14626006228E+03  0.16269062539E+03  0.00000000000E+00 0. -1.
         11    1    1    2    0    0  0.38879521620E+02  0.45039294401E+01 -0.26151839132E+02  0.47072510787E+02  0.00000000000E+00 0.  1.
</event>
<event>
 6    1  0.9216756E-006  0.1091023E+03  0.7561462E-02  0.1262241E+00
         -2   -1    0    0    0  501 -0.00000000000E+00  0.00000000000E+00  0.12295154969E+03  0.12295154969E+03  0.00000000000E+00 0. -1.
          2   -1    0    0  501    0  0.00000000000E+00 -0.00000000000E+00 -0.15602656364E+03  0.15602656364E+03  0.00000000000E+00 0.  1.
          5    1    1    2  502    0  0.16947076349E+02  0.27082505074E+02 -0.44648533833E+02  0.55060234755E+02  0.41800000000E+01 0. -1.
         -5    1    1    2    0  502  0.60620127440E+02 -0.54933495343E+02  0.47630763807E+02  0.94755742951E+02  0.41800000000E+01 0. -1.
        -11    1    1    2    0    0 -0.38269993036E+01  0.30054269022E+02  0.20176571982E+02  0.36400536632E+02  0.00000000000E+00 0. -1.
         11    1    1    2    0    0 -0.73740204485E+02 -0.22032787538E+01 -0.56233815912E+02  0.92761598988E+02  0.00000000000E+00 0.  1.
</event>
<event>
 6    1  0.9216756E-006  0.2604873E+03  0.7561462E-02  0.1106851E+00
          2   -1    0    0  501    0  0.00000000000E+00  0.00000000000E+00  0.10093269354E+04  0.10093269354E+04  0.00000000000E+00 0. -1.
         -2   -1    0    0    0  501 -0.00000000000E+00 -0.00000000000E+00 -0.76199578524E+02  0.76199578524E+02  0.00000000000E+00 0.  1.
          5    1    1    2  502    0 -0.12295393761E+03  0.44295555998E+02  0.14325443833E+03  0.19395637024E+03  0.41800000000E+01 0. -1.
         -5    1    1    2    0  502 -0.36210814498E+02  0.13422983047E+03  0.16163399510E+03  0.21324139196E+03  0.41800000000E+01 0. -1.
        -11    1    1    2    0    0  0.68069935164E+02 -0.13273447340E+03  0.43460819762E+03  0.45949563865E+03  0.00000000000E+00 0.  1.
         11    1    1    2    0    0  0.91094816942E+02 -0.45790913066E+02  0.19363072585E+03  0.21883311309E+03  0.00000000000E+00 0. -1.
</event>
<event>
 6    1  0.9216756E-006  0.2119434E+03  0.7561462E-02  0.1140036E+00
          2   -1    0    0  501    0  0.00000000000E+00  0.00000000000E+00  0.20428231509E+03  0.20428231509E+03  0.00000000000E+00 0. -1.
         -2   -1    0    0    0  501 -0.00000000000E+00 -0.00000000000E+00 -0.22222350024E+03  0.22222350024E+03  0.00000000000E+00 0.  1.
          5    1    1    2  502    0 -0.88080060025E+02  0.58802305976E+00 -0.14910544743E+02  0.89432877006E+02  0.41800000000E+01 0. -1.
         -5    1    1    2    0  502 -0.45439934646E+02 -0.12449841068E+03 -0.10974170508E+02  0.13305091785E+03  0.41800000000E+01 0. -1.
        -11    1    1    2    0    0  0.11471101011E+03  0.47059113672E+02  0.13422530653E+02  0.12471303200E+03  0.00000000000E+00 0.  1.
         11    1    1    2    0    0  0.18808984558E+02  0.76851273945E+02 -0.54790005512E+01  0.79308988483E+02  0.00000000000E+00 0. -1.
</event>
<event>
 6    1  0.9216756E-006  0.1351144E+03  0.7561462E-02  0.1220058E+00
          3   -1    0    0  501    0  0.00000000000E+00  0.00000000000E+00  0.55165764996E+03  0.55165764996E+03  0.00000000000E+00 0. -1.
         -3   -1    0    0    0  501 -0.00000000000E+00 -0.00000000000E+00 -0.46360588062E+02  0.46360588062E+02  0.00000000000E+00 0.  1.
          5    1    1    2  502    0 -0.25852699652E+02  0.11244315762E+02  0.79162916283E+00  0.28511327450E+02  0.41800000000E+01 0. -1.
         -5    1    1    2    0  502  0.11489407364E+03 -0.37381728066E+01  0.12741163638E+03  0.17165610848E+03  0.41800000000E+01 0. -1.
        -11    1    1    2    0    0 -0.20120408566E+02  0.38771444168E+02  0.13872713534E+03  0.14544165085E+03  0.00000000000E+00 0.  1.
         11    1    1    2    0    0 -0.68920965422E+02 -0.46277587124E+02  0.23836666102E+03  0.25240915124E+03  0.00000000000E+00 0. -1.
</event>
<event>
 6    1  0.9216756E-006  0.1645817E+03  0.7561462E-02  0.1183619E+00
          1   -1    0    0  501    0  0.00000000000E+00  0.00000000000E+00  0.74793108304E+02  0.74793108304E+02  0.00000000000E+00 0. -1.
         -1   -1    0    0    0  501 -0.00000000000E+00 -0.00000000000E+00 -0.50538841353E+03  0.50538841353E+03  0.00000000000E+00 0.  1.
          5    1    1    2  502    0  0.34081706290E+02  0.29771297908E+02 -0.21266222776E+03  0.21746399333E+03  0.41800000000E+01 0. -1.
         -5    1    1    2    0  502  0.72959719607E+02  0.82210576326E+02 -0.77953842873E+02  0.13481829833E+03  0.41800000000E+01 0. -1.
        -11    1    1    2    0    0 -0.12046775555E+02 -0.67964158878E+02 -0.27684360901E+02  0.74368511695E+02  0.00000000000E+00 0.  1.
         11    1    1    2    0    0 -0.94994650341E+02 -0.44017715356E+02 -0.11229487370E+03  0.15353071848E+03  0.00000000000E+00 0. -1.
</event>
<event>
 6    1  0.9216756E-006  0.1152640E+03  0.7561462E-02  0.1251121E+00
          2   -1    0    0  501    0  0.00000000000E+00  0.00000000000E+00  0.12502542993E+03  0.12502542993E+03  0.00000000000E+00 0. -1.
         -2   -1    0    0    0  501 -0.00000000000E+00 -0.00000000000E+00 -0.13408706281E+03  0.13408706281E+03  0.00000000000E+00 0.  1.
          5    1    1    2  502    0  0.86046657223E+02 -0.21237509762E+02 -0.25747729118E+02  0.92387645250E+02  0.41800000000E+01 0. -1.
         -5    1    1    2    0  502 -0.43900803831E+02 -0.25122253604E+02 -0.62532840189E+01  0.51136915865E+02  0.41800000000E+01 0. -1.
        -11    1    1    2    0    0 -0.25360019092E+01 -0.16530108462E+02  0.36397078025E+02  0.40055250345E+02  0.00000000000E+00 0. -1.
         11    1    1    2    0    0 -0.39609851483E+02  0.62889871827E+02 -0.13457697772E+02  0.75532681286E+02  0.00000000000E+00 0.  1.
</event>
<event>
 6    1  0.9216756E-006  0.8319703E+02  0.7561462E-02  0.1320216E+00
         -2   -1    0    0    0  501 -0.00000000000E+00  0.00000000000E+00  0.37976518948E+02  0.37976518948E+02  0.00000000000E+00 0. -1.
          2   -1    0    0  501    0  0.00000000000E+00 -0.00000000000E+00 -0.36750662271E+03  0.36750662271E+03  0.00000000000E+00 0.  1.
          5    1    1    2  502    0 -0.49361850206E+02 -0.27502751542E+02 -0.78596449240E+01  0.57203496540E+02  0.41800000000E+01 0. -1.
         -5    1    1    2    0  502  0.15606440562E+02  0.54541927092E+01 -0.13833863640E+03  0.13938565180E+03  0.41800000000E+01 0. -1.
        -11    1    1    2    0    0  0.43602492941E+02 -0.21088177197E+02 -0.55715304515E+02  0.73824682629E+02  0.00000000000E+00 0. -1.
         11    1    1    2    0    0 -0.98470832971E+01  0.43136736029E+02 -0.12761651792E+03  0.13506931069E+03  0.00000000000E+00 0.  1.
</event>
<event>
 6    1  0.9216756E-006  0.1694189E+03  0.7561462E-02  0.1178455E+00
         -1   -1    0    0    0  501 -0.00000000000E+00  0.00000000000E+00  0.14518278365E+03  0.14518278365E+03  0.00000000000E+00 0.  1.
          1   -1    0    0  501    0  0.00000000000E+00 -0.00000000000E+00 -0.28389927380E+03  0.28389927380E+03  0.00000000000E+00 0. -1.
          5    1    1    2  502    0  0.54130271018E+02 -0.35533448747E+02  0.50030007089E+02  0.81934035844E+02  0.41800000000E+01 0.  1.
         -5    1    1    2    0  502  0.86459322372E+02  0.63269328547E+02 -0.24491681287E+02  0.10997971273E+03  0.41800000000E+01 0.  1.
        -11    1    1    2    0    0 -0.34538359194E+02 -0.47628146012E+02 -0.84621513982E+02  0.10306376268E+03  0.00000000000E+00 0. -1.
         11    1    1    2    0    0 -0.10605123420E+03  0.19892266212E+02 -0.79633301974E+02  0.13410454621E+03  0.00000000000E+00 0.  1.
</event>
<event>
 6    1  0.9216756E-006  0.7917911E+02  0.7561462E-02  0.1331397E+00
         -2   -1    0    0    0  501 -0.00000000000E+00  0.00000000000E+00  0.18590646681E+02  0.18590646681E+02  0.00000000000E+00 0. -1.
          2   -1    0    0  501    0  0.00000000000E+00 -0.00000000000E+00 -0.67484524128E+03  0.67484524128E+03  0.00000000000E+00 0.  1.
          5    1    1    2  502    0  0.21823988203E+02 -0.47536458422E+01 -0.29520471451E+03  0.29607799560E+03  0.41800000000E+01 0.  1.
         -5    1    1    2    0  502 -0.45862005599E+02 -0.57749973818E+00 -0.34884153537E+02  0.57775718355E+02  0.41800000000E+01 0.  1.
        -11    1    1    2    0    0  0.51685692965E+02 -0.16603476915E+02 -0.14113208179E+03  0.15121293203E+03  0.00000000000E+00 0.  1.
         11    1    1    2    0    0 -0.27647675570E+02  0.21934622496E+02 -0.18503364476E+03  0.18836924197E+03  0.00000000000E+00 0. -1.
</event>
<event>
 6    1  0.9216756E-006  0.1284123E+03  0.7561462E-02  0.1229831E+00
         -1   -1    0    0    0  501 -0.00000000000E+00  0.00000000000E+00  0.13440347179E+03  0.13440347179E+03  0.00000000000E+00 0.  1.
          1   -1    0    0  501    0  0.00000000000E+00 -0.00000000000E+00 -0.17448351747E+03  0.17448351747E+03  0.00000000000E+00 0. -1.
          5    1    1    2  502    0 -0.26718968463E+02  0.18267050206E+02  0.12589658555E+01  0.32659543689E+02  0.41800000000E+01 0. -1.
         -5    1    1    2    0  502  0.12384864911E+03 -0.19165210346E+02  0.25547187217E+02  0.12796845060E+03  0.41800000000E+01 0. -1.
        -11    1    1    2    0    0 -0.44294893019E+02 -0.85811548749E+01 -0.81033546847E+02  0.92747557818E+02  0.00000000000E+00 0. -1.
         11    1    1    2    0    0 -0.52834787628E+02  0.94793150151E+01  0.14147348100E+02  0.55511437156E+02  0.00000000000E+00 0.  1.
</event>
<event>
 6    1  0.9216756E-006  0.1461967E+03  0.7561462E-02  0.1205226E+00
          1   -1    0    0  501    0  0.00000000000E+00  0.00000000000E+00  0.28967580802E+03  0.28967580802E+03  0.00000000000E+00 0. -1.
         -1   -1    0    0    0  501 -0.00000000000E+00 -0.00000000000E+00 -0.95195678062E+02  0.95195678062E+02  0.00000000000E+00 0.  1.
          5    1    1    2  502    0 -0.17610665327E+02  0.45475704211E+02  0.19943444838E+02  0.52852517431E+02  0.41800000000E+01 0. -1.
         -5    1    1    2    0  502 -0.94026206899E+02 -0.76313999266E+02  0.30458483669E+02  0.12493976827E+03  0.41800000000E+01 0. -1.
        -11    1    1    2    0    0  0.14722865849E+02  0.19891755456E+02 -0.83507805904E+01  0.26118580558E+02  0.00000000000E+00 0.  1.
         11    1    1    2    0    0  0.96914006377E+02  0.10946539599E+02  0.15242898204E+03  0.18096061983E+03  0.00000000000E+00 0. -1.
</event>
<event>
 6    1  0.9216756E-006  0.1343076E+03  0.7561462E-02  0.1221200E+00
          2   -1    0    0  501    0  0.00000000000E+00  0.00000000000E+00  0.51627258715E+03  0.51627258715E+03  0.00000000000E+00 0. -1.
         -2   -1    0    0    0  501 -0.00000000000E+00 -0.00000000000E+00 -0.45674219112E+02  0.45674219112E+02  0.00000000000E+00 0.  1.
          5    1    1    2  502    0  0.95308522390E+02  0.71203947791E+02  0.23510661702E+03  0.26352667871E+03  0.41800000000E+01 0.  1.
         -5    1    1    2    0  502 -0.25979444658E+02  0.53657747469E+01  0.67403000361E+01  0.27688032215E+02  0.41800000000E+01 0.  1.
        -11    1    1    2    0    0 -0.43420814430E+02 -0.85019830054E+02  0.96649953233E+02  0.13584900474E+03  0.00000000000E+00 0.  1.
         11    1    1    2    0    0 -0.25908263301E+02  0.84501075165E+01  0.13210149774E+03  0.13488309060E+03  0.00000000000E+00 0. -1.
</event>
<event>
 6    1  0.9216756E-006  0.1194788E+03  0.7561462E-02  0.1243959E+00
          1   -1    0    0  501    0  0.00000000000E+00  0.00000000000E+00  0.94214936523E+02  0.94214936523E+02  0.00000000000E+00 0. -1.
         -1   -1    0    0    0  501 -0.00000000000E+00 -0.00000000000E+00 -0.17383537097E+03  0.17383537097E+03  0.00000000000E+00 0.  1.
          5    1    1    2  502    0  0.31684999771E+02  0.20590479947E+02 -0.46018499860E+02  0.59691555553E+02  0.41800000000E+01 0.  1.
         -5    1    1    2    0  502 -0.65780699735E+02 -0.66930380704E+02 -0.36074915518E+02  0.10062628011E+03  0.41800000000E+01 0.  1.
        -11    1    1    2    0    0  0.60533629600E+02  0.89237473112E+01  0.74895786307E+01  0.61644524223E+02  0.00000000000E+00 0. -1.
         11    1    1    2    0    0 -0.26437929636E+02  0.37416153446E+02 -0.50165976971E+01  0.46087947607E+02  0.00000000000E+00 0.  1.
</event>
<event>
 6    1  0.9216756E-006  0.1353347E+03  0.7561462E-02  0.1219748E+00
         -2   -1    0    0    0  501 -0.00000000000E+00  0.00000000000E+00  0.21604981590E+03  0.21604981590E+03  0.00000000000E+00 0.  1.
          2   -1    0    0  501    0  0.00000000000E+00 -0.00000000000E+00 -0.12255930818E+03  0.12255930818E+03  0.00000000000E+00 0. -1.
          5    1    1    2  502    0  0.41421583982E+02  0.93506088807E+02  0.84242896378E+02  0.13256498125E+03  0.41800000000E+01 0. -1.
         -5    1    1    2    0  502 -0.53038195375E+02 -0.16471650914E+01  0.47372276090E+02  0.71255654256E+02  0.41800000000E+01 0. -1.
        -11    1    1    2    0    0  0.30561013465E+02 -0.11708621872E+02  0.15805020974E+02  0.36343721027E+02  0.00000000000E+00 0.  1.
         11    1    1    2    0    0 -0.18944402072E+02 -0.80150301844E+02 -0.53929685726E+02  0.98444767551E+02  0.00000000000E+00 0. -1.
</event>
<event>
 6    1  0.1224960E-005  0.3877343E+03  0.7561462E-02  0.1048112E+00
         -2   -1    0    0    0  501 -0.00000000000E+00  0.00000000000E+00  0.83274020480E+02  0.83274020480E+02  0.00000000000E+00 0.  1.
          2   -1    0    0  501    0  0.00000000000E+00 -0.00000000000E+00 -0.18287909824E+04  0.18287909824E+04  0.00000000000E+00 0. -1.
          5    1    1    2  502    0 -0.19554338808E+03  0.22120284778E+03 -0.76998882384E+03  0.82466246290E+03  0.41800000000E+01 0. -1.
         -5    1    1    2    0  502 -0.12131116277E+01  0.95664363582E+02 -0.18882740433E+03  0.21172246722E+03  0.41800000000E+01 0. -1.
        -11    1    1    2    0    0  0.17513941974E+03 -0.20113750583E+03 -0.53375395533E+03  0.59667696237E+03  0.00000000000E+00 0.  1.
         11    1    1    2    0    0  0.21617079968E+02 -0.11572970554E+03 -0.25294677843E+03  0.27900311039E+03  0.00000000000E+00 0. -1.
</event>
<event>
 6    1  0.9216756E-006  0.9225839E+02  0.7561462E-02  0.1297473E+00
         -3   -1    0    0    0  501 -0.00000000000E+00  0.00000000000E+00  0.24477170625E+02  0.24477170625E+02  0.00000000000E+00 0.  1.
          3   -1    0    0  501    0  0.00000000000E+00 -0.00000000000E+00 -0.76233662784E+03  0.76233662784E+03  0.00000000000E+00 0. -1.
          5    1    1    2  502    0  0.17343556967E+02  0.74842758213E+01 -0.16532397550E+03  0.16645210311E+03  0.41800000000E+01 0. -1.
         -5    1    1    2    0  502  0.10016822882E+02 -0.58640466149E+02 -0.29018550277E+02  0.66321864200E+02  0.41800000000E+01 0.  1.
        -11    1    1    2    0    0  0.31707232842E+02  0.27263781787E+02 -0.16614749476E+03  0.17132907642E+03  0.00000000000E+00 0. -1.
         11    1    1    2    0    0 -0.59067612691E+02  0.23892408540E+02 -0.37736943668E+03  0.38271075474E+03  0.00000000000E+00 0.  1.
</event>
<event>
 6    1  0.9216756E-006  0.8014977E+02  0.7561462E-02  0.1328627E+00
          1   -1    0    0  501    0  0.00000000000E+00  0.00000000000E+00  0.53721969896E+02  0.53721969896E+02  0.00000000000E+00 0. -1.
         -1   -1    0    0    0  501 -0.00000000000E+00 -0.00000000000E+00 -0.26438437145E+03  0.26438437145E+03  0.00000000000E+00 0.  1.
          5    1    1    2  502    0  0.41891031510E+02  0.50215694567E+02 -0.67004041136E+02  0.93720266914E+02  0.41800000000E+01 0. -1.
         -5    1    1    2    0  502 -0.42584291061E+02 -0.22069401307E+02 -0.11437221699E+03  0.12409253297E+03  0.41800000000E+01 0.  1.
        -11    1    1    2    0    0 -0.17597772861E+02 -0.19892218092E+02 -0.58848224193E+02  0.64563886507E+02  0.00000000000E+00 0.  1.
         11    1    1    2    0    0  0.18291032412E+02 -0.82540751682E+01  0.29562080769E+02  0.35729654952E+02  0.00000000000E+00 0. -1.
</event>
<event>
 6    1  0.9216756E-006  0.1501442E+03  0.7561462E-02  0.1200296E+00
         -1   -1    0    0    0  501 -0.00000000000E+00  0.00000000000E+00  0.36429981302E+02  0.36429981302E+02  0.00000000000E+00 0.  1.
          1   -1    0    0  501    0  0.00000000000E+00 -0.00000000000E+00 -0.71224744625E+03  0.71224744625E+03  0.00000000000E+00 0. -1.
          5    1    1    2  502    0 -0.13710002138E+03 -0.22553991589E+01 -0.31449550055E+03  0.34311280208E+03  0.41800000000E+01 0.  1.
         -5    1    1    2    0  502  0.23983820025E+02  0.30377062892E+01 -0.13016192248E+03  0.13245395331E+03  0.41800000000E+01 0.  1.
        -11    1    1    2    0    0  0.24689031943E+02 -0.35779745281E+02 -0.11527286254E+03  0.12319728613E+03  0.00000000000E+00 0. -1.
         11    1    1    2    0    0  0.88427169415E+02  0.34997438151E+02 -0.11588717937E+03  0.14991338603E+03  0.00000000000E+00 0.  1.
</event>
<event>
 6    1  0.9216756E-006  0.1903270E+03  0.7561462E-02  0.1158167E+00
         -2   -1    0    0    0  501 -0.00000000000E+00  0.00000000000E+00  0.24564912818E+03  0.24564912818E+03  0.00000000000E+00 0.  1.
          2   -1    0    0  501    0  0.00000000000E+00 -0.00000000000E+00 -0.37019638066E+03  0.37019638066E+03  0.00000000000E+00 0. -1.
          5    1    1    2  502    0  0.10183322511E+02  0.22712312089E+02  0.25774451721E+01  0.25370549884E+02  0.41800000000E+01 0.  1.
         -5    1    1    2    0  502 -0.17181935419E+03 -0.16064308854E+02  0.16894538143E+03  0.24153667796E+03  0.41800000000E+01 0.  1.
        -11    1    1    2    0    0  0.75322266440E+02  0.39359129764E+02 -0.16254963371E+03  0.18342564798E+03  0.00000000000E+00 0.  1.
         11    1    1    2    0    0  0.86313765237E+02 -0.46007132999E+02 -0.13352044537E+03  0.16551263302E+03  0.00000000000E+00 0. -1.
</event>
<event>
 6    1  0.9216756E-006  0.1215866E+03  0.7561462E-02  0.1240502E+00
         -2   -1    0    0    0  501 -0.00000000000E+00  0.00000000000E+00  0.21175923600E+02  0.21175923600E+02  0.00000000000E+00 0. -1.
          2   -1    0    0  501    0  0.00000000000E+00 -0.00000000000E+00 -0.87328566756E+03  0.87328566756E+03  0.00000000000E+00 0.  1.
          5    1    1    2  502    0 -0.53014301698E+02 -0.59174411367E+02 -0.40517398967E+03  0.41291108177E+03  0.41800000000E+01 0. -1.
         -5    1    1    2    0  502  0.36953948189E+02 -0.20976435149E+02 -0.47891420565E+02  0.64161247510E+02  0.41800000000E+01 0. -1.
        -11    1    1    2    0    0 -0.33816344633E+02  0.10811729403E+02 -0.89725947800E+02  0.96494478421E+02  0.00000000000E+00 0. -1.
         11    1    1    2    0    0  0.49876698143E+02  0.69339117112E+02 -0.30931838593E+03  0.32089478346E+03  0.00000000000E+00 0.  1.
</event>
<event>
 6    1  0.9216756E-006  0.1911769E+03  0.7561462E-02  0.1157404E+00
         -1   -1    0    0    0  501 -0.00000000000E+00  0.00000000000E+00  0.13143188054E+03  0.13143188054E+03  0.00000000000E+00 0.  1.
          1   -1    0    0  501    0  0.00000000000E+00 -0.00000000000E+00 -0.30028219364E+03  0.30028219364E+03  0.00000000000E+00 0. -1.
          5    1    1    2  502    0 -0.62769815153E+02 -0.25852459885E+01  0.27211787543E+01  0.63020714095E+02  0.41800000000E+01 0. -1.
         -5    1    1    2    0  502 -0.15200189967E+02 -0.13623292153E+03 -0.40044415445E+02  0.14286875898E+03  0.41800000000E+01 0. -1.
        -11    1    1    2    0    0  0.57860721461E+02  0.19214918691E+02 -0.57070631102E+02  0.83511275422E+02  0.00000000000E+00 0.  1.
         11    1    1    2    0    0  0.20109283659E+02  0.11960324883E+03 -0.74456445312E+02  0.14231332569E+03  0.00000000000E+00 0. -1.
</event>
<event>
 6    1  0.9216756E-006  0.8051859E+02  0.7561462E-02  0.1327586E+00
         -2   -1    0    0    0  501 -0.00000000000E+00  0.00000000000E+00  0.11134101783E+03  0.11134101783E+03  0.00000000000E+00 0.  1.
          2   -1    0    0  501    0  0.00000000000E+00 -0.00000000000E+00 -0.99552293486E+02  0.99552293486E+02  0.00000000000E+00 0. -1.
          5    1    1    2  502    0 -0.18934484876E+02  0.47620822774E+02 -0.15420941432E+02  0.53679933996E+02  0.41800000000E+01 0.  1.
         -5    1    1    2    0  502 -0.18071057860E+01 -0.66425621271E+02  0.37424464698E+02  0.76378607938E+02  0.41800000000E+01 0.  1.
        -11    1    1    2    0    0  0.98301940883E+01 -0.89011101167E+01  0.28828428494E+02  0.31732329990E+02  0.00000000000E+00 0.  1.
         11    1    1    2    0    0  0.10911396573E+02  0.27705908614E+02 -0.39043227416E+02  0.49102439394E+02  0.00000000000E+00 0. -1.
</event>
<event>
 6    1  0.1193099E-005  0.3729943E+03  0.7561462E-02  0.1053554E+00
         -2   -1    0    0    0  501 -0.00000000000E+00  0.00000000000E+00  0.10912652137E+03  0.10912652137E+03  0.00000000000E+00 0.  1.
          2   -1    0    0  501    0  0.00000000000E+00 -0.00000000000E+00 -0.13203602748E+04  0.13203602748E+04  0.00000000000E+00 0. -1.
          5    1    1    2  502    0 -0.31634713375E+02  0.60999582261E+02 -0.77631564531E+02  0.10375854826E+03  0.41800000000E+01 0.  1.
         -5    1    1    2    0  502  0.11678360238E+03  0.28717619980E+03 -0.43100865327E+03  0.53093738907E+03  0.41800000000E+01 0.  1.
        -11    1    1    2    0    0 -0.29347148477E+02 -0.26694919744E+03 -0.56464911049E+03  0.62526134305E+03  0.00000000000E+00 0. -1.
         11    1    1    2    0    0 -0.55801740525E+02 -0.81226584618E+02 -0.13794442510E+03  0.16952951575E+03  0.00000000000E+00 0.  1.
</event>
<event>
 6    1  0.9216756E-006  0.1594984E+03  0.7561462E-02  0.1189264E+00
         -2   -1    0    0    0  501 -0.00000000000E+00  0.00000000000E+00  0.18049513766E+02  0.18049513766E+02  0.00000000000E+00 0.  1.
          2   -1    0    0  501    0  0.00000000000E+00 -0.00000000000E+00 -0.15485395219E+04  0.15485395219E+04  0.00000000000E+00 0. -1.
          5    1    1    2  502    0  0.17634986138E+02  0.31631287595E+02 -0.23739441082E+03  0.24017724659E+03  0.41800000000E+01 0. -1.
         -5    1    1    2    0  502 -0.14226333662E+03  0.17808544339E+00 -0.74916841191E+03  0.76256781368E+03  0.41800000000E+01 0. -1.
        -11    1    1    2    0    0  0.16427067213E+02 -0.27373501216E+02 -0.60175484464E+02  0.68119351410E+02  0.00000000000E+00 0. -1.
         11    1    1    2    0    0  0.10820128327E+03 -0.44358718227E+01 -0.48375170094E+03  0.49572462398E+03  0.00000000000E+00 0.  1.
</event>
<event>
 6    1  0.9216756E-006  0.2227798E+03  0.7561462E-02  0.1131827E+00
         -1   -1    0    0    0  501 -0.00000000000E+00  0.00000000000E+00  0.13658324226E+03  0.13658324226E+03  0.00000000000E+00 0.  1.
          1   -1    0    0  501    0  0.00000000000E+00 -0.00000000000E+00 -0.39393309097E+03  0.39393309097E+03  0.00000000000E+00 0. -1.
          5    1    1    2  502    0 -0.11529424973E+03 -0.43901142751E+02 -0.13058293614E+03  0.17969265419E+03  0.41800000000E+01 0. -1.
         -5    1    1    2    0  502 -0.37622989953E+02 -0.91867627964E+02 -0.14240270614E+02  0.10037633261E+03  0.41800000000E+01 0. -1.
        -11    1    1    2    0    0  0.43650518337E+02  0.97771754866E+02 -0.42370403316E+02  0.11515179060E+03  0.00000000000E+00 0. -1.
         11    1    1    2    0    0  0.10926672135E+03  0.37997015849E+02 -0.70156238636E+02  0.13529555583E+03  0.00000000000E+00 0.  1.
</event>
<event>
 6    1  0.9216756E-006  0.1463764E+03  0.7561462E-02  0.1204998E+00
         -2   -1    0    0    0  501 -0.00000000000E+00  0.00000000000E+00  0.59843385332E+02  0.59843385332E+02  0.00000000000E+00 0.  1.
          2   -1    0    0  501    0  0.00000000000E+00 -0.00000000000E+00 -0.38277407546E+03  0.38277407546E+03  0.00000000000E+00 0. -1.
          5    1    1    2  502    0 -0.26715499935E+01  0.78967315137E+02 -0.78463370421E+02  0.11143135527E+03  0.41800000000E+01 0.  1.
         -5    1    1    2    0  502 -0.79006785596E+02 -0.18089611460E+02 -0.56325238054E+02  0.98789225398E+02  0.41800000000E+01 0.  1.
        -11    1    1    2    0    0  0.98202067567E+01  0.21210984401E+02 -0.58267929931E+02  0.62781318706E+02  0.00000000000E+00 0.  1.
         11    1    1    2    0    0  0.71858128832E+02 -0.82088688078E+02 -0.12987415172E+03  0.16961556142E+03  0.00000000000E+00 0. -1.
</event>
<event>
 6    1  0.9216756E-006  0.1275080E+03  0.7561462E-02  0.1231201E+00
         -1   -1    0    0    0  501 -0.00000000000E+00  0.00000000000E+00  0.23470988794E+03  0.23470988794E+03  0.00000000000E+00 0.  1.
          1   -1    0    0  501    0  0.00000000000E+00 -0.00000000000E+00 -0.10254222730E+03  0.10254222730E+03  0.00000000000E+00 0. -1.
          5    1    1    2  502    0 -0.29953418426E+02 -0.88610703701E+02  0.46255496880E+02  0.10443231050E+03  0.41800000000E+01 0. -1.
         -5    1    1    2    0  502 -0.48844687711E+02  0.57859681306E+02 -0.93798360410E+01  0.76413349374E+02  0.41800000000E+01 0.  1.
        -11    1    1    2    0    0  0.31837875251E+02  0.57601372219E+01  0.97938770093E+02  0.10314471469E+03  0.00000000000E+00 0.  1.
         11    1    1    2    0    0  0.46960230885E+02  0.24990885174E+02 -0.26467702930E+01  0.53261740673E+02  0.00000000000E+00 0. -1.
</event>
<event>
 6    1  0.9216756E-006  0.1271800E+03  0.7561462E-02  0.1231701E+00
          1   -1    0    0  501    0  0.00000000000E+00  0.00000000000E+00  0.45332734383E+03  0.45332734383E+03  0.00000000000E+00 0. -1.
         -1   -1    0    0    0  501 -0.00000000000E+00 -0.00000000000E+00 -0.39797978537E+02  0.39797978537E+02  0.00000000000E+00 0.  1.
          5    1    1    2  502    0 -0.36580795069E+02  0.22859529033E+02  0.12494595630E+03  0.13224854264E+03  0.41800000000E+01 0. -1.
         -5    1    1    2    0  502  0.81590477582E+02  0.41880889234E+02  0.89236362751E+02  0.12802974558E+03  0.41800000000E+01 0. -1.
        -11    1    1    2    0    0 -0.61672762893E+02 -0.10610962352E+02  0.88781990221E+02  0.10862027432E+03  0.00000000000E+00 0.  1.
         11    1    1    2    0    0  0.16663080381E+02 -0.54129455915E+02  0.11056505602E+03  0.12422675983E+03  0.00000000000E+00 0. -1.
</event>
<event>
 6    1  0.9216756E-006  0.9730190E+02  0.7561462E-02  0.1286074E+00
          1   -1    0    0  501    0  0.00000000000E+00  0.00000000000E+00  0.66609497835E+02  0.66609497835E+02  0.00000000000E+00 0. -1.
         -1   -1    0    0    0  501 -0.00000000000E+00 -0.00000000000E+00 -0.35048507296E+03  0.35048507296E+03  0.00000000000E+00 0.  1.
          5    1    1    2  502    0 -0.37426945666E+02  0.45013595700E+02 -0.66048774915E+02  0.88356737872E+02  0.41800000000E+01 0. -1.
         -5    1    1    2    0  502  0.52556294474E+02 -0.78737926567E+01 -0.22072561566E+03  0.22707142160E+03  0.41800000000E+01 0. -1.
        -11    1    1    2    0    0 -0.43247741316E+02 -0.11981410985E+02  0.31067050908E+02  0.54580976450E+02  0.00000000000E+00 0. -1.
         11    1    1    2    0    0  0.28118392508E+02 -0.25158392058E+02 -0.28168235459E+02  0.47085434871E+02  0.00000000000E+00 0.  1.
</event>
<event>
 6    1  0.9216756E-006  0.1505936E+03  0.7561462E-02  0.1199746E+00
          2   -1    0    0  501    0  0.00000000000E+00  0.00000000000E+00  0.10772823402E+04  0.10772823402E+04  0.00000000000E+00 0. -1.
         -2   -1    0    0    0  501 -0.00000000000E+00 -0.00000000000E+00 -0.26448488913E+02  0.26448488913E+02  0.00000000000E+00 0.  1.
          5    1    1    2  502    0 -0.42102454230E+00 -0.32872821506E+02  0.31654907253E+02  0.45829086928E+02  0.41800000000E+01 0. -1.
         -5    1    1    2    0  502  0.11656742781E+03  0.55020070547E+02  0.34410129451E+03  0.36747564092E+03  0.41800000000E+01 0. -1.
        -11    1    1    2    0    0 -0.12313133800E+03 -0.81074850691E+01  0.64284462547E+03  0.65458098827E+03  0.00000000000E+00 0. -1.
         11    1    1    2    0    0  0.69849347371E+01 -0.14039763972E+02  0.32233024089E+02  0.35845113023E+02  0.00000000000E+00 0.  1.
</event>
<event>
 6    1  0.9216756E-006  0.1246753E+03  0.7561462E-02  0.1235578E+00
          3   -1    0    0  501    0  0.00000000000E+00  0.00000000000E+00  0.38887412909E+02  0.38887412909E+02  0.00000000000E+00 0. -1.
         -3   -1    0    0    0  501 -0.00000000000E+00 -0.00000000000E+00 -0.42588433060E+03  0.42588433060E+03  0.00000000000E+00 0.  1.
          5    1    1    2  502    0 -0.44552849642E+02 -0.26260779837E+00 -0.44506977688E+02  0.63113935363E+02  0.41800000000E+01 0. -1.
         -5    1    1    2    0  502  0.69705482326E+02  0.64732175398E+02 -0.16531103605E+03  0.19077295364E+03  0.41800000000E+01 0. -1.
        -11    1    1    2    0    0 -0.56697494497E+02 -0.38644682742E+02 -0.13908535508E+03  0.15508950120E+03  0.00000000000E+00 0. -1.
         11    1    1    2    0    0  0.31544861813E+02 -0.25824884858E+02 -0.38093548869E+02  0.55795353303E+02  0.00000000000E+00 0.  1.
</event>
<event>
 6    1  0.9216756E-006  0.8574459E+02  0.7561462E-02  0.1313497E+00
          1   -1    0    0  501    0  0.00000000000E+00  0.00000000000E+00  0.29149350690E+03  0.29149350690E+03  0.00000000000E+00 0. -1.
         -1   -1    0    0    0  501 -0.00000000000E+00 -0.00000000000E+00 -0.42256309465E+02  0.42256309465E+02  0.00000000000E+00 0.  1.
          5    1    1    2  502    0  0.33881106469E+02  0.10454403019E+02  0.99748734499E+02  0.10594577081E+03  0.41800000000E+01 0.  1.
         -5    1    1    2    0  502 -0.64829942859E+02 -0.54627276696E+01  0.15499699424E+02  0.67011013773E+02  0.41800000000E+01 0.  1.
        -11    1    1    2    0    0  0.10917387721E+02 -0.33791469785E+02  0.18394363930E+02  0.39992566925E+02  0.00000000000E+00 0.  1.
         11    1    1    2    0    0  0.20031448668E+02  0.28799794436E+02  0.11559439958E+03  0.12080046486E+03  0.00000000000E+00 0. -1.
</event>
<event>
 6    1  0.9216756E-006  0.1088070E+03  0.7561462E-02  0.1262795E+00
          1   -1    0    0  501    0  0.00000000000E+00  0.00000000000E+00  0.20196127547E+03  0.20196127547E+03  0.00000000000E+00 0. -1.
         -1   -1    0    0    0  501 -0.00000000000E+00 -0.00000000000E+00 -0.95862476831E+02  0.95862476831E+02  0.00000000000E+00 0.  1.
          5    1    1    2  502    0  0.30605089250E+02  0.17903218750E+02  0.41180530316E+02  0.54502341296E+02  0.41800000000E+01 0. -1.
         -5    1    1    2    0  502 -0.90251065410E+02  0.39974907201E+02 -0.86203338681E+01  0.99171722630E+02  0.41800000000E+01 0. -1.
        -11    1    1    2    0    0  0.14328754326E+02 -0.14367772740E+02 -0.21921788251E+02  0.29871573346E+02  0.00000000000E+00 0.  1.
         11    1    1    2    0    0  0.45317221833E+02 -0.43510353211E+02  0.95460390442E+02  0.11427811503E+03  0.00000000000E+00 0. -1.
</event>
<event>
 6    1  0.9216756E-006  0.7620793E+02  0.7561462E-02  0.1340171E+00
         -1   -1    0    0    0  501 -0.00000000000E+00  0.00000000000E+00  0.28002529664E+03  0.28002529664E+03  0.00000000000E+00 0.  1.
          1   -1    0    0  501    0  0.00000000000E+00 -0.00000000000E+00 -0.51243966111E+02  0.51243966111E+02  0.00000000000E+00 0. -1.
          5    1    1    2  502    0  0.26277695880E+02 -0.10724585827E+02 -0.23498918638E+01  0.28784169845E+02  0.41800000000E+01 0.  1.
         -5    1    1    2    0  502 -0.50868424971E+02  0.23295373970E+02  0.19235343699E+03  0.20036863085E+03  0.41800000000E+01 0.  1.
        -11    1    1    2    0    0  0.35168093138E+02  0.14893893342E+02  0.56174761678E+02  0.67928099365E+02  0.00000000000E+00 0.  1.
         11    1    1    2    0    0 -0.10577364046E+02 -0.27464681485E+02 -0.17396976280E+02  0.34188362683E+02  0.00000000000E+00 0. -1.
</event>
<event>
 6    1  0.9216756E-006  0.1113627E+03  0.7561462E-02  0.1258067E+00
         -1   -1    0    0    0  501 -0.00000000000E+00  0.00000000000E+00  0.10970234760E+03  0.10970234760E+03  0.00000000000E+00 0.  1.
          1   -1    0    0  501    0  0.00000000000E+00 -0.00000000000E+00 -0.13704475251E+03  0.13704475251E+03  0.00000000000E+00 0. -1.
          5    1    1    2  502    0 -0.81138894901E+02  0.25235453591E+02 -0.50040558015E+02  0.98700953543E+02  0.41800000000E+01 0. -1.
         -5    1    1    2    0  502  0.26966325151E+02 -0.13550379095E+02  0.26191933836E+02  0.40178168996E+02  0.41800000000E+01 0. -1.
        -11    1    1    2    0    0  0.59621170615E+02  0.28883932188E+02  0.34994954315E+01  0.66341630914E+02  0.00000000000E+00 0. -1.
         11    1    1    2    0    0 -0.54486008647E+01 -0.40569006685E+02 -0.69932761608E+01  0.41526346652E+02  0.00000000000E+00 0.  1.
</event>
<event>
 6    1  0.9216756E-006  0.1126836E+03  0.7561462E-02  0.1255679E+00
          1   -1    0    0  501    0  0.00000000000E+00  0.00000000000E+00  0.40691787385E+03  0.40691787385E+03  0.00000000000E+00 0. -1.
         -1   -1    0    0    0  501 -0.00000000000E+00 -0.00000000000E+00 -0.36123677788E+02  0.36123677788E+02  0.00000000000E+00 0.  1.
          5    1    1    2  502    0  0.40324994198E+02 -0.49474423661E+02  0.61623296077E+02  0.88818504677E+02  0.41800000000E+01 0. -1.
         -5    1    1    2    0  502 -0.63286995555E+02  0.19927868378E+02  0.72280900006E+02  0.98205726157E+02  0.41800000000E+01 0. -1.
        -11    1    1    2    0    0  0.18091409660E+02 -0.30077672526E+02  0.62903622105E+02  0.72033541924E+02  0.00000000000E+00 0.  1.
         11    1    1    2    0    0  0.48705916967E+01  0.59624227809E+02  0.17398637787E+03  0.18398377888E+03  0.00000000000E+00 0. -1.
</event>
<event>
 6    1  0.9216756E-006  0.1177255E+03  0.7561462E-02  0.1246897E+00
          1   -1    0    0  501    0  0.00000000000E+00  0.00000000000E+00  0.21188446799E+03  0.21188446799E+03  0.00000000000E+00 0. -1.
         -1   -1    0    0    0  501 -0.00000000000E+00 -0.00000000000E+00 -0.84513756423E+02  0.84513756423E+02  0.00000000000E+00 0.  1.
          5    1    1    2  502    0  0.74215269462E+02  0.17162654563E+02 -0.15273868233E+02  0.77802483146E+02  0.41800000000E+01 0. -1.
         -5    1    1    2    0  502 -0.45768666503E+02  0.24692599664E+02  0.23980070487E+02  0.57419608952E+02  0.41800000000E+01 0. -1.
        -11    1    1    2    0    0 -0.61332468322E+02 -0.11837640632E+02  0.84357603315E+02  0.10496669302E+03  0.00000000000E+00 0. -1.
         11    1    1    2    0    0  0.32885865364E+02 -0.30017613595E+02  0.34306905996E+02  0.56209439293E+02  0.00000000000E+00 0.  1.
</event>
<event>
 6    1  0.9216756E-006  0.1738504E+03  0.7561462E-02  0.1173891E+00
         -4   -1    0    0    0  501 -0.00000000000E+00  0.00000000000E+00  0.11248694886E+03  0.11248694886E+03  0.00000000000E+00 0.  1.
          4   -1    0    0  501    0  0.00000000000E+00 -0.00000000000E+00 -0.35898470831E+03  0.35898470831E+03  0.00000000000E+00 0. -1.
          5    1    1    2  502    0  0.10306312870E+03  0.98443158983E+02 -0.10974316942E+03  0.17992804029E+03  0.41800000000E+01 0. -1.
         -5    1    1    2    0  502  0.35819067809E+02 -0.98648088031E+01  0.23513544885E+02  0.44166494817E+02  0.41800000000E+01 0. -1.
        -11    1    1    2    0    0 -0.74372148139E+02 -0.65840364112E+02 -0.14745146379E+03  0.17778668155E+03  0.00000000000E+00 0. -1.
         11    1    1    2    0    0 -0.64510048371E+02 -0.22737986069E+02 -0.12816671131E+02  0.69590440509E+02  0.00000000000E+00 0.  1.
</event>
<event>
 6    1  0.9216756E-006  0.1830166E+03  0.7561462E-02  0.1164915E+00
         -1   -1    0    0    0  501 -0.00000000000E+00  0.00000000000E+00  0.66907585207E+02  0.66907585207E+02  0.00000000000E+00 0.  1.
          1   -1    0    0  501    0  0.00000000000E+00 -0.00000000000E+00 -0.57889503265E+03  0.57889503265E+03  0.00000000000E+00 0. -1.
          5    1    1    2  502    0 -0.18849425737E+01  0.24044248500E+02 -0.55169918806E+01  0.25091602058E+02  0.41800000000E+01 0.  1.
         -5    1    1    2    0  502  0.13004846116E+03 -0.10569584706E+03 -0.16736738231E+03  0.23688294028E+03  0.41800000000E+01 0.  1.
        -11    1    1    2    0    0 -0.52240115915E+02 -0.11757915003E+02 -0.63362074126E+02  0.82958005724E+02  0.00000000000E+00 0.  1.
         11    1    1    2    0    0 -0.75923402668E+02  0.93409513567E+02 -0.27574099913E+03  0.30087006979E+03  0.00000000000E+00 0. -1.
</event>
<event>
 6    1  0.9216756E-006  0.1094632E+03  0.7561462E-02  0.1261567E+00
         -1   -1    0    0    0  501 -0.00000000000E+00  0.00000000000E+00  0.14840789155E+03  0.14840789155E+03  0.00000000000E+00 0.  1.
          1   -1    0    0  501    0  0.00000000000E+00 -0.00000000000E+00 -0.14848570846E+03  0.14848570846E+03  0.00000000000E+00 0. -1.
          5    1    1    2  502    0 -0.70606425670E+02 -0.69811729051E+02 -0.65935041159E+02  0.11926377032E+03  0.41800000000E+01 0. -1.
         -5    1    1    2    0  502  0.14073577363E+02  0.70280838792E+01  0.49687752210E+02  0.52285797904E+02  0.41800000000E+01 0.  1.
        -11    1    1    2    0    0  0.37056052416E+02  0.72561721841E+02 -0.19284710832E+02  0.83727262997E+02  0.00000000000E+00 0.  1.
         11    1    1    2    0    0  0.19476795892E+02 -0.97780766693E+01  0.35454182872E+02  0.41616768792E+02  0.00000000000E+00 0. -1.
</event>
<event>
 6    1  0.9216756E-006  0.1269744E+03  0.7561462E-02  0.1232015E+00
         -1   -1    0    0    0  501 -0.00000000000E+00  0.00000000000E+00  0.59214128683E+02  0.59214128683E+02  0.00000000000E+00 0.  1.
          1   -1    0    0  501    0  0.00000000000E+00 -0.00000000000E+00 -0.32774256684E+03  0.32774256684E+03  0.00000000000E+00 0. -1.
          5    1    1    2  502    0  0.10886796440E+03  0.33750843805E+02 -0.75761171527E+02  0.13692545651E+03  0.41800000000E+01 0. -1.
         -5    1    1    2    0  502 -0.27498815660E+02 -0.22076857755E+02 -0.27630998225E+02  0.44994632724E+02  0.41800000000E+01 0. -1.
        -11    1    1    2    0    0 -0.87896074067E+02  0.33929424136E+01 -0.16675980325E+03  0.18853663801E+03  0.00000000000E+00 0. -1.
         11    1    1    2    0    0  0.65269253264E+01 -0.15066928463E+02  0.16235348425E+01  0.16499968270E+02  0.00000000000E+00 0.  1.
</event>
<event>
 6    1  0.9216756E-006  0.1080871E+03  0.7561462E-02  0.1264154E+00
         -1   -1    0    0    0  501 -0.00000000000E+00  0.00000000000E+00  0.12112803022E+03  0.12112803022E+03  0.00000000000E+00 0.  1.
          1   -1    0    0  501    0  0.00000000000E+00 -0.00000000000E+00 -0.14920975569E+03  0.14920975569E+03  0.00000000000E+00 0. -1.
          5    1    1    2  502    0  0.73522496950E+02 -0.33200945810E+02 -0.57579427328E+02  0.99200419414E+02  0.41800000000E+01 0. -1.
         -5    1    1    2    0  502  0.28640482405E+01  0.15127467780E+02  0.46237847183E+02  0.48912717833E+02  0.41800000000E+01 0. -1.
        -11    1    1    2    0    0 -0.55142022988E+02  0.54335302221E+02 -0.20346545451E+02  0.80043423705E+02  0.00000000000E+00 0.  1.
         11    1    1    2    0    0 -0.21244522202E+02 -0.36261824191E+02  0.36064001290E+01  0.42181224960E+02  0.00000000000E+00 0. -1.
</event>
<event>
 6    1  0.9216756E-006  0.7877089E+02  0.7561462E-02  0.1332576E+00
         -2   -1    0    0    0  501 -0.00000000000E+00  0.00000000000E+00  0.36047443743E+02  0.36047443743E+02  0.00000000000E+00 0.  1.
          2   -1    0    0  501    0  0.00000000000E+00 -0.00000000000E+00 -0.39876883169E+03  0.39876883169E+03  0.00000000000E+00 0. -1.
          5    1    1    2  502    0  0.90937041545E+01 -0.60038803189E+02 -0.20531657866E+03  0.21414883427E+03  0.41800000000E+01 0. -1.
         -5    1    1    2    0  502 -0.19414859015E+02  0.74000187574E+01  0.10381089967E+02  0.23599501204E+02  0.41800000000E+01 0. -1.
        -11    1    1    2    0    0  0.30770034446E+02  0.42997166596E+02 -0.37466180442E+02  0.64801744050E+02  0.00000000000E+00 0.  1.
         11    1    1    2    0    0 -0.20448879585E+02  0.96416178356E+01 -0.13031971881E+03  0.13226619591E+03  0.00000000000E+00 0. -1.
</event>
<event>
 6    1  0.9216756E-006  0.3843415E+03  0.7561462E-02  0.1049341E+00
          2   -1    0    0  501    0  0.00000000000E+00  0.00000000000E+00  0.12859369881E+04  0.12859369881E+04  0.00000000000E+00 0. -1.
         -2   -1    0    0    0  501 -0.00000000000E+00 -0.00000000000E+00 -0.12017904512E+03  0.12017904512E+03  0.00000000000E+00 0.  1.
          5    1    1    2  502    0 -0.15461531959E+02  0.49230100175E+02  0.61378585255E+02  0.80296107388E+02  0.41800000000E+01 0.  1.
         -5    1    1    2    0  502  0.21231318493E+03  0.26710997123E+03  0.42029329399E+03  0.54137653311E+03  0.41800000000E+01 0.  1.
        -11    1    1    2    0    0 -0.92832638692E+02 -0.19418689323E+03  0.30990899086E+03  0.37731953425E+03  0.00000000000E+00 0.  1.
         11    1    1    2    0    0 -0.10401901428E+03 -0.12215317817E+03  0.37417707284E+03  0.40712385843E+03  0.00000000000E+00 0. -1.
</event>
<event>
 6    1  0.9216756E-006  0.2382257E+03  0.7561462E-02  0.1120980E+00
         -2   -1    0    0    0  501 -0.00000000000E+00  0.00000000000E+00  0.77390764249E+02  0.77390764249E+02  0.00000000000E+00 0.  1.
          2   -1    0    0  501    0  0.00000000000E+00 -0.00000000000E+00 -0.80738082386E+03  0.80738082386E+03  0.00000000000E+00 0. -1.
          5    1    1    2  502    0  0.20005117206E+03 -0.70248031888E+02 -0.25554189998E+03  0.33207588360E+03  0.41800000000E+01 0. -1.
         -5    1    1    2    0  502 -0.86786220822E+01 -0.31517013501E+02 -0.14225664217E+02  0.35895439038E+02  0.41800000000E+01 0. -1.
        -11    1    1    2    0    0 -0.56860952344E+02  0.75266980989E+02 -0.14410230670E+03  0.17223170766E+03  0.00000000000E+00 0.  1.
         11    1    1    2    0    0 -0.13451159763E+03  0.26498064400E+02 -0.31612018871E+03  0.34456855780E+03  0.00000000000E+00 0. -1.
</event>
<event>
 6    1  0.9216756E-006  0.8531041E+02  0.7561462E-02  0.1314623E+00
         -1   -1    0    0    0  501 -0.00000000000E+00  0.00000000000E+00  0.22553370221E+03  0.22553370221E+03  0.00000000000E+00 0.  1.
          1   -1    0    0  501    0  0.00000000000E+00 -0.00000000000E+00 -0.62071704306E+02  0.62071704306E+02  0.00000000000E+00 0. -1.
          5    1    1    2  502    0 -0.17945962166E+02  0.40336111246E+02  0.13427345493E+03  0.14140683338E+03  0.41800000000E+01 0. -1.
         -5    1    1    2    0  502 -0.20770562697E+02 -0.20706823792E+02 -0.18122818975E+02  0.34728918698E+02  0.41800000000E+01 0. -1.
        -11    1    1    2    0    0 -0.17865259186E+02  0.20567575995E+02  0.28785047876E+02  0.39632961652E+02  0.00000000000E+00 0.  1.
         11    1    1    2    0    0  0.56581784049E+02 -0.40196863449E+02  0.18526314075E+02  0.71836692786E+02  0.00000000000E+00 0. -1.
</event>
<event>
 6    1  0.9216756E-006  0.1223491E+03  0.7561462E-02  0.1239271E+00
          1   -1    0    0  501    0  0.00000000000E+00  0.00000000000E+00  0.41759790280E+03  0.41759790280E+03  0.00000000000E+00 0. -1.
         -1   -1    0    0    0  501 -0.00000000000E+00 -0.00000000000E+00 -0.41187481793E+02  0.41187481793E+02  0.00000000000E+00 0.  1.
          5    1    1    2  502    0  0.24653462843E+02  0.84590066654E+02  0.70658804120E+02  0.11301951870E+03  0.41800000000E+01 0. -1.
         -5    1    1    2    0  502  0.16966206841E+02 -0.44874300323E+02  0.58475954673E+02  0.75752654600E+02  0.41800000000E+01 0. -1.
        -11    1    1    2    0    0  0.28425791030E+02 -0.13241226518E+01  0.70646846791E+02  0.76162693348E+02  0.00000000000E+00 0.  1.
         11    1    1    2    0    0 -0.70045460714E+02 -0.38391643679E+02  0.17662881542E+03  0.19385051795E+03  0.00000000000E+00 0. -1.
</event>
<event>
 6    1  0.9216756E-006  0.1188033E+03  0.7561462E-02  0.1245084E+00
         -2   -1    0    0    0  501 -0.00000000000E+00  0.00000000000E+00  0.13661867622E+03  0.13661867622E+03  0.00000000000E+00 0. -1.
          2   -1    0    0  501    0  0.00000000000E+00 -0.00000000000E+00 -0.11175983429E+03  0.11175983429E+03  0.00000000000E+00 0.  1.
          5    1    1    2  502    0  0.72795141902E+02  0.58315718059E+02  0.94875108030E+01  0.93847434268E+02  0.41800000000E+01 0.  1.
         -5    1    1    2    0  502 -0.29971749136E+02 -0.23999034468E+02  0.28287460670E+02  0.47873920174E+02  0.41800000000E+01 0.  1.
        -11    1    1    2    0    0 -0.13672908566E+02 -0.63151395784E+02 -0.11502645647E+02  0.65630466058E+02  0.00000000000E+00 0.  1.
         11    1    1    2    0    0 -0.29150484199E+02  0.28834712193E+02 -0.14134838971E+01  0.41026690008E+02  0.00000000000E+00 0. -1.
</event>
<event>
 6    1  0.9216756E-006  0.7200639E+02  0.7561462E-02  0.1353400E+00
         -1   -1    0    0    0  501 -0.00000000000E+00  0.00000000000E+00  0.59044374944E+02  0.59044374944E+02  0.00000000000E+00 0.  1.
          1   -1    0    0  501    0  0.00000000000E+00 -0.00000000000E+00 -0.22906897101E+03  0.22906897101E+03  0.00000000000E+00 0. -1.
          5    1    1    2  502    0  0.32614200867E+02 -0.26400301349E+02 -0.95479612371E+02  0.10437667741E+03  0.41800000000E+01 0.  1.
         -5    1    1    2    0  502 -0.17220552179E+01  0.19131146692E+02  0.33457762751E+02  0.38805418902E+02  0.41800000000E+01 0.  1.
        -11    1    1    2    0    0 -0.29108317488E+02 -0.31780550087E+02 -0.17809482518E+02  0.46631268248E+02  0.00000000000E+00 0. -1.
         11    1    1    2    0    0 -0.17838281603E+01  0.39049704744E+02 -0.90193263926E+02  0.98299981389E+02  0.00000000000E+00 0.  1.
</event>
<event>
 6    1  0.9216756E-006  0.2481873E+03  0.7561462E-02  0.1114456E+00
         -2   -1    0    0    0  501 -0.00000000000E+00  0.00000000000E+00  0.86620732206E+02  0.86620732206E+02  0.00000000000E+00 0. -1.
          2   -1    0    0  501    0  0.00000000000E+00 -0.00000000000E+00 -0.86002369187E+03  0.86002369187E+03  0.00000000000E+00 0.  1.
          5    1    1    2  502    0  0.54463563748E+01  0.14099261967E+03 -0.23933566964E+03  0.27786258611E+03  0.41800000000E+01 0. -1.
         -5    1    1    2    0  502  0.23867002403E+02  0.96509042221E+02 -0.30976282598E+02  0.10421435370E+03  0.41800000000E+01 0. -1.
        -11    1    1    2    0    0 -0.35276648005E+01 -0.22830773194E+03 -0.43772406788E+03  0.49369952854E+03  0.00000000000E+00 0. -1.
         11    1    1    2    0    0 -0.25785693977E+02 -0.91939299524E+01 -0.65366939552E+02  0.70867955722E+02  0.00000000000E+00 0.  1.
</event>
<event>
 6    1  0.9216756E-006  0.9580968E+02  0.7561462E-02  0.1289363E+00
         -2   -1    0    0    0  501 -0.00000000000E+00  0.00000000000E+00  0.18920537842E+02  0.18920537842E+02  0.00000000000E+00 0.  1.
          2   -1    0    0  501    0  0.00000000000E+00 -0.00000000000E+00 -0.75852660827E+03  0.75852660827E+03  0.00000000000E+00 0. -1.
          5    1    1    2  502    0 -0.15865424755E+02 -0.17405751071E+02 -0.28118724594E+03  0.28220278445E+03  0.41800000000E+01 0.  1.
         -5    1    1    2    0  502  0.63963765474E+02  0.17029448909E+02 -0.85495853168E+02  0.10820526204E+03  0.41800000000E+01 0.  1.
        -11    1    1    2    0    0 -0.66524775430E+02 -0.24085541358E+02 -0.22059946536E+03  0.23166739772E+03  0.00000000000E+00 0.  1.
         11    1    1    2    0    0  0.18426434710E+02  0.24461843520E+02 -0.15232350595E+03  0.15537170190E+03  0.00000000000E+00 0. -1.
</event>
<event>
 6    1  0.9216756E-006  0.1047661E+03  0.7561462E-02  0.1270581E+00
          3   -1    0    0  501    0  0.00000000000E+00  0.00000000000E+00  0.11273296002E+02  0.11273296002E+02  0.00000000000E+00 0. -1.
         -3   -1    0    0    0  501 -0.00000000000E+00 -0.00000000000E+00 -0.11791596151E+04  0.11791596151E+04  0.00000000000E+00 0.  1.
          5    1    1    2  502    0 -0.75130533879E+02  0.59771021970E+01 -0.60540248164E+03  0.61009012453E+03  0.41800000000E+01 0. -1.
         -5    1    1    2    0  502  0.41248948156E+02 -0.62903061703E+01 -0.12859184673E+03  0.13525671562E+03  0.41800000000E+01 0. -1.
        -11    1    1    2    0    0 -0.28401401086E+02 -0.74142605096E+01 -0.71352453349E+02  0.77154283364E+02  0.00000000000E+00 0. -1.
         11    1    1    2    0    0  0.62282986808E+02  0.77274644829E+01 -0.36253953740E+03  0.36793178761E+03  0.00000000000E+00 0.  1.
</event>
<event>
 6    1  0.9216756E-006  0.9636517E+02  0.7561462E-02  0.1288131E+00
          1   -1    0    0  501    0  0.00000000000E+00  0.00000000000E+00  0.29731053556E+03  0.29731053556E+03  0.00000000000E+00 0. -1.
         -1   -1    0    0    0  501 -0.00000000000E+00 -0.00000000000E+00 -0.40210091503E+02  0.40210091503E+02  0.00000000000E+00 0.  1.
          5    1    1    2  502    0 -0.72294573725E+02  0.14057709833E+02  0.13358872845E+03  0.15260257325E+03  0.41800000000E+01 0. -1.
         -5    1    1    2    0  502  0.34479886977E+02  0.78851380216E+00 -0.17230805867E+00  0.34741710522E+02  0.41800000000E+01 0. -1.
        -11    1    1    2    0    0 -0.16649677787E+02 -0.23780371318E+02  0.32386301106E+02  0.43492416923E+02  0.00000000000E+00 0.  1.
         11    1    1    2    0    0  0.54464364535E+02  0.89341476832E+01  0.91297722560E+02  0.10668392636E+03  0.00000000000E+00 0. -1.
</event>
<event>
 6    1  0.9216756E-006  0.2999602E+03  0.7561462E-02  0.1085261E+00
         -1   -1    0    0    0  501 -0.00000000000E+00  0.00000000000E+00  0.29257697393E+03  0.29257697393E+03  0.00000000000E+00 0.  1.
          1   -1    0    0  501    0  0.00000000000E+00 -0.00000000000E+00 -0.48418925369E+03  0.48418925369E+03  0.00000000000E+00 0. -1.
          5    1    1    2  502    0 -0.16557390096E+03  0.66585857065E+02  0.47071174272E+02  0.18461191968E+03  0.41800000000E+01 0.  1.
         -5    1    1    2    0  502 -0.11941270888E+03 -0.47466160939E+02  0.84352426985E+02  0.15377007451E+03  0.41800000000E+01 0.  1.
        -11    1    1    2    0    0  0.13254592711E+03 -0.41219272196E+02 -0.11969193080E+03  0.18328559543E+03  0.00000000000E+00 0. -1.
         11    1    1    2    0    0  0.15244068274E+03  0.22099576069E+02 -0.20334395022E+03  0.25509863799E+03  0.00000000000E+00 0.  1.
</event>
<event>
 6    1  0.9216756E-006  0.8901264E+02  0.7561462E-02  0.1305260E+00
         -2   -1    0    0    0  501 -0.00000000000E+00  0.00000000000E+00  0.19832952836E+03  0.19832952836E+03  0.00000000000E+00 0.  1.
          2   -1    0    0  501    0  0.00000000000E+00 -0.00000000000E+00 -0.70751694103E+02  0.70751694103E+02  0.00000000000E+00 0. -1.
          5    1    1    2  502    0 -0.30686960061E+02  0.15480490533E+02  0.96318925504E+02  0.10235303081E+03  0.41800000000E+01 0.  1.
         -5    1    1    2    0  502  0.31635686483E+02  0.33175195073E+02 -0.22051365247E+02  0.51040624375E+02  0.41800000000E+01 0.  1.
        -11    1    1    2    0    0 -0.37047862932E+02 -0.32913080331E+00  0.38796280012E+02  0.53645165837E+02  0.00000000000E+00 0. -1.
         11    1    1    2    0    0  0.36099136510E+02 -0.48326554803E+02  0.14513993992E+02  0.62042401448E+02  0.00000000000E+00 0.  1.
</event>
<event>
 6    1  0.9216756E-006  0.7106723E+02  0.7561462E-02  0.1356501E+00
         -2   -1    0    0    0  501 -0.00000000000E+00  0.00000000000E+00  0.31849304222E+03  0.31849304222E+03  0.00000000000E+00 0.  1.
          2   -1    0    0  501    0  0.00000000000E+00 -0.00000000000E+00 -0.42426218421E+02  0.42426218421E+02  0.00000000000E+00 0. -1.
          5    1    1    2  502    0 -0.39389767262E+02 -0.33242255419E+02  0.15306736635E+03  0.16156637135E+03  0.41800000000E+01 0.  1.
         -5    1    1    2    0  502  0.13619349379E+02  0.14341956047E+02 -0.16701961133E+02  0.26222247929E+02  0.41800000000E+01 0.  1.
        -11    1    1    2    0    0  0.18424465192E+01 -0.22400596796E+02 -0.29837665828E+01  0.22673425172E+02  0.00000000000E+00 0. -1.
         11    1    1    2    0    0  0.23927971364E+02  0.41300896169E+02  0.14268518516E+03  0.15045721619E+03  0.00000000000E+00 0.  1.
</event>
<event>
 6    1  0.9216756E-006  0.9737922E+02  0.7561462E-02  0.1285906E+00
         -1   -1    0    0    0  501 -0.00000000000E+00  0.00000000000E+00  0.17091832732E+03  0.17091832732E+03  0.00000000000E+00 0.  1.
          1   -1    0    0  501    0  0.00000000000E+00 -0.00000000000E+00 -0.94324763534E+02  0.94324763534E+02  0.00000000000E+00 0. -1.
          5    1    1    2  502    0 -0.59376806393E+02 -0.14150017683E+02 -0.18029793199E+02  0.63783806570E+02  0.41800000000E+01 0. -1.
         -5    1    1    2    0  502  0.21659203464E+02 -0.43743410661E+02  0.76020615047E+02  0.90439003661E+02  0.41800000000E+01 0. -1.
        -11    1    1    2    0    0  0.34026176849E+02  0.85233972679E+01 -0.26567167355E+02  0.44002765745E+02  0.00000000000E+00 0. -1.
         11    1    1    2    0    0  0.36914260795E+01  0.49370031076E+02  0.45169909291E+02  0.67017514877E+02  0.00000000000E+00 0.  1.
</event>
<event>
 6    1  0.9216756E-006  0.1059745E+03  0.7561462E-02  0.1268211E+00
          1   -1    0    0  501    0  0.00000000000E+00  0.00000000000E+00  0.12838535736E+03  0.12838535736E+03  0.00000000000E+00 0. -1.
         -1   -1    0    0    0  501 -0.00000000000E+00 -0.00000000000E+00 -0.14918275150E+03  0.14918275150E+03  0.00000000000E+00 0.  1.
          5    1    1    2  502    0  0.22495444181E+01  0.34116601369E+02 -0.35457992384E+02  0.49434244840E+02  0.41800000000E+01 0.  1.
         -5    1    1    2    0  502 -0.27744459809E+02 -0.99137819583E+02 -0.24699854453E+02  0.10595101477E+03  0.41800000000E+01 0.  1.
        -11    1    1    2    0    0  0.30029513018E+02  0.46122788507E+02 -0.20895460090E+02  0.58870226126E+02  0.00000000000E+00 0.  1.
         11    1    1    2    0    0 -0.45345976274E+01  0.18898429707E+02  0.60255912787E+02  0.63312623124E+02  0.00000000000E+00 0. -1.
</event>
<event>
 6    1  0.9216756E-006  0.1296430E+03  0.7561462E-02  0.1227986E+00
          1   -1    0    0  501    0  0.00000000000E+00  0.00000000000E+00  0.83251033310E+02  0.83251033310E+02  0.00000000000E+00 0. -1.
         -1   -1    0    0    0  501 -0.00000000000E+00 -0.00000000000E+00 -0.22531028206E+03  0.22531028206E+03  0.00000000000E+00 0.  1.
          5    1    1    2  502    0 -0.84972566846E+02  0.23264481006E+02 -0.95534492887E+02  0.13002263235E+03  0.41800000000E+01 0.  1.
         -5    1    1    2    0  502  0.15441852146E+02 -0.50826587438E+02 -0.23671932184E+02  0.58306308078E+02  0.41800000000E+01 0.  1.
        -11    1    1    2    0    0  0.77144839361E+02 -0.11506909395E+02 -0.18727979241E+02  0.80215163220E+02  0.00000000000E+00 0.  1.
         11    1    1    2    0    0 -0.76141246615E+01  0.39069015827E+02 -0.41248444363E+01  0.40017211718E+02  0.00000000000E+00 0. -1.
</event>
<event>
 6    1  0.9216756E-006  0.1155432E+03  0.7561462E-02  0.1250636E+00
         -2   -1    0    0    0  501 -0.00000000000E+00  0.00000000000E+00  0.20097737210E+02  0.20097737210E+02  0.00000000000E+00 0.  1.
          2   -1    0    0  501    0  0.00000000000E+00 -0.00000000000E+00 -0.74865681335E+03  0.74865681335E+03  0.00000000000E+00 0. -1.
          5    1    1    2  502    0 -0.85989720625E+02  0.19200683063E+02 -0.18040085254E+03  0.20081045361E+03  0.41800000000E+01 0. -1.
         -5    1    1    2    0  502  0.41073110230E+02 -0.13997305157E+02 -0.12185969016E+03  0.12942249195E+03  0.41800000000E+01 0. -1.
        -11    1    1    2    0    0  0.24479825116E+02 -0.46869997477E+02 -0.16927056883E+03  0.17733748609E+03  0.00000000000E+00 0.  1.
         11    1    1    2    0    0  0.20436785279E+02  0.41666619570E+02 -0.25702796461E+03  0.26118411891E+03  0.00000000000E+00 0. -1.
</event>
<event>
 6    1  0.9216756E-006  0.7978250E+02  0.7561462E-02  0.1329670E+00
         -3   -1    0    0    0  501 -0.00000000000E+00  0.00000000000E+00  0.42212986144E+03  0.42212986144E+03  0.00000000000E+00 0.  1.
          3   -1    0    0  501    0  0.00000000000E+00 -0.00000000000E+00 -0.30999799717E+02  0.30999799717E+02  0.00000000000E+00 0. -1.
          5    1    1    2  502    0 -0.44718640747E+02  0.17988077258E+01  0.39738769144E+02  0.59996955861E+02  0.41800000000E+01 0.  1.
         -5    1    1    2    0  502  0.51297250010E+02  0.30175146932E+01  0.25714447614E+03  0.26226182960E+03  0.41800000000E+01 0.  1.
        -11    1    1    2    0    0 -0.95459833446E+01  0.28271250190E+02  0.92953304095E+02  0.97625335479E+02  0.00000000000E+00 0.  1.
         11    1    1    2    0    0  0.29673740814E+01 -0.33087572609E+02  0.12935123402E+01  0.33245540216E+02  0.00000000000E+00 0. -1.
</event>
<event>
 6    1  0.9216756E-006  0.1050185E+03  0.7561462E-02  0.1270083E+00
          1   -1    0    0  501    0  0.00000000000E+00  0.00000000000E+00  0.23931196438E+02  0.23931196438E+02  0.00000000000E+00 0. -1.
         -1   -1    0    0    0  501 -0.00000000000E+00 -0.00000000000E+00 -0.55796765515E+03  0.55796765515E+03  0.00000000000E+00 0.  1.
          5    1    1    2  502    0 -0.44794825450E+02 -0.19084436486E+02 -0.10419728210E+03  0.11508839255E+03  0.41800000000E+01 0.  1.
         -5    1    1    2    0  502  0.57955712348E+02  0.54548449649E+02 -0.25356498770E+03  0.26579517178E+03  0.41800000000E+01 0.  1.
        -11    1    1    2    0    0 -0.83638043500E+01  0.22138961685E+02 -0.11242291608E+03  0.11488689615E+03  0.00000000000E+00 0.  1.
         11    1    1    2    0    0 -0.47970825486E+01 -0.57602974848E+02 -0.63851272830E+02  0.86128391105E+02  0.00000000000E+00 0. -1.
</event>
<event>
 6    1  0.9216756E-006  0.1137602E+03  0.7561462E-02  0.1253761E+00
         -1   -1    0    0    0  501 -0.00000000000E+00  0.00000000000E+00  0.32333198372E+02  0.32333198372E+02  0.00000000000E+00 0.  1.
          1   -1    0    0  501    0  0.00000000000E+00 -0.00000000000E+00 -0.58262551687E+03  0.58262551687E+03  0.00000000000E+00 0. -1.
          5    1    1    2  502    0 -0.67969087057E+02  0.38626384940E+02 -0.91543122028E+02  0.12045501235E+03  0.41800000000E+01 0.  1.
         -5    1    1    2    0  502 -0.15537488913E+01 -0.54415285373E+02 -0.16396930754E+03  0.17282026395E+03  0.41800000000E+01 0.  1.
        -11    1    1    2    0    0  0.57427847823E+02 -0.16830578629E+02 -0.27546762147E+03  0.28189295231E+03  0.00000000000E+00 0. -1.
         11    1    1    2    0    0  0.12094988125E+02  0.32619479062E+02 -0.19312267460E+02  0.39790486633E+02  0.00000000000E+00 0.  1.
</event>
<event>
 6    1  0.9216756E-006  0.1218629E+03  0.7561462E-02  0.1240055E+00
         -2   -1    0    0    0  501 -0.00000000000E+00  0.00000000000E+00  0.31849945180E+02  0.31849945180E+02  0.00000000000E+00 0.  1.
          2   -1    0    0  501    0  0.00000000000E+00 -0.00000000000E+00 -0.54471213952E+03  0.54471213952E+03  0.00000000000E+00 0. -1.
          5    1    1    2  502    0 -0.50669112413E+02 -0.71123954198E+02 -0.14990206646E+03  0.17353408237E+03  0.41800000000E+01 0. -1.
         -5    1    1    2    0  502 -0.19946511255E+02  0.51750066599E+02 -0.13832748043E+03  0.14909023089E+03  0.41800000000E+01 0. -1.
        -11    1    1    2    0    0  0.15941366955E+02 -0.25416546900E+02 -0.16734002455E+02  0.34353382291E+02  0.00000000000E+00 0.  1.
         11    1    1    2    0    0  0.54674256712E+02  0.44790434500E+02 -0.20789864499E+03  0.21958438915E+03  0.00000000000E+00 0. -1.
</event>
<event>
 6    1  0.9216756E-006  0.1011073E+03  0.7561462E-02  0.1277985E+00
         -2   -1    0    0    0  501 -0.00000000000E+00  0.00000000000E+00  0.36689130991E+03  0.36689130991E+03  0.00000000000E+00 0.  1.
          2   -1    0    0  501    0  0.00000000000E+00 -0.00000000000E+00 -0.36903474697E+02  0.36903474697E+02  0.00000000000E+00 0. -1.
          5    1    1    2  502    0 -0.37392951954E+02 -0.11067201211E+02  0.24052927269E+02  0.46007950494E+02  0.41800000000E+01 0. -1.
         -5    1    1    2    0  502  0.65699404041E+02  0.37626470229E+02  0.19484057771E+03  0.20907531197E+03  0.41800000000E+01 0. -1.
        -11    1    1    2    0    0 -0.49241424402E+02 -0.39000948023E+02  0.10691507928E+03  0.12400252417E+03  0.00000000000E+00 0. -1.
         11    1    1    2    0    0  0.20934972315E+02  0.12441679005E+02  0.41792509602E+01  0.24708997974E+02  0.00000000000E+00 0.  1.
</event>
<event>
 6    1  0.9216756E-006  0.1079965E+03  0.7561462E-02  0.1264326E+00
         -1   -1    0    0    0  501 -0.00000000000E+00  0.00000000000E+00  0.57386766068E+02  0.57386766068E+02  0.00000000000E+00 0. -1.
          1   -1    0    0  501    0  0.00000000000E+00 -0.00000000000E+00 -0.31707860064E+03  0.31707860064E+03  0.00000000000E+00 0.  1.
          5    1    1    2  502    0 -0.91657533981E+01  0.22683297910E+01 -0.10441943606E+03  0.10492877290E+03  0.41800000000E+01 0. -1.
         -5    1    1    2    0  502  0.46745866542E+02 -0.70934683190E+02 -0.18322182691E+02  0.87006207230E+02  0.41800000000E+01 0. -1.
        -11    1    1    2    0    0 -0.57513294510E+02  0.96465764940E+01 -0.63310351617E+02  0.86075757943E+02  0.00000000000E+00 0.  1.
         11    1    1    2    0    0  0.19933181366E+02  0.59019776905E+02 -0.73639864207E+02  0.96454628638E+02  0.00000000000E+00 0. -1.
</event>
<event>
 6    1  0.9216756E-006  0.1178403E+03  0.7561462E-02  0.1246703E+00
          2   -1    0    0  501    0  0.00000000000E+00  0.00000000000E+00  0.30914790902E+03  0.30914790902E+03  0.00000000000E+00 0. -1.
         -2   -1    0    0    0  501 -0.00000000000E+00 -0.00000000000E+00 -0.55609358888E+02  0.55609358888E+02  0.00000000000E+00 0.  1.
          5    1    1    2  502    0  0.70441192527E+02  0.56109106665E+02  0.13842640630E+03  0.16519544732E+03  0.41800000000E+01 0.  1.
         -5    1    1    2    0  502  0.59360602550E+01 -0.51342539911E+02  0.38387535787E+02  0.64516420542E+02  0.41800000000E+01 0.  1.
        -11    1    1    2    0    0 -0.34164346390E+02 -0.29162505003E+02  0.73556592770E+02  0.86187160309E+02  0.00000000000E+00 0. -1.
         11    1    1    2    0    0 -0.42212906392E+02  0.24395938248E+02  0.31680152759E+01  0.48858239733E+02  0.00000000000E+00 0.  1.
</event>
<event>
 6    1  0.9216756E-006  0.1236995E+03  0.7561462E-02  0.1237116E+00
          1   -1    0    0  501    0  0.00000000000E+00  0.00000000000E+00  0.54608153115E+03  0.54608153115E+03  0.00000000000E+00 0. -1.
         -1   -1    0    0    0  501 -0.00000000000E+00 -0.00000000000E+00 -0.31414463252E+02  0.31414463252E+02  0.00000000000E+00 0.  1.
          5    1    1    2  502    0 -0.27072726354E+02  0.45665208019E+02  0.82059287004E+02  0.97823528454E+02  0.41800000000E+01 0.  1.
         -5    1    1    2    0  502  0.83493129957E+02 -0.20157403470E+02  0.11135155397E+03  0.14069138081E+03  0.41800000000E+01 0.  1.
        -11    1    1    2    0    0 -0.78646956834E+02 -0.65121127538E+01  0.23116544524E+03  0.24426464030E+03  0.00000000000E+00 0.  1.
         11    1    1    2    0    0  0.22226553231E+02 -0.18995691795E+02  0.90090781695E+02  0.94716444833E+02  0.00000000000E+00 0. -1.
</event>
<event>
 6    1  0.9216756E-006  0.8420633E+02  0.7561462E-02  0.1317521E+00
          1   -1    0    0  501    0  0.00000000000E+00  0.00000000000E+00  0.87069259069E+03  0.87069259069E+03  0.00000000000E+00 0. -1.
         -1   -1    0    0    0  501 -0.00000000000E+00 -0.00000000000E+00 -0.17110282796E+02  0.17110282796E+02  0.00000000000E+00 0.  1.
          5    1    1    2  502    0 -0.50120881683E+02  0.21423400420E+02  0.64216177187E+02  0.84334184520E+02  0.41800000000E+01 0.  1.
         -5    1    1    2    0  502 -0.26975350638E+01 -0.56938258969E+01  0.38837341235E+03  0.38844700562E+03  0.41800000000E+01 0.  1.
        -11    1    1    2    0    0  0.37197373069E+02 -0.53586145741E+02  0.22081963371E+03  0.23025297004E+03  0.00000000000E+00 0.  1.
         11    1    1    2    0    0  0.15621043677E+02  0.37856571219E+02  0.18017308464E+03  0.18476871331E+03  0.00000000000E+00 0. -1.
</event>
<event>
 6    1  0.9216756E-006  0.1088391E+03  0.7561462E-02  0.1262735E+00
          4   -1    0    0  501    0  0.00000000000E+00  0.00000000000E+00  0.95084220801E+02  0.95084220801E+02  0.00000000000E+00 0. -1.
         -4   -1    0    0    0  501 -0.00000000000E+00 -0.00000000000E+00 -0.22804806576E+03  0.22804806576E+03  0.00000000000E+00 0.  1.
          5    1    1    2  502    0 -0.42850623157E+02 -0.31801569466E+02 -0.13430657728E+03  0.14457954498E+03  0.41800000000E+01 0.  1.
         -5    1    1    2    0  502 -0.33551351507E+02 -0.18255185473E+02  0.24244212225E+02  0.45433459157E+02  0.41800000000E+01 0.  1.
        -11    1    1    2    0    0  0.93731982768E+02  0.28295731608E+02 -0.13330790955E+01  0.97918895626E+02  0.00000000000E+00 0. -1.
         11    1    1    2    0    0 -0.17330008104E+02  0.21761023331E+02 -0.21568400807E+02  0.35200386797E+02  0.00000000000E+00 0.  1.
</event>
<event>
 6    1  0.9216756E-006  0.1318507E+03  0.7561462E-02  0.1224735E+00
          2   -1    0    0  501    0  0.00000000000E+00  0.00000000000E+00  0.28141425416E+03  0.28141425416E+03  0.00000000000E+00 0. -1.
         -2   -1    0    0    0  501 -0.00000000000E+00 -0.00000000000E+00 -0.10365268338E+03  0.10365268338E+03  0.00000000000E+00 0.  1.
          5    1    1    2  502    0 -0.14823289225E+01  0.49295425495E+02 -0.48499426937E+02  0.69295765289E+02  0.41800000000E+01 0.  1.
         -5    1    1    2    0  502  0.74849796172E+02  0.19978498701E+02  0.48352080850E+02  0.91416784673E+02  0.41800000000E+01 0.  1.
        -11    1    1    2    0    0 -0.31772378702E+02  0.20410445442E+02  0.46168371592E+02  0.59645526798E+02  0.00000000000E+00 0.  1.
         11    1    1    2    0    0 -0.41595088547E+02 -0.89684369637E+02  0.13174054528E+03  0.16470886078E+03  0.00000000000E+00 0. -1.
</event>
<event>
 6    1  0.9216756E-006  0.6230495E+02  0.7561462E-02  0.1388406E+00
         -1   -1    0    0    0  501 -0.00000000000E+00  0.00000000000E+00  0.34728063414E+02  0.34728063414E+02  0.00000000000E+00 0.  1.
          1   -1    0    0  501    0  0.00000000000E+00 -0.00000000000E+00 -0.41575454020E+03  0.41575454020E+03  0.00000000000E+00 0. -1.
          5    1    1    2  502    0  0.10071865889E+02 -0.23606263028E+02 -0.20741578013E+03  0.20903941347E+03  0.41800000000E+01 0.  1.
         -5    1    1    2    0  502  0.22179484269E+02 -0.16345385253E+02  0.10544325047E+02  0.29795240093E+02  0.41800000000E+01 0.  1.
        -11    1    1    2    0    0 -0.42805230144E+02  0.18103879809E+02 -0.18136437105E+03  0.18722465991E+03  0.00000000000E+00 0. -1.
         11    1    1    2    0    0  0.10553879986E+02  0.21847768472E+02 -0.27906506443E+01  0.24423290134E+02  0.00000000000E+00 0.  1.
</event>
<event>
 6    1  0.9216756E-006  0.8753272E+02  0.7561462E-02  0.1308939E+00
         -2   -1    0    0    0  501 -0.00000000000E+00  0.00000000000E+00  0.51475621780E+03  0.51475621780E+03  0.00000000000E+00 0.  1.
          2   -1    0    0  501    0  0.00000000000E+00 -0.00000000000E+00 -0.23053500480E+02  0.23053500480E+02  0.00000000000E+00 0. -1.
          5    1    1    2  502    0 -0.28809910778E+02 -0.14897717251E+02  0.27569794324E+03  0.27763065617E+03  0.41800000000E+01 0. -1.
         -5    1    1    2    0  502  0.57271718045E+02 -0.76349205507E+00  0.64889446563E+02  0.86653016584E+02  0.41800000000E+01 0. -1.
        -11    1    1    2    0    0  0.15224821881E+00  0.44387879901E+02  0.70969756941E+02  0.83707905612E+02  0.00000000000E+00 0.  1.
         11    1    1    2    0    0 -0.28614055485E+02 -0.28726670595E+02  0.80145570576E+02  0.89818139915E+02  0.00000000000E+00 0. -1.
</event>
<event>
 6    1  0.9216756E-006  0.1294028E+03  0.7561462E-02  0.1228345E+00
          2   -1    0    0  501    0  0.00000000000E+00  0.00000000000E+00  0.19925198143E+03  0.19925198143E+03  0.00000000000E+00 0. -1.
         -2   -1    0    0    0  501 -0.00000000000E+00 -0.00000000000E+00 -0.12520095045E+03  0.12520095045E+03  0.00000000000E+00 0.  1.
          5    1    1    2  502    0  0.67773013815E+02 -0.96494803592E+01  0.37429626915E+02  0.78132856365E+02  0.41800000000E+01 0.  1.
         -5    1    1    2    0  502  0.34381737343E+01 -0.59101220432E+02 -0.57512107266E+02  0.82643149609E+02  0.41800000000E+01 0.  1.
        -11    1    1    2    0    0 -0.67312599179E+02  0.55376726351E+01  0.65804123273E+02  0.94296524146E+02  0.00000000000E+00 0. -1.
         11    1    1    2    0    0 -0.38985883700E+01  0.63213028156E+02  0.28329388059E+02  0.69380401755E+02  0.00000000000E+00 0.  1.
</event>
<event>
 6    1  0.9216756E-006  0.1257435E+03  0.7561462E-02  0.1233912E+00
          3   -1    0    0  501    0  0.00000000000E+00  0.00000000000E+00  0.21289171500E+03  0.21289171500E+03  0.00000000000E+00 0. -1.
         -3   -1    0    0    0  501 -0.00000000000E+00 -0.00000000000E+00 -0.92647775077E+02  0.92647775077E+02  0.00000000000E+00 0.  1.
          5    1    1    2  502    0 -0.17274775769E+02 -0.69377301906E+02  0.24925313639E+02  0.75831204380E+02  0.41800000000E+01 0.  1.
         -5    1    1    2    0  502  0.80574249162E+02  0.81437536429E+01  0.18136315336E+02  0.83095900533E+02  0.41800000000E+01 0.  1.
        -11    1    1    2    0    0 -0.56611833368E+02  0.24922442517E+02  0.89659754291E+00  0.61861391073E+02  0.00000000000E+00 0.  1.
         11    1    1    2    0    0 -0.66876400254E+01  0.36311105746E+02  0.76285713406E+02  0.84750994091E+02  0.00000000000E+00 0. -1.
</event>
<event>
 6    1  0.9216756E-006  0.1880493E+03  0.7561462E-02  0.1160233E+00
         -1   -1    0    0    0  501 -0.00000000000E+00  0.00000000000E+00  0.81052978896E+02  0.81052978896E+02  0.00000000000E+00 0.  1.
          1   -1    0    0  501    0  0.00000000000E+00 -0.00000000000E+00 -0.54184270745E+03  0.54184270745E+03  0.00000000000E+00 0. -1.
          5    1    1    2  502    0 -0.15410939227E+03 -0.59342297747E+02 -0.12459661573E+03  0.20691303037E+03  0.41800000000E+01 0.  1.
         -5    1    1    2    0  502 -0.42874769960E+01 -0.24355394879E+02 -0.11353965455E+03  0.11627679594E+03  0.41800000000E+01 0.  1.
        -11    1    1    2    0    0  0.13010858363E+03  0.44546034367E+02 -0.10659528355E+03  0.17399754937E+03  0.00000000000E+00 0.  1.
         11    1    1    2    0    0  0.28288285643E+02  0.39151658259E+02 -0.11605817472E+03  0.12570831065E+03  0.00000000000E+00 0. -1.
</event>
<event>
 6    1  0.9216756E-006  0.9621718E+02  0.7561462E-02  0.1288458E+00
          1   -1    0    0  501    0  0.00000000000E+00  0.00000000000E+00  0.76716529265E+03  0.76716529265E+03  0.00000000000E+00 0. -1.
         -1   -1    0    0    0  501 -0.00000000000E+00 -0.00000000000E+00 -0.15827011470E+02  0.15827011470E+02  0.00000000000E+00 0.  1.
          5    1    1    2  502    0  0.40014522080E+02 -0.29634966192E+02  0.31266343089E+03  0.31663115231E+03  0.41800000000E+01 0.  1.
         -5    1    1    2    0  502 -0.33142425453E+02  0.39249569275E+02  0.75916426851E+02  0.91759061236E+02  0.41800000000E+01 0.  1.
        -11    1    1    2    0    0  0.18232455852E+02  0.35152486226E+02  0.11632625409E+03  0.12288172006E+03  0.00000000000E+00 0.  1.
         11    1    1    2    0    0 -0.25104552479E+02 -0.44767089308E+02  0.24643216935E+03  0.25172037051E+03  0.00000000000E+00 0. -1.
</event>
<event>
 6    1  0.9216756E-006  0.1461744E+03  0.7561462E-02  0.1205254E+00
         -1   -1    0    0    0  501 -0.00000000000E+00  0.00000000000E+00  0.17094760669E+03  0.17094760669E+03  0.00000000000E+00 0.  1.
          1   -1    0    0  501    0  0.00000000000E+00 -0.00000000000E+00 -0.25017970905E+03  0.25017970905E+03  0.00000000000E+00 0. -1.
          5    1    1    2  502    0  0.35800854005E+02 -0.39797038615E+02  0.40956439106E+02  0.67530791008E+02  0.41800000000E+01 0. -1.
         -5    1    1    2    0  502 -0.99204955812E+02 -0.37943508536E+02  0.65069970663E+02  0.12463108192E+03  0.41800000000E+01 0. -1.
        -11    1    1    2    0    0  0.64473031386E+02  0.10753034691E+02 -0.11210804999E+03  0.12977139285E+03  0.00000000000E+00 0. -1.
         11    1    1    2    0    0 -0.10689295793E+01  0.66987512459E+02 -0.73150462137E+02  0.99194049957E+02  0.00000000000E+00 0.  1.
</event>
<event>
 6    1  0.9216756E-006  0.1323822E+03  0.7561462E-02  0.1223963E+00
          2   -1    0    0  501    0  0.00000000000E+00  0.00000000000E+00  0.24337833901E+03  0.24337833901E+03  0.00000000000E+00 0. -1.
         -2   -1    0    0    0  501 -0.00000000000E+00 -0.00000000000E+00 -0.12232199345E+03  0.12232199345E+03  0.00000000000E+00 0.  1.
          5    1    1    2  502    0  0.36326460435E+02 -0.64132147938E+02  0.48700758796E+02  0.88440830131E+02  0.41800000000E+01 0. -1.
         -5    1    1    2    0  502 -0.10339861407E+02 -0.45932999297E+02 -0.62634642161E+02  0.78468617657E+02  0.41800000000E+01 0.  1.
        -11    1    1    2    0    0  0.31335531555E+02  0.59447268472E+02  0.45894485117E+02  0.81376882656E+02  0.00000000000E+00 0.  1.
         11    1    1    2    0    0 -0.57322130583E+02  0.50617878762E+02  0.89095743804E+02  0.11741400201E+03  0.00000000000E+00 0. -1.
</event>
<event>
 6    1  0.9216756E-006  0.1176555E+03  0.7561462E-02  0.1247016E+00
          2   -1    0    0  501    0  0.00000000000E+00  0.00000000000E+00  0.15763094829E+02  0.15763094829E+02  0.00000000000E+00 0. -1.
         -2   -1    0    0    0  501 -0.00000000000E+00 -0.00000000000E+00 -0.12031757443E+04  0.12031757443E+04  0.00000000000E+00 0.  1.
          5    1    1    2  502    0 -0.58765226938E+02  0.48049328476E+02 -0.62717399623E+03  0.63176481685E+03  0.41800000000E+01 0. -1.
         -5    1    1    2    0  502  0.57597020014E+02  0.51779962524E+01 -0.33762613971E+03  0.34256840335E+03  0.41800000000E+01 0. -1.
        -11    1    1    2    0    0  0.23042585691E+02  0.16427359482E+02 -0.66054080825E+02  0.71860701976E+02  0.00000000000E+00 0.  1.
         11    1    1    2    0    0 -0.21874378767E+02 -0.69654684210E+02 -0.15655843266E+03  0.17274491690E+03  0.00000000000E+00 0. -1.
</event>
<event>
 6    1  0.9216756E-006  0.1020480E+03  0.7561462E-02  0.1276047E+00
         -1   -1    0    0    0  501 -0.00000000000E+00  0.00000000000E+00  0.10019107403E+03  0.10019107403E+03  0.00000000000E+00 0.  1.
          1   -1    0    0  501    0  0.00000000000E+00 -0.00000000000E+00 -0.17582349044E+03  0.17582349044E+03  0.00000000000E+00 0. -1.
          5    1    1    2  502    0  0.20703958142E+02 -0.74469917514E+02  0.90858659503E+01  0.77938744263E+02  0.41800000000E+01 0. -1.
         -5    1    1    2    0  502  0.27266723147E+01  0.50587172869E+02  0.20990844077E+02  0.54996224741E+02  0.41800000000E+01 0. -1.
        -11    1    1    2    0    0  0.23331993820E+02 -0.34084263987E-01 -0.82357419073E+02  0.85598642359E+02  0.00000000000E+00 0. -1.
         11    1    1    2    0    0 -0.46762624276E+02  0.23916828909E+02 -0.23351707364E+02  0.57480953116E+02  0.00000000000E+00 0.  1.
</event>
<event>
 6    1  0.9216756E-006  0.1437640E+03  0.7561462E-02  0.1208352E+00
          3   -1    0    0  501    0  0.00000000000E+00  0.00000000000E+00  0.65184005120E+02  0.65184005120E+02  0.00000000000E+00 0. -1.
         -3   -1    0    0    0  501 -0.00000000000E+00 -0.00000000000E+00 -0.37146582056E+03  0.37146582056E+03  0.00000000000E+00 0.  1.
          5    1    1    2  502    0  0.62325197236E+02 -0.15079405322E+02 -0.65809393107E+02  0.91979167731E+02  0.41800000000E+01 0. -1.
         -5    1    1    2    0  502  0.15019124208E+02  0.87013340300E+02 -0.16978402958E+03  0.19141834965E+03  0.41800000000E+01 0.  1.
        -11    1    1    2    0    0 -0.18949370435E+02  0.18978097016E+02 -0.65787684894E+01  0.27613891451E+02  0.00000000000E+00 0.  1.
         11    1    1    2    0    0 -0.58394951009E+02 -0.90912031994E+02 -0.64109624259E+02  0.12563841684E+03  0.00000000000E+00 0. -1.
</event>
<event>
 6    1  0.9216756E-006  0.5083773E+02  0.7561462E-02  0.1440875E+00
          1   -1    0    0  501    0  0.00000000000E+00  0.00000000000E+00  0.24167987959E+03  0.24167987959E+03  0.00000000000E+00 0. -1.
         -1   -1    0    0    0  501 -0.00000000000E+00 -0.00000000000E+00 -0.63952796255E+02  0.63952796255E+02  0.00000000000E+00 0.  1.
          5    1    1    2  502    0 -0.43349730768E+01 -0.31146435460E+00 -0.48335780339E+02  0.48710461532E+02  0.41800000000E+01 0.  1.
         -5    1    1    2    0  502  0.22400471434E+02 -0.29980710403E+01  0.77783305427E+02  0.81107857533E+02  0.41800000000E+01 0.  1.
        -11    1    1    2    0    0  0.23029662355E+02 -0.15196989450E+02  0.83834560434E+01  0.28837409242E+02  0.00000000000E+00 0.  1.
         11    1    1    2    0    0 -0.41095160713E+02  0.18506524845E+02  0.13989610220E+03  0.14697694753E+03  0.00000000000E+00 0. -1.
</event>
<event>
 6    1  0.9216756E-006  0.7524811E+02  0.7561462E-02  0.1343104E+00
         -2   -1    0    0    0  501 -0.00000000000E+00  0.00000000000E+00  0.49058463906E+02  0.49058463906E+02  0.00000000000E+00 0.  1.
          2   -1    0    0  501    0  0.00000000000E+00 -0.00000000000E+00 -0.30590028812E+03  0.30590028812E+03  0.00000000000E+00 0. -1.
          5    1    1    2  502    0 -0.41377264665E+01  0.33835852250E+01 -0.17206711996E+03  0.17220085831E+03  0.41800000000E+01 0. -1.
         -5    1    1    2    0  502  0.39249991026E+02  0.34581658036E+02 -0.85723666242E+01  0.53173402539E+02  0.41800000000E+01 0.  1.
        -11    1    1    2    0    0 -0.58704699019E+02 -0.21745203891E+02 -0.18678734783E+02  0.65329860801E+02  0.00000000000E+00 0.  1.
         11    1    1    2    0    0  0.23592434459E+02 -0.16220039370E+02 -0.57523602843E+02  0.64254630378E+02  0.00000000000E+00 0. -1.
</event>
<event>
 6    1  0.9216756E-006  0.8666651E+02  0.7561462E-02  0.1311131E+00
         -1   -1    0    0    0  501 -0.00000000000E+00  0.00000000000E+00  0.40756100885E+03  0.40756100885E+03  0.00000000000E+00 0.  1.
          1   -1    0    0  501    0  0.00000000000E+00 -0.00000000000E+00 -0.29931459000E+02  0.29931459000E+02  0.00000000000E+00 0. -1.
          5    1    1    2  502    0  0.18494642845E+02 -0.42338151436E+02  0.23343173257E+02  0.51932138592E+02  0.41800000000E+01 0. -1.
         -5    1    1    2    0  502  0.11615490668E+02  0.50271253990E+02  0.19359791827E+03  0.20039896447E+03  0.41800000000E+01 0. -1.
        -11    1    1    2    0    0  0.22321817858E+02 -0.27521080589E+01  0.10920372786E+03  0.11149570319E+03  0.00000000000E+00 0.  1.
         11    1    1    2    0    0 -0.52431951370E+02 -0.51809944950E+01  0.51484730468E+02  0.73665661606E+02  0.00000000000E+00 0. -1.
</event>
<event>
 6    1  0.9216756E-006  0.1098674E+03  0.7561462E-02  0.1260816E+00
         -1   -1    0    0    0  501 -0.00000000000E+00  0.00000000000E+00  0.43156639768E+02  0.43156639768E+02  0.00000000000E+00 0.  1.
          1   -1    0    0  501    0  0.00000000000E+00 -0.00000000000E+00 -0.34069007649E+03  0.34069007649E+03  0.00000000000E+00 0. -1.
          5    1    1    2  502    0 -0.40640941137E+02  0.17098280852E+02 -0.10180670551E+02  0.45443984832E+02  0.41800000000E+01 0. -1.
         -5    1    1    2    0  502  0.56557562449E+02 -0.51550379189E+02 -0.96834941895E+02  0.12349363480E+03  0.41800000000E+01 0. -1.
        -11    1    1    2    0    0 -0.38970668031E+02 -0.16929805501E+02 -0.70074813213E+02  0.81950050201E+02  0.00000000000E+00 0. -1.
         11    1    1    2    0    0  0.23054046719E+02  0.51381903837E+02 -0.12044301107E+03  0.13295904643E+03  0.00000000000E+00 0.  1.
</event>
<event>
 6    1  0.9216756E-006  0.8470056E+02  0.7561462E-02  0.1316217E+00
          2   -1    0    0  501    0  0.00000000000E+00  0.00000000000E+00  0.48394126492E+03  0.48394126492E+03  0.00000000000E+00 0. -1.
         -2   -1    0    0    0  501 -0.00000000000E+00 -0.00000000000E+00 -0.33064220496E+02  0.33064220496E+02  0.00000000000E+00 0.  1.
          5    1    1    2  502    0 -0.84047881221E+01  0.51065665552E+01  0.18553375141E+03  0.18584123008E+03  0.41800000000E+01 0. -1.
         -5    1    1    2    0  502  0.54585949690E+02 -0.19384037207E+02  0.17355137748E+02  0.60613859869E+02  0.41800000000E+01 0.  1.
        -11    1    1    2    0    0 -0.44211438486E+02 -0.31837554256E+02  0.83446952781E+02  0.99657789873E+02  0.00000000000E+00 0. -1.
         11    1    1    2    0    0 -0.19697230817E+01  0.46115024907E+02  0.16454120249E+03  0.17089260559E+03  0.00000000000E+00 0.  1.
</event>
<event>
 6    1  0.9216756E-006  0.1067357E+03  0.7561462E-02  0.1266737E+00
         -1   -1    0    0    0  501 -0.00000000000E+00  0.00000000000E+00  0.10106163099E+03  0.10106163099E+03  0.00000000000E+00 0.  1.
          1   -1    0    0  501    0  0.00000000000E+00 -0.00000000000E+00 -0.13912626755E+03  0.13912626755E+03  0.00000000000E+00 0. -1.
          5    1    1    2  502    0 -0.12913059673E+02  0.83052675441E+02 -0.27738548736E+02  0.88608089326E+02  0.41800000000E+01 0. -1.
         -5    1    1    2    0  502 -0.34005139927E+00 -0.37950780912E+02  0.23961208383E+02  0.45077592149E+02  0.41800000000E+01 0. -1.
        -11    1    1    2    0    0  0.60713600010E+01  0.22422473659E+02 -0.30705398824E+02  0.38502600616E+02  0.00000000000E+00 0. -1.
         11    1    1    2    0    0  0.71817510714E+01 -0.67524368188E+02 -0.35818973882E+01  0.67999616444E+02  0.00000000000E+00 0.  1.
</event>
<event>
 6    1  0.9216756E-006  0.1120235E+03  0.7561462E-02  0.1256868E+00
         -2   -1    0    0    0  501 -0.00000000000E+00  0.00000000000E+00  0.29970434566E+03  0.29970434566E+03  0.00000000000E+00 0.  1.
          2   -1    0    0  501    0  0.00000000000E+00 -0.00000000000E+00 -0.79238448924E+02  0.79238448924E+02  0.00000000000E+00 0. -1.
          5    1    1    2  502    0  0.13653735404E+02 -0.28266290846E+02  0.17134371773E+02  0.36006482538E+02  0.41800000000E+01 0.  1.
         -5    1    1    2    0  502 -0.80358154137E+02  0.72221341396E+02  0.19366667237E+03  0.22180533689E+03  0.41800000000E+01 0.  1.
        -11    1    1    2    0    0  0.36196811837E+02 -0.79443700111E+01 -0.38680673927E+02  0.53567870384E+02  0.00000000000E+00 0. -1.
         11    1    1    2    0    0  0.30507606895E+02 -0.36010680538E+02  0.48345526527E+02  0.67563104772E+02  0.00000000000E+00 0.  1.
</event>
<event>
 6    1  0.9216756E-006  0.9000438E+02  0.7561462E-02  0.1302841E+00
         -3   -1    0    0    0  501 -0.00000000000E+00  0.00000000000E+00  0.27361285748E+02  0.27361285748E+02  0.00000000000E+00 0.  1.
          3   -1    0    0  501    0  0.00000000000E+00 -0.00000000000E+00 -0.45701974610E+03  0.45701974610E+03  0.00000000000E+00 0. -1.
          5    1    1    2  502    0 -0.32048184085E+02  0.35617432381E+02 -0.15649608956E+03  0.16371984010E+03  0.41800000000E+01 0. -1.
         -5    1    1    2    0  502  0.51744418715E+02 -0.31749289421E+02 -0.51038035841E+02  0.79422010484E+02  0.41800000000E+01 0. -1.
        -11    1    1    2    0    0  0.22178108442E+02  0.13237102272E+02 -0.16386800339E+02  0.30587850464E+02  0.00000000000E+00 0.  1.
         11    1    1    2    0    0 -0.41874343072E+02 -0.17105245232E+02 -0.20573753461E+03  0.21065133080E+03  0.00000000000E+00 0. -1.
</event>
<event>
 6    1  0.9216756E-006  0.1032928E+03  0.7561462E-02  0.1273520E+00
         -1   -1    0    0    0  501 -0.00000000000E+00  0.00000000000E+00  0.36749582156E+02  0.36749582156E+02  0.00000000000E+00 0.  1.
          1   -1    0    0  501    0  0.00000000000E+00 -0.00000000000E+00 -0.47858178631E+03  0.47858178631E+03  0.00000000000E+00 0. -1.
          5    1    1    2  502    0  0.56742630817E+02  0.16023784713E+02 -0.71226314364E+02  0.92558889829E+02  0.41800000000E+01 0. -1.
         -5    1    1    2    0  502 -0.58042463027E+02 -0.15173939055E+02 -0.24368857417E+02  0.64888285171E+02  0.41800000000E+01 0. -1.
        -11    1    1    2    0    0  0.34103765058E+02  0.27632785240E+02 -0.22125578237E+03  0.22556763696E+03  0.00000000000E+00 0. -1.
         11    1    1    2    0    0 -0.32803932848E+02 -0.28482630898E+02 -0.12498125000E+03  0.13231655650E+03  0.00000000000E+00 0.  1.
</event>
<event>
 6    1  0.9216756E-006  0.1369120E+03  0.7561462E-02  0.1217546E+00
         -2   -1    0    0    0  501 -0.00000000000E+00  0.00000000000E+00  0.33041867625E+02  0.33041867625E+02  0.00000000000E+00 0.  1.
          2   -1    0    0  501    0  0.00000000000E+00 -0.00000000000E+00 -0.70279063742E+03  0.70279063742E+03  0.00000000000E+00 0. -1.
          5    1    1    2  502    0 -0.10214508548E+03 -0.66219929977E+02 -0.21340239667E+03  0.24571681448E+03  0.41800000000E+01 0. -1.
         -5    1    1    2    0  502  0.65735555829E+01  0.37263028704E+02 -0.75985709651E+02  0.84988501648E+02  0.41800000000E+01 0. -1.
        -11    1    1    2    0    0  0.33472593389E+02  0.38618141057E+02 -0.60708057447E+02  0.79355173529E+02  0.00000000000E+00 0.  1.
         11    1    1    2    0    0  0.62098936508E+02 -0.96612397834E+01 -0.31965260602E+03  0.32577201538E+03  0.00000000000E+00 0. -1.
</event>
<event>
 6    1  0.9216756E-006  0.1379872E+03  0.7561462E-02  0.1216063E+00
          4   -1    0    0  501    0  0.00000000000E+00  0.00000000000E+00  0.24042214601E+03  0.24042214601E+03  0.00000000000E+00 0. -1.
         -4   -1    0    0    0  501 -0.00000000000E+00 -0.00000000000E+00 -0.98063700738E+02  0.98063700738E+02  0.00000000000E+00 0.  1.
          5    1    1    2  502    0  0.84414904141E+02  0.14737225958E+02  0.61475356392E+02  0.10554503169E+03  0.41800000000E+01 0. -1.
         -5    1    1    2    0  502 -0.10674615582E+03 -0.51809762767E+02  0.48901721587E+02  0.12840500019E+03  0.41800000000E+01 0.  1.
        -11    1    1    2    0    0 -0.19241904885E+02  0.14896822144E+02  0.48780079599E+02  0.54512956068E+02  0.00000000000E+00 0.  1.
         11    1    1    2    0    0  0.41573156562E+02  0.22175714665E+02 -0.16798712309E+02  0.50022858801E+02  0.00000000000E+00 0. -1.
</event>
<event>
 6    1  0.9216756E-006  0.7323571E+02  0.7561462E-02  0.1349423E+00
          2   -1    0    0  501    0  0.00000000000E+00  0.00000000000E+00  0.21216815173E+03  0.21216815173E+03  0.00000000000E+00 0. -1.
         -2   -1    0    0    0  501 -0.00000000000E+00 -0.00000000000E+00 -0.15938750042E+03  0.15938750042E+03  0.00000000000E+00 0.  1.
          5    1    1    2  502    0 -0.14674365462E+02 -0.26403059586E+02  0.76300062902E+01  0.31434820712E+02  0.41800000000E+01 0. -1.
         -5    1    1    2    0  502  0.37006008399E+02  0.67405104248E+01 -0.13271517420E+03  0.13800604698E+03  0.41800000000E+01 0.  1.
        -11    1    1    2    0    0  0.36180600618E+01 -0.25655020762E+02  0.12630196013E+02  0.28823467873E+02  0.00000000000E+00 0.  1.
         11    1    1    2    0    0 -0.25949702999E+02  0.45317569923E+02  0.16523562321E+03  0.17329131659E+03  0.00000000000E+00 0. -1.
</event>
<event>
 6    1  0.9216756E-006  0.1386277E+03  0.7561462E-02  0.1215188E+00
         -1   -1    0    0    0  501 -0.00000000000E+00  0.00000000000E+00  0.18815306233E+04  0.18815306233E+04  0.00000000000E+00 0.  1.
          1   -1    0    0  501    0  0.00000000000E+00 -0.00000000000E+00 -0.16956031813E+02  0.16956031813E+02  0.00000000000E+00 0. -1.
          5    1    1    2  502    0  0.69654705969E+02 -0.10016639577E+03  0.14248058697E+04  0.14300259871E+04  0.41800000000E+01 0.  1.
         -5    1    1    2    0  502  0.17612660231E+01  0.16359969907E+02  0.43375679244E+02  0.46579744774E+02  0.41800000000E+01 0. -1.
        -11    1    1    2    0    0  0.25693562539E+01  0.60611877630E+02  0.23683336990E+03  0.24447995092E+03  0.00000000000E+00 0. -1.
         11    1    1    2    0    0 -0.73985328246E+02  0.23194548231E+02  0.15955967259E+03  0.17740097232E+03  0.00000000000E+00 0.  1.
</event>
<event>
 6    1  0.9216756E-006  0.9274973E+02  0.7561462E-02  0.1296326E+00
          2   -1    0    0  501    0  0.00000000000E+00  0.00000000000E+00  0.10757632713E+04  0.10757632713E+04  0.00000000000E+00 0.  1.
         -2   -1    0    0    0  501 -0.00000000000E+00 -0.00000000000E+00 -0.12369726629E+02  0.12369726629E+02  0.00000000000E+00 0. -1.
          5    1    1    2  502    0  0.24403063190E+02 -0.58605735043E+01  0.41955749032E+03  0.42032822401E+03  0.41800000000E+01 0. -1.
         -5    1    1    2    0  502 -0.61952920606E+02 -0.30126945011E+01  0.12324901702E+03  0.13803996992E+03  0.41800000000E+01 0. -1.
        -11    1    1    2    0    0 -0.11836655040E+02 -0.31786823042E+02  0.20032480166E+03  0.20317611740E+03  0.00000000000E+00 0.  1.
         11    1    1    2    0    0  0.49386512455E+02  0.40660091047E+02  0.32026223564E+03  0.32658868657E+03  0.00000000000E+00 0. -1.
</event>
<event>
 6    1  0.9216756E-006  0.1074874E+03  0.7561462E-02  0.1265295E+00
          1   -1    0    0  501    0  0.00000000000E+00  0.00000000000E+00  0.45212350747E+03  0.45212350747E+03  0.00000000000E+00 0. -1.
         -1   -1    0    0    0  501 -0.00000000000E+00 -0.00000000000E+00 -0.33149306143E+02  0.33149306143E+02  0.00000000000E+00 0.  1.
          5    1    1    2  502    0 -0.97941889163E+00  0.50258408495E+02  0.23542141427E+02  0.55664815716E+02  0.41800000000E+01 0.  1.
         -5    1    1    2    0  502 -0.48945988285E+02 -0.30655939284E+02  0.18089353609E+03  0.18993535790E+03  0.41800000000E+01 0.  1.
        -11    1    1    2    0    0  0.59470530414E+02  0.22404474513E+02  0.12027111151E+03  0.13602883786E+03  0.00000000000E+00 0. -1.
         11    1    1    2    0    0 -0.95451232375E+01 -0.42006943723E+02  0.94267412307E+02  0.10364380214E+03  0.00000000000E+00 0.  1.
</event>
<event>
 6    1  0.9216756E-006  0.1640674E+03  0.7561462E-02  0.1184180E+00
          1   -1    0    0  501    0  0.00000000000E+00  0.00000000000E+00  0.24373570884E+03  0.24373570884E+03  0.00000000000E+00 0. -1.
         -1   -1    0    0    0  501 -0.00000000000E+00 -0.00000000000E+00 -0.14884083103E+03  0.14884083103E+03  0.00000000000E+00 0.  1.
          5    1    1    2  502    0  0.14929593650E+03 -0.32182787501E+02 -0.27859939027E+02  0.15530182571E+03  0.41800000000E+01 0. -1.
         -5    1    1    2    0  502 -0.14676797510E+02  0.26982935683E+02 -0.33933889964E+01  0.31184526485E+02  0.41800000000E+01 0. -1.
        -11    1    1    2    0    0 -0.66390701509E+02  0.28508780619E+02  0.11095524497E+03  0.13240673021E+03  0.00000000000E+00 0. -1.
         11    1    1    2    0    0 -0.68228437485E+02 -0.23308928801E+02  0.15192960856E+02  0.73683457459E+02  0.00000000000E+00 0.  1.
</event>
<event>
 6    1  0.9216756E-006  0.1085633E+03  0.7561462E-02  0.1263254E+00
         -1   -1    0    0    0  501 -0.00000000000E+00  0.00000000000E+00  0.17365099701E+03  0.17365099701E+03  0.00000000000E+00 0.  1.
          1   -1    0    0  501    0  0.00000000000E+00 -0.00000000000E+00 -0.10873930542E+03  0.10873930542E+03  0.00000000000E+00 0. -1.
          5    1    1    2  502    0  0.24990741722E+02 -0.29060101851E+02 -0.34755198854E+02  0.51907831189E+02  0.41800000000E+01 0.  1.
         -5    1    1    2    0  502  0.34405493334E+02  0.78422508638E+02  0.41508299668E+02  0.95258801031E+02  0.41800000000E+01 0.  1.
        -11    1    1    2    0    0 -0.41390948261E+02 -0.59261189052E+02  0.78221026844E+02  0.10650647007E+03  0.00000000000E+00 0.  1.
         11    1    1    2    0    0 -0.18005286795E+02  0.98987822651E+01 -0.20062436064E+02  0.28717200138E+02  0.00000000000E+00 0. -1.
</event>
<event>
 6    1  0.9216756E-006  0.1574541E+03  0.7561462E-02  0.1191601E+00
          2   -1    0    0  501    0  0.00000000000E+00  0.00000000000E+00  0.14106332482E+03  0.14106332482E+03  0.00000000000E+00 0. -1.
         -2   -1    0    0    0  501 -0.00000000000E+00 -0.00000000000E+00 -0.28826957228E+03  0.28826957228E+03  0.00000000000E+00 0.  1.
          5    1    1    2  502    0  0.10072958186E+03  0.52260543075E+02 -0.15586190670E+03  0.19284195442E+03  0.41800000000E+01 0.  1.
         -5    1    1    2    0  502  0.37560951320E+02 -0.42327616807E+02 -0.11462355260E+02  0.57890501784E+02  0.41800000000E+01 0.  1.
        -11    1    1    2    0    0 -0.92206980860E+02 -0.26001084866E+02 -0.37686084325E+02  0.10294865072E+03  0.00000000000E+00 0.  1.
         11    1    1    2    0    0 -0.46083552320E+02  0.16068158598E+02  0.57804098823E+02  0.75651790170E+02  0.00000000000E+00 0. -1.
</event>
<event>
 6    1  0.9216756E-006  0.1061378E+03  0.7561462E-02  0.1267894E+00
          2   -1    0    0  501    0  0.00000000000E+00  0.00000000000E+00  0.20794743196E+03  0.20794743196E+03  0.00000000000E+00 0. -1.
         -2   -1    0    0    0  501 -0.00000000000E+00 -0.00000000000E+00 -0.10678854402E+03  0.10678854402E+03  0.00000000000E+00 0.  1.
          5    1    1    2  502    0  0.57118295326E+02 -0.45886844837E+02  0.34105632510E+02  0.80924463291E+02  0.41800000000E+01 0.  1.
         -5    1    1    2    0  502 -0.22022879976E+02 -0.13484777174E+02 -0.58396117857E+02  0.63987697557E+02  0.41800000000E+01 0.  1.
        -11    1    1    2    0    0 -0.65185268926E+02  0.46120559881E+02  0.74636260668E+02  0.10930140317E+03  0.00000000000E+00 0.  1.
         11    1    1    2    0    0  0.30089853576E+02  0.13251062129E+02  0.50813112620E+02  0.60522411963E+02  0.00000000000E+00 0. -1.
</event>
<event>
 6    1  0.9216756E-006  0.1098496E+03  0.7561462E-02  0.1260849E+00
          2   -1    0    0  501    0  0.00000000000E+00  0.00000000000E+00  0.53171586651E+03  0.53171586651E+03  0.00000000000E+00 0. -1.
         -2   -1    0    0    0  501 -0.00000000000E+00 -0.00000000000E+00 -0.25547071586E+02  0.25547071586E+02  0.00000000000E+00 0.  1.
          5    1    1    2  502    0 -0.78753541327E+02  0.31360136267E+01  0.18481609564E+03  0.20096371926E+03  0.41800000000E+01 0. -1.
         -5    1    1    2    0  502  0.46042879521E+02  0.26914912558E+01  0.49536170492E+02  0.67812207358E+02  0.41800000000E+01 0.  1.
        -11    1    1    2    0    0  0.54333474312E+02  0.22514549141E+02  0.13814266100E+03  0.15014135387E+03  0.00000000000E+00 0.  1.
         11    1    1    2    0    0 -0.21622812505E+02 -0.28342054023E+02  0.13367386779E+03  0.13834565760E+03  0.00000000000E+00 0. -1.
</event>
<event>
 6    1  0.9216756E-006  0.1025397E+03  0.7561462E-02  0.1275044E+00
          2   -1    0    0  501    0  0.00000000000E+00  0.00000000000E+00  0.51497002327E+03  0.51497002327E+03  0.00000000000E+00 0. -1.
         -2   -1    0    0    0  501 -0.00000000000E+00 -0.00000000000E+00 -0.25761824434E+02  0.25761824434E+02  0.00000000000E+00 0.  1.
          5    1    1    2  502    0  0.17401106791E+02  0.38791883750E+02  0.18099337989E+03  0.18596689148E+03  0.41800000000E+01 0.  1.
         -5    1    1    2    0  502 -0.12734339722E+02 -0.78554223532E+02  0.14502069603E+03  0.16547327313E+03  0.41800000000E+01 0.  1.
        -11    1    1    2    0    0  0.31636656680E+02  0.33048025712E+02  0.40288301166E+02  0.60960620569E+02  0.00000000000E+00 0.  1.
         11    1    1    2    0    0 -0.36303423749E+02  0.67143140705E+01  0.12290582175E+03  0.12833106252E+03  0.00000000000E+00 0. -1.
</event>
<event>
 6    1  0.9216756E-006  0.9470228E+02  0.7561462E-02  0.1291848E+00
          3   -1    0    0  501    0  0.00000000000E+00  0.00000000000E+00  0.21608001107E+03  0.21608001107E+03  0.00000000000E+00 0. -1.
         -3   -1    0    0    0  501 -0.00000000000E+00 -0.00000000000E+00 -0.75771353743E+02  0.75771353743E+02  0.00000000000E+00 0.  1.
          5    1    1    2  502    0  0.84052980088E+01  0.50209888238E+02  0.13748517290E+02  0.52897788604E+02  0.41800000000E+01 0.  1.
         -5    1    1    2    0  502 -0.35663006835E+02 -0.68117697787E+02 -0.94154559327E+00  0.77007984757E+02  0.41800000000E+01 0.  1.
        -11    1    1    2    0    0  0.63097086642E+01 -0.18374154045E+02 -0.73229866230E+01  0.20761697748E+02  0.00000000000E+00 0.  1.
         11    1    1    2    0    0  0.20948000162E+02  0.36281963594E+02  0.13482467226E+03  0.14118389371E+03  0.00000000000E+00 0. -1.
</event>
<event>
 6    1  0.9216756E-006  0.8431085E+02  0.7561462E-02  0.1317245E+00
         -1   -1    0    0    0  501 -0.00000000000E+00  0.00000000000E+00  0.55043567360E+03  0.55043567360E+03  0.00000000000E+00 0.  1.
          1   -1    0    0  501    0  0.00000000000E+00 -0.00000000000E+00 -0.35468447974E+02  0.35468447974E+02  0.00000000000E+00 0. -1.
          5    1    1    2  502    0 -0.16431922063E+02  0.12835990649E+02  0.26288936163E+01  0.21427883710E+02  0.41800000000E+01 0.  1.
         -5    1    1    2    0  502 -0.27987332381E+02 -0.67613034449E+02  0.38566236518E+03  0.39256559391E+03  0.41800000000E+01 0.  1.
        -11    1    1    2    0    0  0.22389131843E+02  0.44362367115E+02  0.74829460887E+01  0.50252236994E+02  0.00000000000E+00 0.  1.
         11    1    1    2    0    0  0.22030122601E+02  0.10414676684E+02  0.11919302073E+03  0.12165840696E+03  0.00000000000E+00 0. -1.
</event>
<event>
 6    1  0.9216756E-006  0.1099385E+03  0.7561462E-02  0.1260684E+00
         -2   -1    0    0    0  501 -0.00000000000E+00  0.00000000000E+00  0.12036137679E+03  0.12036137679E+03  0.00000000000E+00 0. -1.
          2   -1    0    0  501    0  0.00000000000E+00 -0.00000000000E+00 -0.11093719090E+03  0.11093719090E+03  0.00000000000E+00 0.  1.
          5    1    1    2  502    0 -0.43926544658E+02  0.32153947816E+02  0.31238720592E+02  0.62902684759E+02  0.41800000000E+01 0. -1.
         -5    1    1    2    0  502  0.70152135213E+02 -0.12886230955E+01 -0.63439464765E+01  0.70574079387E+02  0.41800000000E+01 0. -1.
        -11    1    1    2    0    0  0.20425677905E+02 -0.42287278976E+02 -0.16515213741E+02  0.49781267220E+02  0.00000000000E+00 0.  1.
         11    1    1    2    0    0 -0.46651268460E+02  0.11421954256E+02  0.10446255139E+01  0.48040536325E+02  0.00000000000E+00 0. -1.
</event>
<event>
 6    1  0.9216756E-006  0.1073118E+03  0.7561462E-02  0.1265631E+00
          1   -1    0    0  501    0  0.00000000000E+00  0.00000000000E+00  0.57458849595E+02  0.57458849595E+02  0.00000000000E+00 0. -1.
         -1   -1    0    0    0  501 -0.00000000000E+00 -0.00000000000E+00 -0.25550794165E+03  0.25550794165E+03  0.00000000000E+00 0.  1.
          5    1    1    2  502    0  0.49666862278E+02  0.75801291498E+02 -0.56888821459E+02  0.10708148023E+03  0.41800000000E+01 0. -1.
         -5    1    1    2    0  502 -0.12273528239E+02 -0.35487520458E+02 -0.69175632115E+02  0.78820962200E+02  0.41800000000E+01 0. -1.
        -11    1    1    2    0    0 -0.43445385034E+02 -0.55086635328E+02 -0.82232629799E+02  0.10809368287E+03  0.00000000000E+00 0.  1.
         11    1    1    2    0    0  0.60520509952E+01  0.14772864288E+02  0.10247991315E+02  0.18970665948E+02  0.00000000000E+00 0. -1.
</event>
<event>
 6    1  0.9216756E-006  0.1165930E+03  0.7561462E-02  0.1248826E+00
          1   -1    0    0  501    0  0.00000000000E+00  0.00000000000E+00  0.24487342861E+03  0.24487342861E+03  0.00000000000E+00 0.  1.
         -1   -1    0    0    0  501 -0.00000000000E+00 -0.00000000000E+00 -0.58872006967E+02  0.58872006967E+02  0.00000000000E+00 0. -1.
          5    1    1    2  502    0  0.17004546086E+02 -0.40211536528E+02  0.23252900361E+02  0.49641636081E+02  0.41800000000E+01 0. -1.
         -5    1    1    2    0  502 -0.13084572715E+02  0.89658647248E+02  0.47566232028E+02  0.10242020259E+03  0.41800000000E+01 0. -1.
        -11    1    1    2    0    0  0.31568931970E+02 -0.54293318260E+02  0.76147738443E+02  0.98705825276E+02  0.00000000000E+00 0.  1.
         11    1    1    2    0    0 -0.35488905341E+02  0.48462075404E+01  0.39034550810E+02  0.52977771629E+02  0.00000000000E+00 0. -1.
</event>
<event>
 6    1  0.9216756E-006  0.1447624E+03  0.7561462E-02  0.1207061E+00
          1   -1    0    0  501    0  0.00000000000E+00  0.00000000000E+00  0.37803010326E+03  0.37803010326E+03  0.00000000000E+00 0. -1.
         -1   -1    0    0    0  501 -0.00000000000E+00 -0.00000000000E+00 -0.58163920259E+02  0.58163920259E+02  0.00000000000E+00 0.  1.
          5    1    1    2  502    0 -0.25264040334E+02 -0.77222857954E+01  0.47570513436E+02  0.54574092576E+02  0.41800000000E+01 0. -1.
         -5    1    1    2    0  502  0.12598488791E+03  0.47639765835E+02  0.11042427937E+03  0.17422035801E+03  0.41800000000E+01 0. -1.
        -11    1    1    2    0    0 -0.37004166512E+02 -0.51343841766E+02  0.96485132581E+02  0.11539011758E+03  0.00000000000E+00 0. -1.
         11    1    1    2    0    0 -0.63716681068E+02  0.11426361726E+02  0.65386257621E+02  0.92009455353E+02  0.00000000000E+00 0.  1.
</event>
<event>
 6    1  0.9216756E-006  0.1562734E+03  0.7561462E-02  0.1192969E+00
          2   -1    0    0  501    0  0.00000000000E+00  0.00000000000E+00  0.28516744596E+04  0.28516744596E+04  0.00000000000E+00 0. -1.
         -2   -1    0    0    0  501 -0.00000000000E+00 -0.00000000000E+00 -0.11757335568E+02  0.11757335568E+02  0.00000000000E+00 0.  1.
          5    1    1    2  502    0 -0.33812326485E+02 -0.73792555939E+02  0.15963881152E+04  0.15984558491E+04  0.41800000000E+01 0. -1.
         -5    1    1    2    0  502  0.27252112487E+02 -0.62023327028E+02  0.33878157029E+03  0.34551410318E+03  0.41800000000E+01 0. -1.
        -11    1    1    2    0    0  0.41578781128E+02  0.28241530617E+02  0.24809198600E+03  0.25313240134E+03  0.00000000000E+00 0.  1.
         11    1    1    2    0    0 -0.35018567131E+02  0.10757435235E+03  0.65665545249E+03  0.66632944150E+03  0.00000000000E+00 0. -1.
</event>
<event>
 6    1  0.9216756E-006  0.8140954E+02  0.7561462E-02  0.1325098E+00
          1   -1    0    0  501    0  0.00000000000E+00  0.00000000000E+00  0.20785710625E+02  0.20785710625E+02  0.00000000000E+00 0. -1.
         -1   -1    0    0    0  501 -0.00000000000E+00 -0.00000000000E+00 -0.83104981301E+03  0.83104981301E+03  0.00000000000E+00 0.  1.
          5    1    1    2  502    0  0.11557448177E+02 -0.12432360221E+02 -0.89689436008E+01  0.19648219725E+02  0.41800000000E+01 0.  1.
         -5    1    1    2    0  502 -0.37750468928E+02  0.32123560720E+02 -0.64927499433E+03  0.65117778810E+03  0.41800000000E+01 0.  1.
        -11    1    1    2    0    0  0.17110752511E+02  0.35633012913E+02 -0.84195055399E+02  0.93012347645E+02  0.00000000000E+00 0. -1.
         11    1    1    2    0    0  0.90822682397E+01 -0.55324213412E+02 -0.67825109059E+02  0.87997168165E+02  0.00000000000E+00 0.  1.
</event>
<event>
 6    1  0.9216756E-006  0.8287422E+02  0.7561462E-02  0.1321087E+00
          2   -1    0    0  501    0  0.00000000000E+00  0.00000000000E+00  0.94567216021E+02  0.94567216021E+02  0.00000000000E+00 0. -1.
         -2   -1    0    0    0  501 -0.00000000000E+00 -0.00000000000E+00 -0.14956755486E+03  0.14956755486E+03  0.00000000000E+00 0.  1.
          5    1    1    2  502    0 -0.13168843994E+02 -0.53067612265E+02 -0.77249005029E+02  0.94733685148E+02  0.41800000000E+01 0.  1.
         -5    1    1    2    0  502  0.41379468307E+02  0.29119177813E+02  0.10440130183E+02  0.51832958937E+02  0.41800000000E+01 0.  1.
        -11    1    1    2    0    0  0.13474409851E+02  0.62862678348E+01  0.41059062707E+02  0.43668335376E+02  0.00000000000E+00 0. -1.
         11    1    1    2    0    0 -0.41685034164E+02  0.17662166617E+02 -0.29250526699E+02  0.53899791419E+02  0.00000000000E+00 0.  1.
</event>
<event>
 6    1  0.9216756E-006  0.9111385E+02  0.7561462E-02  0.1300177E+00
          1   -1    0    0  501    0  0.00000000000E+00  0.00000000000E+00  0.30644163934E+02  0.30644163934E+02  0.00000000000E+00 0. -1.
         -1   -1    0    0    0  501 -0.00000000000E+00 -0.00000000000E+00 -0.40163452739E+03  0.40163452739E+03  0.00000000000E+00 0.  1.
          5    1    1    2  502    0 -0.70119573714E+02  0.24557938009E+01 -0.15841058945E+03  0.17330370103E+03  0.41800000000E+01 0.  1.
         -5    1    1    2    0  502  0.50348668724E+02 -0.23585045693E+02 -0.80526414897E+02  0.97944978017E+02  0.41800000000E+01 0.  1.
        -11    1    1    2    0    0 -0.84658143539E+01  0.26166894118E+02 -0.12932610493E+03  0.13221806903E+03  0.00000000000E+00 0.  1.
         11    1    1    2    0    0  0.28236719344E+02 -0.50376422260E+01 -0.27272541801E+01  0.28811943251E+02  0.00000000000E+00 0. -1.
</event>
<event>
 6    1  0.9216756E-006  0.5419141E+02  0.7561462E-02  0.1423962E+00
          1   -1    0    0  501    0  0.00000000000E+00  0.00000000000E+00  0.31700807007E+03  0.31700807007E+03  0.00000000000E+00 0. -1.
         -1   -1    0    0    0  501 -0.00000000000E+00 -0.00000000000E+00 -0.65045406435E+02  0.65045406435E+02  0.00000000000E+00 0.  1.
          5    1    1    2  502    0  0.54093117242E+00  0.23177409315E+02  0.75275796865E+02  0.78875870219E+02  0.41800000000E+01 0.  1.
         -5    1    1    2    0  502  0.33250346977E+01  0.27427038063E+02 -0.51122786208E+02  0.58260706675E+02  0.41800000000E+01 0.  1.
        -11    1    1    2    0    0 -0.14371832878E+02 -0.37007332167E+02  0.22377139972E+03  0.22726577293E+03  0.00000000000E+00 0. -1.
         11    1    1    2    0    0  0.10505867008E+02 -0.13597115212E+02  0.40382532589E+01  0.17651126679E+02  0.00000000000E+00 0.  1.
</event>
<event>
 6    1  0.9216756E-006  0.1188549E+03  0.7561462E-02  0.1244998E+00
          4   -1    0    0  501    0  0.00000000000E+00  0.00000000000E+00  0.75356032894E+03  0.75356032894E+03  0.00000000000E+00 0. -1.
         -4   -1    0    0    0  501 -0.00000000000E+00 -0.00000000000E+00 -0.24896575265E+02  0.24896575265E+02  0.00000000000E+00 0.  1.
          5    1    1    2  502    0 -0.15878128702E+02  0.10470519974E+03  0.20238569078E+03  0.22845729154E+03  0.41800000000E+01 0. -1.
         -5    1    1    2    0  502  0.13649616343E+02 -0.21343836730E+02  0.19026374175E+03  0.19198863304E+03  0.41800000000E+01 0. -1.
        -11    1    1    2    0    0 -0.31572800562E+02 -0.44156438517E+02  0.79105900111E+02  0.95939440431E+02  0.00000000000E+00 0.  1.
         11    1    1    2    0    0  0.33801312921E+02 -0.39204924489E+02  0.25690842103E+03  0.26207153919E+03  0.00000000000E+00 0. -1.
</event>
<event>
 6    1  0.9216756E-006  0.1853372E+03  0.7561462E-02  0.1162735E+00
          1   -1    0    0  501    0  0.00000000000E+00  0.00000000000E+00  0.46425539822E+03  0.46425539822E+03  0.00000000000E+00 0. -1.
         -1   -1    0    0    0  501 -0.00000000000E+00 -0.00000000000E+00 -0.96761821351E+02  0.96761821351E+02  0.00000000000E+00 0.  1.
          5    1    1    2  502    0 -0.73474117523E+02 -0.30523154320E+02  0.14932064461E+03  0.16924608179E+03  0.41800000000E+01 0. -1.
         -5    1    1    2    0  502 -0.64547632413E+02 -0.87182189928E+02  0.24210311325E+02  0.11122384036E+03  0.41800000000E+01 0. -1.
        -11    1    1    2    0    0  0.10776190728E+03  0.80619881470E+02  0.79087567490E+02  0.15609944677E+03  0.00000000000E+00 0.  1.
         11    1    1    2    0    0  0.30259842652E+02  0.37085462778E+02  0.11487505344E+03  0.12444785064E+03  0.00000000000E+00 0. -1.
</event>
<event>
 6    1  0.9216756E-006  0.1748411E+03  0.7561462E-02  0.1172891E+00
         -4   -1    0    0    0  501 -0.00000000000E+00  0.00000000000E+00  0.30452845946E+03  0.30452845946E+03  0.00000000000E+00 0.  1.
          4   -1    0    0  501    0  0.00000000000E+00 -0.00000000000E+00 -0.11623880835E+03  0.11623880835E+03  0.00000000000E+00 0. -1.
          5    1    1    2  502    0  0.26233128802E+02 -0.13653603151E+01  0.59220032357E+02  0.64919379910E+02  0.41800000000E+01 0. -1.
         -5    1    1    2    0  502 -0.78960426797E+02 -0.13094074936E+03  0.10120173755E+03  0.18341072195E+03  0.41800000000E+01 0. -1.
        -11    1    1    2    0    0  0.75055189509E+02  0.65278713553E+02  0.18360092756E+02  0.10115179149E+03  0.00000000000E+00 0. -1.
         11    1    1    2    0    0 -0.22327891514E+02  0.67027396121E+02  0.95077884481E+01  0.71285374457E+02  0.00000000000E+00 0.  1.
</event>
<event>
 6    1  0.9216756E-006  0.2194031E+03  0.7561462E-02  0.1134329E+00
          2   -1    0    0  501    0  0.00000000000E+00  0.00000000000E+00  0.68717018891E+03  0.68717018891E+03  0.00000000000E+00 0. -1.
         -2   -1    0    0    0  501 -0.00000000000E+00 -0.00000000000E+00 -0.76302236840E+02  0.76302236840E+02  0.00000000000E+00 0.  1.
          5    1    1    2  502    0  0.44989943506E+02  0.44761044342E+02  0.71042616650E+02  0.95352880857E+02  0.41800000000E+01 0. -1.
         -5    1    1    2    0  502 -0.67943045090E+02  0.15009067055E+03  0.15222661125E+03  0.22435213468E+03  0.41800000000E+01 0.  1.
        -11    1    1    2    0    0  0.33884319840E+02 -0.30212629867E+02  0.13150846492E+03  0.13912378115E+03  0.00000000000E+00 0.  1.
         11    1    1    2    0    0 -0.10931218255E+02 -0.16463908502E+03  0.25609025925E+03  0.30464362907E+03  0.00000000000E+00 0. -1.
</event>
<event>
 6    1  0.9216756E-006  0.9942280E+02  0.7561462E-02  0.1281514E+00
          3   -1    0    0  501    0  0.00000000000E+00  0.00000000000E+00  0.34623036898E+03  0.34623036898E+03  0.00000000000E+00 0. -1.
         -3   -1    0    0    0  501 -0.00000000000E+00 -0.00000000000E+00 -0.51065405191E+02  0.51065405191E+02  0.00000000000E+00 0.  1.
          5    1    1    2  502    0  0.50108801472E+00  0.31838703512E+02 -0.83552773631E+01  0.33184894008E+02  0.41800000000E+01 0.  1.
         -5    1    1    2    0  502 -0.18257694031E+01 -0.87085901333E+02  0.93770341383E+02  0.12805325833E+03  0.41800000000E+01 0.  1.
        -11    1    1    2    0    0  0.28237135133E+02  0.38789339258E+02  0.37369987652E+02  0.60815003228E+02  0.00000000000E+00 0.  1.
         11    1    1    2    0    0 -0.26912453744E+02  0.16457858563E+02  0.17237991212E+03  0.17524261861E+03  0.00000000000E+00 0. -1.
</event>
<event>
 6    1  0.9216756E-006  0.1215819E+03  0.7561462E-02  0.1240510E+00
         -2   -1    0    0    0  501 -0.00000000000E+00  0.00000000000E+00  0.94557910671E+02  0.94557910671E+02  0.00000000000E+00 0.  1.
          2   -1    0    0  501    0  0.00000000000E+00 -0.00000000000E+00 -0.29294227135E+03  0.29294227135E+03  0.00000000000E+00 0. -1.
          5    1    1    2  502    0 -0.11638272348E+02 -0.75419239928E+02 -0.21546123897E+02  0.79405409070E+02  0.41800000000E+01 0. -1.
         -5    1    1    2    0  502 -0.50129319554E+02  0.31153052557E+02  0.32143651970E+02  0.67336083377E+02  0.41800000000E+01 0. -1.
        -11    1    1    2    0    0  0.77847911227E+02  0.47460081765E+02 -0.12232861037E+03  0.15256816692E+03  0.00000000000E+00 0.  1.
         11    1    1    2    0    0 -0.16080319326E+02 -0.31938943939E+01 -0.86653278387E+02  0.88190522656E+02  0.00000000000E+00 0. -1.
</event>
<event>
 6    1  0.9216756E-006  0.1746727E+03  0.7561462E-02  0.1173061E+00
          2   -1    0    0  501    0  0.00000000000E+00  0.00000000000E+00  0.10642773934E+04  0.10642773934E+04  0.00000000000E+00 0. -1.
         -2   -1    0    0    0  501 -0.00000000000E+00 -0.00000000000E+00 -0.32233484749E+02  0.32233484749E+02  0.00000000000E+00 0.  1.
          5    1    1    2  502    0 -0.50144203480E+02 -0.10399610185E+03  0.21817671837E+03  0.24687685834E+03  0.41800000000E+01 0.  1.
         -5    1    1    2    0  502 -0.66538965036E+02  0.26469175104E+02  0.16140452100E+03  0.17662656340E+03  0.41800000000E+01 0.  1.
        -11    1    1    2    0    0  0.61113502622E+01  0.46971504968E+02  0.25315159205E+03  0.25754494645E+03  0.00000000000E+00 0. -1.
         11    1    1    2    0    0  0.11057181825E+03  0.30555421779E+02  0.39931107718E+03  0.41546250992E+03  0.00000000000E+00 0.  1.
</event>
<event>
 6    1  0.9216756E-006  0.1032192E+03  0.7561462E-02  0.1273669E+00
          1   -1    0    0  501    0  0.00000000000E+00  0.00000000000E+00  0.32919049673E+03  0.32919049673E+03  0.00000000000E+00 0. -1.
         -1   -1    0    0    0  501 -0.00000000000E+00 -0.00000000000E+00 -0.50311690401E+02  0.50311690401E+02  0.00000000000E+00 0.  1.
          5    1    1    2  502    0  0.71371897530E+02 -0.25040707402E+01  0.15069970565E+03  0.16681754048E+03  0.41800000000E+01 0. -1.
         -5    1    1    2    0  502 -0.72270914490E+01 -0.21368669523E+02 -0.17074045280E+02  0.28598012347E+02  0.41800000000E+01 0. -1.
        -11    1    1    2    0    0 -0.79361151896E+02 -0.47917493805E+01  0.11435277782E+03  0.13927566581E+03  0.00000000000E+00 0. -1.
         11    1    1    2    0    0  0.15216345815E+02  0.28664489643E+02  0.30900368140E+02  0.44810968497E+02  0.00000000000E+00 0.  1.
</event>
<event>
 6    1  0.9216756E-006  0.9476956E+02  0.7561462E-02  0.1291696E+00
          1   -1    0    0  501    0  0.00000000000E+00  0.00000000000E+00  0.76244533058E+02  0.76244533058E+02  0.00000000000E+00 0. -1.
         -1   -1    0    0    0  501 -0.00000000000E+00 -0.00000000000E+00 -0.24137155390E+03  0.24137155390E+03  0.00000000000E+00 0.  1.
          5    1    1    2  502    0  0.19472119858E+02  0.64165934683E+02 -0.17533317467E+03  0.18776481344E+03  0.41800000000E+01 0.  1.
         -5    1    1    2    0  502  0.12957252961E+02 -0.24131885222E+02  0.66231207550E+01  0.28488180307E+02  0.41800000000E+01 0.  1.
        -11    1    1    2    0    0  0.25770371546E+02 -0.36974064320E+01 -0.15304084853E+02  0.30199302594E+02  0.00000000000E+00 0.  1.
         11    1    1    2    0    0 -0.58199744366E+02 -0.36336643029E+02  0.18887117930E+02  0.71163790615E+02  0.00000000000E+00 0. -1.
</event>
<event>
 6    1  0.9216756E-006  0.2411729E+03  0.7561462E-02  0.1119014E+00
         -1   -1    0    0    0  501 -0.00000000000E+00  0.00000000000E+00  0.17267553971E+03  0.17267553971E+03  0.00000000000E+00 0.  1.
          1   -1    0    0  501    0  0.00000000000E+00 -0.00000000000E+00 -0.78854496276E+03  0.78854496276E+03  0.00000000000E+00 0. -1.
          5    1    1    2  502    0  0.40892367098E+02  0.22893878992E+03  0.71175682081E+01  0.23270858900E+03  0.41800000000E+01 0.  1.
         -5    1    1    2    0  502 -0.16841026683E+02  0.82830000615E+00  0.27193514803E+02  0.32268652095E+02  0.41800000000E+01 0.  1.
        -11    1    1    2    0    0 -0.28897497206E+02 -0.17260961494E+03 -0.57874122907E+03  0.60462430875E+03  0.00000000000E+00 0.  1.
         11    1    1    2    0    0  0.48461567910E+01 -0.57157474994E+02 -0.71439276996E+02  0.91618952630E+02  0.00000000000E+00 0. -1.
</event>
<event>
 6    1  0.9216756E-006  0.1709431E+03  0.7561462E-02  0.1176868E+00
          1   -1    0    0  501    0  0.00000000000E+00  0.00000000000E+00  0.36284806822E+03  0.36284806822E+03  0.00000000000E+00 0. -1.
         -1   -1    0    0    0  501 -0.00000000000E+00 -0.00000000000E+00 -0.10214412909E+03  0.10214412909E+03  0.00000000000E+00 0.  1.
          5    1    1    2  502    0  0.17129207051E+02  0.29329776264E+00  0.36996729927E+02  0.40984462703E+02  0.41800000000E+01 0.  1.
         -5    1    1    2    0  502 -0.14924629761E+03  0.78473125822E+02  0.53505249267E+02  0.17695415487E+03  0.41800000000E+01 0.  1.
        -11    1    1    2    0    0  0.21348689852E+02 -0.23639532776E+02  0.99665260779E+02  0.10463153576E+03  0.00000000000E+00 0. -1.
         11    1    1    2    0    0  0.11076840071E+03 -0.55126890809E+02  0.70536699150E+02  0.14242204398E+03  0.00000000000E+00 0.  1.
</event>
<event>
 6    1  0.9216756E-006  0.1841993E+03  0.7561462E-02  0.1163800E+00
          1   -1    0    0  501    0  0.00000000000E+00  0.00000000000E+00  0.45953567639E+03  0.45953567639E+03  0.00000000000E+00 0. -1.
         -1   -1    0    0    0  501 -0.00000000000E+00 -0.00000000000E+00 -0.82309867887E+02  0.82309867887E+02  0.00000000000E+00 0.  1.
          5    1    1    2  502    0 -0.10463403175E+02  0.17166098381E+03  0.17497602373E+03  0.24537941530E+03  0.41800000000E+01 0.  1.
         -5    1    1    2    0  502  0.10966705838E+02 -0.12389417511E+02 -0.62791316338E+01  0.18184229357E+02  0.41800000000E+01 0.  1.
        -11    1    1    2    0    0 -0.18804556264E+02  0.17870413114E+00  0.57336087268E+01  0.19660049351E+02  0.00000000000E+00 0.  1.
         11    1    1    2    0    0  0.18301253601E+02 -0.15945027043E+03  0.20279530768E+03  0.25862185028E+03  0.00000000000E+00 0. -1.
</event>
<event>
 6    1  0.9216756E-006  0.1322335E+03  0.7561462E-02  0.1224179E+00
         -1   -1    0    0    0  501 -0.00000000000E+00  0.00000000000E+00  0.71874847327E+02  0.71874847327E+02  0.00000000000E+00 0.  1.
          1   -1    0    0  501    0  0.00000000000E+00 -0.00000000000E+00 -0.30010706992E+03  0.30010706992E+03  0.00000000000E+00 0. -1.
          5    1    1    2  502    0 -0.23561198131E+02  0.40331930240E+02 -0.31778979749E+02  0.56649541994E+02  0.41800000000E+01 0.  1.
         -5    1    1    2    0  502  0.11217825795E+03  0.30131019016E+01 -0.88057954622E+02  0.14270499680E+03  0.41800000000E+01 0.  1.
        -11    1    1    2    0    0 -0.16662221295E+02  0.63448629953E+01  0.13673956452E+02  0.22469178667E+02  0.00000000000E+00 0.  1.
         11    1    1    2    0    0 -0.71954838528E+02 -0.49689895137E+02 -0.12206924468E+03  0.15015819978E+03  0.00000000000E+00 0. -1.
</event>
<event>
 6    1  0.9216756E-006  0.1069501E+03  0.7561462E-02  0.1266324E+00
         -1   -1    0    0    0  501 -0.00000000000E+00  0.00000000000E+00  0.62782138724E+03  0.62782138724E+03  0.00000000000E+00 0.  1.
          1   -1    0    0  501    0  0.00000000000E+00 -0.00000000000E+00 -0.20834611880E+02  0.20834611880E+02  0.00000000000E+00 0. -1.
          5    1    1    2  502    0 -0.63562946067E+02  0.26527211029E+02  0.19498082477E+03  0.20683069275E+03  0.41800000000E+01 0.  1.
         -5    1    1    2    0  502  0.55740566247E+02 -0.51153392544E+01  0.23099705827E+03  0.23771893225E+03  0.41800000000E+01 0.  1.
        -11    1    1    2    0    0  0.30108241095E+02 -0.46382211678E+02  0.76670425449E+02  0.94531316930E+02  0.00000000000E+00 0. -1.
         11    1    1    2    0    0 -0.22285861275E+02  0.24970339904E+02  0.10433846687E+03  0.10957505719E+03  0.00000000000E+00 0.  1.
</event>
<event>
 6    1  0.9216756E-006  0.1521433E+03  0.7561462E-02  0.1197864E+00
         -2   -1    0    0    0  501 -0.00000000000E+00  0.00000000000E+00  0.30143031379E+02  0.30143031379E+02  0.00000000000E+00 0.  1.
          2   -1    0    0  501    0  0.00000000000E+00 -0.00000000000E+00 -0.10165259521E+04  0.10165259521E+04  0.00000000000E+00 0. -1.
          5    1    1    2  502    0 -0.94981706698E+02  0.47544582508E+02 -0.53739518447E+03  0.54780751056E+03  0.41800000000E+01 0. -1.
         -5    1    1    2    0  502  0.95791165632E+02  0.14987255814E+02 -0.13899820454E+03  0.16952444813E+03  0.41800000000E+01 0.  1.
        -11    1    1    2    0    0 -0.21813812937E+02 -0.73903718722E+02 -0.28296910573E+03  0.29327310970E+03  0.00000000000E+00 0.  1.
         11    1    1    2    0    0  0.21004354003E+02  0.11371880400E+02 -0.27020425975E+02  0.36063915078E+02  0.00000000000E+00 0. -1.
</event>
<event>
 6    1  0.9216756E-006  0.1029632E+03  0.7561462E-02  0.1274185E+00
          2   -1    0    0  501    0  0.00000000000E+00  0.00000000000E+00  0.78490976229E+02  0.78490976229E+02  0.00000000000E+00 0. -1.
         -2   -1    0    0    0  501 -0.00000000000E+00 -0.00000000000E+00 -0.25936615192E+03  0.25936615192E+03  0.00000000000E+00 0.  1.
          5    1    1    2  502    0  0.20814210321E+02  0.39362109629E+02 -0.12643749421E+03  0.13411382989E+03  0.41800000000E+01 0.  1.
         -5    1    1    2    0  502  0.55572009457E+02  0.10086559751E+02  0.12508361644E+02  0.57999296838E+02  0.41800000000E+01 0.  1.
        -11    1    1    2    0    0  0.63675557853E+01 -0.12320308607E+02 -0.52002528733E+02  0.53820059137E+02  0.00000000000E+00 0.  1.
         11    1    1    2    0    0 -0.82753775563E+02 -0.37128360773E+02 -0.14943514399E+02  0.91923942291E+02  0.00000000000E+00 0. -1.
</event>
<event>
 6    1  0.9216756E-006  0.1154587E+03  0.7561462E-02  0.1250783E+00
         -2   -1    0    0    0  501 -0.00000000000E+00  0.00000000000E+00  0.15642619550E+03  0.15642619550E+03  0.00000000000E+00 0. -1.
          2   -1    0    0  501    0  0.00000000000E+00 -0.00000000000E+00 -0.91132553839E+02  0.91132553839E+02  0.00000000000E+00 0.  1.
          5    1    1    2  502    0  0.69940618358E+02 -0.16987200241E+02  0.12458262774E+02  0.73163760016E+02  0.41800000000E+01 0. -1.
         -5    1    1    2    0  502 -0.53563305748E+02 -0.31463333833E+02  0.24793441476E+02  0.67016089403E+02  0.41800000000E+01 0. -1.
        -11    1    1    2    0    0  0.20767502858E+02 -0.13183967964E+02  0.25413462672E+02  0.35368775371E+02  0.00000000000E+00 0. -1.
         11    1    1    2    0    0 -0.37144815468E+02  0.61634502038E+02  0.26284747348E+01  0.72010124545E+02  0.00000000000E+00 0.  1.
</event>
<event>
 6    1  0.9216756E-006  0.1577814E+03  0.7561462E-02  0.1191225E+00
         -1   -1    0    0    0  501 -0.00000000000E+00  0.00000000000E+00  0.12515375652E+03  0.12515375652E+03  0.00000000000E+00 0.  1.
          1   -1    0    0  501    0  0.00000000000E+00 -0.00000000000E+00 -0.23175171642E+03  0.23175171642E+03  0.00000000000E+00 0. -1.
          5    1    1    2  502    0 -0.31596162855E+02  0.41798813490E+02 -0.23866503806E+02  0.57728162280E+02  0.41800000000E+01 0.  1.
         -5    1    1    2    0  502 -0.87731834835E+02 -0.91322212276E+02 -0.34062974341E+02  0.13120358196E+03  0.41800000000E+01 0.  1.
        -11    1    1    2    0    0  0.33551905684E+02 -0.60444255402E+01  0.24754665406E+02  0.42131448047E+02  0.00000000000E+00 0.  1.
         11    1    1    2    0    0  0.85776092006E+02  0.55567824327E+02 -0.73423147159E+02  0.12584228065E+03  0.00000000000E+00 0. -1.
</event>
<event>
 6    1  0.9216756E-006  0.1107657E+03  0.7561462E-02  0.1259158E+00
          3   -1    0    0  501    0  0.00000000000E+00  0.00000000000E+00  0.14040766346E+03  0.14040766346E+03  0.00000000000E+00 0. -1.
         -3   -1    0    0    0  501 -0.00000000000E+00 -0.00000000000E+00 -0.11993470047E+03  0.11993470047E+03  0.00000000000E+00 0.  1.
          5    1    1    2  502    0 -0.12043069954E+02 -0.58947960886E+02 -0.45018398558E+01  0.60478397703E+02  0.41800000000E+01 0. -1.
         -5    1    1    2    0  502  0.97603005102E+01  0.70521778549E+02 -0.45932470778E+02  0.84828350140E+02  0.41800000000E+01 0.  1.
        -11    1    1    2    0    0 -0.66106250159E+01  0.38491565546E+02  0.37842406271E+02  0.54381510587E+02  0.00000000000E+00 0.  1.
         11    1    1    2    0    0  0.88933944592E+01 -0.50065383208E+02  0.33064867348E+02  0.60654105496E+02  0.00000000000E+00 0. -1.
</event>
<event>
 6    1  0.9216756E-006  0.1187765E+03  0.7561462E-02  0.1245129E+00
         -1   -1    0    0    0  501 -0.00000000000E+00  0.00000000000E+00  0.83705188891E+02  0.83705188891E+02  0.00000000000E+00 0.  1.
          1   -1    0    0  501    0  0.00000000000E+00 -0.00000000000E+00 -0.28721293967E+03  0.28721293967E+03  0.00000000000E+00 0. -1.
          5    1    1    2  502    0  0.99372762652E+01  0.10461165931E+03 -0.18629097896E+02  0.10680292323E+03  0.41800000000E+01 0.  1.
         -5    1    1    2    0  502  0.81344188152E+01  0.41574002083E+01 -0.93731762599E+02  0.94268597454E+02  0.41800000000E+01 0.  1.
        -11    1    1    2    0    0 -0.27689653271E+02 -0.22892076130E+02  0.95298891626E+01  0.37169649383E+02  0.00000000000E+00 0.  1.
         11    1    1    2    0    0  0.96179581901E+01 -0.85876983384E+02 -0.10067677944E+03  0.13267695849E+03  0.00000000000E+00 0. -1.
</event>
<event>
 6    1  0.9216756E-006  0.6815251E+02  0.7561462E-02  0.1366491E+00
         -1   -1    0    0    0  501 -0.00000000000E+00  0.00000000000E+00  0.43300260639E+02  0.43300260639E+02  0.00000000000E+00 0.  1.
          1   -1    0    0  501    0  0.00000000000E+00 -0.00000000000E+00 -0.29295685271E+03  0.29295685271E+03  0.00000000000E+00 0. -1.
          5    1    1    2  502    0 -0.34927661118E+02  0.13878688603E+02  0.12482203418E+02  0.39822572878E+02  0.41800000000E+01 0.  1.
         -5    1    1    2    0  502  0.11047790965E+02 -0.26166055722E+02 -0.13259020299E+03  0.13566263482E+03  0.41800000000E+01 0.  1.
        -11    1    1    2    0    0  0.18734601134E+02 -0.25501231600E+02 -0.69757324670E+01  0.32403069858E+02  0.00000000000E+00 0.  1.
         11    1    1    2    0    0  0.51452690189E+01  0.37788598719E+02 -0.12257286003E+03  0.12836883579E+03  0.00000000000E+00 0. -1.
</event>
<event>
 6    1  0.9216756E-006  0.2230768E+03  0.7561462E-02  0.1131610E+00
          2   -1    0    0  501    0  0.00000000000E+00  0.00000000000E+00  0.31624632898E+03  0.31624632898E+03  0.00000000000E+00 0. -1.
         -2   -1    0    0    0  501 -0.00000000000E+00 -0.00000000000E+00 -0.19714260970E+03  0.19714260970E+03  0.00000000000E+00 0.  1.
          5    1    1    2  502    0 -0.47389510322E+02  0.68059768303E+02  0.78977627361E+02  0.11459858539E+03  0.41800000000E+01 0. -1.
         -5    1    1    2    0  502  0.13887239184E+03 -0.16246596138E+03 -0.42278429399E+02  0.21791206441E+03  0.41800000000E+01 0.  1.
        -11    1    1    2    0    0 -0.81961452339E+01 -0.11805195746E+02  0.34979136046E+02  0.37816390651E+02  0.00000000000E+00 0. -1.
         11    1    1    2    0    0 -0.83286736285E+02  0.10621138883E+03  0.47425385270E+02  0.14306189823E+03  0.00000000000E+00 0.  1.
</event>
<event>
 6    1  0.9216756E-006  0.1592561E+03  0.7561462E-02  0.1189539E+00
         -2   -1    0    0    0  501 -0.00000000000E+00  0.00000000000E+00  0.44635084135E+02  0.44635084135E+02  0.00000000000E+00 0.  1.
          2   -1    0    0  501    0  0.00000000000E+00 -0.00000000000E+00 -0.90746260435E+03  0.90746260435E+03  0.00000000000E+00 0. -1.
          5    1    1    2  502    0 -0.52245539733E+02 -0.11436746542E+03 -0.12702037312E+03  0.17877684737E+03  0.41800000000E+01 0. -1.
         -5    1    1    2    0  502  0.52308815544E+02 -0.17659203969E+02 -0.71802716611E+02  0.90670624687E+02  0.41800000000E+01 0. -1.
        -11    1    1    2    0    0  0.15593372385E+02  0.10462336604E+03 -0.61720150433E+03  0.62620036644E+03  0.00000000000E+00 0. -1.
         11    1    1    2    0    0 -0.15656648196E+02  0.27403303346E+02 -0.46802926156E+02  0.56449849989E+02  0.00000000000E+00 0.  1.
</event>
<event>
 6    1  0.9216756E-006  0.1550667E+03  0.7561462E-02  0.1194382E+00
         -1   -1    0    0    0  501 -0.00000000000E+00  0.00000000000E+00  0.24791612698E+02  0.24791612698E+02  0.00000000000E+00 0. -1.
          1   -1    0    0  501    0  0.00000000000E+00 -0.00000000000E+00 -0.13155764898E+04  0.13155764898E+04  0.00000000000E+00 0.  1.
          5    1    1    2  502    0 -0.32481615281E+02 -0.60486994303E+02 -0.14144440240E+03  0.15728230410E+03  0.41800000000E+01 0. -1.
         -5    1    1    2    0  502 -0.93796848469E+02 -0.48441316325E+01 -0.63499550886E+03  0.64191750488E+03  0.41800000000E+01 0. -1.
        -11    1    1    2    0    0  0.10512755693E+03  0.69164518183E+02 -0.49934329128E+03  0.51495558677E+03  0.00000000000E+00 0.  1.
         11    1    1    2    0    0  0.21150906817E+02 -0.38333922476E+01 -0.15001674544E+02  0.26212706737E+02  0.00000000000E+00 0. -1.
</event>
<event>
 6    1  0.9216756E-006  0.1008808E+03  0.7561462E-02  0.1278455E+00
          2   -1    0    0  501    0  0.00000000000E+00  0.00000000000E+00  0.49326060002E+02  0.49326060002E+02  0.00000000000E+00 0. -1.
         -2   -1    0    0    0  501 -0.00000000000E+00 -0.00000000000E+00 -0.30955392088E+03  0.30955392088E+03  0.00000000000E+00 0.  1.
          5    1    1    2  502    0  0.63715492585E+02  0.33477604252E+01 -0.14484077349E+03  0.15832622512E+03  0.41800000000E+01 0.  1.
         -5    1    1    2    0  502 -0.53789571417E+02 -0.26669861849E+02 -0.78609895497E+02  0.99002967604E+02  0.41800000000E+01 0.  1.
        -11    1    1    2    0    0  0.27583712654E+02 -0.80540403912E+01  0.13205312620E+02  0.31624500815E+02  0.00000000000E+00 0. -1.
         11    1    1    2    0    0 -0.37509633821E+02  0.31376141815E+02 -0.49982504508E+02  0.69926287342E+02  0.00000000000E+00 0.  1.
</event>
<event>
 6    1  0.9216756E-006  0.2971897E+03  0.7561462E-02  0.1086654E+00
         -2   -1    0    0    0  501 -0.00000000000E+00  0.00000000000E+00  0.74724301640E+02  0.74724301640E+02  0.00000000000E+00 0.  1.
          2   -1    0    0  501    0  0.00000000000E+00 -0.00000000000E+00 -0.13564300662E+04  0.13564300662E+04  0.00000000000E+00 0. -1.
          5    1    1    2  502    0 -0.72899785260E+01 -0.10949808135E+02  0.33372502680E+01  0.14200412827E+02  0.41800000000E+01 0. -1.
         -5    1    1    2    0  502 -0.27418195497E+03  0.59278115701E+02 -0.45804151045E+03  0.53713046565E+03  0.41800000000E+01 0. -1.
        -11    1    1    2    0    0  0.11617700803E+03 -0.66293185462E+02 -0.35149982232E+03  0.37609042626E+03  0.00000000000E+00 0.  1.
         11    1    1    2    0    0  0.16529492547E+03  0.17964877896E+02 -0.47550168209E+03  0.50373306313E+03  0.00000000000E+00 0. -1.
</event>
<event>
 6    1  0.9216756E-006  0.1063588E+03  0.7561462E-02  0.1267465E+00
          1   -1    0    0  501    0  0.00000000000E+00  0.00000000000E+00  0.64151551037E+03  0.64151551037E+03  0.00000000000E+00 0. -1.
         -1   -1    0    0    0  501 -0.00000000000E+00 -0.00000000000E+00 -0.68924764830E+02  0.68924764830E+02  0.00000000000E+00 0.  1.
          5    1    1    2  502    0 -0.52239458170E+02 -0.12705729945E+02  0.70757466855E+02  0.88963408653E+02  0.41800000000E+01 0. -1.
         -5    1    1    2    0  502 -0.30234933252E+01 -0.35059497651E+02 -0.47019223314E+02  0.58877751727E+02  0.41800000000E+01 0.  1.
        -11    1    1    2    0    0  0.18751575445E+01 -0.29434462229E+02  0.14710767962E+03  0.15003523981E+03  0.00000000000E+00 0.  1.
         11    1    1    2    0    0  0.53387793951E+02  0.77199689825E+02  0.40174482239E+03  0.41256387501E+03  0.00000000000E+00 0. -1.
</event>
<event>
 6    1  0.9216756E-006  0.1530432E+03  0.7561462E-02  0.1196783E+00
          4   -1    0    0  501    0  0.00000000000E+00  0.00000000000E+00  0.65933709300E+02  0.65933709300E+02  0.00000000000E+00 0. -1.
         -4   -1    0    0    0  501 -0.00000000000E+00 -0.00000000000E+00 -0.42221765741E+03  0.42221765741E+03  0.00000000000E+00 0.  1.
          5    1    1    2  502    0 -0.27055151047E+02  0.95905328659E+01 -0.83506607473E+02  0.88401274937E+02  0.41800000000E+01 0. -1.
         -5    1    1    2    0  502  0.31438365009E+02 -0.13090871261E+03 -0.16748827733E+03  0.21493081974E+03  0.41800000000E+01 0.  1.
        -11    1    1    2    0    0 -0.34389253120E+02  0.27959650899E+02 -0.65291994460E+02  0.78913923671E+02  0.00000000000E+00 0.  1.
         11    1    1    2    0    0  0.30006039158E+02  0.93358528847E+02 -0.39997068842E+02  0.10590534836E+03  0.00000000000E+00 0. -1.
</event>
<event>
 6    1  0.9216756E-006  0.9143501E+02  0.7561462E-02  0.1299413E+00
          2   -1    0    0  501    0  0.00000000000E+00  0.00000000000E+00  0.14344901876E+03  0.14344901876E+03  0.00000000000E+00 0. -1.
         -2   -1    0    0    0  501 -0.00000000000E+00 -0.00000000000E+00 -0.84172112139E+02  0.84172112139E+02  0.00000000000E+00 0.  1.
          5    1    1    2  502    0  0.49530275700E+02  0.52125017169E+02  0.28200649426E+02  0.77349949281E+02  0.41800000000E+01 0. -1.
         -5    1    1    2    0  502 -0.42521601445E+02 -0.27930688059E+02 -0.85510206796E+01  0.51757147135E+02  0.41800000000E+01 0. -1.
        -11    1    1    2    0    0  0.21888898542E+02 -0.21652759152E+02  0.56940208782E+02  0.64731392959E+02  0.00000000000E+00 0. -1.
         11    1    1    2    0    0 -0.28897572796E+02 -0.25415699579E+01 -0.17312930911E+02  0.33782641520E+02  0.00000000000E+00 0.  1.
</event>
<event>
 6    1  0.9216756E-006  0.1698907E+03  0.7561462E-02  0.1177962E+00
         -2   -1    0    0    0  501 -0.00000000000E+00  0.00000000000E+00  0.10678972857E+03  0.10678972857E+03  0.00000000000E+00 0.  1.
          2   -1    0    0  501    0  0.00000000000E+00 -0.00000000000E+00 -0.30721516524E+03  0.30721516524E+03  0.00000000000E+00 0. -1.
          5    1    1    2  502    0 -0.78120554184E+02 -0.89145692711E+02 -0.14133129158E+03  0.18450415143E+03  0.41800000000E+01 0. -1.
         -5    1    1    2    0  502  0.33066202250E+02 -0.42666661576E+02 -0.74835913327E+01  0.54656145862E+02  0.41800000000E+01 0. -1.
        -11    1    1    2    0    0 -0.28768371903E+02  0.36188524474E+02 -0.15473876367E+02  0.48751096146E+02  0.00000000000E+00 0. -1.
         11    1    1    2    0    0  0.73822723837E+02  0.95623829812E+02 -0.36136677394E+02  0.12609350037E+03  0.00000000000E+00 0.  1.
</event>
<event>
 6    1  0.9216756E-006  0.1669051E+03  0.7561462E-02  0.1181114E+00
          1   -1    0    0  501    0  0.00000000000E+00  0.00000000000E+00  0.14038485447E+03  0.14038485447E+03  0.00000000000E+00 0. -1.
         -1   -1    0    0    0  501 -0.00000000000E+00 -0.00000000000E+00 -0.30500408610E+03  0.30500408610E+03  0.00000000000E+00 0.  1.
          5    1    1    2  502    0  0.14727620128E+03  0.49442451841E+02 -0.11784603114E+03  0.19503844484E+03  0.41800000000E+01 0. -1.
         -5    1    1    2    0  502 -0.17059297331E+02  0.20681594815E+02 -0.68792944046E+02  0.73950588504E+02  0.41800000000E+01 0. -1.
        -11    1    1    2    0    0 -0.37366324822E+02 -0.46535778018E+01 -0.33089362585E+02  0.50127875811E+02  0.00000000000E+00 0.  1.
         11    1    1    2    0    0 -0.92850579132E+02 -0.65470468855E+02  0.55109106147E+02  0.12627203141E+03  0.00000000000E+00 0. -1.
</event>
<event>
 6    1  0.9216756E-006  0.1967721E+03  0.7561462E-02  0.1152491E+00
          1   -1    0    0  501    0  0.00000000000E+00  0.00000000000E+00  0.92795189860E+03  0.92795189860E+03  0.00000000000E+00 0. -1.
         -1   -1    0    0    0  501 -0.00000000000E+00 -0.00000000000E+00 -0.44883482464E+02  0.44883482464E+02  0.00000000000E+00 0.  1.
          5    1    1    2  502    0  0.10036917185E+03 -0.58498109602E+02  0.28075733544E+03  0.30387193567E+03  0.41800000000E+01 0.  1.
         -5    1    1    2    0  502 -0.10919815002E+02 -0.86674557242E+02  0.11093308491E+03  0.14126338153E+03  0.41800000000E+01 0.  1.
        -11    1    1    2    0    0 -0.98517171764E+02  0.88459927262E+02  0.30067956870E+03  0.32854070509E+03  0.00000000000E+00 0.  1.
         11    1    1    2    0    0  0.90678149203E+01  0.56712739581E+02  0.19069842709E+03  0.19915935878E+03  0.00000000000E+00 0. -1.
</event>
<event>
 6    1  0.9216756E-006  0.8465905E+02  0.7561462E-02  0.1316327E+00
          4   -1    0    0  501    0  0.00000000000E+00  0.00000000000E+00  0.84351382410E+02  0.84351382410E+02  0.00000000000E+00 0. -1.
         -4   -1    0    0    0  501 -0.00000000000E+00 -0.00000000000E+00 -0.14133100124E+03  0.14133100124E+03  0.00000000000E+00 0.  1.
          5    1    1    2  502    0  0.40457898439E+02 -0.61842983725E+01 -0.66837913273E+02  0.78484814730E+02  0.41800000000E+01 0.  1.
         -5    1    1    2    0  502 -0.38650615522E+02  0.11299811653E+02  0.31856719916E+02  0.51515811431E+02  0.41800000000E+01 0.  1.
        -11    1    1    2    0    0  0.30569136792E+02 -0.32985803225E+02 -0.27337452783E+02  0.52629570236E+02  0.00000000000E+00 0. -1.
         11    1    1    2    0    0 -0.32376419709E+02  0.27870289945E+02  0.53390273085E+01  0.43052187254E+02  0.00000000000E+00 0.  1.
</event>
<event>
 6    1  0.9216756E-006  0.1131900E+03  0.7561462E-02  0.1254774E+00
          1   -1    0    0  501    0  0.00000000000E+00  0.00000000000E+00  0.10508064994E+03  0.10508064994E+03  0.00000000000E+00 0. -1.
         -1   -1    0    0    0  501 -0.00000000000E+00 -0.00000000000E+00 -0.53453691992E+03  0.53453691992E+03  0.00000000000E+00 0.  1.
          5    1    1    2  502    0 -0.10712622245E+03  0.16719696056E+02 -0.47118980795E+03  0.48352133695E+03  0.41800000000E+01 0. -1.
         -5    1    1    2    0  502  0.16167724106E-01  0.44246064309E+01  0.71133151424E+01  0.93621074433E+01  0.41800000000E+01 0. -1.
        -11    1    1    2    0    0  0.17293961413E+02 -0.12940577106E+02  0.50711588938E+02  0.55119913731E+02  0.00000000000E+00 0.  1.
         11    1    1    2    0    0  0.89816093312E+02 -0.82037253811E+01 -0.16091366115E+02  0.91614211733E+02  0.00000000000E+00 0. -1.
</event>
<event>
 6    1  0.9216756E-006  0.8627628E+02  0.7561462E-02  0.1312128E+00
          2   -1    0    0  501    0  0.00000000000E+00  0.00000000000E+00  0.27691549097E+03  0.27691549097E+03  0.00000000000E+00 0. -1.
         -2   -1    0    0    0  501 -0.00000000000E+00 -0.00000000000E+00 -0.54986929159E+02  0.54986929159E+02  0.00000000000E+00 0.  1.
          5    1    1    2  502    0  0.23561186695E+02 -0.57760748970E+02  0.71150290757E+01  0.62924793832E+02  0.41800000000E+01 0.  1.
         -5    1    1    2    0  502 -0.35453742401E+02  0.51950872367E+01  0.11319648331E+03  0.11880603105E+03  0.41800000000E+01 0.  1.
        -11    1    1    2    0    0 -0.16565443706E+02  0.30482822006E+01  0.90415539105E+02  0.91971058824E+02  0.00000000000E+00 0. -1.
         11    1    1    2    0    0  0.28457999412E+02  0.49517379533E+02  0.11201510327E+02  0.58200536423E+02  0.00000000000E+00 0.  1.
</event>
<event>
 6    1  0.9216756E-006  0.1473275E+03  0.7561462E-02  0.1203796E+00
          2   -1    0    0  501    0  0.00000000000E+00  0.00000000000E+00  0.15068071304E+03  0.15068071304E+03  0.00000000000E+00 0. -1.
         -2   -1    0    0    0  501 -0.00000000000E+00 -0.00000000000E+00 -0.15032469591E+03  0.15032469591E+03  0.00000000000E+00 0.  1.
          5    1    1    2  502    0 -0.63072293354E+02  0.10594431971E+03  0.65605214710E+01  0.12354281003E+03  0.41800000000E+01 0.  1.
         -5    1    1    2    0  502  0.34341484590E+02 -0.49320704426E+01 -0.20183284573E+02  0.40354680755E+02  0.41800000000E+01 0.  1.
        -11    1    1    2    0    0 -0.94562480188E+01 -0.97539947679E+02  0.11740786428E+02  0.98698065258E+02  0.00000000000E+00 0. -1.
         11    1    1    2    0    0  0.38187056782E+02 -0.34723015904E+01  0.22379938036E+01  0.38409852906E+02  0.00000000000E+00 0.  1.
</event>
<event>
 6    1  0.9216756E-006  0.1163006E+03  0.7561462E-02  0.1249328E+00
          1   -1    0    0  501    0  0.00000000000E+00  0.00000000000E+00  0.43323352896E+02  0.43323352896E+02  0.00000000000E+00 0. -1.
         -1   -1    0    0    0  501 -0.00000000000E+00 -0.00000000000E+00 -0.36078762527E+03  0.36078762527E+03  0.00000000000E+00 0.  1.
          5    1    1    2  502    0  0.99988216068E+02 -0.47150191294E+01 -0.17711839831E+03  0.20349023116E+03  0.41800000000E+01 0.  1.
         -5    1    1    2    0  502 -0.35306784812E+02  0.31074151297E+01 -0.28098447414E+02  0.45422684087E+02  0.41800000000E+01 0.  1.
        -11    1    1    2    0    0 -0.77766839298E+02 -0.11016830725E+02 -0.57030729515E+02  0.97064699879E+02  0.00000000000E+00 0. -1.
         11    1    1    2    0    0  0.13085408042E+02  0.12624434724E+02 -0.55216697131E+02  0.58133363036E+02  0.00000000000E+00 0.  1.
</event>
<event>
 6    1  0.9216756E-006  0.1006954E+03  0.7561462E-02  0.1278840E+00
          1   -1    0    0  501    0  0.00000000000E+00  0.00000000000E+00  0.34127600841E+02  0.34127600841E+02  0.00000000000E+00 0. -1.
         -1   -1    0    0    0  501 -0.00000000000E+00 -0.00000000000E+00 -0.39481305953E+03  0.39481305953E+03  0.00000000000E+00 0.  1.
          5    1    1    2  502    0  0.43481343537E+02 -0.23329305408E+02 -0.23886665838E+02  0.54981168880E+02  0.41800000000E+01 0.  1.
         -5    1    1    2    0  502 -0.56573556664E+02 -0.14017689197E+02 -0.16471399083E+03  0.17477194883E+03  0.41800000000E+01 0.  1.
        -11    1    1    2    0    0  0.17029149513E+02  0.64136231180E+02 -0.15077164976E+03  0.16472868134E+03  0.00000000000E+00 0.  1.
         11    1    1    2    0    0 -0.39369363862E+01 -0.26789236575E+02 -0.21313152261E+02  0.34458861323E+02  0.00000000000E+00 0. -1.
</event>
<event>
 6    1  0.9216756E-006  0.5195514E+02  0.7561462E-02  0.1435073E+00
          2   -1    0    0  501    0  0.00000000000E+00  0.00000000000E+00  0.15033946451E+03  0.15033946451E+03  0.00000000000E+00 0. -1.
         -2   -1    0    0    0  501 -0.00000000000E+00 -0.00000000000E+00 -0.89361889890E+02  0.89361889890E+02  0.00000000000E+00 0.  1.
          5    1    1    2  502    0 -0.21351011524E+02  0.20148534800E+02  0.56381752419E+02  0.63704030905E+02  0.41800000000E+01 0.  1.
         -5    1    1    2    0  502 -0.50157206914E+01 -0.20825469031E+02 -0.60389802815E+02  0.64212602333E+02  0.41800000000E+01 0.  1.
        -11    1    1    2    0    0  0.19970903098E+02  0.22269338038E+02 -0.11504349737E+02  0.32048563931E+02  0.00000000000E+00 0.  1.
         11    1    1    2    0    0  0.63958291174E+01 -0.21592403807E+02  0.76489974752E+02  0.79736157230E+02  0.00000000000E+00 0. -1.
</event>
<event>
 6    1  0.9216756E-006  0.1029244E+03  0.7561462E-02  0.1274264E+00
          3   -1    0    0  501    0  0.00000000000E+00  0.00000000000E+00  0.26912635108E+03  0.26912635108E+03  0.00000000000E+00 0. -1.
         -3   -1    0    0    0  501 -0.00000000000E+00 -0.00000000000E+00 -0.51558550637E+02  0.51558550637E+02  0.00000000000E+00 0.  1.
          5    1    1    2  502    0  0.45680547319E+02 -0.27461327582E+02  0.77546115558E+01  0.54022618562E+02  0.41800000000E+01 0.  1.
         -5    1    1    2    0  502 -0.12078757586E+02  0.53045985635E+02  0.11042237257E+03  0.12316795744E+03  0.41800000000E+01 0.  1.
        -11    1    1    2    0    0  0.18285453349E+02 -0.39989492261E+02  0.68542677193E+02  0.81434733943E+02  0.00000000000E+00 0. -1.
         11    1    1    2    0    0 -0.51887243082E+02  0.14404834208E+02  0.30848139128E+02  0.62059591772E+02  0.00000000000E+00 0.  1.
</event>
<event>
 6    1  0.9216756E-006  0.9814737E+02  0.7561462E-02  0.1284241E+00
         -2   -1    0    0    0  501 -0.00000000000E+00  0.00000000000E+00  0.77759252461E+02  0.77759252461E+02  0.00000000000E+00 0.  1.
          2   -1    0    0  501    0  0.00000000000E+00 -0.00000000000E+00 -0.18593629924E+03  0.18593629924E+03  0.00000000000E+00 0. -1.
          5    1    1    2  502    0  0.77945034059E+02  0.32936650746E+02 -0.10460162187E+02  0.85364739148E+02  0.41800000000E+01 0.  1.
         -5    1    1    2    0  502 -0.33649074640E+02 -0.10967536639E+02 -0.51756651120E+02  0.62839242669E+02  0.41800000000E+01 0.  1.
        -11    1    1    2    0    0 -0.54333276406E+02 -0.29289934266E+01 -0.66374222584E+02  0.85826693698E+02  0.00000000000E+00 0. -1.
         11    1    1    2    0    0  0.10037316987E+02 -0.19040120681E+02  0.20413989110E+02  0.29664876187E+02  0.00000000000E+00 0.  1.
</event>
<event>
 6    1  0.9216756E-006  0.1352266E+03  0.7561462E-02  0.1219900E+00
         -2   -1    0    0    0  501 -0.00000000000E+00  0.00000000000E+00  0.90224253058E+02  0.90224253058E+02  0.00000000000E+00 0.  1.
          2   -1    0    0  501    0  0.00000000000E+00 -0.00000000000E+00 -0.40311629338E+03  0.40311629338E+03  0.00000000000E+00 0. -1.
          5    1    1    2  502    0 -0.10143304339E+03 -0.22184199870E+02 -0.96228642588E+02  0.14162706333E+03  0.41800000000E+01 0. -1.
         -5    1    1    2    0  502 -0.29180154657E+02  0.39963844888E+00  0.39378778722E+02  0.49191480465E+02  0.41800000000E+01 0. -1.
        -11    1    1    2    0    0  0.12165629034E+03  0.97369884320E+01 -0.25980695810E+03  0.28704480033E+03  0.00000000000E+00 0. -1.
         11    1    1    2    0    0  0.89569077036E+01  0.12047572989E+02  0.37647816357E+01  0.15477202309E+02  0.00000000000E+00 0.  1.
</event>
<event>
 6    1  0.9216756E-006  0.1295660E+03  0.7561462E-02  0.1228101E+00
         -1   -1    0    0    0  501 -0.00000000000E+00  0.00000000000E+00  0.54738668088E+02  0.54738668088E+02  0.00000000000E+00 0.  1.
          1   -1    0    0  501    0  0.00000000000E+00 -0.00000000000E+00 -0.50946211634E+03  0.50946211634E+03  0.00000000000E+00 0. -1.
          5    1    1    2  502    0 -0.89848657754E+02  0.72464054725E+02 -0.61085425517E+02  0.13066262717E+03  0.41800000000E+01 0.  1.
         -5    1    1    2    0  502  0.14226800198E+01 -0.39982777799E+02 -0.32936747115E+02  0.51989886031E+02  0.41800000000E+01 0.  1.
        -11    1    1    2    0    0  0.21804995353E+02 -0.29539466422E+02 -0.41303339371E+02  0.55263041376E+02  0.00000000000E+00 0.  1.
         11    1    1    2    0    0  0.66620982381E+02 -0.29418105037E+01 -0.31939793624E+03  0.32628522985E+03  0.00000000000E+00 0. -1.
</event>
<event>
 6    1  0.9216756E-006  0.1833226E+03  0.7561462E-02  0.1164626E+00
         -1   -1    0    0    0  501 -0.00000000000E+00  0.00000000000E+00  0.86009116917E+02  0.86009116917E+02  0.00000000000E+00 0.  1.
          1   -1    0    0  501    0  0.00000000000E+00 -0.00000000000E+00 -0.58376462723E+03  0.58376462723E+03  0.00000000000E+00 0. -1.
          5    1    1    2  502    0 -0.54131886107E+02 -0.78015230289E+02  0.58212172819E+01  0.95226027016E+02  0.41800000000E+01 0.  1.
         -5    1    1    2    0  502 -0.73331175098E+02 -0.35259208184E+02 -0.12018514987E+03  0.14519853874E+03  0.41800000000E+01 0.  1.
        -11    1    1    2    0    0  0.86312518926E+02  0.20620739085E+02 -0.14088582977E+03  0.16650490333E+03  0.00000000000E+00 0.  1.
         11    1    1    2    0    0  0.41150542279E+02  0.92653699388E+02 -0.24250574796E+03  0.26284427506E+03  0.00000000000E+00 0. -1.
</event>
<event>
 6    1  0.9216756E-006  0.1310437E+03  0.7561462E-02  0.1225915E+00
          1   -1    0    0  501    0  0.00000000000E+00  0.00000000000E+00  0.20978171984E+03  0.20978171984E+03  0.00000000000E+00 0. -1.
         -1   -1    0    0    0  501 -0.00000000000E+00 -0.00000000000E+00 -0.11691072889E+03  0.11691072889E+03  0.00000000000E+00 0.  1.
          5    1    1    2  502    0 -0.53942745209E+02  0.57651770644E+02 -0.19288415268E+02  0.81382195735E+02  0.41800000000E+01 0.  1.
         -5    1    1    2    0  502 -0.50509160851E+02 -0.59124535894E+02  0.24631273023E+02  0.81676545503E+02  0.41800000000E+01 0.  1.
        -11    1    1    2    0    0  0.18124031733E+02  0.48307723691E+01 -0.18850783443E+02  0.26592647938E+02  0.00000000000E+00 0.  1.
         11    1    1    2    0    0  0.86327874327E+02 -0.33580071190E+01  0.10637891664E+03  0.13704105955E+03  0.00000000000E+00 0. -1.
</event>
<event>
 6    1  0.9216756E-006  0.1578926E+03  0.7561462E-02  0.1191097E+00
          2   -1    0    0  501    0  0.00000000000E+00  0.00000000000E+00  0.38390315212E+03  0.38390315212E+03  0.00000000000E+00 0.  1.
         -2   -1    0    0    0  501 -0.00000000000E+00 -0.00000000000E+00 -0.86401972863E+02  0.86401972863E+02  0.00000000000E+00 0. -1.
          5    1    1    2  502    0  0.13400045181E+03 -0.65180891722E+02  0.49954445163E+02  0.15721828368E+03  0.41800000000E+01 0. -1.
         -5    1    1    2    0  502 -0.54614476825E+01  0.28729353517E+02  0.31284832649E+02  0.43028087550E+02  0.41800000000E+01 0. -1.
        -11    1    1    2    0    0 -0.61851979717E+02  0.33682713282E+02  0.38687233179E+02  0.80354804337E+02  0.00000000000E+00 0. -1.
         11    1    1    2    0    0 -0.66687024409E+02  0.27688249228E+01  0.17757466827E+03  0.18970394942E+03  0.00000000000E+00 0.  1.
</event>
<event>
 6    1  0.9216756E-006  0.8579001E+02  0.7561462E-02  0.1313379E+00
          2   -1    0    0  501    0  0.00000000000E+00  0.00000000000E+00  0.24089387287E+03  0.24089387287E+03  0.00000000000E+00 0. -1.
         -2   -1    0    0    0  501 -0.00000000000E+00 -0.00000000000E+00 -0.64741616543E+02  0.64741616543E+02  0.00000000000E+00 0.  1.
          5    1    1    2  502    0  0.29538390084E+02 -0.41632079168E+02  0.60103167802E+02  0.78965876709E+02  0.41800000000E+01 0.  1.
         -5    1    1    2    0  502  0.11287944656E+02  0.58738914393E+02 -0.13887818457E+02  0.61546906178E+02  0.41800000000E+01 0.  1.
        -11    1    1    2    0    0 -0.36963918029E+02 -0.29581988344E+02  0.14054051077E+03  0.14830057464E+03  0.00000000000E+00 0. -1.
         11    1    1    2    0    0 -0.38624167109E+01  0.12475153119E+02 -0.10603603784E+02  0.16822131892E+02  0.00000000000E+00 0.  1.
</event>
<event>
 6    1  0.9216756E-006  0.7092714E+02  0.7561462E-02  0.1356968E+00
          2   -1    0    0  501    0  0.00000000000E+00  0.00000000000E+00  0.13872239875E+03  0.13872239875E+03  0.00000000000E+00 0. -1.
         -2   -1    0    0    0  501 -0.00000000000E+00 -0.00000000000E+00 -0.95245227016E+02  0.95245227016E+02  0.00000000000E+00 0.  1.
          5    1    1    2  502    0 -0.12780389999E+02 -0.30902075539E+02 -0.56387784310E+02  0.65691180995E+02  0.41800000000E+01 0.  1.
         -5    1    1    2    0  502 -0.15509755239E+02  0.25319946688E+02  0.55050860478E+02  0.62687493547E+02  0.41800000000E+01 0.  1.
        -11    1    1    2    0    0 -0.28345600505E+01  0.35134361284E+02 -0.93634916778E+01  0.36470989154E+02  0.00000000000E+00 0.  1.
         11    1    1    2    0    0  0.31124705289E+02 -0.29552232433E+02  0.54177587245E+02  0.69117962071E+02  0.00000000000E+00 0. -1.
</event>
<event>
 6    1  0.9216756E-006  0.1451047E+03  0.7561462E-02  0.1206621E+00
          2   -1    0    0  501    0  0.00000000000E+00  0.00000000000E+00  0.66300362275E+02  0.66300362275E+02  0.00000000000E+00 0. -1.
         -2   -1    0    0    0  501 -0.00000000000E+00 -0.00000000000E+00 -0.37295550590E+03  0.37295550590E+03  0.00000000000E+00 0.  1.
          5    1    1    2  502    0 -0.99404599532E+02  0.72016575813E+02 -0.16935219707E+03  0.20920157899E+03  0.41800000000E+01 0. -1.
         -5    1    1    2    0  502  0.38449268670E+01 -0.37387788007E+02 -0.65648974987E+02  0.75762064858E+02  0.41800000000E+01 0. -1.
        -11    1    1    2    0    0 -0.44938263513E+01 -0.29014194807E+02  0.27369482802E+01  0.29487435654E+02  0.00000000000E+00 0. -1.
         11    1    1    2    0    0  0.10005349902E+03 -0.56145929989E+01 -0.74390919856E+02  0.12480478868E+03  0.00000000000E+00 0.  1.
</event>
<event>
 6    1  0.9216756E-006  0.9954241E+02  0.7561462E-02  0.1281261E+00
          2   -1    0    0  501    0  0.00000000000E+00  0.00000000000E+00  0.35303289547E+03  0.35303289547E+03  0.00000000000E+00 0. -1.
         -2   -1    0    0    0  501 -0.00000000000E+00 -0.00000000000E+00 -0.77158677763E+02  0.77158677763E+02  0.00000000000E+00 0.  1.
          5    1    1    2  502    0  0.30936545833E+02 -0.52518100953E+02 -0.47227490305E+02  0.77221299110E+02  0.41800000000E+01 0. -1.
         -5    1    1    2    0  502  0.44918546560E+01  0.28525792687E+02  0.46605378855E+02  0.54985737649E+02  0.41800000000E+01 0. -1.
        -11    1    1    2    0    0 -0.41053273611E+02 -0.32300980743E+02  0.10285860980E+03  0.11536298471E+03  0.00000000000E+00 0.  1.
         11    1    1    2    0    0  0.56248731224E+01  0.56293289009E+02  0.17363771936E+03  0.18262155177E+03  0.00000000000E+00 0. -1.
</event>
<event>
 6    1  0.9216756E-006  0.1191426E+03  0.7561462E-02  0.1244518E+00
          1   -1    0    0  501    0  0.00000000000E+00  0.00000000000E+00  0.21124608206E+03  0.21124608206E+03  0.00000000000E+00 0. -1.
         -1   -1    0    0    0  501 -0.00000000000E+00 -0.00000000000E+00 -0.95992436325E+02  0.95992436325E+02  0.00000000000E+00 0.  1.
          5    1    1    2  502    0  0.10605570998E+02 -0.34950405077E+02  0.11507273767E+01  0.36780504683E+02  0.41800000000E+01 0.  1.
         -5    1    1    2    0  502  0.92221471563E+01  0.10994662409E+03  0.70886632970E+01  0.11063918698E+03  0.41800000000E+01 0.  1.
        -11    1    1    2    0    0  0.15675297983E+02 -0.29451954129E+02 -0.50568897205E+01  0.33744698880E+02  0.00000000000E+00 0.  1.
         11    1    1    2    0    0 -0.35503016137E+02 -0.45544264887E+02  0.11207114478E+03  0.12607412784E+03  0.00000000000E+00 0. -1.
</event>
<event>
 6    1  0.9216756E-006  0.1307567E+03  0.7561462E-02  0.1226337E+00
         -2   -1    0    0    0  501 -0.00000000000E+00  0.00000000000E+00  0.15591094737E+03  0.15591094737E+03  0.00000000000E+00 0.  1.
          2   -1    0    0  501    0  0.00000000000E+00 -0.00000000000E+00 -0.25227489922E+03  0.25227489922E+03  0.00000000000E+00 0. -1.
          5    1    1    2  502    0 -0.35298654307E+02 -0.35623299967E+02 -0.35552259089E+02  0.61615339184E+02  0.41800000000E+01 0.  1.
         -5    1    1    2    0  502 -0.12208764202E+02 -0.81557516285E+02  0.95113566030E+02  0.12595533029E+03  0.41800000000E+01 0.  1.
        -11    1    1    2    0    0  0.23694210944E+02  0.87025222566E+02 -0.40326961450E+02  0.98798121514E+02  0.00000000000E+00 0.  1.
         11    1    1    2    0    0  0.23813207565E+02  0.30155593686E+02 -0.11559829734E+03  0.12181705559E+03  0.00000000000E+00 0. -1.
</event>
<event>
 6    1  0.9216756E-006  0.1504768E+03  0.7561462E-02  0.1199888E+00
          3   -1    0    0  501    0  0.00000000000E+00  0.00000000000E+00  0.40094681033E+03  0.40094681033E+03  0.00000000000E+00 0. -1.
         -3   -1    0    0    0  501 -0.00000000000E+00 -0.00000000000E+00 -0.11574977296E+03  0.11574977296E+03  0.00000000000E+00 0.  1.
          5    1    1    2  502    0  0.18835020654E+02  0.25041846617E+02  0.27240624542E+02  0.41729798831E+02  0.41800000000E+01 0. -1.
         -5    1    1    2    0  502  0.74643975646E+02 -0.95917745433E+02 -0.49080599312E+02  0.13114234487E+03  0.41800000000E+01 0. -1.
        -11    1    1    2    0    0 -0.97652571998E+02  0.23855108636E+02  0.25203670992E+03  0.27134405129E+03  0.00000000000E+00 0.  1.
         11    1    1    2    0    0  0.41735756983E+01  0.47020790181E+02  0.55000302219E+02  0.72480388296E+02  0.00000000000E+00 0. -1.
</event>
<event>
 6    1  0.9216756E-006  0.1110864E+03  0.7561462E-02  0.1258571E+00
         -1   -1    0    0    0  501 -0.00000000000E+00  0.00000000000E+00  0.12770073477E+03  0.12770073477E+03  0.00000000000E+00 0.  1.
          1   -1    0    0  501    0  0.00000000000E+00 -0.00000000000E+00 -0.12655408281E+03  0.12655408281E+03  0.00000000000E+00 0. -1.
          5    1    1    2  502    0  0.72788862531E+02 -0.36839560091E+02  0.43046367467E+02  0.92335441995E+02  0.41800000000E+01 0.  1.
         -5    1    1    2    0  502 -0.47711821607E+02 -0.11047735868E+02 -0.42783545792E+01  0.49338089817E+02  0.41800000000E+01 0.  1.
        -11    1    1    2    0    0  0.18339406097E+02  0.44088602150E+02  0.91850464743E+01  0.48626163063E+02  0.00000000000E+00 0.  1.
         11    1    1    2    0    0 -0.43416447021E+02  0.37986938090E+01 -0.46806407396E+02  0.63955122702E+02  0.00000000000E+00 0. -1.
</event>
<event>
 6    1  0.9216756E-006  0.9380164E+02  0.7561462E-02  0.1293898E+00
          1   -1    0    0  501    0  0.00000000000E+00  0.00000000000E+00  0.35923441201E+03  0.35923441201E+03  0.00000000000E+00 0. -1.
         -1   -1    0    0    0  501 -0.00000000000E+00 -0.00000000000E+00 -0.54605626195E+02  0.54605626195E+02  0.00000000000E+00 0.  1.
          5    1    1    2  502    0 -0.10661776407E+02 -0.12748205505E+02 -0.31540791771E+02  0.35895461625E+02  0.41800000000E+01 0.  1.
         -5    1    1    2    0  502  0.45140412616E+02 -0.41384392177E+02  0.10779313255E+03  0.12404497810E+03  0.41800000000E+01 0.  1.
        -11    1    1    2    0    0 -0.39910571437E+02  0.76382543843E+02  0.19724818337E+03  0.21525332183E+03  0.00000000000E+00 0. -1.
         11    1    1    2    0    0  0.54319352283E+01 -0.22249946161E+02  0.31128261669E+02  0.38646276652E+02  0.00000000000E+00 0.  1.
</event>
<event>
 6    1  0.9216756E-006  0.1945448E+03  0.7561462E-02  0.1154425E+00
          1   -1    0    0  501    0  0.00000000000E+00  0.00000000000E+00  0.36523368079E+03  0.36523368079E+03  0.00000000000E+00 0. -1.
         -1   -1    0    0    0  501 -0.00000000000E+00 -0.00000000000E+00 -0.12240500920E+03  0.12240500920E+03  0.00000000000E+00 0.  1.
          5    1    1    2  502    0 -0.81476669821E+02 -0.76878692189E+02  0.24865482461E+02  0.11482397683E+03  0.41800000000E+01 0. -1.
         -5    1    1    2    0  502 -0.67640903743E+02  0.49179553700E+02  0.34501143189E+01  0.83805107542E+02  0.41800000000E+01 0. -1.
        -11    1    1    2    0    0  0.10928678743E+01  0.44291069073E+02  0.57438300609E+02  0.72539999564E+02  0.00000000000E+00 0.  1.
         11    1    1    2    0    0  0.14802470569E+03 -0.16591930584E+02  0.15707477419E+03  0.21646960605E+03  0.00000000000E+00 0. -1.
</event>
<event>
 6    1  0.9216756E-006  0.1165192E+03  0.7561462E-02  0.1248952E+00
          1   -1    0    0  501    0  0.00000000000E+00  0.00000000000E+00  0.10530985139E+03  0.10530985139E+03  0.00000000000E+00 0. -1.
         -1   -1    0    0    0  501 -0.00000000000E+00 -0.00000000000E+00 -0.16696522712E+03  0.16696522712E+03  0.00000000000E+00 0.  1.
          5    1    1    2  502    0 -0.33304924797E+02 -0.65264599655E+02 -0.46751097699E+02  0.87016225613E+02  0.41800000000E+01 0.  1.
         -5    1    1    2    0  502 -0.33996643672E+02  0.58308200649E+02 -0.23376734461E+02  0.71551115701E+02  0.41800000000E+01 0.  1.
        -11    1    1    2    0    0  0.53842646976E+02 -0.23483326948E+02 -0.27362319723E+02  0.64801186861E+02  0.00000000000E+00 0. -1.
         11    1    1    2    0    0  0.13458921493E+02  0.30439725954E+02  0.35834776154E+02  0.48906550337E+02  0.00000000000E+00 0.  1.
</event>
<event>
 6    1  0.9216756E-006  0.1326471E+03  0.7561462E-02  0.1223580E+00
          1   -1    0    0  501    0  0.00000000000E+00  0.00000000000E+00  0.24214104263E+02  0.24214104263E+02  0.00000000000E+00 0. -1.
         -1   -1    0    0    0  501 -0.00000000000E+00 -0.00000000000E+00 -0.90669137860E+03  0.90669137860E+03  0.00000000000E+00 0.  1.
          5    1    1    2  502    0  0.42498930135E+02 -0.10984932232E+02 -0.31571815700E+03  0.31878245695E+03  0.41800000000E+01 0.  1.
         -5    1    1    2    0  502 -0.20696321266E+02  0.97007224687E+02 -0.31272071136E+03  0.32810128782E+03  0.41800000000E+01 0.  1.
        -11    1    1    2    0    0  0.29626904634E+02 -0.53252070399E+02 -0.16679020332E+03  0.17757395193E+03  0.00000000000E+00 0. -1.
         11    1    1    2    0    0 -0.51429513503E+02 -0.32770222055E+02 -0.87248202657E+02  0.10644778617E+03  0.00000000000E+00 0.  1.
</event>
<event>
 6    1  0.9216756E-006  0.8022747E+02  0.7561462E-02  0.1328407E+00
          2   -1    0    0  501    0  0.00000000000E+00  0.00000000000E+00  0.18972382139E+03  0.18972382139E+03  0.00000000000E+00 0. -1.
         -2   -1    0    0    0  501 -0.00000000000E+00 -0.00000000000E+00 -0.71670938708E+02  0.71670938708E+02  0.00000000000E+00 0.  1.
          5    1    1    2  502    0 -0.53340480567E+00  0.42882200448E+02  0.72274544919E+02  0.84144220712E+02  0.41800000000E+01 0. -1.
         -5    1    1    2    0  502 -0.11314248517E+02 -0.18122996000E+02 -0.42099477948E+02  0.47395080409E+02  0.41800000000E+01 0. -1.
        -11    1    1    2    0    0 -0.35039265172E+02 -0.32834227742E+02  0.43375593312E+02  0.64709185673E+02  0.00000000000E+00 0.  1.
         11    1    1    2    0    0  0.46886918495E+02  0.80750232952E+01  0.44502222402E+02  0.65146273308E+02  0.00000000000E+00 0. -1.
</event>
<event>
 6    1  0.9216756E-006  0.1963507E+03  0.7561462E-02  0.1152855E+00
          2   -1    0    0  501    0  0.00000000000E+00  0.00000000000E+00  0.27649178051E+03  0.27649178051E+03  0.00000000000E+00 0.  1.
         -2   -1    0    0    0  501 -0.00000000000E+00 -0.00000000000E+00 -0.14417761908E+03  0.14417761908E+03  0.00000000000E+00 0. -1.
          5    1    1    2  502    0  0.10067004805E+03 -0.96746078367E+02  0.41099571345E+02  0.14560532071E+03  0.41800000000E+01 0.  1.
         -5    1    1    2    0  502 -0.36207630888E+02 -0.57396406794E+02  0.35664622509E+02  0.76777455975E+02  0.41800000000E+01 0.  1.
        -11    1    1    2    0    0 -0.33805624023E+02  0.15038699876E+03  0.62995713496E+02  0.16651585369E+03  0.00000000000E+00 0.  1.
         11    1    1    2    0    0 -0.30656793140E+02  0.37554863981E+01 -0.74457459213E+01  0.31770769207E+02  0.00000000000E+00 0. -1.
</event>
<event>
 6    1  0.9216756E-006  0.1595392E+03  0.7561462E-02  0.1189218E+00
         -1   -1    0    0    0  501 -0.00000000000E+00  0.00000000000E+00  0.49655306259E+02  0.49655306259E+02  0.00000000000E+00 0.  1.
          1   -1    0    0  501    0  0.00000000000E+00 -0.00000000000E+00 -0.54516187973E+03  0.54516187973E+03  0.00000000000E+00 0. -1.
          5    1    1    2  502    0  0.43320593939E+02 -0.86495540596E+02 -0.21652452456E+03  0.23718873190E+03  0.41800000000E+01 0. -1.
         -5    1    1    2    0  502  0.64573266652E+02  0.19596661709E+02 -0.81057568703E+02  0.10555348294E+03  0.41800000000E+01 0.  1.
        -11    1    1    2    0    0 -0.89297324170E+02  0.88782446593E+02 -0.17347276691E+03  0.21435749529E+03  0.00000000000E+00 0.  1.
         11    1    1    2    0    0 -0.18596536421E+02 -0.21883567706E+02 -0.24451713289E+02  0.37717475859E+02  0.00000000000E+00 0. -1.
</event>
<event>
 6    1  0.9216756E-006  0.1126452E+03  0.7561462E-02  0.1255748E+00
         -1   -1    0    0    0  501 -0.00000000000E+00  0.00000000000E+00  0.18595271049E+02  0.18595271049E+02  0.00000000000E+00 0.  1.
          1   -1    0    0  501    0  0.00000000000E+00 -0.00000000000E+00 -0.76251364301E+03  0.76251364301E+03  0.00000000000E+00 0. -1.
          5    1    1    2  502    0  0.12223510572E+02 -0.36147822278E+02 -0.54435426571E+02  0.66609063438E+02  0.41800000000E+01 0. -1.
         -5    1    1    2    0  502 -0.45520636974E+02  0.72314070081E+02 -0.31921640313E+03  0.33048152376E+03  0.41800000000E+01 0. -1.
        -11    1    1    2    0    0  0.58417515105E+02 -0.13662772831E+01 -0.23186392814E+03  0.23911368417E+03  0.00000000000E+00 0. -1.
         11    1    1    2    0    0 -0.25120388703E+02 -0.34799970520E+02 -0.13840261412E+03  0.14490464269E+03  0.00000000000E+00 0.  1.
</event>
<event>
 6    1  0.9216756E-006  0.1531638E+03  0.7561462E-02  0.1196638E+00
         -1   -1    0    0    0  501 -0.00000000000E+00  0.00000000000E+00  0.33409488971E+02  0.33409488971E+02  0.00000000000E+00 0.  1.
          1   -1    0    0  501    0  0.00000000000E+00 -0.00000000000E+00 -0.90044851667E+03  0.90044851667E+03  0.00000000000E+00 0. -1.
          5    1    1    2  502    0 -0.11502200218E+03  0.87793948490E+02 -0.24454536003E+03  0.28417907011E+03  0.41800000000E+01 0.  1.
         -5    1    1    2    0  502  0.96807693871E+00 -0.23993872678E+02 -0.12399941539E+03  0.12637234870E+03  0.41800000000E+01 0.  1.
        -11    1    1    2    0    0  0.49208545210E+02 -0.51428833938E+02 -0.12347948582E+03  0.14252574960E+03  0.00000000000E+00 0.  1.
         11    1    1    2    0    0  0.64845380027E+02 -0.12371241874E+02 -0.37501476647E+03  0.38078083724E+03  0.00000000000E+00 0. -1.
</event>
<event>
 6    1  0.9216756E-006  0.1651529E+03  0.7561462E-02  0.1182999E+00
         -1   -1    0    0    0  501 -0.00000000000E+00  0.00000000000E+00  0.98970494521E+02  0.98970494521E+02  0.00000000000E+00 0.  1.
          1   -1    0    0  501    0  0.00000000000E+00 -0.00000000000E+00 -0.33329243807E+03  0.33329243807E+03  0.00000000000E+00 0. -1.
          5    1    1    2  502    0  0.42772121568E+02 -0.47849013856E+02 -0.78582207859E+02  0.10154613879E+03  0.41800000000E+01 0.  1.
         -5    1    1    2    0  502  0.98450803883E+02  0.37801078196E+02 -0.67572780736E+01  0.10575734256E+03  0.41800000000E+01 0.  1.
        -11    1    1    2    0    0 -0.12640568895E+03  0.35237149466E+02 -0.89965725744E+02  0.15910338372E+03  0.00000000000E+00 0.  1.
         11    1    1    2    0    0 -0.14817236502E+02 -0.25189213806E+02 -0.59016731871E+02  0.65856067529E+02  0.00000000000E+00 0. -1.
</event>
<event>
 6    1  0.9216756E-006  0.1636709E+03  0.7561462E-02  0.1184614E+00
         -1   -1    0    0    0  501 -0.00000000000E+00  0.00000000000E+00  0.94094480105E+02  0.94094480105E+02  0.00000000000E+00 0.  1.
          1   -1    0    0  501    0  0.00000000000E+00 -0.00000000000E+00 -0.33959936874E+03  0.33959936874E+03  0.00000000000E+00 0. -1.
          5    1    1    2  502    0  0.18935501296E+02  0.84329623687E+02 -0.86398558585E+02  0.12227927856E+03  0.41800000000E+01 0. -1.
         -5    1    1    2    0  502 -0.64672521279E+02  0.42870841648E+02  0.75316920930E+01  0.78068193638E+02  0.41800000000E+01 0. -1.
        -11    1    1    2    0    0  0.62868256147E+00 -0.11681780466E+03 -0.11354148792E+03  0.16290630500E+03  0.00000000000E+00 0. -1.
         11    1    1    2    0    0  0.45108337421E+02 -0.10382660673E+02 -0.53096534220E+02  0.70440071648E+02  0.00000000000E+00 0.  1.
</event>
<event>
 6    1  0.9216756E-006  0.1037894E+03  0.7561462E-02  0.1272523E+00
          3   -1    0    0  501    0  0.00000000000E+00  0.00000000000E+00  0.49280131709E+02  0.49280131709E+02  0.00000000000E+00 0. -1.
         -3   -1    0    0    0  501 -0.00000000000E+00 -0.00000000000E+00 -0.42677039952E+03  0.42677039952E+03  0.00000000000E+00 0.  1.
          5    1    1    2  502    0 -0.88669477961E+02  0.27330442327E+02 -0.89647190535E+02  0.12908648485E+03  0.41800000000E+01 0.  1.
         -5    1    1    2    0  502  0.36273477980E+01 -0.16595059942E+02 -0.17542756085E+03  0.17629763235E+03  0.41800000000E+01 0.  1.
        -11    1    1    2    0    0  0.48794106341E+02 -0.28847822531E+02 -0.11687992160E+03  0.12989987587E+03  0.00000000000E+00 0.  1.
         11    1    1    2    0    0  0.36248023822E+02  0.18112440146E+02  0.44644051822E+01  0.40766538150E+02  0.00000000000E+00 0. -1.
</event>
<event>
 6    1  0.9216756E-006  0.8450178E+02  0.7561462E-02  0.1316741E+00
          1   -1    0    0  501    0  0.00000000000E+00  0.00000000000E+00  0.68443998164E+02  0.68443998164E+02  0.00000000000E+00 0. -1.
         -1   -1    0    0    0  501 -0.00000000000E+00 -0.00000000000E+00 -0.28317188233E+03  0.28317188233E+03  0.00000000000E+00 0.  1.
          5    1    1    2  502    0  0.54513198886E+02 -0.11052337295E+02  0.17547917521E+02  0.58474309075E+02  0.41800000000E+01 0.  1.
         -5    1    1    2    0  502  0.15180254977E+02  0.34150090314E+02 -0.10351584594E+03  0.11013478820E+03  0.41800000000E+01 0.  1.
        -11    1    1    2    0    0 -0.31397220863E+02 -0.19938196725E+02 -0.13846551142E+03  0.14337369012E+03  0.00000000000E+00 0.  1.
         11    1    1    2    0    0 -0.38296232999E+02 -0.31595562935E+01  0.97055556738E+01  0.39633093102E+02  0.00000000000E+00 0. -1.
</event>
<event>
 6    1  0.9216756E-006  0.2193277E+03  0.7561462E-02  0.1134385E+00
          1   -1    0    0  501    0  0.00000000000E+00  0.00000000000E+00  0.11341449548E+04  0.11341449548E+04  0.00000000000E+00 0. -1.
         -1   -1    0    0    0  501 -0.00000000000E+00 -0.00000000000E+00 -0.48938042949E+02  0.48938042949E+02  0.00000000000E+00 0.  1.
          5    1    1    2  502    0 -0.72593457284E+02 -0.75250665850E+02  0.32523409862E+03  0.34165357317E+03  0.41800000000E+01 0.  1.
         -5    1    1    2    0  502 -0.75573184719E+01 -0.11334619235E+03  0.12761496629E+03  0.17090209011E+03  0.41800000000E+01 0.  1.
        -11    1    1    2    0    0  0.20985681861E+02  0.14583725688E+03  0.46903754382E+03  0.49163515115E+03  0.00000000000E+00 0.  1.
         11    1    1    2    0    0  0.59165093896E+02  0.42759601327E+02  0.16332030314E+03  0.17889218334E+03  0.00000000000E+00 0. -1.
</event>
<event>
 6    1  0.9216756E-006  0.1930279E+03  0.7561462E-02  0.1155758E+00
         -2   -1    0    0    0  501 -0.00000000000E+00  0.00000000000E+00  0.56059219333E+02  0.56059219333E+02  0.00000000000E+00 0.  1.
          2   -1    0    0  501    0  0.00000000000E+00 -0.00000000000E+00 -0.87919416337E+03  0.87919416337E+03  0.00000000000E+00 0. -1.
          5    1    1    2  502    0 -0.16453612386E+02 -0.12573126720E+02  0.41490041122E+01  0.21528852992E+02  0.41800000000E+01 0.  1.
         -5    1    1    2    0  502 -0.15550862882E+03  0.85909852089E+02 -0.32334235157E+03  0.36895959812E+03  0.41800000000E+01 0.  1.
        -11    1    1    2    0    0  0.44967879481E+02 -0.24068239261E+02 -0.52399103393E+02  0.73123569131E+02  0.00000000000E+00 0.  1.
         11    1    1    2    0    0  0.12699436172E+03 -0.49268486109E+02 -0.45154249319E+03  0.47164136246E+03  0.00000000000E+00 0. -1.
</event>
<event>
 6    1  0.9216756E-006  0.1246315E+03  0.7561462E-02  0.1235646E+00
         -1   -1    0    0    0  501 -0.00000000000E+00  0.00000000000E+00  0.50580247564E+03  0.50580247564E+03  0.00000000000E+00 0.  1.
          1   -1    0    0  501    0  0.00000000000E+00 -0.00000000000E+00 -0.33149398394E+02  0.33149398394E+02  0.00000000000E+00 0. -1.
          5    1    1    2  502    0 -0.30564616302E+02  0.17522907558E+02  0.10778615053E+03  0.11347499594E+03  0.41800000000E+01 0. -1.
         -5    1    1    2    0  502  0.10066184010E+03 -0.23276707950E+02  0.16411445686E+03  0.19397329336E+03  0.41800000000E+01 0. -1.
        -11    1    1    2    0    0 -0.57592330627E+02 -0.35243341671E+02  0.88281464231E+02  0.11114219094E+03  0.00000000000E+00 0.  1.
         11    1    1    2    0    0 -0.12504893167E+02  0.40997142063E+02  0.11247100563E+03  0.12036139380E+03  0.00000000000E+00 0. -1.
</event>
<event>
 6    1  0.9216756E-006  0.1088352E+03  0.7561462E-02  0.1262742E+00
         -3   -1    0    0    0  501 -0.00000000000E+00  0.00000000000E+00  0.11790232838E+03  0.11790232838E+03  0.00000000000E+00 0.  1.
          3   -1    0    0  501    0  0.00000000000E+00 -0.00000000000E+00 -0.14293166802E+03  0.14293166802E+03  0.00000000000E+00 0. -1.
          5    1    1    2  502    0  0.21273319210E+02 -0.83784711012E+02  0.24556319932E+02  0.89960642273E+02  0.41800000000E+01 0. -1.
         -5    1    1    2    0  502 -0.35400059227E+02  0.11977426615E+02 -0.41413424781E+02  0.55938958639E+02  0.41800000000E+01 0. -1.
        -11    1    1    2    0    0 -0.21052023964E+02  0.12266770783E+02  0.27812770615E+02  0.36975824368E+02  0.00000000000E+00 0.  1.
         11    1    1    2    0    0  0.35178763980E+02  0.59540513614E+02 -0.35985005405E+02  0.77958571116E+02  0.00000000000E+00 0. -1.
</event>
<event>
 6    1  0.9216756E-006  0.1068564E+03  0.7561462E-02  0.1266505E+00
          3   -1    0    0  501    0  0.00000000000E+00  0.00000000000E+00  0.33408549103E+03  0.33408549103E+03  0.00000000000E+00 0. -1.
         -3   -1    0    0    0  501 -0.00000000000E+00 -0.00000000000E+00 -0.43910512924E+02  0.43910512924E+02  0.00000000000E+00 0.  1.
          5    1    1    2  502    0 -0.13396866191E+02 -0.60480092521E+02  0.86281199636E+02  0.10629786181E+03  0.41800000000E+01 0. -1.
         -5    1    1    2    0  502  0.45689385620E+02  0.37663092445E+02  0.20278663491E+02  0.62727387032E+02  0.41800000000E+01 0. -1.
        -11    1    1    2    0    0 -0.11404561034E+02 -0.31804564328E+02  0.32276545265E+02  0.46726541695E+02  0.00000000000E+00 0.  1.
         11    1    1    2    0    0 -0.20887958395E+02  0.54621564404E+02  0.15133856971E+03  0.16224421342E+03  0.00000000000E+00 0. -1.
</event>
<event>
 6    1  0.9216756E-006  0.1181780E+03  0.7561462E-02  0.1246133E+00
         -1   -1    0    0    0  501 -0.00000000000E+00  0.00000000000E+00  0.46448338243E+02  0.46448338243E+02  0.00000000000E+00 0.  1.
          1   -1    0    0  501    0  0.00000000000E+00 -0.00000000000E+00 -0.41192503082E+03  0.41192503082E+03  0.00000000000E+00 0. -1.
          5    1    1    2  502    0  0.83567154353E+01 -0.23187013946E+02 -0.12957010769E+03  0.13195968140E+03  0.41800000000E+01 0.  1.
         -5    1    1    2    0  502  0.67733425898E+02  0.53280775809E+02 -0.43279178441E+02  0.96525736160E+02  0.41800000000E+01 0.  1.
        -11    1    1    2    0    0 -0.83626340635E+02  0.10054186807E+02 -0.12096690106E+03  0.14740231570E+03  0.00000000000E+00 0.  1.
         11    1    1    2    0    0  0.75361993020E+01 -0.40147948670E+02 -0.71660505380E+02  0.82485635802E+02  0.00000000000E+00 0. -1.
</event>
<event>
 6    1  0.9216756E-006  0.1735417E+03  0.7561462E-02  0.1174204E+00
          2   -1    0    0  501    0  0.00000000000E+00  0.00000000000E+00  0.78822278703E+03  0.78822278703E+03  0.00000000000E+00 0.  1.
         -2   -1    0    0    0  501 -0.00000000000E+00 -0.00000000000E+00 -0.49726394196E+02  0.49726394196E+02  0.00000000000E+00 0. -1.
          5    1    1    2  502    0  0.66654616710E+02 -0.16180980599E+02  0.35941293014E+02  0.77549410091E+02  0.41800000000E+01 0. -1.
         -5    1    1    2    0  502  0.96546791391E+02  0.25155126601E+02  0.30257575089E+03  0.31862771497E+03  0.41800000000E+01 0. -1.
        -11    1    1    2    0    0 -0.43900446019E+02 -0.35305379182E+02  0.69697205424E+02  0.89618186792E+02  0.00000000000E+00 0.  1.
         11    1    1    2    0    0 -0.11930096208E+03  0.26331233181E+02  0.33028214351E+03  0.35215386937E+03  0.00000000000E+00 0. -1.
</event>
<event>
 6    1  0.9216756E-006  0.1462331E+03  0.7561462E-02  0.1205180E+00
          2   -1    0    0  501    0  0.00000000000E+00  0.00000000000E+00  0.12355151346E+03  0.12355151346E+03  0.00000000000E+00 0. -1.
         -2   -1    0    0    0  501 -0.00000000000E+00 -0.00000000000E+00 -0.21482977857E+03  0.21482977857E+03  0.00000000000E+00 0.  1.
          5    1    1    2  502    0 -0.96617939156E+02  0.43399732737E+02 -0.14671964561E+02  0.10701075606E+03  0.41800000000E+01 0. -1.
         -5    1    1    2    0  502  0.27632327602E+02  0.55142318929E+02 -0.45073887709E+02  0.76507180178E+02  0.41800000000E+01 0. -1.
        -11    1    1    2    0    0  0.35361204344E+02 -0.76950077815E+02  0.22533680575E+02  0.87632733660E+02  0.00000000000E+00 0. -1.
         11    1    1    2    0    0  0.33624407209E+02 -0.21591973850E+02 -0.54066093418E+02  0.67230622133E+02  0.00000000000E+00 0.  1.
</event>
<event>
 6    1  0.9216756E-006  0.1063786E+03  0.7561462E-02  0.1267427E+00
         -2   -1    0    0    0  501 -0.00000000000E+00  0.00000000000E+00  0.24618670766E+03  0.24618670766E+03  0.00000000000E+00 0.  1.
          2   -1    0    0  501    0  0.00000000000E+00 -0.00000000000E+00 -0.52037872619E+02  0.52037872619E+02  0.00000000000E+00 0. -1.
          5    1    1    2  502    0  0.36132788884E+02  0.37269836935E+02  0.84196378360E+02  0.99000614678E+02  0.41800000000E+01 0.  1.
         -5    1    1    2    0  502 -0.36901566781E+02 -0.63703586276E+02  0.74919725023E+02  0.10512045535E+03  0.41800000000E+01 0.  1.
        -11    1    1    2    0    0 -0.38551128038E+02 -0.17066475348E+01  0.11106684323E+02  0.40155454865E+02  0.00000000000E+00 0.  1.
         11    1    1    2    0    0  0.39319905935E+02  0.28140396876E+02  0.23926047338E+02  0.53948055389E+02  0.00000000000E+00 0. -1.
</event>
<event>
 6    1  0.9216756E-006  0.1666746E+03  0.7561462E-02  0.1181361E+00
          2   -1    0    0  501    0  0.00000000000E+00  0.00000000000E+00  0.23699660910E+03  0.23699660910E+03  0.00000000000E+00 0. -1.
         -2   -1    0    0    0  501 -0.00000000000E+00 -0.00000000000E+00 -0.18065822448E+03  0.18065822448E+03  0.00000000000E+00 0.  1.
          5    1    1    2  502    0  0.71309583775E+02  0.55787032083E+01  0.15156505996E+02  0.73235037664E+02  0.41800000000E+01 0.  1.
         -5    1    1    2    0  502  0.49751076844E+02 -0.79119184420E+02 -0.90658615877E+02  0.13027460237E+03  0.41800000000E+01 0.  1.
        -11    1    1    2    0    0 -0.65746969403E+02 -0.11453291927E+02  0.61283976818E+02  0.90606664746E+02  0.00000000000E+00 0. -1.
         11    1    1    2    0    0 -0.55313691216E+02  0.84993773139E+02  0.70556517686E+02  0.12353852879E+03  0.00000000000E+00 0.  1.
</event>
<event>
 6    1  0.9216756E-006  0.1271149E+03  0.7561462E-02  0.1231801E+00
         -2   -1    0    0    0  501 -0.00000000000E+00  0.00000000000E+00  0.48339516484E+02  0.48339516484E+02  0.00000000000E+00 0.  1.
          2   -1    0    0  501    0  0.00000000000E+00 -0.00000000000E+00 -0.44251226437E+03  0.44251226437E+03  0.00000000000E+00 0. -1.
          5    1    1    2  502    0 -0.61945237970E+02  0.89551674901E+01 -0.64740844285E+02  0.90145753370E+02  0.41800000000E+01 0. -1.
         -5    1    1    2    0  502  0.17288222887E+02 -0.92295237854E+02 -0.10621477371E+03  0.14183209840E+03  0.41800000000E+01 0. -1.
        -11    1    1    2    0    0  0.25281399706E+02  0.23162036799E+02 -0.88957053633E+01  0.35422629683E+02  0.00000000000E+00 0.  1.
         11    1    1    2    0    0  0.19375615377E+02  0.60178033565E+02 -0.21432142452E+03  0.22345129940E+03  0.00000000000E+00 0. -1.
</event>
<event>
 6    1  0.9216756E-006  0.1427386E+03  0.7561462E-02  0.1209691E+00
         -1   -1    0    0    0  501 -0.00000000000E+00  0.00000000000E+00  0.63986026521E+02  0.63986026521E+02  0.00000000000E+00 0.  1.
          1   -1    0    0  501    0  0.00000000000E+00 -0.00000000000E+00 -0.41102038922E+03  0.41102038922E+03  0.00000000000E+00 0. -1.
          5    1    1    2  502    0 -0.14902052931E+02  0.35028076774E+01 -0.74417094242E+02  0.76090190949E+02  0.41800000000E+01 0.  1.
         -5    1    1    2    0  502  0.10107262177E+03 -0.84088715144E+02 -0.73246240105E+02  0.15056251517E+03  0.41800000000E+01 0.  1.
        -11    1    1    2    0    0 -0.28498913453E+02  0.74868681210E+02 -0.15799880215E+03  0.17714719578E+03  0.00000000000E+00 0.  1.
         11    1    1    2    0    0 -0.57671655387E+02  0.57172262566E+01 -0.41372226204E+02  0.71206513832E+02  0.00000000000E+00 0. -1.
</event>
<event>
 6    1  0.9216756E-006  0.1322931E+03  0.7561462E-02  0.1224092E+00
          2   -1    0    0  501    0  0.00000000000E+00  0.00000000000E+00  0.87027689441E+02  0.87027689441E+02  0.00000000000E+00 0. -1.
         -2   -1    0    0    0  501 -0.00000000000E+00 -0.00000000000E+00 -0.30515232299E+03  0.30515232299E+03  0.00000000000E+00 0.  1.
          5    1    1    2  502    0 -0.71555017161E+02  0.99197109245E+02 -0.15917529774E+03  0.20078454815E+03  0.41800000000E+01 0.  1.
         -5    1    1    2    0  502  0.17248335805E+02  0.68347887971E+01  0.14999164968E+02  0.24221205083E+02  0.41800000000E+01 0.  1.
        -11    1    1    2    0    0 -0.11104410423E+01 -0.24946082359E+02 -0.63709184513E+02  0.68428066578E+02  0.00000000000E+00 0.  1.
         11    1    1    2    0    0  0.55417122398E+02 -0.81085815683E+02 -0.10239316261E+02  0.98746192623E+02  0.00000000000E+00 0. -1.
</event>
<event>
 6    1  0.9216756E-006  0.1148564E+03  0.7561462E-02  0.1251832E+00
          4   -1    0    0  501    0  0.00000000000E+00  0.00000000000E+00  0.80342471202E+02  0.80342471202E+02  0.00000000000E+00 0. -1.
         -4   -1    0    0    0  501 -0.00000000000E+00 -0.00000000000E+00 -0.17354138472E+03  0.17354138472E+03  0.00000000000E+00 0.  1.
          5    1    1    2  502    0 -0.59033540215E+02  0.52851895094E+02 -0.54767126800E+02  0.96411577434E+02  0.41800000000E+01 0. -1.
         -5    1    1    2    0  502  0.15880937219E+02 -0.48232867454E+02 -0.14285482392E+02  0.52916548233E+02  0.41800000000E+01 0. -1.
        -11    1    1    2    0    0 -0.92586898447E+01 -0.36777085703E+02  0.14456798580E+01  0.37952172015E+02  0.00000000000E+00 0. -1.
         11    1    1    2    0    0  0.52411292841E+02  0.32158058063E+02 -0.25591984183E+02  0.66603558239E+02  0.00000000000E+00 0.  1.
</event>
<event>
 6    1  0.9216756E-006  0.2443507E+03  0.7561462E-02  0.1116928E+00
          1   -1    0    0  501    0  0.00000000000E+00  0.00000000000E+00  0.17355814464E+03  0.17355814464E+03  0.00000000000E+00 0. -1.
         -1   -1    0    0    0  501 -0.00000000000E+00 -0.00000000000E+00 -0.34972202592E+03  0.34972202592E+03  0.00000000000E+00 0.  1.
          5    1    1    2  502    0 -0.56409659139E+02  0.58759578020E+02 -0.35365821432E+02  0.88898545426E+02  0.41800000000E+01 0. -1.
         -5    1    1    2    0  502 -0.16294365018E+03 -0.46870327949E+02 -0.30308075851E+02  0.17228903807E+03  0.41800000000E+01 0. -1.
        -11    1    1    2    0    0  0.12987297819E+03 -0.51462574582E+02 -0.60759545487E+02  0.15233879812E+03  0.00000000000E+00 0.  1.
         11    1    1    2    0    0  0.89480331132E+02  0.39573324511E+02 -0.49730438511E+02  0.10975378894E+03  0.00000000000E+00 0. -1.
</event>
<event>
 6    1  0.9216756E-006  0.8465566E+02  0.7561462E-02  0.1316335E+00
          2   -1    0    0  501    0  0.00000000000E+00  0.00000000000E+00  0.33299966005E+02  0.33299966005E+02  0.00000000000E+00 0. -1.
         -2   -1    0    0    0  501 -0.00000000000E+00 -0.00000000000E+00 -0.45772308712E+03  0.45772308712E+03  0.00000000000E+00 0.  1.
          5    1    1    2  502    0 -0.46267517519E+02 -0.33573881705E+02 -0.29799580015E+03  0.30345816518E+03  0.41800000000E+01 0. -1.
         -5    1    1    2    0  502  0.16702359044E+02 -0.91770774498E+01  0.42934171424E+01  0.19977321615E+02  0.41800000000E+01 0. -1.
        -11    1    1    2    0    0  0.44341057117E+02  0.56824263429E+02 -0.12813885136E+03  0.14701935753E+03  0.00000000000E+00 0.  1.
         11    1    1    2    0    0 -0.14775898642E+02 -0.14073304274E+02 -0.25818867480E+01  0.20568208795E+02  0.00000000000E+00 0. -1.
</event>
<event>
 6    1  0.9216756E-006  0.1122044E+03  0.7561462E-02  0.1256541E+00
         -1   -1    0    0    0  501 -0.00000000000E+00  0.00000000000E+00  0.34004789848E+02  0.34004789848E+02  0.00000000000E+00 0.  1.
          1   -1    0    0  501    0  0.00000000000E+00 -0.00000000000E+00 -0.57662199247E+03  0.57662199247E+03  0.00000000000E+00 0. -1.
          5    1    1    2  502    0  0.21498886304E+02  0.43916030517E+02 -0.16828265367E+03  0.17529216689E+03  0.41800000000E+01 0.  1.
         -5    1    1    2    0  502  0.50819533927E+02 -0.31812821191E+02 -0.22142412032E+02  0.64050288299E+02  0.41800000000E+01 0.  1.
        -11    1    1    2    0    0 -0.21688122388E+02  0.38158579145E+02 -0.10027606807E+03  0.10946114215E+03  0.00000000000E+00 0.  1.
         11    1    1    2    0    0 -0.50630297843E+02 -0.50261788471E+02 -0.25191606885E+03  0.26182318497E+03  0.00000000000E+00 0. -1.
</event>
<event>
 6    1  0.9216756E-006  0.1288822E+03  0.7561462E-02  0.1229124E+00
         -1   -1    0    0    0  501 -0.00000000000E+00  0.00000000000E+00  0.38972133390E+03  0.38972133390E+03  0.00000000000E+00 0.  1.
          1   -1    0    0  501    0  0.00000000000E+00 -0.00000000000E+00 -0.68383111257E+02  0.68383111257E+02  0.00000000000E+00 0. -1.
          5    1    1    2  502    0 -0.12033033285E+03  0.24660157080E+02  0.24151205320E+03  0.27098534387E+03  0.41800000000E+01 0.  1.
         -5    1    1    2    0  502  0.99560405445E+01 -0.21386224110E+02  0.17772851671E+01  0.24023414985E+02  0.41800000000E+01 0.  1.
        -11    1    1    2    0    0  0.48503021282E+02  0.36870358988E+01  0.87508742065E+02  0.10011951481E+03  0.00000000000E+00 0.  1.
         11    1    1    2    0    0  0.61871271028E+02 -0.69609688691E+01 -0.94598577929E+01  0.62976171491E+02  0.00000000000E+00 0. -1.
</event>
<event>
 6    1  0.9216756E-006  0.8746721E+02  0.7561462E-02  0.1309104E+00
          2   -1    0    0  501    0  0.00000000000E+00  0.00000000000E+00  0.54394195682E+03  0.54394195682E+03  0.00000000000E+00 0. -1.
         -2   -1    0    0    0  501 -0.00000000000E+00 -0.00000000000E+00 -0.27070641369E+02  0.27070641369E+02  0.00000000000E+00 0.  1.
          5    1    1    2  502    0 -0.30505594167E+02  0.35128871081E+01  0.21209742977E+01  0.31062881117E+02  0.41800000000E+01 0.  1.
         -5    1    1    2    0  502  0.19501882697E+02  0.46697519606E+02  0.24933718636E+03  0.25445527440E+03  0.41800000000E+01 0.  1.
        -11    1    1    2    0    0  0.23585596602E+02 -0.67659952907E+02  0.24698274161E+03  0.25716653019E+03  0.00000000000E+00 0. -1.
         11    1    1    2    0    0 -0.12581885132E+02  0.17449546193E+02  0.18430413177E+02  0.28327912484E+02  0.00000000000E+00 0.  1.
</event>
<event>
 6    1  0.9216756E-006  0.1827234E+03  0.7561462E-02  0.1165193E+00
         -1   -1    0    0    0  501 -0.00000000000E+00  0.00000000000E+00  0.30773498348E+02  0.30773498348E+02  0.00000000000E+00 0.  1.
          1   -1    0    0  501    0  0.00000000000E+00 -0.00000000000E+00 -0.12197623075E+04  0.12197623075E+04  0.00000000000E+00 0. -1.
          5    1    1    2  502    0 -0.33934299757E+02 -0.84613512445E+02 -0.16379371943E+03  0.18750156830E+03  0.41800000000E+01 0.  1.
         -5    1    1    2    0  502  0.79225570076E+02 -0.62358695173E+02 -0.31292122596E+03  0.32878939137E+03  0.41800000000E+01 0.  1.
        -11    1    1    2    0    0 -0.62945657732E+02  0.69284244400E+02 -0.29715683395E+03  0.31155199616E+03  0.00000000000E+00 0. -1.
         11    1    1    2    0    0  0.17654387413E+02  0.77687963218E+02 -0.41511702983E+03  0.42269285004E+03  0.00000000000E+00 0.  1.
</event>
<event>
 6    1  0.9216756E-006  0.1347842E+03  0.7561462E-02  0.1220525E+00
          1   -1    0    0  501    0  0.00000000000E+00  0.00000000000E+00  0.90728087264E+03  0.90728087264E+03  0.00000000000E+00 0. -1.
         -1   -1    0    0    0  501 -0.00000000000E+00 -0.00000000000E+00 -0.27163835051E+02  0.27163835051E+02  0.00000000000E+00 0.  1.
          5    1    1    2  502    0  0.56316069187E+02  0.99333651331E+02  0.17714892795E+03  0.21080296252E+03  0.41800000000E+01 0. -1.
         -5    1    1    2    0  502 -0.35947250596E+02 -0.24558608650E+01  0.13442791799E+03  0.13923567651E+03  0.41800000000E+01 0. -1.
        -11    1    1    2    0    0 -0.83004053131E+00 -0.99335959540E+02  0.54373085453E+03  0.55273100509E+03  0.00000000000E+00 0. -1.
         11    1    1    2    0    0 -0.19538778061E+02  0.24581690741E+01  0.24809337113E+02  0.31675063556E+02  0.00000000000E+00 0.  1.
</event>
<event>
 6    1  0.9216756E-006  0.1640481E+03  0.7561462E-02  0.1184201E+00
         -1   -1    0    0    0  501 -0.00000000000E+00  0.00000000000E+00  0.19181360463E+03  0.19181360463E+03  0.00000000000E+00 0.  1.
          1   -1    0    0  501    0  0.00000000000E+00 -0.00000000000E+00 -0.17904239781E+03  0.17904239781E+03  0.00000000000E+00 0. -1.
          5    1    1    2  502    0 -0.68056976392E+01  0.20491418995E+02  0.37393325369E+02  0.43381435602E+02  0.41800000000E+01 0.  1.
         -5    1    1    2    0  502  0.13509442722E+03 -0.66904433542E+02  0.31137143053E+02  0.15399253738E+03  0.41800000000E+01 0.  1.
        -11    1    1    2    0    0 -0.58619139512E+01  0.31406066924E+02  0.10293801780E+02  0.33565837244E+02  0.00000000000E+00 0.  1.
         11    1    1    2    0    0 -0.12242681563E+03  0.15006947623E+02 -0.66053063375E+02  0.13991619221E+03  0.00000000000E+00 0. -1.
</event>
<event>
 6    1  0.9216756E-006  0.1663980E+03  0.7561462E-02  0.1181657E+00
          2   -1    0    0  501    0  0.00000000000E+00  0.00000000000E+00  0.26701801096E+03  0.26701801096E+03  0.00000000000E+00 0. -1.
         -2   -1    0    0    0  501 -0.00000000000E+00 -0.00000000000E+00 -0.14850787023E+03  0.14850787023E+03  0.00000000000E+00 0.  1.
          5    1    1    2  502    0  0.12283606903E+03 -0.42419050121E+02 -0.54841470278E+02  0.14111390764E+03  0.41800000000E+01 0.  1.
         -5    1    1    2    0  502  0.24959956859E+02  0.28582190972E+02  0.37838622465E+02  0.53751044987E+02  0.41800000000E+01 0.  1.
        -11    1    1    2    0    0 -0.29257102369E+02 -0.26409594851E+02  0.48555750384E+01  0.39711728094E+02  0.00000000000E+00 0.  1.
         11    1    1    2    0    0 -0.11853892352E+03  0.40246454000E+02  0.13065741350E+03  0.18094920047E+03  0.00000000000E+00 0. -1.
</event>
<event>
 6    1  0.9216756E-006  0.1322416E+03  0.7561462E-02  0.1224167E+00
          1   -1    0    0  501    0  0.00000000000E+00  0.00000000000E+00  0.18379189663E+03  0.18379189663E+03  0.00000000000E+00 0. -1.
         -1   -1    0    0    0  501 -0.00000000000E+00 -0.00000000000E+00 -0.10855403131E+03  0.10855403131E+03  0.00000000000E+00 0.  1.
          5    1    1    2  502    0  0.49779126617E+02 -0.10419758744E+03  0.91480304771E+01  0.11591487194E+03  0.41800000000E+01 0. -1.
         -5    1    1    2    0  502 -0.48343967089E+00  0.35200202596E+02 -0.53914719006E+00  0.35454915828E+02  0.41800000000E+01 0. -1.
        -11    1    1    2    0    0 -0.40295818744E+02 -0.34793488350E+01  0.53019936676E+02  0.66685624851E+02  0.00000000000E+00 0. -1.
         11    1    1    2    0    0 -0.89998682015E+01  0.72476733676E+02  0.13609045360E+02  0.74290515327E+02  0.00000000000E+00 0.  1.
</event>
<event>
 6    1  0.9216756E-006  0.1415178E+03  0.7561462E-02  0.1211301E+00
         -2   -1    0    0    0  501 -0.00000000000E+00  0.00000000000E+00  0.88952537476E+02  0.88952537476E+02  0.00000000000E+00 0.  1.
          2   -1    0    0  501    0  0.00000000000E+00 -0.00000000000E+00 -0.36349460079E+03  0.36349460079E+03  0.00000000000E+00 0. -1.
          5    1    1    2  502    0 -0.30108708886E+02  0.69922139376E+02  0.11501074715E+02  0.77106335961E+02  0.41800000000E+01 0. -1.
         -5    1    1    2    0  502  0.75584329421E+02  0.34481923411E+02 -0.47685939139E+02  0.95882298094E+02  0.41800000000E+01 0. -1.
        -11    1    1    2    0    0 -0.53945154082E+02 -0.71124253619E+02 -0.88444659676E+02  0.12566302928E+03  0.00000000000E+00 0.  1.
         11    1    1    2    0    0  0.84695335475E+01 -0.33279809168E+02 -0.14991253921E+03  0.15379547493E+03  0.00000000000E+00 0. -1.
</event>
<event>
 6    1  0.9216756E-006  0.1235498E+03  0.7561462E-02  0.1237353E+00
          1   -1    0    0  501    0  0.00000000000E+00  0.00000000000E+00  0.18527091840E+03  0.18527091840E+03  0.00000000000E+00 0. -1.
         -1   -1    0    0    0  501 -0.00000000000E+00 -0.00000000000E+00 -0.18840503599E+03  0.18840503599E+03  0.00000000000E+00 0.  1.
          5    1    1    2  502    0  0.47772767012E+02 -0.36775168847E+02 -0.86781035039E+02  0.10575003903E+03  0.41800000000E+01 0. -1.
         -5    1    1    2    0  502 -0.72343352614E+02 -0.25099169134E+02 -0.52462251123E+02  0.92915494679E+02  0.41800000000E+01 0. -1.
        -11    1    1    2    0    0  0.40457511160E+02 -0.54343726791E+01  0.48419039924E+02  0.63330451150E+02  0.00000000000E+00 0. -1.
         11    1    1    2    0    0 -0.15886925559E+02  0.67308710660E+02  0.87690128646E+02  0.11167996954E+03  0.00000000000E+00 0.  1.
</event>
<event>
 6    1  0.9216756E-006  0.9015908E+02  0.7561462E-02  0.1302467E+00
          1   -1    0    0  501    0  0.00000000000E+00  0.00000000000E+00  0.21580390437E+03  0.21580390437E+03  0.00000000000E+00 0. -1.
         -1   -1    0    0    0  501 -0.00000000000E+00 -0.00000000000E+00 -0.57475203217E+02  0.57475203217E+02  0.00000000000E+00 0.  1.
          5    1    1    2  502    0 -0.43171267901E+01  0.31935228234E+02  0.66917881697E+02  0.74390669286E+02  0.41800000000E+01 0. -1.
         -5    1    1    2    0  502 -0.19209891310E+01 -0.53270255071E+02 -0.15935183226E+02  0.55792586775E+02  0.41800000000E+01 0.  1.
        -11    1    1    2    0    0  0.47459130370E+02  0.23734594933E+02  0.54995560205E+02  0.76421277759E+02  0.00000000000E+00 0.  1.
         11    1    1    2    0    0 -0.41221014449E+02 -0.23995680950E+01  0.52350442474E+02  0.66674573763E+02  0.00000000000E+00 0. -1.
</event>
<event>
 6    1  0.9216756E-006  0.2428441E+03  0.7561462E-02  0.1117913E+00
          1   -1    0    0  501    0  0.00000000000E+00  0.00000000000E+00  0.59354746244E+03  0.59354746244E+03  0.00000000000E+00 0. -1.
         -1   -1    0    0    0  501 -0.00000000000E+00 -0.00000000000E+00 -0.16216619669E+03  0.16216619669E+03  0.00000000000E+00 0.  1.
          5    1    1    2  502    0  0.29756833900E+01 -0.10154835587E+02  0.19424172057E+02  0.22511024800E+02  0.41800000000E+01 0.  1.
         -5    1    1    2    0  502 -0.18321631577E+03  0.15585675772E+03 -0.13151558429E+02  0.24093564116E+03  0.41800000000E+01 0.  1.
        -11    1    1    2    0    0  0.80970094075E+02 -0.84912717326E+02  0.13046838020E+03  0.17546601931E+03  0.00000000000E+00 0.  1.
         11    1    1    2    0    0  0.99270538308E+02 -0.60789204810E+02  0.29464027192E+03  0.31680097385E+03  0.00000000000E+00 0. -1.
</event>
<event>
 6    1  0.9216756E-006  0.1431817E+03  0.7561462E-02  0.1209111E+00
          1   -1    0    0  501    0  0.00000000000E+00  0.00000000000E+00  0.12972172352E+03  0.12972172352E+03  0.00000000000E+00 0. -1.
         -1   -1    0    0    0  501 -0.00000000000E+00 -0.00000000000E+00 -0.28156095841E+03  0.28156095841E+03  0.00000000000E+00 0.  1.
          5    1    1    2  502    0  0.11827002508E+02 -0.39976710931E+02 -0.24878193732E+02  0.48727941969E+02  0.41800000000E+01 0.  1.
         -5    1    1    2    0  502 -0.11088252971E+03  0.13696818938E+02 -0.18598408034E+03  0.21700250871E+03  0.41800000000E+01 0.  1.
        -11    1    1    2    0    0  0.89615465368E+02  0.53143020682E+02  0.50814812035E+02  0.11591918479E+03  0.00000000000E+00 0. -1.
         11    1    1    2    0    0  0.94400618377E+01 -0.26863128690E+02  0.82082271458E+01  0.29633046475E+02  0.00000000000E+00 0.  1.
</event>
<event>
 6    1  0.9216756E-006  0.1007567E+03  0.7561462E-02  0.1278713E+00
          1   -1    0    0  501    0  0.00000000000E+00  0.00000000000E+00  0.34696412184E+03  0.34696412184E+03  0.00000000000E+00 0. -1.
         -1   -1    0    0    0  501 -0.00000000000E+00 -0.00000000000E+00 -0.54775313613E+02  0.54775313613E+02  0.00000000000E+00 0.  1.
          5    1    1    2  502    0 -0.49533571947E+02  0.14508331494E+02  0.30500913008E+02  0.60098623336E+02  0.41800000000E+01 0.  1.
         -5    1    1    2    0  502  0.51872448407E+02 -0.62811838048E+02  0.28317383320E+02  0.86344800080E+02  0.41800000000E+01 0.  1.
        -11    1    1    2    0    0  0.10011554008E+02 -0.65302992300E+01 -0.30087922334E+01  0.12325942252E+02  0.00000000000E+00 0.  1.
         11    1    1    2    0    0 -0.12350430468E+02  0.54833805784E+02  0.23637930413E+03  0.24297006978E+03  0.00000000000E+00 0. -1.
</event>
<event>
 6    1  0.9216756E-006  0.9972122E+02  0.7561462E-02  0.1280883E+00
          2   -1    0    0  501    0  0.00000000000E+00  0.00000000000E+00  0.43789767942E+03  0.43789767942E+03  0.00000000000E+00 0. -1.
         -2   -1    0    0    0  501 -0.00000000000E+00 -0.00000000000E+00 -0.49151984182E+02  0.49151984182E+02  0.00000000000E+00 0.  1.
          5    1    1    2  502    0  0.37389184128E+02 -0.81845617947E+02  0.10994419119E+03  0.14213322568E+03  0.41800000000E+01 0.  1.
         -5    1    1    2    0  502 -0.60635213798E+01  0.21529825034E+02 -0.16543942021E+02  0.28133149044E+02  0.41800000000E+01 0.  1.
        -11    1    1    2    0    0 -0.35978917768E+02  0.11790615250E+02  0.33863129560E+02  0.50795793875E+02  0.00000000000E+00 0.  1.
         11    1    1    2    0    0  0.46532550201E+01  0.48525177662E+02  0.26148231650E+03  0.26598749500E+03  0.00000000000E+00 0. -1.
</event>
<event>
 6    1  0.9216756E-006  0.9844017E+02  0.7561462E-02  0.1283611E+00
          2   -1    0    0  501    0  0.00000000000E+00  0.00000000000E+00  0.68421154283E+03  0.68421154283E+03  0.00000000000E+00 0. -1.
         -2   -1    0    0    0  501 -0.00000000000E+00 -0.00000000000E+00 -0.16903174788E+02  0.16903174788E+02  0.00000000000E+00 0.  1.
          5    1    1    2  502    0  0.48936152643E+01 -0.61688454776E+02  0.14488522033E+03  0.15760270427E+03  0.41800000000E+01 0. -1.
         -5    1    1    2    0  502 -0.93856752173E+00  0.58291911582E+02  0.24580591235E+03  0.25265954724E+03  0.41800000000E+01 0. -1.
        -11    1    1    2    0    0  0.30410538847E+02  0.21807337059E+02  0.59694961062E+02  0.70454589622E+02  0.00000000000E+00 0.  1.
         11    1    1    2    0    0 -0.34365586590E+02 -0.18410793866E+02  0.21692227431E+03  0.22039787649E+03  0.00000000000E+00 0. -1.
</event>
<event>
 6    1  0.9216756E-006  0.7706180E+02  0.7561462E-02  0.1337603E+00
         -1   -1    0    0    0  501 -0.00000000000E+00  0.00000000000E+00  0.29613232980E+03  0.29613232980E+03  0.00000000000E+00 0.  1.
          1   -1    0    0  501    0  0.00000000000E+00 -0.00000000000E+00 -0.20931879063E+02  0.20931879063E+02  0.00000000000E+00 0. -1.
          5    1    1    2  502    0  0.70154643327E+02 -0.18220082516E+02  0.12709689990E+03  0.14637192269E+03  0.41800000000E+01 0. -1.
         -5    1    1    2    0  502 -0.54925169561E+02 -0.17074864104E+01  0.12040452356E+03  0.13241756475E+03  0.41800000000E+01 0.  1.
        -11    1    1    2    0    0 -0.11673805343E+02  0.84939039074E+01  0.15458452128E+02  0.21151545498E+02  0.00000000000E+00 0.  1.
         11    1    1    2    0    0 -0.35556684230E+01  0.11433665019E+02  0.12240575146E+02  0.17123175920E+02  0.00000000000E+00 0. -1.
</event>
<event>
 6    1  0.9216756E-006  0.1918726E+03  0.7561462E-02  0.1156783E+00
         -2   -1    0    0    0  501 -0.00000000000E+00  0.00000000000E+00  0.54412623790E+02  0.54412623790E+02  0.00000000000E+00 0.  1.
          2   -1    0    0  501    0  0.00000000000E+00 -0.00000000000E+00 -0.85243681564E+03  0.85243681564E+03  0.00000000000E+00 0. -1.
          5    1    1    2  502    0 -0.15331619908E+02 -0.10511744799E+03 -0.31745022748E+03  0.33477881619E+03  0.41800000000E+01 0. -1.
         -5    1    1    2    0  502 -0.11047828130E+02 -0.76932628190E+02 -0.43364507371E+02  0.89099027414E+02  0.41800000000E+01 0. -1.
        -11    1    1    2    0    0  0.30881519504E+02  0.18524203735E+02 -0.13032343884E+03  0.13520729670E+03  0.00000000000E+00 0. -1.
         11    1    1    2    0    0 -0.45020714669E+01  0.16352587244E+03 -0.30688601817E+03  0.34776429913E+03  0.00000000000E+00 0.  1.
</event>
<event>
 6    1  0.9216756E-006  0.1139116E+03  0.7561462E-02  0.1253493E+00
          1   -1    0    0  501    0  0.00000000000E+00  0.00000000000E+00  0.37274764414E+03  0.37274764414E+03  0.00000000000E+00 0. -1.
         -1   -1    0    0    0  501 -0.00000000000E+00 -0.00000000000E+00 -0.62816137222E+02  0.62816137222E+02  0.00000000000E+00 0.  1.
          5    1    1    2  502    0  0.47384171446E+02 -0.46178802821E+02  0.22540644982E+03  0.23495378599E+03  0.41800000000E+01 0. -1.
         -5    1    1    2    0  502 -0.61043176810E+02  0.65302390428E+01 -0.96044801219E+01  0.62278663244E+02  0.41800000000E+01 0.  1.
        -11    1    1    2    0    0 -0.33952636553E+02  0.39887031109E+02  0.37914110830E+02  0.64662482009E+02  0.00000000000E+00 0. -1.
         11    1    1    2    0    0  0.47611641917E+02 -0.23846733118E+00  0.56215426390E+02  0.73668850113E+02  0.00000000000E+00 0.  1.
</event>
<event>
 6    1  0.9216756E-006  0.1146108E+03  0.7561462E-02  0.1252262E+00
         -3   -1    0    0    0  501 -0.00000000000E+00  0.00000000000E+00  0.99643939241E+02  0.99643939241E+02  0.00000000000E+00 0.  1.
          3   -1    0    0  501    0  0.00000000000E+00 -0.00000000000E+00 -0.16207514861E+03  0.16207514861E+03  0.00000000000E+00 0. -1.
          5    1    1    2  502    0 -0.56060150368E+02  0.36081626173E+02 -0.18510322114E+01  0.66824568288E+02  0.41800000000E+01 0. -1.
         -5    1    1    2    0  502  0.52270401882E+01 -0.71341233111E+02 -0.20342499442E+02  0.74486127396E+02  0.41800000000E+01 0. -1.
        -11    1    1    2    0    0  0.54530315223E+02 -0.78347437738E+00  0.12949937970E+02  0.56052386246E+02  0.00000000000E+00 0.  1.
         11    1    1    2    0    0 -0.36972050429E+01  0.36043081315E+02 -0.53187615686E+02  0.64356005922E+02  0.00000000000E+00 0. -1.
</event>
<event>
 6    1  0.9216756E-006  0.1151420E+03  0.7561462E-02  0.1251333E+00
          1   -1    0    0  501    0  0.00000000000E+00  0.00000000000E+00  0.11363868799E+04  0.11363868799E+04  0.00000000000E+00 0. -1.
         -1   -1    0    0    0  501 -0.00000000000E+00 -0.00000000000E+00 -0.11859595504E+02  0.11859595504E+02  0.00000000000E+00 0.  1.
          5    1    1    2  502    0 -0.62937594167E+02  0.42490225512E+02  0.41718162995E+03  0.42405724235E+03  0.41800000000E+01 0. -1.
         -5    1    1    2    0  502  0.54087213738E+02 -0.29813329216E+01  0.22784747778E+03  0.23423548101E+03  0.41800000000E+01 0. -1.
        -11    1    1    2    0    0 -0.91204377296E+01 -0.66692930104E+02  0.35033236142E+03  0.35674065197E+03  0.00000000000E+00 0.  1.
         11    1    1    2    0    0  0.17970818159E+02  0.27184037514E+02  0.12916581522E+03  0.13321310004E+03  0.00000000000E+00 0. -1.
</event>
<event>
 6    1  0.9216756E-006  0.1454823E+03  0.7561462E-02  0.1206137E+00
         -1   -1    0    0    0  501 -0.00000000000E+00  0.00000000000E+00  0.31566864844E+02  0.31566864844E+02  0.00000000000E+00 0.  1.
          1   -1    0    0  501    0  0.00000000000E+00 -0.00000000000E+00 -0.91005047788E+03  0.91005047788E+03  0.00000000000E+00 0. -1.
          5    1    1    2  502    0 -0.10670985588E+02 -0.74431203134E+00 -0.23168479033E+03  0.23196926177E+03  0.41800000000E+01 0.  1.
         -5    1    1    2    0  502 -0.76022948012E+02  0.95175398213E+02 -0.18453286977E+03  0.22115084778E+03  0.41800000000E+01 0.  1.
        -11    1    1    2    0    0  0.78183288435E+02 -0.11286183237E+03 -0.41254128165E+03  0.43478814250E+03  0.00000000000E+00 0. -1.
         11    1    1    2    0    0  0.85106451655E+01  0.18430746190E+02 -0.49724671285E+02  0.53709090670E+02  0.00000000000E+00 0.  1.
</event>
<event>
 6    1  0.9216756E-006  0.9062116E+02  0.7561462E-02  0.1301354E+00
         -1   -1    0    0    0  501 -0.00000000000E+00  0.00000000000E+00  0.25995343387E+02  0.25995343387E+02  0.00000000000E+00 0.  1.
          1   -1    0    0  501    0  0.00000000000E+00 -0.00000000000E+00 -0.66143181577E+03  0.66143181577E+03  0.00000000000E+00 0. -1.
          5    1    1    2  502    0  0.59219668970E+01  0.43602375912E+02 -0.33270937772E+03  0.33563259570E+03  0.41800000000E+01 0. -1.
         -5    1    1    2    0  502  0.97488879107E+01  0.28602509791E+02 -0.36005715425E+01  0.30717761919E+02  0.41800000000E+01 0. -1.
        -11    1    1    2    0    0  0.29807520352E+02 -0.14743064936E+02 -0.16420719044E+03  0.16754058501E+03  0.00000000000E+00 0. -1.
         11    1    1    2    0    0 -0.45478375159E+02 -0.57461820768E+02 -0.13491933268E+03  0.15353621652E+03  0.00000000000E+00 0.  1.
</event>
<event>
 6    1  0.9216756E-006  0.8721519E+02  0.7561462E-02  0.1309739E+00
          1   -1    0    0  501    0  0.00000000000E+00  0.00000000000E+00  0.42306642394E+03  0.42306642394E+03  0.00000000000E+00 0. -1.
         -1   -1    0    0    0  501 -0.00000000000E+00 -0.00000000000E+00 -0.29807476356E+02  0.29807476356E+02  0.00000000000E+00 0.  1.
          5    1    1    2  502    0  0.45747257645E+02  0.35270128160E+02  0.18160488533E+03  0.19061636944E+03  0.41800000000E+01 0.  1.
         -5    1    1    2    0  502 -0.17543293167E+02 -0.41411635294E+02  0.22391387191E+02  0.50413661771E+02  0.41800000000E+01 0.  1.
        -11    1    1    2    0    0 -0.48861979347E+02  0.11087931265E+02  0.18294530632E+03  0.18968241972E+03  0.00000000000E+00 0. -1.
         11    1    1    2    0    0  0.20658014869E+02 -0.49464241321E+01  0.63173687362E+01  0.22161449361E+02  0.00000000000E+00 0.  1.
</event>
<event>
 6    1  0.9216756E-006  0.1040270E+03  0.7561462E-02  0.1272049E+00
          2   -1    0    0  501    0  0.00000000000E+00  0.00000000000E+00  0.32100675198E+02  0.32100675198E+02  0.00000000000E+00 0. -1.
         -2   -1    0    0    0  501 -0.00000000000E+00 -0.00000000000E+00 -0.53532845602E+03  0.53532845602E+03  0.00000000000E+00 0.  1.
          5    1    1    2  502    0 -0.34169927452E+02  0.14265142777E+02 -0.64748116827E+02  0.74705215836E+02  0.41800000000E+01 0. -1.
         -5    1    1    2    0  502  0.74502339940E+02  0.18407196892E+02 -0.34537948719E+03  0.35382748074E+03  0.41800000000E+01 0.  1.
        -11    1    1    2    0    0 -0.59045861651E+02 -0.33390542831E+01 -0.28786510657E+02  0.65774054591E+02  0.00000000000E+00 0. -1.
         11    1    1    2    0    0  0.18713449162E+02 -0.29333285385E+02 -0.64313666150E+02  0.73122380053E+02  0.00000000000E+00 0.  1.
</event>
<event>
 6    1  0.9216756E-006  0.2374933E+03  0.7561462E-02  0.1121474E+00
         -1   -1    0    0    0  501 -0.00000000000E+00  0.00000000000E+00  0.96159007260E+02  0.96159007260E+02  0.00000000000E+00 0.  1.
          1   -1    0    0  501    0  0.00000000000E+00 -0.00000000000E+00 -0.59279039941E+03  0.59279039941E+03  0.00000000000E+00 0. -1.
          5    1    1    2  502    0 -0.61579315716E+01 -0.36226678691E+02 -0.32866204920E+02  0.49476784415E+02  0.41800000000E+01 0.  1.
         -5    1    1    2    0  502 -0.20534632540E+03  0.37155134587E+02 -0.19631126175E+03  0.28653656184E+03  0.41800000000E+01 0.  1.
        -11    1    1    2    0    0  0.21487136063E+03  0.12696384604E+02 -0.25807500322E+03  0.33605595827E+03  0.00000000000E+00 0.  1.
         11    1    1    2    0    0 -0.33671036580E+01 -0.13624840500E+02 -0.93789222633E+01  0.16880102148E+02  0.00000000000E+00 0. -1.
</event>
<event>
 6    1  0.9216756E-006  0.3171458E+03  0.7561462E-02  0.1076970E+00
         -1   -1    0    0    0  501 -0.00000000000E+00  0.00000000000E+00  0.15968927691E+03  0.15968927691E+03  0.00000000000E+00 0.  1.
          1   -1    0    0  501    0  0.00000000000E+00 -0.00000000000E+00 -0.93822404826E+03  0.93822404826E+03  0.00000000000E+00 0. -1.
          5    1    1    2  502    0 -0.14264622769E+02 -0.15169752663E+03 -0.11922180468E+03  0.19351209306E+03  0.41800000000E+01 0.  1.
         -5    1    1    2    0  502  0.18217561023E+02 -0.16451835336E+03  0.38038004626E+01  0.16562037743E+03  0.41800000000E+01 0.  1.
        -11    1    1    2    0    0  0.63089324524E+00  0.17399317051E+03 -0.27521703115E+03  0.32560472301E+03  0.00000000000E+00 0.  1.
         11    1    1    2    0    0 -0.45838314991E+01  0.14222270948E+03 -0.38789973599E+03  0.41317613167E+03  0.00000000000E+00 0. -1.
</event>
<event>
 6    1  0.9216756E-006  0.9569491E+02  0.7561462E-02  0.1289619E+00
         -2   -1    0    0    0  501 -0.00000000000E+00  0.00000000000E+00  0.13247454436E+03  0.13247454436E+03  0.00000000000E+00 0.  1.
          2   -1    0    0  501    0  0.00000000000E+00 -0.00000000000E+00 -0.12586075013E+03  0.12586075013E+03  0.00000000000E+00 0. -1.
          5    1    1    2  502    0 -0.19959422056E+01 -0.14422425464E+02 -0.48246909457E+02  0.50569030183E+02  0.41800000000E+01 0. -1.
         -5    1    1    2    0  502  0.68915389282E+02  0.38622671568E+02  0.49567515955E+02  0.93356588824E+02  0.41800000000E+01 0. -1.
        -11    1    1    2    0    0 -0.39651091616E+02 -0.47067731073E+02 -0.26199924578E+02  0.66888088794E+02  0.00000000000E+00 0. -1.
         11    1    1    2    0    0 -0.27268355460E+02  0.22867484969E+02  0.31493112304E+02  0.47521586684E+02  0.00000000000E+00 0.  1.
</event>
<event>
 6    1  0.9216756E-006  0.8594204E+02  0.7561462E-02  0.1312987E+00
         -1   -1    0    0    0  501 -0.00000000000E+00  0.00000000000E+00  0.16778162119E+03  0.16778162119E+03  0.00000000000E+00 0.  1.
          1   -1    0    0  501    0  0.00000000000E+00 -0.00000000000E+00 -0.59742246063E+02  0.59742246063E+02  0.00000000000E+00 0. -1.
          5    1    1    2  502    0 -0.48728514642E+02  0.49375953498E+02  0.13472207520E+02  0.70791423905E+02  0.41800000000E+01 0.  1.
         -5    1    1    2    0  502  0.23676975902E+01 -0.48872838132E+02  0.73731411525E+02  0.88588677292E+02  0.41800000000E+01 0.  1.
        -11    1    1    2    0    0  0.31264262641E+02 -0.12823742466E+02  0.31269665936E+02  0.46040140064E+02  0.00000000000E+00 0.  1.
         11    1    1    2    0    0  0.15096554410E+02  0.12320627100E+02 -0.10433909854E+02  0.22103625993E+02  0.00000000000E+00 0. -1.
</event>
<event>
 6    1  0.9216756E-006  0.1041074E+03  0.7561462E-02  0.1271888E+00
         -3   -1    0    0    0  501 -0.00000000000E+00  0.00000000000E+00  0.11339564372E+03  0.11339564372E+03  0.00000000000E+00 0. -1.
          3   -1    0    0  501    0  0.00000000000E+00 -0.00000000000E+00 -0.11775073483E+03  0.11775073483E+03  0.00000000000E+00 0.  1.
          5    1    1    2  502    0  0.40387428927E+02 -0.19480728207E+02  0.36305134906E+02  0.57846161561E+02  0.41800000000E+01 0.  1.
         -5    1    1    2    0  502 -0.67305903427E+02 -0.19917845299E+02 -0.29395972065E+02  0.76212864866E+02  0.41800000000E+01 0.  1.
        -11    1    1    2    0    0 -0.25878500202E+02  0.29332844494E+02 -0.17738784318E+02  0.42950867371E+02  0.00000000000E+00 0. -1.
         11    1    1    2    0    0  0.52796974702E+02  0.10065729012E+02  0.64745303664E+01  0.54136484755E+02  0.00000000000E+00 0.  1.
</event>
<event>
 6    1  0.9216756E-006  0.1537585E+03  0.7561462E-02  0.1195929E+00
          2   -1    0    0  501    0  0.00000000000E+00  0.00000000000E+00  0.96554760758E+02  0.96554760758E+02  0.00000000000E+00 0. -1.
         -2   -1    0    0    0  501 -0.00000000000E+00 -0.00000000000E+00 -0.49490206213E+03  0.49490206213E+03  0.00000000000E+00 0.  1.
          5    1    1    2  502    0  0.32498783913E+02 -0.60127856657E+02  0.25364466779E+02  0.73023001013E+02  0.41800000000E+01 0. -1.
         -5    1    1    2    0  502  0.83498547106E+02  0.82962889059E+02 -0.30882185134E+03  0.33051967656E+03  0.41800000000E+01 0.  1.
        -11    1    1    2    0    0 -0.17313966128E+02  0.62052525872E+01  0.13922493698E+02  0.23067605284E+02  0.00000000000E+00 0.  1.
         11    1    1    2    0    0 -0.98683364891E+02 -0.29040284989E+02 -0.12881241051E+03  0.16484654003E+03  0.00000000000E+00 0. -1.
</event>
<event>
 6    1  0.9216756E-006  0.1316105E+03  0.7561462E-02  0.1225085E+00
          1   -1    0    0  501    0  0.00000000000E+00  0.00000000000E+00  0.98213983967E+02  0.98213983967E+02  0.00000000000E+00 0. -1.
         -1   -1    0    0    0  501 -0.00000000000E+00 -0.00000000000E+00 -0.23253044816E+03  0.23253044816E+03  0.00000000000E+00 0.  1.
          5    1    1    2  502    0 -0.76896787335E+02  0.72963445283E+02 -0.41342369374E+02  0.11385712167E+03  0.41800000000E+01 0. -1.
         -5    1    1    2    0  502  0.27158070568E+02  0.90709534003E+01 -0.80028774950E+02  0.85099472458E+02  0.41800000000E+01 0. -1.
        -11    1    1    2    0    0  0.45992897384E+02  0.85856471167E-01 -0.18086921761E+02  0.49421561285E+02  0.00000000000E+00 0. -1.
         11    1    1    2    0    0  0.37458193839E+01 -0.82120255155E+02  0.51416018900E+01  0.82366276713E+02  0.00000000000E+00 0.  1.
</event>
<event>
 6    1  0.9216756E-006  0.1290616E+03  0.7561462E-02  0.1228855E+00
         -1   -1    0    0    0  501 -0.00000000000E+00  0.00000000000E+00  0.13676588737E+03  0.13676588737E+03  0.00000000000E+00 0.  1.
          1   -1    0    0  501    0  0.00000000000E+00 -0.00000000000E+00 -0.15434741897E+03  0.15434741897E+03  0.00000000000E+00 0. -1.
          5    1    1    2  502    0  0.38291923434E+02 -0.24359359666E+02  0.19995649310E+02  0.49768948100E+02  0.41800000000E+01 0. -1.
         -5    1    1    2    0  502 -0.23893678750E+02  0.96207927170E+02  0.32103016501E+02  0.10428302452E+03  0.41800000000E+01 0. -1.
        -11    1    1    2    0    0 -0.28596349310E+02  0.99724990632E+01 -0.27622653634E+01  0.30411051303E+02  0.00000000000E+00 0.  1.
         11    1    1    2    0    0  0.14198104626E+02 -0.81821066567E+02 -0.66917932048E+02  0.10665028241E+03  0.00000000000E+00 0. -1.
</event>
<event>
 6    1  0.9216756E-006  0.9892468E+02  0.7561462E-02  0.1282574E+00
         -1   -1    0    0    0  501 -0.00000000000E+00  0.00000000000E+00  0.14963098671E+03  0.14963098671E+03  0.00000000000E+00 0.  1.
          1   -1    0    0  501    0  0.00000000000E+00 -0.00000000000E+00 -0.12024749722E+03  0.12024749722E+03  0.00000000000E+00 0. -1.
          5    1    1    2  502    0  0.43565239494E+02 -0.70572156009E+02  0.37989390591E+02  0.91318264840E+02  0.41800000000E+01 0.  1.
         -5    1    1    2    0  502 -0.26421766855E+02  0.35780233705E+02  0.46785589433E+02  0.64689246914E+02  0.41800000000E+01 0.  1.
        -11    1    1    2    0    0 -0.27922597962E+02  0.46487355179E+02  0.20507628267E+01  0.54267405472E+02  0.00000000000E+00 0.  1.
         11    1    1    2    0    0  0.10779125323E+02 -0.11695432874E+02 -0.57442253361E+02  0.59603566706E+02  0.00000000000E+00 0. -1.
</event>
<event>
 6    1  0.9216756E-006  0.9448127E+02  0.7561462E-02  0.1292349E+00
         -1   -1    0    0    0  501 -0.00000000000E+00  0.00000000000E+00  0.54848478596E+02  0.54848478596E+02  0.00000000000E+00 0.  1.
          1   -1    0    0  501    0  0.00000000000E+00 -0.00000000000E+00 -0.33034385789E+03  0.33034385789E+03  0.00000000000E+00 0. -1.
          5    1    1    2  502    0  0.15075407838E+02 -0.43933901870E+02 -0.12627715662E+03  0.13461370041E+03  0.41800000000E+01 0.  1.
         -5    1    1    2    0  502 -0.43228091814E+02 -0.25518619004E+02  0.10555349035E+02  0.51466062905E+02  0.41800000000E+01 0.  1.
        -11    1    1    2    0    0 -0.10359762764E+02  0.45357506106E+02 -0.17409828884E+02  0.49676253748E+02  0.00000000000E+00 0.  1.
         11    1    1    2    0    0  0.38512446739E+02  0.24095014767E+02 -0.14236374283E+03  0.14943631942E+03  0.00000000000E+00 0. -1.
</event>
<event>
 6    1  0.9216756E-006  0.1446994E+03  0.7561462E-02  0.1207142E+00
          2   -1    0    0  501    0  0.00000000000E+00  0.00000000000E+00  0.51665223835E+03  0.51665223835E+03  0.00000000000E+00 0. -1.
         -2   -1    0    0    0  501 -0.00000000000E+00 -0.00000000000E+00 -0.51337547878E+02  0.51337547878E+02  0.00000000000E+00 0.  1.
          5    1    1    2  502    0  0.12342072799E+02 -0.13865737754E+03  0.23345273481E+03  0.27183790556E+03  0.41800000000E+01 0.  1.
         -5    1    1    2    0  502 -0.18647580954E+02  0.14451200823E+02  0.45303223636E+01  0.24383717957E+02  0.41800000000E+01 0.  1.
        -11    1    1    2    0    0 -0.67697023719E+01  0.73326730199E+02  0.55855157890E+02  0.92425304407E+02  0.00000000000E+00 0.  1.
         11    1    1    2    0    0  0.13075210527E+02  0.50879446516E+02  0.17147647540E+03  0.17934285830E+03  0.00000000000E+00 0. -1.
</event>
<event>
 6    1  0.9216756E-006  0.9439505E+02  0.7561462E-02  0.1292544E+00
          1   -1    0    0  501    0  0.00000000000E+00  0.00000000000E+00  0.45698672698E+03  0.45698672698E+03  0.00000000000E+00 0. -1.
         -1   -1    0    0    0  501 -0.00000000000E+00 -0.00000000000E+00 -0.26561272824E+02  0.26561272824E+02  0.00000000000E+00 0.  1.
          5    1    1    2  502    0  0.44504779102E+01 -0.43635222870E+02  0.29728015010E+02  0.53151356568E+02  0.41800000000E+01 0. -1.
         -5    1    1    2    0  502  0.73546780257E+01  0.54502024769E+02  0.21752575767E+03  0.22440920134E+03  0.41800000000E+01 0. -1.
        -11    1    1    2    0    0  0.37487502868E+02  0.49365379998E+01  0.47081106906E+02  0.60384707552E+02  0.00000000000E+00 0.  1.
         11    1    1    2    0    0 -0.49292658804E+02 -0.15803339898E+02  0.13609057457E+03  0.14560273435E+03  0.00000000000E+00 0. -1.
</event>
<event>
 6    1  0.9216756E-006  0.1319920E+03  0.7561462E-02  0.1224530E+00
          3   -1    0    0  501    0  0.00000000000E+00  0.00000000000E+00  0.17032213733E+03  0.17032213733E+03  0.00000000000E+00 0. -1.
         -3   -1    0    0    0  501 -0.00000000000E+00 -0.00000000000E+00 -0.12380630445E+03  0.12380630445E+03  0.00000000000E+00 0.  1.
          5    1    1    2  502    0  0.11040223817E+03 -0.52888309713E+02 -0.57037970739E+01  0.12262068830E+03  0.41800000000E+01 0.  1.
         -5    1    1    2    0  502 -0.20328125107E+02  0.21197177389E+02  0.19176949041E+02  0.35323940524E+02  0.41800000000E+01 0.  1.
        -11    1    1    2    0    0 -0.39594549619E+01  0.25159105671E+02 -0.22098472585E+02  0.33719436121E+02  0.00000000000E+00 0.  1.
         11    1    1    2    0    0 -0.86114658101E+02  0.65320266535E+01  0.55141153502E+02  0.10246437684E+03  0.00000000000E+00 0. -1.
</event>
<event>
 6    1  0.9216756E-006  0.2336510E+03  0.7561462E-02  0.1124096E+00
         -2   -1    0    0    0  501 -0.00000000000E+00  0.00000000000E+00  0.47859539293E+03  0.47859539293E+03  0.00000000000E+00 0.  1.
          2   -1    0    0  501    0  0.00000000000E+00 -0.00000000000E+00 -0.22065757033E+03  0.22065757033E+03  0.00000000000E+00 0. -1.
          5    1    1    2  502    0 -0.23544037591E+02  0.15978207540E+02 -0.97779761179E+02  0.10192143503E+03  0.41800000000E+01 0. -1.
         -5    1    1    2    0  502  0.20568286113E+02  0.21051325277E+03  0.26054969575E+03  0.33562255637E+03  0.41800000000E+01 0.  1.
        -11    1    1    2    0    0  0.89506677810E+01 -0.12705703814E+03  0.51951251537E+01  0.12747782050E+03  0.00000000000E+00 0. -1.
         11    1    1    2    0    0 -0.59749163031E+01 -0.99434422169E+02  0.89972762871E+02  0.13423115136E+03  0.00000000000E+00 0.  1.
</event>
<event>
 6    1  0.9216756E-006  0.1120379E+03  0.7561462E-02  0.1256842E+00
         -4   -1    0    0    0  501 -0.00000000000E+00  0.00000000000E+00  0.92949779541E+02  0.92949779541E+02  0.00000000000E+00 0.  1.
          4   -1    0    0  501    0  0.00000000000E+00 -0.00000000000E+00 -0.31009105347E+03  0.31009105347E+03  0.00000000000E+00 0. -1.
          5    1    1    2  502    0  0.34431187542E+02  0.28117463284E+02 -0.57552598295E+02  0.72841419451E+02  0.41800000000E+01 0.  1.
         -5    1    1    2    0  502 -0.27311618142E+02  0.70229436640E+02  0.43413138008E+02  0.87064752960E+02  0.41800000000E+01 0.  1.
        -11    1    1    2    0    0 -0.20153769150E+02 -0.68150472921E+02 -0.50642346893E+02  0.87265735940E+02  0.00000000000E+00 0.  1.
         11    1    1    2    0    0  0.13034199750E+02 -0.30196427002E+02 -0.15235946675E+03  0.15586892466E+03  0.00000000000E+00 0. -1.
</event>
<event>
 6    1  0.9216756E-006  0.5270300E+02  0.7561462E-02  0.1431285E+00
         -2   -1    0    0    0  501 -0.00000000000E+00  0.00000000000E+00  0.60091094596E+03  0.60091094596E+03  0.00000000000E+00 0.  1.
          2   -1    0    0  501    0  0.00000000000E+00 -0.00000000000E+00 -0.43487018980E+02  0.43487018980E+02  0.00000000000E+00 0. -1.
          5    1    1    2  502    0  0.50434919468E+02  0.82843279851E+00  0.52820510779E+03  0.53062460902E+03  0.41800000000E+01 0.  1.
         -5    1    1    2    0  502 -0.11152178009E+02  0.72135785668E+01  0.26536955173E+00  0.13926579303E+02  0.41800000000E+01 0.  1.
        -11    1    1    2    0    0 -0.20567116115E+02 -0.18124367681E+00 -0.30633044142E+02  0.36897459370E+02  0.00000000000E+00 0. -1.
         11    1    1    2    0    0 -0.18715625345E+02 -0.78607676885E+01  0.59586493781E+02  0.62949317246E+02  0.00000000000E+00 0.  1.
</event>
<event>
 6    1  0.9216756E-006  0.6830558E+02  0.7561462E-02  0.1365952E+00
          2   -1    0    0  501    0  0.00000000000E+00  0.00000000000E+00  0.29424675782E+03  0.29424675782E+03  0.00000000000E+00 0. -1.
         -2   -1    0    0    0  501 -0.00000000000E+00 -0.00000000000E+00 -0.49172628667E+02  0.49172628667E+02  0.00000000000E+00 0.  1.
          5    1    1    2  502    0 -0.13303799113E+02 -0.14918672343E+02 -0.21036179406E+02  0.29318101905E+02  0.41800000000E+01 0.  1.
         -5    1    1    2    0  502 -0.31517755592E+02 -0.22725712462E+02  0.16747186138E+03  0.17197128737E+03  0.41800000000E+01 0.  1.
        -11    1    1    2    0    0  0.28448339477E+02 -0.72201736968E+01  0.88590114878E+02  0.93325491594E+02  0.00000000000E+00 0. -1.
         11    1    1    2    0    0  0.16373215228E+02  0.44864558502E+02  0.10048332296E+02  0.48804505616E+02  0.00000000000E+00 0.  1.
</event>
<event>
 6    1  0.9216756E-006  0.1658912E+03  0.7561462E-02  0.1182202E+00
          2   -1    0    0  501    0  0.00000000000E+00  0.00000000000E+00  0.36106677770E+03  0.36106677770E+03  0.00000000000E+00 0. -1.
         -2   -1    0    0    0  501 -0.00000000000E+00 -0.00000000000E+00 -0.89119096951E+02  0.89119096951E+02  0.00000000000E+00 0.  1.
          5    1    1    2  502    0 -0.53228111010E+02  0.14713910468E+03  0.72658767539E+02  0.17256858587E+03  0.41800000000E+01 0.  1.
         -5    1    1    2    0  502 -0.11776214682E+02 -0.21265807513E+02  0.41355140971E+02  0.48152195029E+02  0.41800000000E+01 0.  1.
        -11    1    1    2    0    0  0.37098980464E+02 -0.11466655418E+03  0.15883221664E+03  0.19938010443E+03  0.00000000000E+00 0. -1.
         11    1    1    2    0    0  0.27905345228E+02 -0.11206742984E+02 -0.89844440002E+00  0.30084989329E+02  0.00000000000E+00 0.  1.
</event>
<event>
 6    1  0.9216756E-006  0.1211755E+03  0.7561462E-02  0.1241170E+00
          1   -1    0    0  501    0  0.00000000000E+00  0.00000000000E+00  0.68845162753E+02  0.68845162753E+02  0.00000000000E+00 0. -1.
         -1   -1    0    0    0  501 -0.00000000000E+00 -0.00000000000E+00 -0.26382134866E+03  0.26382134866E+03  0.00000000000E+00 0.  1.
          5    1    1    2  502    0 -0.14072458210E+02  0.73372711300E+02 -0.51130609191E+02  0.90627812728E+02  0.41800000000E+01 0.  1.
         -5    1    1    2    0  502  0.61581206391E+02 -0.18557810928E+02 -0.96305585474E+02  0.11588302516E+03  0.41800000000E+01 0.  1.
        -11    1    1    2    0    0 -0.66777266421E+02 -0.49378954832E+02 -0.60104982652E+02  0.10251874673E+03  0.00000000000E+00 0.  1.
         11    1    1    2    0    0  0.19268518241E+02 -0.54359455403E+01  0.12564991412E+02  0.23636926795E+02  0.00000000000E+00 0. -1.
</event>
<event>
 6    1  0.9216756E-006  0.1304037E+03  0.7561462E-02  0.1226858E+00
          1   -1    0    0  501    0  0.00000000000E+00  0.00000000000E+00  0.26207032213E+03  0.26207032213E+03  0.00000000000E+00 0. -1.
         -1   -1    0    0    0  501 -0.00000000000E+00 -0.00000000000E+00 -0.88611754531E+02  0.88611754531E+02  0.00000000000E+00 0.  1.
          5    1    1    2  502    0 -0.87787550069E+02  0.61488269507E+02  0.10120031909E+03  0.14746673597E+03  0.41800000000E+01 0. -1.
         -5    1    1    2    0  502  0.68371812574E+02 -0.90208267947E+00 -0.32051344718E+01  0.68580345543E+02  0.41800000000E+01 0.  1.
        -11    1    1    2    0    0  0.52588384920E+01 -0.68581197406E+02  0.12884932770E+02  0.69978979075E+02  0.00000000000E+00 0.  1.
         11    1    1    2    0    0  0.14156899003E+02  0.79950105789E+01  0.62578450209E+02  0.64656016071E+02  0.00000000000E+00 0. -1.
</event>
<event>
 6    1  0.9216756E-006  0.1521488E+03  0.7561462E-02  0.1197857E+00
          3   -1    0    0  501    0  0.00000000000E+00  0.00000000000E+00  0.11589927191E+03  0.11589927191E+03  0.00000000000E+00 0. -1.
         -3   -1    0    0    0  501 -0.00000000000E+00 -0.00000000000E+00 -0.32695525334E+03  0.32695525334E+03  0.00000000000E+00 0.  1.
          5    1    1    2  502    0 -0.11908092464E+02 -0.28083939179E+02 -0.21076939906E+02  0.37312465769E+02  0.41800000000E+01 0. -1.
         -5    1    1    2    0  502 -0.52406029453E+02  0.12355093784E+03 -0.21719845506E+03  0.25535047963E+03  0.41800000000E+01 0. -1.
        -11    1    1    2    0    0  0.12606456169E+02 -0.85691231841E+02 -0.78259135125E+01  0.86966400833E+02  0.00000000000E+00 0.  1.
         11    1    1    2    0    0  0.51707665749E+02 -0.97757668173E+01  0.35045327058E+02  0.63225179024E+02  0.00000000000E+00 0. -1.
</event>
<event>
 6    1  0.9216756E-006  0.1993132E+03  0.7561462E-02  0.1150320E+00
          1   -1    0    0  501    0  0.00000000000E+00  0.00000000000E+00  0.31240244115E+03  0.31240244115E+03  0.00000000000E+00 0. -1.
         -1   -1    0    0    0  501 -0.00000000000E+00 -0.00000000000E+00 -0.13432216971E+03  0.13432216971E+03  0.00000000000E+00 0.  1.
          5    1    1    2  502    0  0.68573652436E+00 -0.34920665626E+02  0.24498688955E+02  0.42867018590E+02  0.41800000000E+01 0.  1.
         -5    1    1    2    0  502 -0.16984322842E+03  0.26016764465E+02  0.27871672828E+02  0.17412035154E+03  0.41800000000E+01 0.  1.
        -11    1    1    2    0    0  0.85354069559E+01  0.28510019756E+02  0.27057495099E+02  0.40221666294E+02  0.00000000000E+00 0. -1.
         11    1    1    2    0    0  0.16062208494E+03 -0.19606118596E+02  0.98652414554E+02  0.18951557444E+03  0.00000000000E+00 0.  1.
</event>
<event>
 6    1  0.9216756E-006  0.1246012E+03  0.7561462E-02  0.1235694E+00
          2   -1    0    0  501    0  0.00000000000E+00  0.00000000000E+00  0.15616919905E+03  0.15616919905E+03  0.00000000000E+00 0. -1.
         -2   -1    0    0    0  501 -0.00000000000E+00 -0.00000000000E+00 -0.12067771935E+03  0.12067771935E+03  0.00000000000E+00 0.  1.
          5    1    1    2  502    0 -0.58788906528E+02  0.23798275949E+02 -0.27704077990E+02  0.69336006563E+02  0.41800000000E+01 0. -1.
         -5    1    1    2    0  502  0.51735176543E+02  0.55449689918E+02  0.21838419401E+02  0.79029017240E+02  0.41800000000E+01 0. -1.
        -11    1    1    2    0    0 -0.30399182554E+02 -0.60720389355E+02 -0.24409052753E+01  0.67948760121E+02  0.00000000000E+00 0. -1.
         11    1    1    2    0    0  0.37452912539E+02 -0.18527576512E+02  0.43798043565E+02  0.60533134473E+02  0.00000000000E+00 0.  1.
</event>
<event>
 6    1  0.9216756E-006  0.2736290E+03  0.7561462E-02  0.1099220E+00
         -2   -1    0    0    0  501 -0.00000000000E+00  0.00000000000E+00  0.17373932806E+03  0.17373932806E+03  0.00000000000E+00 0.  1.
          2   -1    0    0  501    0  0.00000000000E+00 -0.00000000000E+00 -0.49618499770E+03  0.49618499770E+03  0.00000000000E+00 0. -1.
          5    1    1    2  502    0 -0.95910264205E+01 -0.31495603707E+02  0.15629620064E+02  0.36684032821E+02  0.41800000000E+01 0. -1.
         -5    1    1    2    0  502 -0.16045598315E+03 -0.17955228405E+03 -0.20990777391E+03  0.31947439832E+03  0.41800000000E+01 0. -1.
        -11    1    1    2    0    0  0.73257045618E+02  0.11850915199E+03 -0.11224494448E+03  0.17891322310E+03  0.00000000000E+00 0. -1.
         11    1    1    2    0    0  0.96789963949E+02  0.92538735761E+02 -0.15922571314E+02  0.13485267151E+03  0.00000000000E+00 0.  1.
</event>
<event>
 6    1  0.9216756E-006  0.2469612E+03  0.7561462E-02  0.1115240E+00
          1   -1    0    0  501    0  0.00000000000E+00  0.00000000000E+00  0.75206476580E+03  0.75206476580E+03  0.00000000000E+00 0. -1.
         -1   -1    0    0    0  501 -0.00000000000E+00 -0.00000000000E+00 -0.92459301745E+02  0.92459301745E+02  0.00000000000E+00 0.  1.
          5    1    1    2  502    0  0.16844239944E+03  0.15747256654E+03  0.29878769110E+03  0.37744139663E+03  0.41800000000E+01 0.  1.
         -5    1    1    2    0  502  0.13353469028E+02 -0.63353340702E+01  0.10998881166E+03  0.11105612403E+03  0.41800000000E+01 0.  1.
        -11    1    1    2    0    0 -0.14333002647E+03 -0.73008801043E+02  0.19412741815E+03  0.25210957141E+03  0.00000000000E+00 0. -1.
         11    1    1    2    0    0 -0.38465841992E+02 -0.78128431425E+02  0.56701543141E+02  0.10391697547E+03  0.00000000000E+00 0.  1.
</event>
<event>
 6    1  0.9216756E-006  0.1074819E+03  0.7561462E-02  0.1265305E+00
         -2   -1    0    0    0  501 -0.00000000000E+00  0.00000000000E+00  0.52321206706E+03  0.52321206706E+03  0.00000000000E+00 0.  1.
          2   -1    0    0  501    0  0.00000000000E+00 -0.00000000000E+00 -0.42827448294E+02  0.42827448294E+02  0.00000000000E+00 0. -1.
          5    1    1    2  502    0  0.86571037543E+00 -0.23836129783E+02  0.29341110794E+03  0.29440866360E+03  0.41800000000E+01 0.  1.
         -5    1    1    2    0  502  0.72931000350E+02  0.18574751427E+02  0.10173968026E+03  0.12661906311E+03  0.41800000000E+01 0.  1.
        -11    1    1    2    0    0 -0.94521617471E+02  0.47923047890E+01  0.58810295405E+02  0.11142689621E+03  0.00000000000E+00 0. -1.
         11    1    1    2    0    0  0.20724906746E+02  0.46907356750E+00  0.26423535160E+02  0.33584892437E+02  0.00000000000E+00 0.  1.
</event>
<event>
 6    1  0.9216756E-006  0.1130577E+03  0.7561462E-02  0.1255010E+00
         -2   -1    0    0    0  501 -0.00000000000E+00  0.00000000000E+00  0.86785152841E+02  0.86785152841E+02  0.00000000000E+00 0.  1.
          2   -1    0    0  501    0  0.00000000000E+00 -0.00000000000E+00 -0.20350868720E+03  0.20350868720E+03  0.00000000000E+00 0. -1.
          5    1    1    2  502    0 -0.96652202149E+02  0.30835132761E+02 -0.19429244033E+02  0.10337998605E+03  0.41800000000E+01 0.  1.
         -5    1    1    2    0  502  0.32889740846E+02 -0.20192758116E+02 -0.45126870897E+00  0.38822140290E+02  0.41800000000E+01 0.  1.
        -11    1    1    2    0    0  0.14246954140E+02  0.22173055532E+02  0.80403022313E+01  0.27554791849E+02  0.00000000000E+00 0.  1.
         11    1    1    2    0    0  0.49515507163E+02 -0.32815430177E+02 -0.10488332385E+03  0.12053692185E+03  0.00000000000E+00 0. -1.
</event>
<event>
 6    1  0.9216756E-006  0.1219403E+03  0.7561462E-02  0.1239930E+00
         -1   -1    0    0    0  501 -0.00000000000E+00  0.00000000000E+00  0.45547914274E+02  0.45547914274E+02  0.00000000000E+00 0.  1.
          1   -1    0    0  501    0  0.00000000000E+00 -0.00000000000E+00 -0.64970909853E+03  0.64970909853E+03  0.00000000000E+00 0. -1.
          5    1    1    2  502    0 -0.53482076487E+02  0.98887760789E+01 -0.18227357533E+03  0.19026100247E+03  0.41800000000E+01 0.  1.
         -5    1    1    2    0  502 -0.56145693746E+02  0.58310868192E+00  0.56386563010E+00  0.56306920413E+02  0.41800000000E+01 0.  1.
        -11    1    1    2    0    0  0.34104715641E+02  0.31670684954E+02 -0.26493144752E+03  0.26898854213E+03  0.00000000000E+00 0. -1.
         11    1    1    2    0    0  0.75523054592E+02 -0.42142569715E+02 -0.15752002704E+03  0.17970054779E+03  0.00000000000E+00 0.  1.
</event>
<event>
 6    1  0.9216756E-006  0.9884604E+02  0.7561462E-02  0.1282741E+00
         -1   -1    0    0    0  501 -0.00000000000E+00  0.00000000000E+00  0.70921339919E+02  0.70921339919E+02  0.00000000000E+00 0.  1.
          1   -1    0    0  501    0  0.00000000000E+00 -0.00000000000E+00 -0.27660343849E+03  0.27660343849E+03  0.00000000000E+00 0. -1.
          5    1    1    2  502    0  0.15126922002E+02  0.58668983790E+02  0.24370869198E+02  0.65439170942E+02  0.41800000000E+01 0.  1.
         -5    1    1    2    0  502  0.31019134395E+02  0.78079929049E+01 -0.93297171518E+02  0.98716695979E+02  0.41800000000E+01 0.  1.
        -11    1    1    2    0    0 -0.44794243874E+02 -0.71524247801E+01 -0.14752871375E+02  0.47700405431E+02  0.00000000000E+00 0.  1.
         11    1    1    2    0    0 -0.13518125226E+01 -0.59324551914E+02 -0.12200292488E+03  0.13566850606E+03  0.00000000000E+00 0. -1.
</event>
<event>
 6    1  0.9216756E-006  0.1024191E+03  0.7561462E-02  0.1275290E+00
         -1   -1    0    0    0  501 -0.00000000000E+00  0.00000000000E+00  0.20277492008E+02  0.20277492008E+02  0.00000000000E+00 0.  1.
          1   -1    0    0  501    0  0.00000000000E+00 -0.00000000000E+00 -0.69045472017E+03  0.69045472017E+03  0.00000000000E+00 0. -1.
          5    1    1    2  502    0  0.21964138312E+02  0.36819270758E+02 -0.56281964177E+02  0.70874635537E+02  0.41800000000E+01 0. -1.
         -5    1    1    2    0  502 -0.69637676213E+02 -0.28168705755E+02 -0.31608547965E+03  0.32491596572E+03  0.41800000000E+01 0. -1.
        -11    1    1    2    0    0  0.66338708250E+02 -0.12402822016E+02 -0.28267650510E+03  0.29062116362E+03  0.00000000000E+00 0. -1.
         11    1    1    2    0    0 -0.18665170349E+02  0.37522570129E+01 -0.15133279234E+02  0.24320447308E+02  0.00000000000E+00 0.  1.
</event>
<event>
 6    1  0.9216756E-006  0.1118877E+03  0.7561462E-02  0.1257113E+00
          1   -1    0    0  501    0  0.00000000000E+00  0.00000000000E+00  0.99013543544E+02  0.99013543544E+02  0.00000000000E+00 0. -1.
         -1   -1    0    0    0  501 -0.00000000000E+00 -0.00000000000E+00 -0.13599843834E+03  0.13599843834E+03  0.00000000000E+00 0.  1.
          5    1    1    2  502    0 -0.33845897462E+02  0.64887273188E+02 -0.22325023716E+02  0.76627554318E+02  0.41800000000E+01 0.  1.
         -5    1    1    2    0  502  0.49537614021E+02 -0.28892505639E+02 -0.93688835174E+01  0.58258050631E+02  0.41800000000E+01 0.  1.
        -11    1    1    2    0    0  0.22932612244E+02  0.16173314518E+02 -0.18862670516E+02  0.33812440696E+02  0.00000000000E+00 0.  1.
         11    1    1    2    0    0 -0.38624328803E+02 -0.52168082067E+02  0.13571682949E+02  0.66313936244E+02  0.00000000000E+00 0. -1.
</event>
<event>
 6    1  0.9216756E-006  0.2776559E+03  0.7561462E-02  0.1096976E+00
         -1   -1    0    0    0  501 -0.00000000000E+00  0.00000000000E+00  0.99967808970E+03  0.99967808970E+03  0.00000000000E+00 0.  1.
          1   -1    0    0  501    0  0.00000000000E+00 -0.00000000000E+00 -0.93769775761E+02  0.93769775761E+02  0.00000000000E+00 0. -1.
          5    1    1    2  502    0  0.28000407654E+02 -0.15682205092E+02  0.26212521565E+02  0.41647605839E+02  0.41800000000E+01 0. -1.
         -5    1    1    2    0  502 -0.27108815695E+03 -0.35129996145E+02  0.63391342414E+03  0.69035252384E+03  0.41800000000E+01 0.  1.
        -11    1    1    2    0    0  0.59120213151E+02  0.16738100250E+01  0.11840516892E+03  0.13235477048E+03  0.00000000000E+00 0.  1.
         11    1    1    2    0    0  0.18396753614E+03  0.49138391212E+02  0.12737719932E+03  0.22909296530E+03  0.00000000000E+00 0. -1.
</event>
<event>
 6    1  0.9216756E-006  0.8757552E+02  0.7561462E-02  0.1308831E+00
          3   -1    0    0  501    0  0.00000000000E+00  0.00000000000E+00  0.19378679468E+03  0.19378679468E+03  0.00000000000E+00 0. -1.
         -3   -1    0    0    0  501 -0.00000000000E+00 -0.00000000000E+00 -0.68875599994E+02  0.68875599994E+02  0.00000000000E+00 0.  1.
          5    1    1    2  502    0 -0.22978133084E+02  0.13400407889E+02  0.62911266114E+02  0.68431464515E+02  0.41800000000E+01 0.  1.
         -5    1    1    2    0  502  0.74992130814E+02 -0.82062118191E+01 -0.11768951439E+02  0.76466608493E+02  0.41800000000E+01 0.  1.
        -11    1    1    2    0    0 -0.60095548552E+02 -0.12942166608E+02  0.22776187686E+02  0.65557069472E+02  0.00000000000E+00 0.  1.
         11    1    1    2    0    0  0.80815508220E+01  0.77479705381E+01  0.50992692323E+02  0.52207252193E+02  0.00000000000E+00 0. -1.
</event>
<event>
 6    1  0.9216756E-006  0.1017280E+03  0.7561462E-02  0.1276704E+00
         -2   -1    0    0    0  501 -0.00000000000E+00  0.00000000000E+00  0.10097075362E+03  0.10097075362E+03  0.00000000000E+00 0.  1.
          2   -1    0    0  501    0  0.00000000000E+00 -0.00000000000E+00 -0.12748252325E+03  0.12748252325E+03  0.00000000000E+00 0. -1.
          5    1    1    2  502    0  0.90695809585E+01 -0.41891251260E+02  0.58998684684E+01  0.43467402486E+02  0.41800000000E+01 0. -1.
         -5    1    1    2    0  502 -0.41624658170E+02  0.64132457184E+02  0.21048939512E+02  0.79411047637E+02  0.41800000000E+01 0.  1.
        -11    1    1    2    0    0  0.53655196305E+02 -0.29838656123E+02 -0.18647251392E+02  0.64163427856E+02  0.00000000000E+00 0. -1.
         11    1    1    2    0    0 -0.21100119093E+02  0.75974502000E+01 -0.34813326227E+02  0.41411398893E+02  0.00000000000E+00 0.  1.
</event>
<event>
 6    1  0.9216756E-006  0.4936318E+02  0.7561462E-02  0.1448807E+00
         -1   -1    0    0    0  501 -0.00000000000E+00  0.00000000000E+00  0.73210607697E+02  0.73210607697E+02  0.00000000000E+00 0.  1.
          1   -1    0    0  501    0  0.00000000000E+00 -0.00000000000E+00 -0.14357763486E+03  0.14357763486E+03  0.00000000000E+00 0. -1.
          5    1    1    2  502    0  0.22975723014E+02 -0.17919199100E+02 -0.82290944224E+02  0.87397102044E+02  0.41800000000E+01 0.  1.
         -5    1    1    2    0  502  0.11309911310E+02 -0.71485974199E+01  0.47253808187E+02  0.49289058899E+02  0.41800000000E+01 0.  1.
        -11    1    1    2    0    0  0.55520386831E+01  0.12208438773E+02  0.11228534147E+02  0.17491457626E+02  0.00000000000E+00 0.  1.
         11    1    1    2    0    0 -0.39837673007E+02  0.12859357746E+02 -0.46558425275E+02  0.62610623990E+02  0.00000000000E+00 0. -1.
</event>
<event>
 6    1  0.9216756E-006  0.3636663E+03  0.7561462E-02  0.1057142E+00
          1   -1    0    0  501    0  0.00000000000E+00  0.00000000000E+00  0.12832716667E+03  0.12832716667E+03  0.00000000000E+00 0. -1.
         -1   -1    0    0    0  501 -0.00000000000E+00 -0.00000000000E+00 -0.10960472091E+04  0.10960472091E+04  0.00000000000E+00 0.  1.
          5    1    1    2  502    0  0.15125514401E+02 -0.33052172450E+03 -0.50303928148E+03  0.60211243358E+03  0.41800000000E+01 0. -1.
         -5    1    1    2    0  502  0.99427953987E+02  0.16621879118E+03 -0.24233200664E+03  0.31025292653E+03  0.41800000000E+01 0.  1.
        -11    1    1    2    0    0 -0.10321030289E+03  0.12663109319E+03 -0.12100869923E+03  0.20330003855E+03  0.00000000000E+00 0. -1.
         11    1    1    2    0    0 -0.11343165496E+02  0.37671840127E+02 -0.10134005507E+03  0.10870897711E+03  0.00000000000E+00 0.  1.
</event>
<event>
 6    1  0.9216756E-006  0.1382363E+03  0.7561462E-02  0.1215722E+00
          1   -1    0    0  501    0  0.00000000000E+00  0.00000000000E+00  0.33941364859E+03  0.33941364859E+03  0.00000000000E+00 0. -1.
         -1   -1    0    0    0  501 -0.00000000000E+00 -0.00000000000E+00 -0.76788887988E+02  0.76788887988E+02  0.00000000000E+00 0.  1.
          5    1    1    2  502    0 -0.12047419740E+03  0.30028915161E+00  0.42827791032E+02  0.12792894316E+03  0.41800000000E+01 0.  1.
         -5    1    1    2    0  502  0.10561664561E+01  0.45968534127E+01  0.89923631426E+02  0.90144209119E+02  0.41800000000E+01 0.  1.
        -11    1    1    2    0    0 -0.13519399193E+02 -0.96350845594E+01  0.13989552571E+02  0.21709827041E+02  0.00000000000E+00 0.  1.
         11    1    1    2    0    0  0.13293743014E+03  0.47379419951E+01  0.11588378557E+03  0.17641955726E+03  0.00000000000E+00 0. -1.
</event>
<event>
 6    1  0.9216756E-006  0.1430189E+03  0.7561462E-02  0.1209324E+00
          2   -1    0    0  501    0  0.00000000000E+00  0.00000000000E+00  0.86100865818E+03  0.86100865818E+03  0.00000000000E+00 0. -1.
         -2   -1    0    0    0  501 -0.00000000000E+00 -0.00000000000E+00 -0.25795955834E+02  0.25795955834E+02  0.00000000000E+00 0.  1.
          5    1    1    2  502    0 -0.12222786217E+03  0.60964482114E+00  0.25903632674E+03  0.28645647650E+03  0.41800000000E+01 0. -1.
         -5    1    1    2    0  502  0.28508657184E+02  0.19619244696E+02  0.88834620054E+02  0.95429138197E+02  0.41800000000E+01 0. -1.
        -11    1    1    2    0    0  0.73639426982E+01 -0.39681598264E+02  0.20828660030E+03  0.21216070503E+03  0.00000000000E+00 0.  1.
         11    1    1    2    0    0  0.86355262291E+02  0.19452708747E+02  0.27905515525E+03  0.29275829429E+03  0.00000000000E+00 0. -1.
</event>
<event>
 6    1  0.9216756E-006  0.8611977E+02  0.7561462E-02  0.1312530E+00
          2   -1    0    0  501    0  0.00000000000E+00  0.00000000000E+00  0.89241852297E+02  0.89241852297E+02  0.00000000000E+00 0.  1.
         -2   -1    0    0    0  501 -0.00000000000E+00 -0.00000000000E+00 -0.35638716945E+03  0.35638716945E+03  0.00000000000E+00 0. -1.
          5    1    1    2  502    0  0.26430258930E+02 -0.10713010122E+02 -0.70223193749E+01  0.29666690790E+02  0.41800000000E+01 0. -1.
         -5    1    1    2    0  502 -0.42589765742E+02 -0.28651122879E+02 -0.30290007589E+03  0.30724697454E+03  0.41800000000E+01 0. -1.
        -11    1    1    2    0    0  0.48888425540E+02  0.15078507600E+02  0.44667757813E+02  0.67916479085E+02  0.00000000000E+00 0.  1.
         11    1    1    2    0    0 -0.32728918728E+02  0.24285625401E+02 -0.18906797041E+01  0.40798877337E+02  0.00000000000E+00 0. -1.
</event>
<event>
 6    1  0.9216756E-006  0.1465193E+03  0.7561462E-02  0.1204816E+00
          2   -1    0    0  501    0  0.00000000000E+00  0.00000000000E+00  0.28417565161E+03  0.28417565161E+03  0.00000000000E+00 0. -1.
         -2   -1    0    0    0  501 -0.00000000000E+00 -0.00000000000E+00 -0.80210102775E+02  0.80210102775E+02  0.00000000000E+00 0.  1.
          5    1    1    2  502    0 -0.11152132500E+03 -0.21144816580E+02  0.10029704958E+03  0.15152913830E+03  0.41800000000E+01 0. -1.
         -5    1    1    2    0  502  0.77690172938E+01  0.40710916438E+02  0.24282599683E+01  0.41726552618E+02  0.41800000000E+01 0. -1.
        -11    1    1    2    0    0  0.54669431395E+02  0.34602035023E+02  0.51818789275E+02  0.82892909701E+02  0.00000000000E+00 0. -1.
         11    1    1    2    0    0  0.49082876316E+02 -0.54168134881E+02  0.49421450014E+02  0.88237153770E+02  0.00000000000E+00 0.  1.
</event>
<event>
 6    1  0.9216756E-006  0.1004688E+03  0.7561462E-02  0.1279313E+00
         -1   -1    0    0    0  501 -0.00000000000E+00  0.00000000000E+00  0.40518747712E+02  0.40518747712E+02  0.00000000000E+00 0.  1.
          1   -1    0    0  501    0  0.00000000000E+00 -0.00000000000E+00 -0.32765501772E+03  0.32765501772E+03  0.00000000000E+00 0. -1.
          5    1    1    2  502    0  0.13037706440E+02 -0.64616906461E+02 -0.12804216953E+03  0.14407496649E+03  0.41800000000E+01 0. -1.
         -5    1    1    2    0  502  0.19344643544E+02  0.44980420077E+02 -0.19078464309E+02  0.52715402157E+02  0.41800000000E+01 0. -1.
        -11    1    1    2    0    0  0.54369485383E+00  0.44488653832E+02 -0.29405952112E+02  0.53331472354E+02  0.00000000000E+00 0.  1.
         11    1    1    2    0    0 -0.32926044839E+02 -0.24852167448E+02 -0.11060968406E+03  0.11805192444E+03  0.00000000000E+00 0. -1.
</event>
<event>
 6    1  0.9216756E-006  0.9825007E+02  0.7561462E-02  0.1284019E+00
         -2   -1    0    0    0  501 -0.00000000000E+00  0.00000000000E+00  0.31973741888E+02  0.31973741888E+02  0.00000000000E+00 0.  1.
          2   -1    0    0  501    0  0.00000000000E+00 -0.00000000000E+00 -0.37464126035E+03  0.37464126035E+03  0.00000000000E+00 0. -1.
          5    1    1    2  502    0 -0.17307868256E+02  0.46932968436E+02 -0.43231116869E+02  0.66247020276E+02  0.41800000000E+01 0.  1.
         -5    1    1    2    0  502  0.13281828386E+02 -0.69010724847E+02 -0.14054478568E+03  0.15719159103E+03  0.41800000000E+01 0.  1.
        -11    1    1    2    0    0 -0.66223202430E+01  0.47698634320E+02 -0.44845456341E+02  0.65803721747E+02  0.00000000000E+00 0.  1.
         11    1    1    2    0    0  0.10648360113E+02 -0.25620877909E+02 -0.11404615957E+03  0.11737266918E+03  0.00000000000E+00 0. -1.
</event>
<event>
 6    1  0.9216756E-006  0.4202124E+03  0.7561462E-02  0.1036997E+00
         -1   -1    0    0    0  501 -0.00000000000E+00  0.00000000000E+00  0.92070093418E+03  0.92070093418E+03  0.00000000000E+00 0.  1.
          1   -1    0    0  501    0  0.00000000000E+00 -0.00000000000E+00 -0.21233705851E+03  0.21233705851E+03  0.00000000000E+00 0. -1.
          5    1    1    2  502    0 -0.38459775799E+03  0.44482774412E+02  0.48031003261E+03  0.61693545245E+03  0.41800000000E+01 0. -1.
         -5    1    1    2    0  502 -0.26354514087E+02  0.23382258612E+02  0.86526045524E+01  0.36518904640E+02  0.41800000000E+01 0.  1.
        -11    1    1    2    0    0  0.65091072654E+02 -0.22840048577E+02  0.75545373128E+02  0.10230160780E+03  0.00000000000E+00 0. -1.
         11    1    1    2    0    0  0.34586119942E+03 -0.45024984447E+02  0.14385586539E+03  0.37728202779E+03  0.00000000000E+00 0.  1.
</event>
<event>
 6    1  0.9216756E-006  0.9877933E+02  0.7561462E-02  0.1282884E+00
         -2   -1    0    0    0  501 -0.00000000000E+00  0.00000000000E+00  0.57557408833E+02  0.57557408833E+02  0.00000000000E+00 0.  1.
          2   -1    0    0  501    0  0.00000000000E+00 -0.00000000000E+00 -0.20863383149E+03  0.20863383149E+03  0.00000000000E+00 0. -1.
          5    1    1    2  502    0  0.66192736224E+01 -0.40578564162E+02 -0.55948233719E+02  0.69556537500E+02  0.41800000000E+01 0. -1.
         -5    1    1    2    0  502  0.73843719156E+01  0.72068388663E+02 -0.16387613745E+02  0.74393601051E+02  0.41800000000E+01 0.  1.
        -11    1    1    2    0    0 -0.12177865187E+02 -0.56900687855E+02 -0.77259998190E+02  0.96721745224E+02  0.00000000000E+00 0. -1.
         11    1    1    2    0    0 -0.18257803511E+01  0.25410863354E+02 -0.14805770019E+01  0.25519356546E+02  0.00000000000E+00 0.  1.
</event>
<event>
 6    1  0.9216756E-006  0.1253799E+03  0.7561462E-02  0.1234477E+00
          2   -1    0    0  501    0  0.00000000000E+00  0.00000000000E+00  0.11616871878E+03  0.11616871878E+03  0.00000000000E+00 0. -1.
         -2   -1    0    0    0  501 -0.00000000000E+00 -0.00000000000E+00 -0.18390899139E+03  0.18390899139E+03  0.00000000000E+00 0.  1.
          5    1    1    2  502    0  0.30476390406E+02 -0.22865455170E+02 -0.77704427504E+02  0.86643464070E+02  0.41800000000E+01 0.  1.
         -5    1    1    2    0  502  0.35176714110E+02  0.78087213015E+02 -0.44581639721E+01  0.85862457908E+02  0.41800000000E+01 0.  1.
        -11    1    1    2    0    0 -0.89717649966E+02 -0.40169296439E+02  0.94216729480E+01  0.98750174749E+02  0.00000000000E+00 0. -1.
         11    1    1    2    0    0  0.24064545450E+02 -0.15052461405E+02  0.50006459182E+01  0.28821613447E+02  0.00000000000E+00 0.  1.
</event>
<event>
 6    1  0.9216756E-006  0.1574269E+03  0.7561462E-02  0.1191633E+00
         -1   -1    0    0    0  501 -0.00000000000E+00  0.00000000000E+00  0.61770214426E+02  0.61770214426E+02  0.00000000000E+00 0.  1.
          1   -1    0    0  501    0  0.00000000000E+00 -0.00000000000E+00 -0.66724777579E+03  0.66724777579E+03  0.00000000000E+00 0. -1.
          5    1    1    2  502    0 -0.78075884147E+02 -0.24965101890E+02 -0.15531055887E+03  0.17566428804E+03  0.41800000000E+01 0.  1.
         -5    1    1    2    0  502 -0.68848913393E+02  0.24670273191E+02 -0.19772940125E+01  0.73281493887E+02  0.41800000000E+01 0.  1.
        -11    1    1    2    0    0  0.74990664587E+02  0.31210538831E+02 -0.31748358166E+03  0.32770950877E+03  0.00000000000E+00 0.  1.
         11    1    1    2    0    0  0.71934132953E+02 -0.30915710133E+02 -0.13070612682E+03  0.15236269952E+03  0.00000000000E+00 0. -1.
</event>
<event>
 6    1  0.9216756E-006  0.1116102E+03  0.7561462E-02  0.1257617E+00
         -2   -1    0    0    0  501 -0.00000000000E+00  0.00000000000E+00  0.17473349832E+03  0.17473349832E+03  0.00000000000E+00 0.  1.
          2   -1    0    0  501    0  0.00000000000E+00 -0.00000000000E+00 -0.90612484398E+02  0.90612484398E+02  0.00000000000E+00 0. -1.
          5    1    1    2  502    0  0.48590347371E+02 -0.71146612854E+02  0.77790396462E+02  0.11615369370E+03  0.41800000000E+01 0. -1.
         -5    1    1    2    0  502 -0.34147016963E+02  0.27737794032E+02  0.17199781738E+02  0.47420553318E+02  0.41800000000E+01 0. -1.
        -11    1    1    2    0    0  0.32643524547E+02  0.28630945918E+02 -0.25427465911E+02  0.50317857483E+02  0.00000000000E+00 0. -1.
         11    1    1    2    0    0 -0.47086854955E+02  0.14777872904E+02  0.14558301634E+02  0.51453878217E+02  0.00000000000E+00 0.  1.
</event>
<event>
 6    1  0.9216756E-006  0.1336487E+03  0.7561462E-02  0.1222140E+00
         -2   -1    0    0    0  501 -0.00000000000E+00  0.00000000000E+00  0.75576536063E+02  0.75576536063E+02  0.00000000000E+00 0.  1.
          2   -1    0    0  501    0  0.00000000000E+00 -0.00000000000E+00 -0.52026440643E+03  0.52026440643E+03  0.00000000000E+00 0. -1.
          5    1    1    2  502    0  0.79515667421E+02 -0.79781987007E+02  0.89664238775E+01  0.11307420561E+03  0.41800000000E+01 0.  1.
         -5    1    1    2    0  502 -0.14217689787E+02 -0.15186861962E+02 -0.61320203547E+02  0.64887774212E+02  0.41800000000E+01 0.  1.
        -11    1    1    2    0    0  0.12501962978E+02  0.28163131325E+02 -0.37561972757E+02  0.48583565552E+02  0.00000000000E+00 0.  1.
         11    1    1    2    0    0 -0.77799940612E+02  0.66805717644E+02 -0.35477211794E+03  0.36929539712E+03  0.00000000000E+00 0. -1.
</event>
<event>
 6    1  0.9216756E-006  0.9780975E+02  0.7561462E-02  0.1284970E+00
          2   -1    0    0  501    0  0.00000000000E+00  0.00000000000E+00  0.24612559187E+03  0.24612559187E+03  0.00000000000E+00 0. -1.
         -2   -1    0    0    0  501 -0.00000000000E+00 -0.00000000000E+00 -0.10646676307E+03  0.10646676307E+03  0.00000000000E+00 0.  1.
          5    1    1    2  502    0  0.20106100930E+02 -0.72436907135E+02 -0.67211988004E+02  0.10092712490E+03  0.41800000000E+01 0. -1.
         -5    1    1    2    0  502  0.20668342208E+02  0.21547630734E+02  0.32514027526E+02  0.44340896989E+02  0.41800000000E+01 0. -1.
        -11    1    1    2    0    0 -0.53399885727E+02  0.55234193729E+02  0.17766840704E+03  0.19356762852E+03  0.00000000000E+00 0. -1.
         11    1    1    2    0    0  0.12625442589E+02 -0.43449173283E+01 -0.33116177666E+01  0.13756704525E+02  0.00000000000E+00 0.  1.
</event>
<event>
 6    1  0.9216756E-006  0.1419653E+03  0.7561462E-02  0.1210709E+00
          1   -1    0    0  501    0  0.00000000000E+00  0.00000000000E+00  0.81990214513E+03  0.81990214513E+03  0.00000000000E+00 0. -1.
         -1   -1    0    0    0  501 -0.00000000000E+00 -0.00000000000E+00 -0.27498843501E+02  0.27498843501E+02  0.00000000000E+00 0.  1.
          5    1    1    2  502    0  0.43644512590E+02  0.65484066017E+02  0.25642034718E+03  0.26825710285E+03  0.41800000000E+01 0. -1.
         -5    1    1    2    0  502 -0.63585287042E+02  0.34288136145E+02  0.10518643910E+03  0.12767311533E+03  0.41800000000E+01 0. -1.
        -11    1    1    2    0    0 -0.29391011088E+02 -0.68011707697E+02  0.28073107003E+03  0.29034351654E+03  0.00000000000E+00 0.  1.
         11    1    1    2    0    0  0.49331785540E+02 -0.31760494465E+02  0.15006544533E+03  0.16112725391E+03  0.00000000000E+00 0. -1.
</event>
<event>
 6    1  0.1699513E-005  0.3654448E+03  0.7561462E-02  0.1056449E+00
          1   -1    0    0  501    0  0.00000000000E+00  0.00000000000E+00  0.89135532963E+03  0.89135532963E+03  0.00000000000E+00 0. -1.
         -1   -1    0    0    0  501 -0.00000000000E+00 -0.00000000000E+00 -0.16884562695E+03  0.16884562695E+03  0.00000000000E+00 0.  1.
          5    1    1    2  502    0 -0.23696120458E+03  0.20845358025E+03  0.14449760403E+03  0.34713187345E+03  0.41800000000E+01 0. -1.
         -5    1    1    2    0  502 -0.52121488389E+01  0.50899016086E+02  0.67251303712E+02  0.84605476094E+02  0.41800000000E+01 0. -1.
        -11    1    1    2    0    0  0.17967911484E+03 -0.13496646503E+03  0.28078593906E+03  0.35964047960E+03  0.00000000000E+00 0.  1.
         11    1    1    2    0    0  0.62494238573E+02 -0.12438613130E+03  0.22997485587E+03  0.26882312744E+03  0.00000000000E+00 0. -1.
</event>
<event>
 6    1  0.9216756E-006  0.8864355E+02  0.7561462E-02  0.1306170E+00
          3   -1    0    0  501    0  0.00000000000E+00  0.00000000000E+00  0.33331201648E+02  0.33331201648E+02  0.00000000000E+00 0. -1.
         -3   -1    0    0    0  501 -0.00000000000E+00 -0.00000000000E+00 -0.44103152752E+03  0.44103152752E+03  0.00000000000E+00 0.  1.
          5    1    1    2  502    0  0.46663161699E+02 -0.34488674123E+02 -0.41984882270E+02  0.71743445985E+02  0.41800000000E+01 0. -1.
         -5    1    1    2    0  502  0.56192746315E+01  0.41057208594E+02 -0.21382400318E+03  0.21784271243E+03  0.41800000000E+01 0. -1.
        -11    1    1    2    0    0 -0.44980395905E+02  0.20495323927E+02 -0.14853617729E+03  0.15654485071E+03  0.00000000000E+00 0.  1.
         11    1    1    2    0    0 -0.73020404253E+01 -0.27063858398E+02 -0.33552631284E+01  0.28231720040E+02  0.00000000000E+00 0. -1.
</event>
<event>
 6    1  0.9216756E-006  0.1123183E+03  0.7561462E-02  0.1256336E+00
         -3   -1    0    0    0  501 -0.00000000000E+00  0.00000000000E+00  0.15922676954E+03  0.15922676954E+03  0.00000000000E+00 0.  1.
          3   -1    0    0  501    0  0.00000000000E+00 -0.00000000000E+00 -0.84450976692E+02  0.84450976692E+02  0.00000000000E+00 0. -1.
          5    1    1    2  502    0  0.39942795556E+02  0.34875360339E+02 -0.41758141715E+01  0.53353795550E+02  0.41800000000E+01 0.  1.
         -5    1    1    2    0  502 -0.72596105427E+02 -0.79859166711E+01  0.40427984490E+02  0.83581479517E+02  0.41800000000E+01 0.  1.
        -11    1    1    2    0    0  0.21030376827E+01 -0.56032321880E+02  0.30275388944E+02  0.63723175050E+02  0.00000000000E+00 0. -1.
         11    1    1    2    0    0  0.30550272188E+02  0.29142878212E+02  0.82482335894E+01  0.43019296119E+02  0.00000000000E+00 0.  1.
</event>
<event>
 6    1  0.9216756E-006  0.9397316E+02  0.7561462E-02  0.1293506E+00
         -3   -1    0    0    0  501 -0.00000000000E+00  0.00000000000E+00  0.44646437934E+02  0.44646437934E+02  0.00000000000E+00 0.  1.
          3   -1    0    0  501    0  0.00000000000E+00 -0.00000000000E+00 -0.30343099831E+03  0.30343099831E+03  0.00000000000E+00 0. -1.
          5    1    1    2  502    0  0.44405559317E+02  0.12221595374E+02 -0.84008467256E+02  0.95896381905E+02  0.41800000000E+01 0.  1.
         -5    1    1    2    0  502 -0.45911711444E+02 -0.57909800844E+02 -0.31669283254E+02  0.80509913572E+02  0.41800000000E+01 0.  1.
        -11    1    1    2    0    0  0.24698674199E+02  0.33077843627E+02 -0.13894264443E+03  0.14494559906E+03  0.00000000000E+00 0. -1.
         11    1    1    2    0    0 -0.23192522071E+02  0.12610361844E+02 -0.41641654385E+01  0.26725541709E+02  0.00000000000E+00 0.  1.
</event>
<event>
 6    1  0.9216756E-006  0.1296635E+03  0.7561462E-02  0.1227956E+00
         -1   -1    0    0    0  501 -0.00000000000E+00  0.00000000000E+00  0.15074110321E+03  0.15074110321E+03  0.00000000000E+00 0. -1.
          1   -1    0    0  501    0  0.00000000000E+00 -0.00000000000E+00 -0.16295176410E+03  0.16295176410E+03  0.00000000000E+00 0.  1.
          5    1    1    2  502    0  0.26159596061E+02  0.17736680540E+02  0.69469092670E+01  0.32628917405E+02  0.41800000000E+01 0. -1.
         -5    1    1    2    0  502 -0.98046620530E+02 -0.71777304768E+02  0.54428352415E+02  0.13321050718E+03  0.41800000000E+01 0. -1.
        -11    1    1    2    0    0  0.56438560796E+01  0.37046911524E+02 -0.69965642835E+02  0.79369502595E+02  0.00000000000E+00 0.  1.
         11    1    1    2    0    0  0.66243168389E+02  0.16993712704E+02 -0.36202797295E+01  0.68483940125E+02  0.00000000000E+00 0. -1.
</event>
<event>
 6    1  0.9216756E-006  0.9579832E+02  0.7561462E-02  0.1289388E+00
          1   -1    0    0  501    0  0.00000000000E+00  0.00000000000E+00  0.33854451485E+03  0.33854451485E+03  0.00000000000E+00 0. -1.
         -1   -1    0    0    0  501 -0.00000000000E+00 -0.00000000000E+00 -0.52174666117E+03  0.52174666117E+03  0.00000000000E+00 0.  1.
          5    1    1    2  502    0 -0.10799343633E+02  0.34382882937E+02 -0.11363227852E+02  0.38018466686E+02  0.41800000000E+01 0. -1.
         -5    1    1    2    0  502  0.25963892497E+02 -0.62020404604E+02 -0.48771756984E+03  0.49234800156E+03  0.41800000000E+01 0.  1.
        -11    1    1    2    0    0 -0.38420421582E+02  0.44821440950E+02  0.26411461553E+03  0.27063189114E+03  0.00000000000E+00 0. -1.
         11    1    1    2    0    0  0.23255872718E+02 -0.17183919283E+02  0.51764035842E+02  0.59292816634E+02  0.00000000000E+00 0.  1.
</event>
<event>
 6    1  0.9216756E-006  0.1505820E+03  0.7561462E-02  0.1199760E+00
         -2   -1    0    0    0  501 -0.00000000000E+00  0.00000000000E+00  0.26644494308E+02  0.26644494308E+02  0.00000000000E+00 0.  1.
          2   -1    0    0  501    0  0.00000000000E+00 -0.00000000000E+00 -0.11539519527E+04  0.11539519527E+04  0.00000000000E+00 0. -1.
          5    1    1    2  502    0  0.16076874329E+02  0.39369961345E+02 -0.29256168244E+03  0.29566580827E+03  0.41800000000E+01 0.  1.
         -5    1    1    2    0  502 -0.70263813546E+02  0.79483563636E+02 -0.16344633913E+03  0.19490207428E+03  0.41800000000E+01 0.  1.
        -11    1    1    2    0    0 -0.87168675120E+00 -0.90182144244E+02 -0.49427732704E+03  0.50243771256E+03  0.00000000000E+00 0.  1.
         11    1    1    2    0    0  0.55058625968E+02 -0.28671380738E+02 -0.17702210977E+03  0.18759085190E+03  0.00000000000E+00 0. -1.
</event>
<event>
 6    1  0.9216756E-006  0.1253612E+03  0.7561462E-02  0.1234506E+00
          1   -1    0    0  501    0  0.00000000000E+00  0.00000000000E+00  0.65796670485E+03  0.65796670485E+03  0.00000000000E+00 0. -1.
         -1   -1    0    0    0  501 -0.00000000000E+00 -0.00000000000E+00 -0.77956095591E+02  0.77956095591E+02  0.00000000000E+00 0.  1.
          5    1    1    2  502    0 -0.19113151101E+02  0.63902860345E+02  0.14880325743E+03  0.16312194802E+03  0.41800000000E+01 0. -1.
         -5    1    1    2    0  502  0.68807389144E+02 -0.93284093362E+01 -0.45043017205E+02  0.82872322403E+02  0.41800000000E+01 0.  1.
        -11    1    1    2    0    0 -0.38954790780E+02 -0.78759584767E+02  0.38627016196E+03  0.39613783705E+03  0.00000000000E+00 0. -1.
         11    1    1    2    0    0 -0.10739447263E+02  0.24185133758E+02  0.89980207079E+02  0.93790692973E+02  0.00000000000E+00 0.  1.
</event>
<event>
 6    1  0.9216756E-006  0.1128576E+03  0.7561462E-02  0.1255368E+00
          2   -1    0    0  501    0  0.00000000000E+00  0.00000000000E+00  0.68617706449E+03  0.68617706449E+03  0.00000000000E+00 0. -1.
         -2   -1    0    0    0  501 -0.00000000000E+00 -0.00000000000E+00 -0.23649601932E+02  0.23649601932E+02  0.00000000000E+00 0.  1.
          5    1    1    2  502    0 -0.67036190219E+02  0.88662604295E+01  0.91892865528E+02  0.11416756329E+03  0.41800000000E+01 0. -1.
         -5    1    1    2    0  502  0.38836232871E+02 -0.48454539120E+02  0.15147069716E+03  0.16375878554E+03  0.41800000000E+01 0. -1.
        -11    1    1    2    0    0  0.56888669758E+02  0.34670388119E+02  0.35821905933E+03  0.36436142911E+03  0.00000000000E+00 0.  1.
         11    1    1    2    0    0 -0.28688712410E+02  0.49178905719E+01  0.60944840544E+02  0.67538888474E+02  0.00000000000E+00 0. -1.
</event>
<event>
 6    1  0.9216756E-006  0.7569864E+02  0.7561462E-02  0.1341721E+00
          2   -1    0    0  501    0  0.00000000000E+00  0.00000000000E+00  0.12304028817E+03  0.12304028817E+03  0.00000000000E+00 0.  1.
         -2   -1    0    0    0  501 -0.00000000000E+00 -0.00000000000E+00 -0.11736244322E+03  0.11736244322E+03  0.00000000000E+00 0. -1.
          5    1    1    2  502    0 -0.39447510853E+02 -0.61190234078E+02 -0.44875069895E+02  0.85624734493E+02  0.41800000000E+01 0.  1.
         -5    1    1    2    0  502  0.25391114339E+02  0.14650853353E+02  0.38693352017E+02  0.48723752746E+02  0.41800000000E+01 0.  1.
        -11    1    1    2    0    0  0.31286147913E+01  0.18615790712E+02  0.52361529644E+02  0.55660270220E+02  0.00000000000E+00 0.  1.
         11    1    1    2    0    0  0.10927781722E+02  0.27923590013E+02 -0.40501966811E+02  0.50393973927E+02  0.00000000000E+00 0. -1.
</event>
<event>
 6    1  0.9216756E-006  0.1134429E+03  0.7561462E-02  0.1254324E+00
         -2   -1    0    0    0  501 -0.00000000000E+00  0.00000000000E+00  0.83265631827E+03  0.83265631827E+03  0.00000000000E+00 0.  1.
          2   -1    0    0  501    0  0.00000000000E+00 -0.00000000000E+00 -0.54727092664E+02  0.54727092664E+02  0.00000000000E+00 0. -1.
          5    1    1    2  502    0 -0.41304980872E+02  0.10466763784E+02  0.57640900035E+03  0.57799694002E+03  0.41800000000E+01 0. -1.
         -5    1    1    2    0  502 -0.65145995454E+02  0.27769115414E+02  0.12825697853E+03  0.14656892384E+03  0.41800000000E+01 0. -1.
        -11    1    1    2    0    0  0.59865460415E+02 -0.20369892130E+02  0.90172866952E+02  0.11013606035E+03  0.00000000000E+00 0.  1.
         11    1    1    2    0    0  0.46585515912E+02 -0.17865987068E+02 -0.16909620224E+02  0.52681486718E+02  0.00000000000E+00 0. -1.
</event>
<event>
 6    1  0.9216756E-006  0.1082973E+03  0.7561462E-02  0.1263756E+00
          2   -1    0    0  501    0  0.00000000000E+00  0.00000000000E+00  0.79288864673E+02  0.79288864673E+02  0.00000000000E+00 0.  1.
         -2   -1    0    0    0  501 -0.00000000000E+00 -0.00000000000E+00 -0.17530603149E+03  0.17530603149E+03  0.00000000000E+00 0. -1.
          5    1    1    2  502    0  0.72625449535E+00 -0.78246845006E+02 -0.79981274648E+02  0.11197130388E+03  0.41800000000E+01 0. -1.
         -5    1    1    2    0  502  0.65577960254E+01  0.40895669339E+02 -0.63486926097E+00  0.41633351034E+02  0.41800000000E+01 0. -1.
        -11    1    1    2    0    0  0.38455374787E+02  0.14925394891E+01 -0.18678911934E+02  0.42777859638E+02  0.00000000000E+00 0.  1.
         11    1    1    2    0    0 -0.45739425308E+02  0.35858636179E+02  0.32778890252E+01  0.58212381609E+02  0.00000000000E+00 0. -1.
</event>
<event>
 6    1  0.9216756E-006  0.1218129E+03  0.7561462E-02  0.1240136E+00
         -1   -1    0    0    0  501 -0.00000000000E+00  0.00000000000E+00  0.40594617104E+02  0.40594617104E+02  0.00000000000E+00 0.  1.
          1   -1    0    0  501    0  0.00000000000E+00 -0.00000000000E+00 -0.42495534097E+03  0.42495534097E+03  0.00000000000E+00 0. -1.
          5    1    1    2  502    0 -0.44287445290E+02 -0.48142819195E+02 -0.69896234574E+02  0.95823091465E+02  0.41800000000E+01 0.  1.
         -5    1    1    2    0  502  0.74615728309E+02 -0.90193273572E+01 -0.77219398527E+02  0.10783859738E+03  0.41800000000E+01 0.  1.
        -11    1    1    2    0    0 -0.53264469196E+02  0.15888103148E+02 -0.17591059127E+03  0.18448325567E+03  0.00000000000E+00 0.  1.
         11    1    1    2    0    0  0.22936186177E+02  0.41274043405E+02 -0.61334499490E+02  0.77405013552E+02  0.00000000000E+00 0. -1.
</event>
<event>
 6    1  0.9216756E-006  0.9913390E+02  0.7561462E-02  0.1282128E+00
          3   -1    0    0  501    0  0.00000000000E+00  0.00000000000E+00  0.91429280212E+02  0.91429280212E+02  0.00000000000E+00 0. -1.
         -3   -1    0    0    0  501 -0.00000000000E+00 -0.00000000000E+00 -0.14646130070E+03  0.14646130070E+03  0.00000000000E+00 0.  1.
          5    1    1    2  502    0 -0.31190878018E+02  0.38516355541E+02  0.74551089576E+01  0.50293454497E+02  0.41800000000E+01 0. -1.
         -5    1    1    2    0  502  0.65222810079E+02 -0.25825839844E+02 -0.51824090429E+02  0.87316651946E+02  0.41800000000E+01 0. -1.
        -11    1    1    2    0    0 -0.48896533634E+02  0.11158502156E+02  0.24046938780E+02  0.55620485763E+02  0.00000000000E+00 0. -1.
         11    1    1    2    0    0  0.14864601573E+02 -0.23849017853E+02 -0.34709977793E+02  0.44659988702E+02  0.00000000000E+00 0.  1.
</event>
<event>
 6    1  0.9216756E-006  0.9135780E+02  0.7561462E-02  0.1299597E+00
          2   -1    0    0  501    0  0.00000000000E+00  0.00000000000E+00  0.14368318580E+03  0.14368318580E+03  0.00000000000E+00 0. -1.
         -2   -1    0    0    0  501 -0.00000000000E+00 -0.00000000000E+00 -0.12572407567E+03  0.12572407567E+03  0.00000000000E+00 0.  1.
          5    1    1    2  502    0 -0.49480799939E+02  0.38071829098E+02 -0.73991256233E+02  0.96901971767E+02  0.41800000000E+01 0. -1.
         -5    1    1    2    0  502 -0.15063837200E+02 -0.19765965396E+02  0.41651089883E+02  0.48681600915E+02  0.41800000000E+01 0. -1.
        -11    1    1    2    0    0 -0.13980183207E+02 -0.69112495275E+01  0.41082493138E+02  0.43942941810E+02  0.00000000000E+00 0. -1.
         11    1    1    2    0    0  0.78524820345E+02 -0.11394614175E+02  0.92167833440E+01  0.79880746978E+02  0.00000000000E+00 0.  1.
</event>
<event>
 6    1  0.9216756E-006  0.2062645E+03  0.7561462E-02  0.1144559E+00
         -2   -1    0    0    0  501 -0.00000000000E+00  0.00000000000E+00  0.40077126166E+02  0.40077126166E+02  0.00000000000E+00 0.  1.
          2   -1    0    0  501    0  0.00000000000E+00 -0.00000000000E+00 -0.15736956781E+04  0.15736956781E+04  0.00000000000E+00 0. -1.
          5    1    1    2  502    0  0.13085489676E+03  0.57957020039E+02 -0.38425607046E+03  0.41006367831E+03  0.41800000000E+01 0.  1.
         -5    1    1    2    0  502  0.33246450281E+02  0.44228571710E+02 -0.28035294352E+02  0.62168666877E+02  0.41800000000E+01 0.  1.
        -11    1    1    2    0    0 -0.30932627166E+02 -0.70485749633E+02 -0.39990192933E+03  0.40724270577E+03  0.00000000000E+00 0.  1.
         11    1    1    2    0    0 -0.13316871987E+03 -0.31699842115E+02 -0.72142525783E+03  0.73429775335E+03  0.00000000000E+00 0. -1.
</event>
<event>
 6    1  0.9216756E-006  0.1691211E+03  0.7561462E-02  0.1178768E+00
         -1   -1    0    0    0  501 -0.00000000000E+00  0.00000000000E+00  0.21615063016E+03  0.21615063016E+03  0.00000000000E+00 0.  1.
          1   -1    0    0  501    0  0.00000000000E+00 -0.00000000000E+00 -0.14502007677E+03  0.14502007677E+03  0.00000000000E+00 0. -1.
          5    1    1    2  502    0  0.76834259339E+01 -0.47293339545E+02  0.40572522406E+01  0.48266227273E+02  0.41800000000E+01 0.  1.
         -5    1    1    2    0  502 -0.13093118685E+03 -0.53548974663E+01  0.78324182794E+02  0.15272131687E+03  0.41800000000E+01 0.  1.
        -11    1    1    2    0    0  0.10408140150E+03  0.11472571857E+01  0.18447777012E-01  0.10408772588E+03  0.00000000000E+00 0.  1.
         11    1    1    2    0    0  0.19166359413E+02  0.51500979825E+02 -0.11269329421E+02  0.56095436906E+02  0.00000000000E+00 0. -1.
</event>
<event>
 6    1  0.9216756E-006  0.1241588E+03  0.7561462E-02  0.1236390E+00
         -1   -1    0    0    0  501 -0.00000000000E+00  0.00000000000E+00  0.39260352585E+03  0.39260352585E+03  0.00000000000E+00 0.  1.
          1   -1    0    0  501    0  0.00000000000E+00 -0.00000000000E+00 -0.51294413518E+02  0.51294413518E+02  0.00000000000E+00 0. -1.
          5    1    1    2  502    0  0.85656364243E+02 -0.23782073228E+02  0.20831491938E+03  0.22652853634E+03  0.41800000000E+01 0. -1.
         -5    1    1    2    0  502 -0.73108875008E+02  0.88254436768E+01  0.28258889636E+02  0.78986285547E+02  0.41800000000E+01 0.  1.
        -11    1    1    2    0    0  0.28980503382E+02 -0.16608415328E+02  0.20156911859E+02  0.39012948257E+02  0.00000000000E+00 0. -1.
         11    1    1    2    0    0 -0.41527992616E+02  0.31565044879E+02  0.84578391461E+02  0.99370169221E+02  0.00000000000E+00 0.  1.
</event>
<event>
 6    1  0.9216756E-006  0.2143773E+03  0.7561462E-02  0.1138146E+00
          2   -1    0    0  501    0  0.00000000000E+00  0.00000000000E+00  0.13243585418E+04  0.13243585418E+04  0.00000000000E+00 0.  1.
         -2   -1    0    0    0  501 -0.00000000000E+00 -0.00000000000E+00 -0.44381653222E+02  0.44381653222E+02  0.00000000000E+00 0. -1.
          5    1    1    2  502    0  0.92208564868E+02 -0.82450891611E+02  0.14400660428E+03  0.18988402629E+03  0.41800000000E+01 0.  1.
         -5    1    1    2    0  502 -0.67178290833E+01 -0.93836881097E+02  0.25587412583E+03  0.27265276479E+03  0.41800000000E+01 0.  1.
        -11    1    1    2    0    0 -0.54134394579E+02  0.31410998497E+02  0.35983370122E+03  0.36523619212E+03  0.00000000000E+00 0.  1.
         11    1    1    2    0    0 -0.31356341206E+02  0.14487677421E+03  0.52026245728E+03  0.54096721185E+03  0.00000000000E+00 0. -1.
</event>
<event>
 6    1  0.9216756E-006  0.1115736E+03  0.7561462E-02  0.1257683E+00
         -1   -1    0    0    0  501 -0.00000000000E+00  0.00000000000E+00  0.29596087613E+02  0.29596087613E+02  0.00000000000E+00 0.  1.
          1   -1    0    0  501    0  0.00000000000E+00 -0.00000000000E+00 -0.48186789920E+03  0.48186789920E+03  0.00000000000E+00 0. -1.
          5    1    1    2  502    0  0.28358977044E+02  0.46331792600E+02 -0.14865563708E+03  0.15832510041E+03  0.41800000000E+01 0.  1.
         -5    1    1    2    0  502  0.13289089494E+02 -0.66589073127E+02 -0.68617873726E+02  0.96626029383E+02  0.41800000000E+01 0.  1.
        -11    1    1    2    0    0 -0.19618217682E+02  0.55615664561E+02 -0.11085476933E+03  0.12556574569E+03  0.00000000000E+00 0.  1.
         11    1    1    2    0    0 -0.22029848856E+02 -0.35358384034E+02 -0.12414353145E+03  0.13094711132E+03  0.00000000000E+00 0. -1.
</event>
<event>
 6    1  0.9216756E-006  0.1299224E+03  0.7561462E-02  0.1227571E+00
         -3   -1    0    0    0  501 -0.00000000000E+00  0.00000000000E+00  0.29726398494E+02  0.29726398494E+02  0.00000000000E+00 0.  1.
          3   -1    0    0  501    0  0.00000000000E+00 -0.00000000000E+00 -0.75553941462E+03  0.75553941462E+03  0.00000000000E+00 0. -1.
          5    1    1    2  502    0 -0.55679095146E+02 -0.69907016135E+02 -0.19547366389E+03  0.21497576193E+03  0.41800000000E+01 0. -1.
         -5    1    1    2    0  502 -0.68020162899E+01  0.60873697760E+02 -0.54614461526E+02  0.82171079537E+02  0.41800000000E+01 0.  1.
        -11    1    1    2    0    0  0.83096545342E+02 -0.62308581496E+01 -0.37878667009E+03  0.38784429979E+03  0.00000000000E+00 0.  1.
         11    1    1    2    0    0 -0.20615433906E+02  0.15264176525E+02 -0.96938220625E+02  0.10027467187E+03  0.00000000000E+00 0. -1.
</event>
<event>
 6    1  0.9216756E-006  0.2136309E+03  0.7561462E-02  0.1138723E+00
         -1   -1    0    0    0  501 -0.00000000000E+00  0.00000000000E+00  0.81609132107E+03  0.81609132107E+03  0.00000000000E+00 0. -1.
          1   -1    0    0  501    0  0.00000000000E+00 -0.00000000000E+00 -0.66134502728E+02  0.66134502728E+02  0.00000000000E+00 0.  1.
          5    1    1    2  502    0  0.11551912730E+03  0.63988198877E+02  0.32906940706E+03  0.35460302513E+03  0.41800000000E+01 0. -1.
         -5    1    1    2    0  502 -0.23673881471E+01  0.97621942326E+02  0.16215872082E+03  0.18933718940E+03  0.41800000000E+01 0. -1.
        -11    1    1    2    0    0 -0.69303262431E+02 -0.93236961940E+02  0.21890820316E+03  0.24782428184E+03  0.00000000000E+00 0. -1.
         11    1    1    2    0    0 -0.43848476718E+02 -0.68373179263E+02  0.39820487295E+02  0.90461327436E+02  0.00000000000E+00 0.  1.
</event>
<event>
 6    1  0.9216756E-006  0.1137533E+03  0.7561462E-02  0.1253773E+00
          1   -1    0    0  501    0  0.00000000000E+00  0.00000000000E+00  0.64921707684E+02  0.64921707684E+02  0.00000000000E+00 0. -1.
         -1   -1    0    0    0  501 -0.00000000000E+00 -0.00000000000E+00 -0.26498034960E+03  0.26498034960E+03  0.00000000000E+00 0.  1.
          5    1    1    2  502    0 -0.14461340256E+02  0.50992256357E+02  0.61585621567E+00  0.53171348011E+02  0.41800000000E+01 0.  1.
         -5    1    1    2    0  502 -0.59245725214E+02 -0.29889184215E+02 -0.11510656695E+03  0.13293010737E+03  0.41800000000E+01 0.  1.
        -11    1    1    2    0    0  0.43681666983E+01 -0.36550164854E+02 -0.55641644119E+02  0.66715725219E+02  0.00000000000E+00 0.  1.
         11    1    1    2    0    0  0.69338898773E+02  0.15447092713E+02 -0.29926287056E+02  0.77084876683E+02  0.00000000000E+00 0. -1.
</event>
<event>
 6    1  0.9216756E-006  0.1041841E+03  0.7561462E-02  0.1271735E+00
          1   -1    0    0  501    0  0.00000000000E+00  0.00000000000E+00  0.18510089023E+03  0.18510089023E+03  0.00000000000E+00 0. -1.
         -1   -1    0    0    0  501 -0.00000000000E+00 -0.00000000000E+00 -0.82712508162E+02  0.82712508162E+02  0.00000000000E+00 0.  1.
          5    1    1    2  502    0 -0.51317470453E+02 -0.58918753016E+02  0.41635950440E+02  0.88633667416E+02  0.41800000000E+01 0.  1.
         -5    1    1    2    0  502  0.37579791956E+02  0.13524774249E+02 -0.23258033549E+02  0.46406559951E+02  0.41800000000E+01 0.  1.
        -11    1    1    2    0    0  0.45635456301E+02  0.24049048850E+02  0.14854377606E+02  0.53680575225E+02  0.00000000000E+00 0.  1.
         11    1    1    2    0    0 -0.31897777805E+02  0.21344929918E+02  0.69156087569E+02  0.79092595797E+02  0.00000000000E+00 0. -1.
</event>
<event>
 6    1  0.9216756E-006  0.1932356E+03  0.7561462E-02  0.1155575E+00
         -2   -1    0    0    0  501 -0.00000000000E+00  0.00000000000E+00  0.86433518278E+02  0.86433518278E+02  0.00000000000E+00 0.  1.
          2   -1    0    0  501    0  0.00000000000E+00 -0.00000000000E+00 -0.52101624452E+03  0.52101624452E+03  0.00000000000E+00 0. -1.
          5    1    1    2  502    0 -0.53239777367E+01  0.26847660054E+02  0.12401686805E+02  0.30338355673E+02  0.41800000000E+01 0.  1.
         -5    1    1    2    0  502  0.83138287045E+01  0.15515341935E+03 -0.24727468924E+03  0.29206839545E+03  0.41800000000E+01 0.  1.
        -11    1    1    2    0    0  0.15535127606E+02  0.43095894777E+01 -0.14452044107E+02  0.21651196966E+02  0.00000000000E+00 0. -1.
         11    1    1    2    0    0 -0.18524978574E+02 -0.18631066888E+03 -0.18525767971E+03  0.26339181472E+03  0.00000000000E+00 0.  1.
</event>
<event>
 6    1  0.9216756E-006  0.1087175E+03  0.7561462E-02  0.1262963E+00
          2   -1    0    0  501    0  0.00000000000E+00  0.00000000000E+00  0.57485122474E+02  0.57485122474E+02  0.00000000000E+00 0. -1.
         -2   -1    0    0    0  501 -0.00000000000E+00 -0.00000000000E+00 -0.37754593257E+03  0.37754593257E+03  0.00000000000E+00 0.  1.
          5    1    1    2  502    0 -0.47306513581E+02  0.68865402649E+02 -0.27975950831E+03  0.29199863835E+03  0.41800000000E+01 0. -1.
         -5    1    1    2    0  502 -0.35733354758E+01 -0.23651270541E+02 -0.28312214063E+01  0.24446667243E+02  0.41800000000E+01 0. -1.
        -11    1    1    2    0    0  0.40240609706E+02  0.18936078594E+02 -0.20091344052E+01  0.44518741706E+02  0.00000000000E+00 0.  1.
         11    1    1    2    0    0  0.10639239351E+02 -0.64150210702E+02 -0.35460945979E+02  0.74067007748E+02  0.00000000000E+00 0. -1.
</event>
<event>
 6    1  0.9216756E-006  0.7079500E+02  0.7561462E-02  0.1357410E+00
          1   -1    0    0  501    0  0.00000000000E+00  0.00000000000E+00  0.95149797807E+02  0.95149797807E+02  0.00000000000E+00 0. -1.
         -1   -1    0    0    0  501 -0.00000000000E+00 -0.00000000000E+00 -0.11873754892E+04  0.11873754892E+04  0.00000000000E+00 0.  1.
          5    1    1    2  502    0  0.16175767817E+01 -0.17086741883E+02 -0.28883748222E+02  0.33857297798E+02  0.41800000000E+01 0. -1.
         -5    1    1    2    0  502 -0.57540163934E+01  0.45726052984E+02 -0.11298209407E+04  0.11307682393E+04  0.41800000000E+01 0.  1.
        -11    1    1    2    0    0  0.66961380320E+01 -0.52865706369E+02  0.75076639894E+02  0.92065862470E+02  0.00000000000E+00 0. -1.
         11    1    1    2    0    0 -0.25596984204E+01  0.24226395267E+02 -0.85976423371E+01  0.25833887385E+02  0.00000000000E+00 0.  1.
</event>
<event>
 6    1  0.9216756E-006  0.9386927E+02  0.7561462E-02  0.1293743E+00
          1   -1    0    0  501    0  0.00000000000E+00  0.00000000000E+00  0.22510154189E+02  0.22510154189E+02  0.00000000000E+00 0. -1.
         -1   -1    0    0    0  501 -0.00000000000E+00 -0.00000000000E+00 -0.87715467487E+03  0.87715467487E+03  0.00000000000E+00 0.  1.
          5    1    1    2  502    0 -0.59334919759E+02  0.64570689678E+02 -0.46709407551E+03  0.47527292627E+03  0.41800000000E+01 0. -1.
         -5    1    1    2    0  502  0.33342620133E+02 -0.29309459129E+02 -0.26344217941E+03  0.26718912591E+03  0.41800000000E+01 0. -1.
        -11    1    1    2    0    0  0.25256944230E+02 -0.58364203876E+01 -0.12509461340E+03  0.12775225766E+03  0.00000000000E+00 0.  1.
         11    1    1    2    0    0  0.73535539661E+00 -0.29424810162E+02  0.98634764331E+00  0.29450519220E+02  0.00000000000E+00 0. -1.
</event>
<event>
 6    1  0.9216756E-006  0.3428608E+03  0.7561462E-02  0.1065584E+00
         -2   -1    0    0    0  501 -0.00000000000E+00  0.00000000000E+00  0.20627604546E+03  0.20627604546E+03  0.00000000000E+00 0. -1.
          2   -1    0    0  501    0  0.00000000000E+00 -0.00000000000E+00 -0.57215314615E+03  0.57215314615E+03  0.00000000000E+00 0.  1.
          5    1    1    2  502    0 -0.32279710320E+03 -0.43876592653E+02 -0.17086365156E+03  0.36787903588E+03  0.41800000000E+01 0. -1.
         -5    1    1    2    0  502  0.39816964600E+01 -0.22279466986E+02 -0.12039253856E+02  0.25973921331E+02  0.41800000000E+01 0. -1.
        -11    1    1    2    0    0  0.13923692026E+03 -0.14625175340E+02 -0.93043580860E+02  0.16810093294E+03  0.00000000000E+00 0.  1.
         11    1    1    2    0    0  0.17957848648E+03  0.80781234980E+02 -0.89930614418E+02  0.21647530145E+03  0.00000000000E+00 0. -1.
</event>
<event>
 6    1  0.9216756E-006  0.1439502E+03  0.7561462E-02  0.1208110E+00
          2   -1    0    0  501    0  0.00000000000E+00  0.00000000000E+00  0.14284354439E+03  0.14284354439E+03  0.00000000000E+00 0. -1.
         -2   -1    0    0    0  501 -0.00000000000E+00 -0.00000000000E+00 -0.20787641856E+03  0.20787641856E+03  0.00000000000E+00 0.  1.
          5    1    1    2  502    0 -0.17560967835E+02 -0.37640466080E+01 -0.77932480709E+02  0.80084327978E+02  0.41800000000E+01 0. -1.
         -5    1    1    2    0  502 -0.87668869041E+02 -0.61904306081E+02  0.11868830894E+02  0.10805700004E+03  0.41800000000E+01 0. -1.
        -11    1    1    2    0    0  0.21043412458E+02  0.74494286639E+02  0.69706864442E+01  0.77722676351E+02  0.00000000000E+00 0. -1.
         11    1    1    2    0    0  0.84186424418E+02 -0.88259339492E+01 -0.59399108049E+01  0.84855958581E+02  0.00000000000E+00 0.  1.
</event>
<event>
 6    1  0.9216756E-006  0.9856449E+02  0.7561462E-02  0.1283344E+00
          2   -1    0    0  501    0  0.00000000000E+00  0.00000000000E+00  0.34253335049E+03  0.34253335049E+03  0.00000000000E+00 0. -1.
         -2   -1    0    0    0  501 -0.00000000000E+00 -0.00000000000E+00 -0.52416438045E+02  0.52416438045E+02  0.00000000000E+00 0.  1.
          5    1    1    2  502    0 -0.76943707095E+02 -0.12935349604E+02  0.68619015522E+02  0.10398893702E+03  0.41800000000E+01 0. -1.
         -5    1    1    2    0  502  0.40359745706E+02 -0.88989437016E+01 -0.65090693190E+01  0.42046886399E+02  0.41800000000E+01 0. -1.
        -11    1    1    2    0    0  0.36548410353E+02  0.42917116103E+02  0.21873563913E+03  0.22588259114E+03  0.00000000000E+00 0. -1.
         11    1    1    2    0    0  0.35551036199E-01 -0.21082822797E+02  0.92713271117E+01  0.23031373979E+02  0.00000000000E+00 0.  1.
</event>
<event>
 6    1  0.9216756E-006  0.9399137E+02  0.7561462E-02  0.1293464E+00
         -1   -1    0    0    0  501 -0.00000000000E+00  0.00000000000E+00  0.54555724592E+02  0.54555724592E+02  0.00000000000E+00 0.  1.
          1   -1    0    0  501    0  0.00000000000E+00 -0.00000000000E+00 -0.28806902394E+03  0.28806902394E+03  0.00000000000E+00 0. -1.
          5    1    1    2  502    0 -0.45246272056E+01  0.64786814578E+02  0.16903719003E+01  0.65100947394E+02  0.41800000000E+01 0. -1.
         -5    1    1    2    0  502  0.10360400794E+02 -0.68782270619E+01 -0.10872874111E+03  0.10951739339E+03  0.41800000000E+01 0. -1.
        -11    1    1    2    0    0  0.15250550199E+02 -0.78704448242E+02 -0.82928732602E+02  0.11534359170E+03  0.00000000000E+00 0.  1.
         11    1    1    2    0    0 -0.21086323787E+02  0.20795860726E+02 -0.43546197530E+02  0.52662816043E+02  0.00000000000E+00 0. -1.
</event>
<event>
 6    1  0.9216756E-006  0.1509203E+03  0.7561462E-02  0.1199347E+00
         -1   -1    0    0    0  501 -0.00000000000E+00  0.00000000000E+00  0.51602266792E+03  0.51602266792E+03  0.00000000000E+00 0.  1.
          1   -1    0    0  501    0  0.00000000000E+00 -0.00000000000E+00 -0.74055214778E+02  0.74055214778E+02  0.00000000000E+00 0. -1.
          5    1    1    2  502    0 -0.71975043645E+02  0.16542169928E+02  0.29851072555E+03  0.30753890155E+03  0.41800000000E+01 0. -1.
         -5    1    1    2    0  502 -0.61751199232E+02 -0.45123119255E+02  0.64865552108E+02  0.10037090589E+03  0.41800000000E+01 0. -1.
        -11    1    1    2    0    0  0.76240423745E+02 -0.16760316070E+02  0.75939337460E+02  0.10890497409E+03  0.00000000000E+00 0.  1.
         11    1    1    2    0    0  0.57485819132E+02  0.45341265398E+02  0.26518380187E+01  0.73263101176E+02  0.00000000000E+00 0. -1.
</event>
<event>
 6    1  0.9216756E-006  0.1156804E+03  0.7561462E-02  0.1250398E+00
         -1   -1    0    0    0  501 -0.00000000000E+00  0.00000000000E+00  0.23172640883E+02  0.23172640883E+02  0.00000000000E+00 0.  1.
          1   -1    0    0  501    0  0.00000000000E+00 -0.00000000000E+00 -0.10225599062E+04  0.10225599062E+04  0.00000000000E+00 0. -1.
          5    1    1    2  502    0 -0.37939229133E+02 -0.25320312343E+02 -0.41839605958E+02  0.62036508212E+02  0.41800000000E+01 0. -1.
         -5    1    1    2    0  502 -0.66375780143E+02 -0.44787542369E+01 -0.50330283314E+03  0.50769776214E+03  0.41800000000E+01 0. -1.
        -11    1    1    2    0    0  0.77142015614E+02  0.43400101460E+02 -0.42394460279E+03  0.43308600256E+03  0.00000000000E+00 0. -1.
         11    1    1    2    0    0  0.27172993662E+02 -0.13601034880E+02 -0.30300223396E+02  0.42912274144E+02  0.00000000000E+00 0.  1.
</event>
<event>
 6    1  0.9216756E-006  0.3020670E+03  0.7561462E-02  0.1084212E+00
         -2   -1    0    0    0  501 -0.00000000000E+00  0.00000000000E+00  0.49686780145E+02  0.49686780145E+02  0.00000000000E+00 0.  1.
          2   -1    0    0  501    0  0.00000000000E+00 -0.00000000000E+00 -0.23814742833E+04  0.23814742833E+04  0.00000000000E+00 0. -1.
          5    1    1    2  502    0  0.15909983096E+03 -0.97366916118E+02 -0.59003414601E+03  0.61883021777E+03  0.41800000000E+01 0.  1.
         -5    1    1    2    0  502  0.10320920765E+03 -0.48887679712E+02 -0.14223062557E+03  0.18245319680E+03  0.41800000000E+01 0.  1.
        -11    1    1    2    0    0 -0.42958815879E+02  0.43211489337E+02 -0.18588310290E+03  0.19561498055E+03  0.00000000000E+00 0.  1.
         11    1    1    2    0    0 -0.21935022273E+03  0.10304310649E+03 -0.14136396287E+04  0.14342626684E+04  0.00000000000E+00 0. -1.
</event>
<event>
 6    1  0.9216756E-006  0.8856648E+02  0.7561462E-02  0.1306361E+00
          2   -1    0    0  501    0  0.00000000000E+00  0.00000000000E+00  0.43101013221E+03  0.43101013221E+03  0.00000000000E+00 0.  1.
         -2   -1    0    0    0  501 -0.00000000000E+00 -0.00000000000E+00 -0.31723019291E+02  0.31723019291E+02  0.00000000000E+00 0. -1.
          5    1    1    2  502    0  0.16167983328E+01  0.47050836270E+02  0.11880566089E+02  0.48734130557E+02  0.41800000000E+01 0. -1.
         -5    1    1    2    0  502 -0.30245405303E+02 -0.39942370286E+02  0.14854412471E+03  0.15682157655E+03  0.41800000000E+01 0. -1.
        -11    1    1    2    0    0  0.53176242665E+02 -0.12118746109E+02  0.21755837998E+03  0.22429049354E+03  0.00000000000E+00 0.  1.
         11    1    1    2    0    0 -0.24547635695E+02  0.50102801254E+01  0.21304042134E+02  0.32886950853E+02  0.00000000000E+00 0. -1.
</event>
<event>
 6    1  0.9216756E-006  0.4609118E+03  0.7561462E-02  0.1024517E+00
          1   -1    0    0  501    0  0.00000000000E+00  0.00000000000E+00  0.20898411544E+03  0.20898411544E+03  0.00000000000E+00 0. -1.
         -1   -1    0    0    0  501 -0.00000000000E+00 -0.00000000000E+00 -0.10574159826E+04  0.10574159826E+04  0.00000000000E+00 0.  1.
          5    1    1    2  502    0  0.38809305638E+03 -0.46567536100E+02 -0.39589662492E+03  0.55635992473E+03  0.41800000000E+01 0.  1.
         -5    1    1    2    0  502  0.65403108536E+02  0.41047735484E+02 -0.11027789020E+03  0.13468915569E+03  0.41800000000E+01 0.  1.
        -11    1    1    2    0    0 -0.23690432122E+02  0.19900228414E+01 -0.50636362723E+02  0.55939592374E+02  0.00000000000E+00 0.  1.
         11    1    1    2    0    0 -0.42980573279E+03  0.35297777748E+01 -0.29162098934E+03  0.51941142527E+03  0.00000000000E+00 0. -1.
</event>
<event>
 6    1  0.9216756E-006  0.1288907E+03  0.7561462E-02  0.1229111E+00
         -2   -1    0    0    0  501 -0.00000000000E+00  0.00000000000E+00  0.17665140445E+03  0.17665140445E+03  0.00000000000E+00 0.  1.
          2   -1    0    0  501    0  0.00000000000E+00 -0.00000000000E+00 -0.10661722381E+03  0.10661722381E+03  0.00000000000E+00 0. -1.
          5    1    1    2  502    0  0.33072142565E+02 -0.52136871209E+01  0.24616220713E+01  0.33830180763E+02  0.41800000000E+01 0.  1.
         -5    1    1    2    0  502 -0.10460978102E+03  0.50580043692E+02  0.42457096315E+02  0.12378054989E+03  0.41800000000E+01 0.  1.
        -11    1    1    2    0    0  0.84606388680E+02 -0.40760240377E+02  0.42787705155E+02  0.10320090074E+03  0.00000000000E+00 0.  1.
         11    1    1    2    0    0 -0.13068750230E+02 -0.46061161938E+01 -0.17672242899E+02  0.22456996861E+02  0.00000000000E+00 0. -1.
</event>
<event>
 6    1  0.9216756E-006  0.1101941E+03  0.7561462E-02  0.1260211E+00
         -1   -1    0    0    0  501 -0.00000000000E+00  0.00000000000E+00  0.19894819368E+03  0.19894819368E+03  0.00000000000E+00 0.  1.
          1   -1    0    0  501    0  0.00000000000E+00 -0.00000000000E+00 -0.87732067067E+02  0.87732067067E+02  0.00000000000E+00 0. -1.
          5    1    1    2  502    0  0.10616209520E+01 -0.81096995843E+02  0.14168821419E+02  0.82438326488E+02  0.41800000000E+01 0.  1.
         -5    1    1    2    0  502 -0.55755402333E+02  0.29271492812E+02  0.31715336716E+02  0.70631580498E+02  0.41800000000E+01 0.  1.
        -11    1    1    2    0    0  0.49252791282E+02  0.41546417261E+02  0.87447444593E+02  0.10862319182E+03  0.00000000000E+00 0.  1.
         11    1    1    2    0    0  0.54409900985E+01  0.10279085770E+02 -0.22115476119E+02  0.24987161933E+02  0.00000000000E+00 0. -1.
</event>
<event>
 6    1  0.9216756E-006  0.1295700E+03  0.7561462E-02  0.1228095E+00
          1   -1    0    0  501    0  0.00000000000E+00  0.00000000000E+00  0.13081582150E+03  0.13081582150E+03  0.00000000000E+00 0. -1.
         -1   -1    0    0    0  501 -0.00000000000E+00 -0.00000000000E+00 -0.14870387654E+03  0.14870387654E+03  0.00000000000E+00 0.  1.
          5    1    1    2  502    0 -0.26437251659E+02  0.46910747445E+02  0.54454725538E+01  0.54283257755E+02  0.41800000000E+01 0. -1.
         -5    1    1    2    0  502  0.96163288305E+02 -0.13812301672E+01  0.97397451547E+01  0.96755469355E+02  0.41800000000E+01 0. -1.
        -11    1    1    2    0    0  0.14556707653E+02 -0.55030089094E+01  0.16619999072E+02  0.22768513652E+02  0.00000000000E+00 0. -1.
         11    1    1    2    0    0 -0.84282744299E+02 -0.40026508368E+02 -0.49693271819E+02  0.10571245727E+03  0.00000000000E+00 0.  1.
</event>
<event>
 6    1  0.9216756E-006  0.1380396E+03  0.7561462E-02  0.1215991E+00
         -2   -1    0    0    0  501 -0.00000000000E+00  0.00000000000E+00  0.12484678874E+03  0.12484678874E+03  0.00000000000E+00 0.  1.
          2   -1    0    0  501    0  0.00000000000E+00 -0.00000000000E+00 -0.20814145571E+03  0.20814145571E+03  0.00000000000E+00 0. -1.
          5    1    1    2  502    0 -0.48783000622E+02  0.89774717592E+01  0.15237919657E+02  0.52058070886E+02  0.41800000000E+01 0.  1.
         -5    1    1    2    0  502  0.62846987031E+02  0.88867636206E+02  0.10319118191E+02  0.10941278327E+03  0.41800000000E+01 0.  1.
        -11    1    1    2    0    0 -0.38985362373E+02 -0.49727024981E+02 -0.17946479722E+02  0.65686464566E+02  0.00000000000E+00 0.  1.
         11    1    1    2    0    0  0.24921375964E+02 -0.48118082984E+02 -0.90905225099E+02  0.10583092573E+03  0.00000000000E+00 0. -1.
</event>
<event>
 6    1  0.9216756E-006  0.1031739E+03  0.7561462E-02  0.1273760E+00
         -3   -1    0    0    0  501 -0.00000000000E+00  0.00000000000E+00  0.21984686137E+03  0.21984686137E+03  0.00000000000E+00 0.  1.
          3   -1    0    0  501    0  0.00000000000E+00 -0.00000000000E+00 -0.60270418087E+02  0.60270418087E+02  0.00000000000E+00 0. -1.
          5    1    1    2  502    0 -0.55935256603E+02 -0.46028375823E+01  0.24466670599E+02  0.61367983634E+02  0.41800000000E+01 0. -1.
         -5    1    1    2    0  502  0.56057960865E+02 -0.22320671489E+02  0.10171198465E+03  0.11833641694E+03  0.41800000000E+01 0. -1.
        -11    1    1    2    0    0  0.39248365243E+02 -0.40971239606E+01 -0.12474270110E+01  0.39481345888E+02  0.00000000000E+00 0. -1.
         11    1    1    2    0    0 -0.39371069505E+02  0.31020633032E+02  0.34645215038E+02  0.60931532992E+02  0.00000000000E+00 0.  1.
</event>
<event>
 6    1  0.9216756E-006  0.9302898E+02  0.7561462E-02  0.1295678E+00
          1   -1    0    0  501    0  0.00000000000E+00  0.00000000000E+00  0.33590177167E+03  0.33590177167E+03  0.00000000000E+00 0. -1.
         -1   -1    0    0    0  501 -0.00000000000E+00 -0.00000000000E+00 -0.75875659919E+02  0.75875659919E+02  0.00000000000E+00 0.  1.
          5    1    1    2  502    0  0.27286229554E+01 -0.82356149471E+02 -0.33459255257E+02  0.89033560534E+02  0.41800000000E+01 0.  1.
         -5    1    1    2    0  502  0.12124017725E+02  0.13920773534E+02  0.52224199465E+02  0.55548349673E+02  0.41800000000E+01 0.  1.
        -11    1    1    2    0    0 -0.32179407020E+02  0.40171583871E+02  0.45660101641E+02  0.68804907301E+02  0.00000000000E+00 0.  1.
         11    1    1    2    0    0  0.17326766339E+02  0.28263792067E+02  0.19560106590E+03  0.19839061408E+03  0.00000000000E+00 0. -1.
</event>
<event>
 6    1  0.9216756E-006  0.1215161E+03  0.7561462E-02  0.1240617E+00
         -1   -1    0    0    0  501 -0.00000000000E+00  0.00000000000E+00  0.52795238219E+03  0.52795238219E+03  0.00000000000E+00 0.  1.
          1   -1    0    0  501    0  0.00000000000E+00 -0.00000000000E+00 -0.31123250343E+02  0.31123250343E+02  0.00000000000E+00 0. -1.
          5    1    1    2  502    0  0.38069004242E+01 -0.86255354652E+02  0.24881682560E+03  0.26340418334E+03  0.41800000000E+01 0. -1.
         -5    1    1    2    0  502 -0.35168829732E+02  0.36997824711E+02  0.97170841716E+02  0.10984229831E+03  0.41800000000E+01 0.  1.
        -11    1    1    2    0    0  0.53119262838E+02  0.17795767668E+01  0.98292442231E+02  0.11174178797E+03  0.00000000000E+00 0. -1.
         11    1    1    2    0    0 -0.21757333531E+02  0.47477953174E+02  0.52549022298E+02  0.74087362920E+02  0.00000000000E+00 0.  1.
</event>
<event>
 6    1  0.9216756E-006  0.6448450E+02  0.7561462E-02  0.1379921E+00
          2   -1    0    0  501    0  0.00000000000E+00  0.00000000000E+00  0.57165913006E+02  0.57165913006E+02  0.00000000000E+00 0. -1.
         -2   -1    0    0    0  501 -0.00000000000E+00 -0.00000000000E+00 -0.32197679695E+03  0.32197679695E+03  0.00000000000E+00 0.  1.
          5    1    1    2  502    0  0.32861370468E+02 -0.11117803698E-01 -0.25909635642E+03  0.26120540596E+03  0.41800000000E+01 0. -1.
         -5    1    1    2    0  502  0.15917510537E+01  0.10393200195E+02  0.12975345615E+02  0.17215814693E+02  0.41800000000E+01 0. -1.
        -11    1    1    2    0    0 -0.41158095794E+02 -0.38054602485E+02 -0.36727855303E+02  0.67015498020E+02  0.00000000000E+00 0.  1.
         11    1    1    2    0    0  0.67049742724E+01  0.27672520094E+02  0.18037982160E+02  0.33705991288E+02  0.00000000000E+00 0. -1.
</event>
<event>
 6    1  0.9216756E-006  0.1143804E+03  0.7561462E-02  0.1252667E+00
         -2   -1    0    0    0  501 -0.00000000000E+00  0.00000000000E+00  0.21559316331E+03  0.21559316331E+03  0.00000000000E+00 0. -1.
          2   -1    0    0  501    0  0.00000000000E+00 -0.00000000000E+00 -0.72918246388E+02  0.72918246388E+02  0.00000000000E+00 0.  1.
          5    1    1    2  502    0 -0.79295832572E+02  0.35998933004E+02  0.39263872781E+02  0.95618389164E+02  0.41800000000E+01 0.  1.
         -5    1    1    2    0  502  0.19346549441E+02 -0.38590662491E+02  0.64095507456E+02  0.77390145903E+02  0.41800000000E+01 0.  1.
        -11    1    1    2    0    0  0.54182371357E+02  0.35512473662E+02  0.48401737373E+02  0.80867752115E+02  0.00000000000E+00 0. -1.
         11    1    1    2    0    0  0.57669117744E+01 -0.32920744175E+02 -0.90862006907E+01  0.34635122512E+02  0.00000000000E+00 0.  1.
</event>
<event>
 6    1  0.9216756E-006  0.1484967E+03  0.7561462E-02  0.1202332E+00
         -2   -1    0    0    0  501 -0.00000000000E+00  0.00000000000E+00  0.17901105479E+03  0.17901105479E+03  0.00000000000E+00 0.  1.
          2   -1    0    0  501    0  0.00000000000E+00 -0.00000000000E+00 -0.15989659713E+03  0.15989659713E+03  0.00000000000E+00 0. -1.
          5    1    1    2  502    0 -0.25593637859E+02  0.63544739777E+01  0.34971524305E+02  0.43998790332E+02  0.41800000000E+01 0.  1.
         -5    1    1    2    0  502  0.21732375315E+02 -0.13529850713E+03 -0.97938195126E+01  0.13744589288E+03  0.41800000000E+01 0.  1.
        -11    1    1    2    0    0  0.18350067802E+02  0.83770590137E+02  0.36994717839E+02  0.93396177161E+02  0.00000000000E+00 0. -1.
         11    1    1    2    0    0 -0.14488805258E+02  0.45173443018E+02 -0.43057964972E+02  0.64066791549E+02  0.00000000000E+00 0.  1.
</event>
<event>
 6    1  0.9216756E-006  0.9460440E+02  0.7561462E-02  0.1292070E+00
         -2   -1    0    0    0  501 -0.00000000000E+00  0.00000000000E+00  0.12800367409E+03  0.12800367409E+03  0.00000000000E+00 0.  1.
          2   -1    0    0  501    0  0.00000000000E+00 -0.00000000000E+00 -0.14399852625E+03  0.14399852625E+03  0.00000000000E+00 0. -1.
          5    1    1    2  502    0 -0.57299560489E+02 -0.64975771927E+02  0.48183427648E+02  0.99217970498E+02  0.41800000000E+01 0.  1.
         -5    1    1    2    0  502  0.16186613116E+02  0.42709722959E+02  0.12999106567E+02  0.47671543409E+02  0.41800000000E+01 0.  1.
        -11    1    1    2    0    0  0.26642749445E+02  0.30066318743E+02 -0.93612033348E+02  0.10186772015E+03  0.00000000000E+00 0. -1.
         11    1    1    2    0    0  0.14470197928E+02 -0.78002697753E+01  0.16434646974E+02  0.23244966290E+02  0.00000000000E+00 0.  1.
</event>
<event>
 6    1  0.9216756E-006  0.1346767E+03  0.7561462E-02  0.1220677E+00
         -3   -1    0    0    0  501 -0.00000000000E+00  0.00000000000E+00  0.79761377628E+02  0.79761377628E+02  0.00000000000E+00 0.  1.
          3   -1    0    0  501    0  0.00000000000E+00 -0.00000000000E+00 -0.32855362393E+03  0.32855362393E+03  0.00000000000E+00 0. -1.
          5    1    1    2  502    0  0.64285949495E+02  0.52629767227E+02  0.10862547350E+02  0.83893045217E+02  0.41800000000E+01 0.  1.
         -5    1    1    2    0  502 -0.82183132543E+01  0.43323975213E+02 -0.91910857157E+02  0.10202737654E+03  0.41800000000E+01 0.  1.
        -11    1    1    2    0    0  0.11159336875E+02 -0.68257522096E+02 -0.55592120666E+02  0.88736148228E+02  0.00000000000E+00 0.  1.
         11    1    1    2    0    0 -0.67226973116E+02 -0.27696220345E+02 -0.11215181583E+03  0.13365843157E+03  0.00000000000E+00 0. -1.
</event>
<event>
 6    1  0.9216756E-006  0.1424073E+03  0.7561462E-02  0.1210126E+00
         -2   -1    0    0    0  501 -0.00000000000E+00  0.00000000000E+00  0.22690197246E+02  0.22690197246E+02  0.00000000000E+00 0.  1.
          2   -1    0    0  501    0  0.00000000000E+00 -0.00000000000E+00 -0.12987249157E+04  0.12987249157E+04  0.00000000000E+00 0. -1.
          5    1    1    2  502    0 -0.66633607607E+02  0.10411322240E+02 -0.40312497309E+03  0.40874888333E+03  0.41800000000E+01 0. -1.
         -5    1    1    2    0  502 -0.59260065557E+02  0.48465987716E+00 -0.59492415860E+02  0.84076216672E+02  0.41800000000E+01 0.  1.
        -11    1    1    2    0    0  0.41947000754E+02 -0.49967114256E+02 -0.33243001154E+03  0.33877127380E+03  0.00000000000E+00 0.  1.
         11    1    1    2    0    0  0.83946672410E+02  0.39071132139E+02 -0.48098731795E+03  0.48981873913E+03  0.00000000000E+00 0. -1.
</event>
<event>
 6    1  0.9216756E-006  0.1395288E+03  0.7561462E-02  0.1213964E+00
         -2   -1    0    0    0  501 -0.00000000000E+00  0.00000000000E+00  0.25272681998E+03  0.25272681998E+03  0.00000000000E+00 0.  1.
          2   -1    0    0  501    0  0.00000000000E+00 -0.00000000000E+00 -0.91308836761E+02  0.91308836761E+02  0.00000000000E+00 0. -1.
          5    1    1    2  502    0 -0.11020044136E+02 -0.31412169744E+02  0.12993353963E+02  0.35978680187E+02  0.41800000000E+01 0. -1.
         -5    1    1    2    0  502 -0.35702474758E+02  0.11409026481E+03  0.12618265088E+03  0.17387003483E+03  0.41800000000E+01 0. -1.
        -11    1    1    2    0    0  0.67732946124E+02 -0.79818175750E+02  0.33840870899E+02  0.11001771545E+03  0.00000000000E+00 0.  1.
         11    1    1    2    0    0 -0.21010427230E+02 -0.28599193173E+01 -0.11598892521E+02  0.24169226272E+02  0.00000000000E+00 0. -1.
</event>
<event>
 6    1  0.9216756E-006  0.2093367E+03  0.7561462E-02  0.1142092E+00
         -2   -1    0    0    0  501 -0.00000000000E+00  0.00000000000E+00  0.13457669815E+04  0.13457669815E+04  0.00000000000E+00 0.  1.
          2   -1    0    0  501    0  0.00000000000E+00 -0.00000000000E+00 -0.34270669927E+02  0.34270669927E+02  0.00000000000E+00 0. -1.
          5    1    1    2  502    0  0.26314251574E+02 -0.42482679194E+01  0.81887468541E+02  0.86217849198E+02  0.41800000000E+01 0.  1.
         -5    1    1    2    0  502 -0.62026530921E+02  0.18895594040E+03  0.62943542530E+03  0.66011973533E+03  0.41800000000E+01 0.  1.
        -11    1    1    2    0    0  0.31389589693E-01 -0.10981153543E+03  0.23748289394E+03  0.26164231159E+03  0.00000000000E+00 0. -1.
         11    1    1    2    0    0  0.35680889758E+02 -0.74896137049E+02  0.36269052380E+03  0.37205775532E+03  0.00000000000E+00 0.  1.
</event>
<event>
 6    1  0.9216756E-006  0.1511716E+03  0.7561462E-02  0.1199041E+00
          2   -1    0    0  501    0  0.00000000000E+00  0.00000000000E+00  0.15724001183E+03  0.15724001183E+03  0.00000000000E+00 0. -1.
         -2   -1    0    0    0  501 -0.00000000000E+00 -0.00000000000E+00 -0.28587182910E+03  0.28587182910E+03  0.00000000000E+00 0.  1.
          5    1    1    2  502    0  0.78210623566E+02  0.20681907882E+02  0.51821575165E+02  0.96164395723E+02  0.41800000000E+01 0. -1.
         -5    1    1    2    0  502 -0.12876505423E+03  0.38995767053E+02 -0.18374192200E+03  0.22777110295E+03  0.41800000000E+01 0.  1.
        -11    1    1    2    0    0  0.29753148828E+02 -0.58814369055E+02 -0.35713475538E+02  0.74965540134E+02  0.00000000000E+00 0. -1.
         11    1    1    2    0    0  0.20801281837E+02 -0.86330587985E+00  0.39002005095E+02  0.44210802125E+02  0.00000000000E+00 0.  1.
</event>
<event>
 6    1  0.9216756E-006  0.1212767E+03  0.7561462E-02  0.1241006E+00
         -1   -1    0    0    0  501 -0.00000000000E+00  0.00000000000E+00  0.26425929375E+02  0.26425929375E+02  0.00000000000E+00 0.  1.
          1   -1    0    0  501    0  0.00000000000E+00 -0.00000000000E+00 -0.66879719715E+03  0.66879719715E+03  0.00000000000E+00 0. -1.
          5    1    1    2  502    0 -0.56174283186E+01  0.34868460399E+02 -0.14726164991E+03  0.15149531665E+03  0.41800000000E+01 0. -1.
         -5    1    1    2    0  502  0.67095930547E+02 -0.79066811063E+02 -0.20084696115E+03  0.22607609053E+03  0.41800000000E+01 0. -1.
        -11    1    1    2    0    0  0.56095068879E+01  0.35051261122E+02 -0.35597757313E+02  0.50271839030E+02  0.00000000000E+00 0.  1.
         11    1    1    2    0    0 -0.67088009117E+02  0.91470895422E+01 -0.25866489941E+03  0.26737988032E+03  0.00000000000E+00 0. -1.
</event>
<event>
 6    1  0.9216756E-006  0.1952212E+03  0.7561462E-02  0.1153835E+00
         -4   -1    0    0    0  501 -0.00000000000E+00  0.00000000000E+00  0.20195365825E+03  0.20195365825E+03  0.00000000000E+00 0.  1.
          4   -1    0    0  501    0  0.00000000000E+00 -0.00000000000E+00 -0.23411439384E+03  0.23411439384E+03  0.00000000000E+00 0. -1.
          5    1    1    2  502    0  0.18268984311E+03 -0.39100647240E+02  0.15674842881E+02  0.18753029752E+03  0.41800000000E+01 0. -1.
         -5    1    1    2    0  502 -0.11991805370E+02 -0.71859153252E+01  0.30719713086E+02  0.34009027437E+02  0.41800000000E+01 0. -1.
        -11    1    1    2    0    0 -0.11459015379E+03 -0.25109502616E+01 -0.80635779462E+02  0.14014041939E+03  0.00000000000E+00 0.  1.
         11    1    1    2    0    0 -0.56107883950E+02  0.48797512827E+02  0.20804879085E+01  0.74388307746E+02  0.00000000000E+00 0. -1.
</event>
<event>
 6    1  0.9216756E-006  0.1230441E+03  0.7561462E-02  0.1238158E+00
         -2   -1    0    0    0  501 -0.00000000000E+00  0.00000000000E+00  0.82117856094E+03  0.82117856094E+03  0.00000000000E+00 0. -1.
          2   -1    0    0  501    0  0.00000000000E+00 -0.00000000000E+00 -0.22423773293E+02  0.22423773293E+02  0.00000000000E+00 0.  1.
          5    1    1    2  502    0 -0.36180854385E+02 -0.26950736435E+02  0.28412647483E+03  0.28771639250E+03  0.41800000000E+01 0. -1.
         -5    1    1    2    0  502  0.88542532412E+02 -0.30860095357E+01  0.31079099438E+03  0.32319934729E+03  0.41800000000E+01 0. -1.
        -11    1    1    2    0    0  0.10131003745E+02  0.46393653857E+02  0.80748015657E+02  0.93676306437E+02  0.00000000000E+00 0. -1.
         11    1    1    2    0    0 -0.62492681772E+02 -0.16356907887E+02  0.12308930278E+03  0.13901028800E+03  0.00000000000E+00 0.  1.
</event>
<event>
 6    1  0.9216756E-006  0.1478119E+03  0.7561462E-02  0.1203188E+00
          1   -1    0    0  501    0  0.00000000000E+00  0.00000000000E+00  0.71788214140E+03  0.71788214140E+03  0.00000000000E+00 0. -1.
         -1   -1    0    0    0  501 -0.00000000000E+00 -0.00000000000E+00 -0.33672609627E+02  0.33672609627E+02  0.00000000000E+00 0.  1.
          5    1    1    2  502    0  0.51460646186E+00 -0.81515071925E+02  0.21048316788E+03  0.22575563809E+03  0.41800000000E+01 0.  1.
         -5    1    1    2    0  502  0.77226928138E+02  0.15056665168E+02  0.26457200501E+03  0.27605528401E+03  0.41800000000E+01 0.  1.
        -11    1    1    2    0    0  0.16342003393E+02  0.30279714303E+02  0.39325007120E+02  0.52253022479E+02  0.00000000000E+00 0.  1.
         11    1    1    2    0    0 -0.94083537993E+02  0.36178692454E+02  0.16982935176E+03  0.19749080644E+03  0.00000000000E+00 0. -1.
</event>
<event>
 6    1  0.9216756E-006  0.9769091E+02  0.7561462E-02  0.1285228E+00
         -2   -1    0    0    0  501 -0.00000000000E+00  0.00000000000E+00  0.86791293416E+02  0.86791293416E+02  0.00000000000E+00 0.  1.
          2   -1    0    0  501    0  0.00000000000E+00 -0.00000000000E+00 -0.22652180632E+03  0.22652180632E+03  0.00000000000E+00 0. -1.
          5    1    1    2  502    0  0.50166484523E+02 -0.17550268894E+02  0.86653353811E+01  0.54011559364E+02  0.41800000000E+01 0.  1.
         -5    1    1    2    0  502 -0.74678922153E+02  0.28779027523E+01  0.48365296385E+01  0.75007254030E+02  0.41800000000E+01 0.  1.
        -11    1    1    2    0    0 -0.12476146961E+02  0.25744727731E+02 -0.25250468256E+01  0.28719698996E+02  0.00000000000E+00 0.  1.
         11    1    1    2    0    0  0.36988584591E+02 -0.11072361589E+02 -0.15070733110E+03  0.15557458734E+03  0.00000000000E+00 0. -1.
</event>
<event>
 6    1  0.9216756E-006  0.1191396E+03  0.7561462E-02  0.1244523E+00
         -3   -1    0    0    0  501 -0.00000000000E+00  0.00000000000E+00  0.17636782282E+03  0.17636782282E+03  0.00000000000E+00 0.  1.
          3   -1    0    0  501    0  0.00000000000E+00 -0.00000000000E+00 -0.23272789811E+03  0.23272789811E+03  0.00000000000E+00 0. -1.
          5    1    1    2  502    0  0.17900252480E+02 -0.77185223290E+02 -0.99066079686E+01  0.79959933808E+02  0.41800000000E+01 0. -1.
         -5    1    1    2    0  502 -0.47619942894E+02 -0.16152724271E+02  0.11125226787E+03  0.12216017751E+03  0.41800000000E+01 0.  1.
        -11    1    1    2    0    0  0.37574604431E+02  0.41241162721E+02 -0.14110845743E+03  0.15173754037E+03  0.00000000000E+00 0. -1.
         11    1    1    2    0    0 -0.78549140166E+01  0.52096784840E+02 -0.16597277762E+02  0.55238069246E+02  0.00000000000E+00 0.  1.
</event>
<event>
 6    1  0.9216756E-006  0.1642448E+03  0.7561462E-02  0.1183986E+00
         -2   -1    0    0    0  501 -0.00000000000E+00  0.00000000000E+00  0.10257621078E+03  0.10257621078E+03  0.00000000000E+00 0. -1.
          2   -1    0    0  501    0  0.00000000000E+00 -0.00000000000E+00 -0.30925165384E+03  0.30925165384E+03  0.00000000000E+00 0.  1.
          5    1    1    2  502    0 -0.54846410929E+02  0.13828047513E+03 -0.77039729566E+02  0.16757747738E+03  0.41800000000E+01 0.  1.
         -5    1    1    2    0  502 -0.16410228481E+02 -0.22008131225E+02  0.95972732419E+01  0.29380835463E+02  0.41800000000E+01 0.  1.
        -11    1    1    2    0    0  0.84466964564E+02 -0.98499694879E+02 -0.14222681915E+03  0.19252357279E+03  0.00000000000E+00 0.  1.
         11    1    1    2    0    0 -0.13210325154E+02 -0.17772649027E+02  0.29938324126E+01  0.22345978981E+02  0.00000000000E+00 0. -1.
</event>
<event>
 6    1  0.9216756E-006  0.2137982E+03  0.7561462E-02  0.1138593E+00
         -2   -1    0    0    0  501 -0.00000000000E+00  0.00000000000E+00  0.10336791924E+03  0.10336791924E+03  0.00000000000E+00 0.  1.
          2   -1    0    0  501    0  0.00000000000E+00 -0.00000000000E+00 -0.45247257501E+03  0.45247257501E+03  0.00000000000E+00 0. -1.
          5    1    1    2  502    0 -0.10786053839E+03  0.16548128988E+03 -0.19735533389E+03  0.27925714540E+03  0.41800000000E+01 0. -1.
         -5    1    1    2    0  502  0.23395009422E+02 -0.32751510553E+01 -0.24646437000E+02  0.34394364903E+02  0.41800000000E+01 0. -1.
        -11    1    1    2    0    0  0.60526467286E+02 -0.22946449489E+02 -0.43855137519E+02  0.78187376686E+02  0.00000000000E+00 0.  1.
         11    1    1    2    0    0  0.23939061684E+02 -0.13925968933E+03 -0.83247747363E+02  0.16400160727E+03  0.00000000000E+00 0. -1.
</event>
<event>
 6    1  0.9216756E-006  0.1126892E+03  0.7561462E-02  0.1255669E+00
         -2   -1    0    0    0  501 -0.00000000000E+00  0.00000000000E+00  0.79082462621E+02  0.79082462621E+02  0.00000000000E+00 0. -1.
          2   -1    0    0  501    0  0.00000000000E+00 -0.00000000000E+00 -0.23582904175E+03  0.23582904175E+03  0.00000000000E+00 0.  1.
          5    1    1    2  502    0 -0.14775195323E+02 -0.56429128754E+02  0.97858060555E+01  0.59294075327E+02  0.41800000000E+01 0. -1.
         -5    1    1    2    0  502  0.67180645889E+02  0.30823380797E+02 -0.31347793300E+02  0.80395749456E+02  0.41800000000E+01 0. -1.
        -11    1    1    2    0    0 -0.95360327448E+01 -0.24873400352E+02 -0.22866625172E+01  0.26736693719E+02  0.00000000000E+00 0. -1.
         11    1    1    2    0    0 -0.42869417822E+02  0.50479148309E+02 -0.13289792937E+03  0.14848498587E+03  0.00000000000E+00 0.  1.
</event>
<event>
 6    1  0.9216756E-006  0.1088992E+03  0.7561462E-02  0.1262622E+00
         -1   -1    0    0    0  501 -0.00000000000E+00  0.00000000000E+00  0.14775053679E+02  0.14775053679E+02  0.00000000000E+00 0.  1.
          1   -1    0    0  501    0  0.00000000000E+00 -0.00000000000E+00 -0.89491321310E+03  0.89491321310E+03  0.00000000000E+00 0. -1.
          5    1    1    2  502    0  0.41286890973E+01 -0.60886208161E+02 -0.20770654451E+03  0.21652634354E+03  0.41800000000E+01 0.  1.
         -5    1    1    2    0  502  0.33797088053E+02  0.60233909987E+02 -0.27364503052E+03  0.28225775845E+03  0.41800000000E+01 0.  1.
        -11    1    1    2    0    0  0.19316761697E+02 -0.18822271871E+02 -0.49020012075E+02  0.55949770193E+02  0.00000000000E+00 0.  1.
         11    1    1    2    0    0 -0.57242538848E+02  0.19474570045E+02 -0.34976657232E+03  0.35495439460E+03  0.00000000000E+00 0. -1.
</event>
<event>
 6    1  0.9216756E-006  0.1169306E+03  0.7561462E-02  0.1248248E+00
          2   -1    0    0  501    0  0.00000000000E+00  0.00000000000E+00  0.42894975218E+03  0.42894975218E+03  0.00000000000E+00 0. -1.
         -2   -1    0    0    0  501 -0.00000000000E+00 -0.00000000000E+00 -0.42779315892E+02  0.42779315892E+02  0.00000000000E+00 0.  1.
          5    1    1    2  502    0  0.85122761528E+01  0.31408235976E+02  0.95894747370E+02  0.10135191713E+03  0.41800000000E+01 0. -1.
         -5    1    1    2    0  502  0.40062509651E+02 -0.92728044730E+02  0.84991884157E+02  0.13207796081E+03  0.41800000000E+01 0. -1.
        -11    1    1    2    0    0 -0.63659580354E+02  0.46750243705E+02  0.84330377541E+02  0.11554107509E+03  0.00000000000E+00 0.  1.
         11    1    1    2    0    0  0.15084794550E+02  0.14569565049E+02  0.12095342722E+03  0.12275811504E+03  0.00000000000E+00 0. -1.
</event>
<event>
 6    1  0.9216756E-006  0.1656754E+03  0.7561462E-02  0.1182434E+00
          2   -1    0    0  501    0  0.00000000000E+00  0.00000000000E+00  0.30302916242E+02  0.30302916242E+02  0.00000000000E+00 0. -1.
         -2   -1    0    0    0  501 -0.00000000000E+00 -0.00000000000E+00 -0.10544202190E+04  0.10544202190E+04  0.00000000000E+00 0.  1.
          5    1    1    2  502    0 -0.10218939131E+03 -0.52380501579E+01 -0.18350419690E+03  0.21014607193E+03  0.41800000000E+01 0. -1.
         -5    1    1    2    0  502 -0.21730546592E+02  0.69332259330E+02 -0.29283442482E+03  0.30174269104E+03  0.41800000000E+01 0. -1.
        -11    1    1    2    0    0  0.91539952521E+02 -0.78626979989E+02 -0.49306930683E+03  0.50762102619E+03  0.00000000000E+00 0.  1.
         11    1    1    2    0    0  0.32379985384E+02  0.14532770817E+02 -0.54709374212E+02  0.65213346086E+02  0.00000000000E+00 0. -1.
</event>
<event>
 6    1  0.9263950E-005  0.5694056E+03  0.7561462E-02  0.9970995E-01
          2   -1    0    0  501    0  0.00000000000E+00  0.00000000000E+00  0.47684167565E+03  0.47684167565E+03  0.00000000000E+00 0. -1.
         -2   -1    0    0    0  501 -0.00000000000E+00 -0.00000000000E+00 -0.68483731827E+03  0.68483731827E+03  0.00000000000E+00 0.  1.
          5    1    1    2  502    0 -0.36241202287E+02  0.30203108727E+02  0.13496539544E+01  0.47380866242E+02  0.41800000000E+01 0.  1.
         -5    1    1    2    0  502 -0.52461649414E+03 -0.38752495833E+02 -0.11321506971E+03  0.53810718846E+03  0.41800000000E+01 0.  1.
        -11    1    1    2    0    0  0.36787985200E+02 -0.17357757622E+02  0.74537190907E+01  0.41354631337E+02  0.00000000000E+00 0.  1.
         11    1    1    2    0    0  0.52406971123E+03  0.25907144728E+02 -0.10358394595E+03  0.53483630789E+03  0.00000000000E+00 0. -1.
</event>
<event>
 6    1  0.9216756E-006  0.1070701E+03  0.7561462E-02  0.1266094E+00
          1   -1    0    0  501    0  0.00000000000E+00  0.00000000000E+00  0.39717264354E+03  0.39717264354E+03  0.00000000000E+00 0. -1.
         -1   -1    0    0    0  501 -0.00000000000E+00 -0.00000000000E+00 -0.41299378664E+02  0.41299378664E+02  0.00000000000E+00 0.  1.
          5    1    1    2  502    0  0.83257328107E+00  0.31142810112E+02  0.90687702696E+02  0.95980725254E+02  0.41800000000E+01 0.  1.
         -5    1    1    2    0  502 -0.26283075604E+02 -0.86564260852E+02  0.57328718956E+02  0.10718314111E+03  0.41800000000E+01 0.  1.
        -11    1    1    2    0    0 -0.23599669788E+02  0.25229430810E+02  0.14901983689E+03  0.15297182871E+03  0.00000000000E+00 0. -1.
         11    1    1    2    0    0  0.49050172111E+02  0.30192019930E+02  0.58837006341E+02  0.82336327139E+02  0.00000000000E+00 0.  1.
</event>
<event>
 6    1  0.9216756E-006  0.1125343E+03  0.7561462E-02  0.1255947E+00
          4   -1    0    0  501    0  0.00000000000E+00  0.00000000000E+00  0.77334730482E+02  0.77334730482E+02  0.00000000000E+00 0. -1.
         -4   -1    0    0    0  501 -0.00000000000E+00 -0.00000000000E+00 -0.24186398243E+03  0.24186398243E+03  0.00000000000E+00 0.  1.
          5    1    1    2  502    0 -0.14430373655E+02  0.95834985729E+02 -0.71560585388E+02  0.12054447293E+03  0.41800000000E+01 0. -1.
         -5    1    1    2    0  502 -0.27998866321E+02 -0.35026458949E+02 -0.63971118096E+02  0.78234044330E+02  0.41800000000E+01 0. -1.
        -11    1    1    2    0    0  0.18890502397E+02 -0.55868042781E+02 -0.58017260571E+02  0.82729026400E+02  0.00000000000E+00 0.  1.
         11    1    1    2    0    0  0.23538737579E+02 -0.49404839984E+01  0.29019712104E+02  0.37691169252E+02  0.00000000000E+00 0. -1.
</event>
<event>
 6    1  0.9216756E-006  0.8137772E+02  0.7561462E-02  0.1325187E+00
         -2   -1    0    0    0  501 -0.00000000000E+00  0.00000000000E+00  0.36835740767E+02  0.36835740767E+02  0.00000000000E+00 0.  1.
          2   -1    0    0  501    0  0.00000000000E+00 -0.00000000000E+00 -0.39477635508E+03  0.39477635508E+03  0.00000000000E+00 0. -1.
          5    1    1    2  502    0 -0.13359833875E+01  0.19026974939E+02  0.17600859832E+02  0.26288272932E+02  0.41800000000E+01 0. -1.
         -5    1    1    2    0  502  0.40988593868E+02  0.36975811640E+00 -0.17389958105E+03  0.17871412434E+03  0.41800000000E+01 0. -1.
        -11    1    1    2    0    0  0.13881566672E+01 -0.50507376484E+02 -0.81446642722E+02  0.95846114522E+02  0.00000000000E+00 0.  1.
         11    1    1    2    0    0 -0.41040767148E+02  0.31110643429E+02 -0.12019525037E+03  0.13076358406E+03  0.00000000000E+00 0. -1.
</event>
<event>
 6    1  0.9216756E-006  0.1079148E+03  0.7561462E-02  0.1264481E+00
         -1   -1    0    0    0  501 -0.00000000000E+00  0.00000000000E+00  0.92366034422E+02  0.92366034422E+02  0.00000000000E+00 0.  1.
          1   -1    0    0  501    0  0.00000000000E+00 -0.00000000000E+00 -0.24682127608E+03  0.24682127608E+03  0.00000000000E+00 0. -1.
          5    1    1    2  502    0  0.53033596994E+02  0.51026571708E+02 -0.49012785899E+00  0.73715575394E+02  0.41800000000E+01 0.  1.
         -5    1    1    2    0  502 -0.51528560268E+02 -0.13140649192E+02  0.26480422541E+02  0.59552954271E+02  0.41800000000E+01 0.  1.
        -11    1    1    2    0    0 -0.23579023277E+02  0.17360554901E+02 -0.21858724247E+02  0.36539882743E+02  0.00000000000E+00 0.  1.
         11    1    1    2    0    0  0.22073986551E+02 -0.55246477417E+02 -0.15858681209E+03  0.16937889809E+03  0.00000000000E+00 0. -1.
</event>
<event>
 6    1  0.9216756E-006  0.1404945E+03  0.7561462E-02  0.1212665E+00
         -1   -1    0    0    0  501 -0.00000000000E+00  0.00000000000E+00  0.22496982887E+03  0.22496982887E+03  0.00000000000E+00 0.  1.
          1   -1    0    0  501    0  0.00000000000E+00 -0.00000000000E+00 -0.13299747296E+03  0.13299747296E+03  0.00000000000E+00 0. -1.
          5    1    1    2  502    0  0.18401672474E+02 -0.27123445865E+02  0.10050183269E+02  0.34536668182E+02  0.41800000000E+01 0. -1.
         -5    1    1    2    0  502 -0.12753996277E+03  0.21262415808E+02  0.11959771420E+03  0.17618064046E+03  0.41800000000E+01 0. -1.
        -11    1    1    2    0    0  0.87709181095E+02  0.23524082306E+02  0.10733475100E+02  0.91441185384E+02  0.00000000000E+00 0.  1.
         11    1    1    2    0    0  0.21429109199E+02 -0.17663052249E+02 -0.48409016659E+02  0.55808807815E+02  0.00000000000E+00 0. -1.
</event>
<event>
 6    1  0.9216756E-006  0.1188254E+03  0.7561462E-02  0.1245048E+00
          1   -1    0    0  501    0  0.00000000000E+00  0.00000000000E+00  0.40770636427E+03  0.40770636427E+03  0.00000000000E+00 0. -1.
         -1   -1    0    0    0  501 -0.00000000000E+00 -0.00000000000E+00 -0.41560369343E+02  0.41560369343E+02  0.00000000000E+00 0.  1.
          5    1    1    2  502    0 -0.58284972917E+02  0.18145620103E+02  0.31431969224E+02  0.68788390635E+02  0.41800000000E+01 0.  1.
         -5    1    1    2    0  502  0.27873843376E+01 -0.63974406182E+02  0.14921838320E+03  0.16243180859E+03  0.41800000000E+01 0.  1.
        -11    1    1    2    0    0  0.62260835150E+02  0.66169792852E+02  0.13042755807E+03  0.15895345540E+03  0.00000000000E+00 0.  1.
         11    1    1    2    0    0 -0.67632465703E+01 -0.20341006773E+02  0.55068084430E+02  0.59093078981E+02  0.00000000000E+00 0. -1.
</event>
<event>
 6    1  0.9216756E-006  0.7605776E+02  0.7561462E-02  0.1340626E+00
         -3   -1    0    0    0  501 -0.00000000000E+00  0.00000000000E+00  0.17719911864E+03  0.17719911864E+03  0.00000000000E+00 0.  1.
          3   -1    0    0  501    0  0.00000000000E+00 -0.00000000000E+00 -0.86035987093E+02  0.86035987093E+02  0.00000000000E+00 0. -1.
          5    1    1    2  502    0 -0.27299576857E+02  0.52340604879E+02 -0.27077985077E+02  0.65080684473E+02  0.41800000000E+01 0. -1.
         -5    1    1    2    0  502 -0.63053216108E+01 -0.49906549190E+01  0.83390346825E+02  0.83881380894E+02  0.41800000000E+01 0. -1.
        -11    1    1    2    0    0 -0.14401356368E+02 -0.29184543323E+02  0.50969583549E+02  0.60473424588E+02  0.00000000000E+00 0.  1.
         11    1    1    2    0    0  0.48006254836E+02 -0.18165406637E+02 -0.16118813745E+02  0.53799615781E+02  0.00000000000E+00 0. -1.
</event>
<event>
 6    1  0.9216756E-006  0.1005002E+03  0.7561462E-02  0.1279248E+00
          1   -1    0    0  501    0  0.00000000000E+00  0.00000000000E+00  0.68270429781E+02  0.68270429781E+02  0.00000000000E+00 0. -1.
         -1   -1    0    0    0  501 -0.00000000000E+00 -0.00000000000E+00 -0.21236641969E+03  0.21236641969E+03  0.00000000000E+00 0.  1.
          5    1    1    2  502    0 -0.45891268860E+02  0.61266127824E+02 -0.67689996797E+02  0.10226903267E+03  0.41800000000E+01 0. -1.
         -5    1    1    2    0  502  0.28812211758E+02 -0.40645491612E+02 -0.65515266886E+02  0.82413118676E+02  0.41800000000E+01 0. -1.
        -11    1    1    2    0    0  0.34807686409E+02 -0.36575630069E+02 -0.35470610801E+02  0.61705072552E+02  0.00000000000E+00 0.  1.
         11    1    1    2    0    0 -0.17728629307E+02  0.15954993856E+02  0.24579884577E+02  0.34249625573E+02  0.00000000000E+00 0. -1.
</event>
<event>
 6    1  0.9216756E-006  0.1202312E+03  0.7561462E-02  0.1242716E+00
         -2   -1    0    0    0  501 -0.00000000000E+00  0.00000000000E+00  0.33511185117E+02  0.33511185117E+02  0.00000000000E+00 0.  1.
          2   -1    0    0  501    0  0.00000000000E+00 -0.00000000000E+00 -0.51000180691E+03  0.51000180691E+03  0.00000000000E+00 0. -1.
          5    1    1    2  502    0 -0.83732493348E+02  0.16887003553E+02 -0.95503025823E+02  0.12819751040E+03  0.41800000000E+01 0. -1.
         -5    1    1    2    0  502  0.34025929566E+02 -0.36752694376E+02 -0.66638653688E+02  0.83466801736E+02  0.41800000000E+01 0. -1.
        -11    1    1    2    0    0 -0.25169411337E+02 -0.52410623829E+01 -0.54415813828E+02  0.60183459493E+02  0.00000000000E+00 0.  1.
         11    1    1    2    0    0  0.74875975119E+02  0.25106753206E+02 -0.25993312845E+03  0.27166522040E+03  0.00000000000E+00 0. -1.
</event>
<event>
 6    1  0.9216756E-006  0.1649738E+03  0.7561462E-02  0.1183193E+00
         -1   -1    0    0    0  501 -0.00000000000E+00  0.00000000000E+00  0.29586655507E+03  0.29586655507E+03  0.00000000000E+00 0.  1.
          1   -1    0    0  501    0  0.00000000000E+00 -0.00000000000E+00 -0.17655890827E+03  0.17655890827E+03  0.00000000000E+00 0. -1.
          5    1    1    2  502    0  0.13004955202E+03  0.70772005366E+02  0.20949030820E+03  0.25656426944E+03  0.41800000000E+01 0.  1.
         -5    1    1    2    0  502  0.59432922529E+01 -0.22732526517E+02 -0.36965484961E+01  0.24150100526E+02  0.41800000000E+01 0.  1.
        -11    1    1    2    0    0 -0.87421128698E+01 -0.27763978462E+02  0.99534541054E+01  0.30762546808E+02  0.00000000000E+00 0.  1.
         11    1    1    2    0    0 -0.12725073141E+03 -0.20275500387E+02 -0.96439567006E+02  0.16094854657E+03  0.00000000000E+00 0. -1.
</event>
<event>
 6    1  0.9216756E-006  0.7710858E+02  0.7561462E-02  0.1337463E+00
          1   -1    0    0  501    0  0.00000000000E+00  0.00000000000E+00  0.16227476406E+03  0.16227476406E+03  0.00000000000E+00 0.  1.
         -1   -1    0    0    0  501 -0.00000000000E+00 -0.00000000000E+00 -0.10419197207E+03  0.10419197207E+03  0.00000000000E+00 0. -1.
          5    1    1    2  502    0 -0.47496851626E+02 -0.21263251385E+02 -0.57564001884E+02  0.77712054964E+02  0.41800000000E+01 0. -1.
         -5    1    1    2    0  502  0.45599739399E+02  0.22966374682E+02  0.16739377724E+02  0.53893132827E+02  0.41800000000E+01 0. -1.
        -11    1    1    2    0    0  0.88749041772E+01  0.23242704322E+02 -0.69894587011E+01  0.25842595870E+02  0.00000000000E+00 0. -1.
         11    1    1    2    0    0 -0.69777919506E+01 -0.24945827619E+02  0.10589687485E+03  0.10901895248E+03  0.00000000000E+00 0.  1.
</event>
<event>
 6    1  0.9216756E-006  0.9389809E+02  0.7561462E-02  0.1293677E+00
          1   -1    0    0  501    0  0.00000000000E+00  0.00000000000E+00  0.26491030093E+03  0.26491030093E+03  0.00000000000E+00 0. -1.
         -1   -1    0    0    0  501 -0.00000000000E+00 -0.00000000000E+00 -0.71067654939E+02  0.71067654939E+02  0.00000000000E+00 0.  1.
          5    1    1    2  502    0  0.19176131911E+02 -0.12934671808E+02 -0.29985837643E+02  0.38100559432E+02  0.41800000000E+01 0.  1.
         -5    1    1    2    0  502  0.75474985381E+01  0.78717242722E+02  0.84279754923E+02  0.11564565935E+03  0.41800000000E+01 0.  1.
        -11    1    1    2    0    0 -0.37743226998E+02 -0.31722489965E+02  0.13386280957E+02  0.51088747016E+02  0.00000000000E+00 0.  1.
         11    1    1    2    0    0  0.11019596549E+02 -0.34060080949E+02  0.12616244775E+03  0.13114299008E+03  0.00000000000E+00 0. -1.
</event>
<event>
 6    1  0.9216756E-006  0.8660455E+02  0.7561462E-02  0.1311289E+00
         -1   -1    0    0    0  501 -0.00000000000E+00  0.00000000000E+00  0.18430957787E+03  0.18430957787E+03  0.00000000000E+00 0.  1.
          1   -1    0    0  501    0  0.00000000000E+00 -0.00000000000E+00 -0.75596116417E+02  0.75596116417E+02  0.00000000000E+00 0. -1.
          5    1    1    2  502    0 -0.14778725720E+02 -0.48139239083E+02  0.11363617002E+03  0.12436417736E+03  0.41800000000E+01 0. -1.
         -5    1    1    2    0  502  0.28574142332E+02  0.12338119949E+02 -0.19365202400E+02  0.36894366479E+02  0.41800000000E+01 0. -1.
        -11    1    1    2    0    0 -0.17045372968E+02  0.62294119209E+02 -0.62334849512E+01  0.64884191929E+02  0.00000000000E+00 0. -1.
         11    1    1    2    0    0  0.32499563558E+01 -0.26493000075E+02  0.20675978785E+02  0.33762958520E+02  0.00000000000E+00 0.  1.
</event>
<event>
 6    1  0.9216756E-006  0.1566235E+03  0.7561462E-02  0.1192562E+00
         -3   -1    0    0    0  501 -0.00000000000E+00  0.00000000000E+00  0.97060490482E+03  0.97060490482E+03  0.00000000000E+00 0.  1.
          3   -1    0    0  501    0  0.00000000000E+00 -0.00000000000E+00 -0.29598816934E+02  0.29598816934E+02  0.00000000000E+00 0. -1.
          5    1    1    2  502    0  0.38139574875E+02 -0.70034815335E+02  0.17430441000E+03  0.19172637345E+03  0.41800000000E+01 0.  1.
         -5    1    1    2    0  502 -0.83260062000E+02 -0.51363148187E+02  0.30187789384E+03  0.31736122338E+03  0.41800000000E+01 0.  1.
        -11    1    1    2    0    0  0.28241188321E+02  0.25338310491E+02  0.39570051503E+02  0.54821379701E+02  0.00000000000E+00 0. -1.
         11    1    1    2    0    0  0.16879298804E+02  0.96059653031E+02  0.42525373253E+03  0.43629474521E+03  0.00000000000E+00 0.  1.
</event>
<event>
 6    1  0.9216756E-006  0.1114161E+03  0.7561462E-02  0.1257970E+00
         -2   -1    0    0    0  501 -0.00000000000E+00  0.00000000000E+00  0.21370236987E+02  0.21370236987E+02  0.00000000000E+00 0.  1.
          2   -1    0    0  501    0  0.00000000000E+00 -0.00000000000E+00 -0.60199299568E+03  0.60199299568E+03  0.00000000000E+00 0. -1.
          5    1    1    2  502    0  0.23874499111E+02  0.33140529980E+02 -0.70034338588E+02  0.81182309751E+02  0.41800000000E+01 0. -1.
         -5    1    1    2    0  502 -0.37577741648E+02 -0.82485892384E+02 -0.25583703501E+03  0.27145178208E+03  0.41800000000E+01 0. -1.
        -11    1    1    2    0    0 -0.31088240285E+02  0.25988197497E+02 -0.12886790681E+03  0.13508812864E+03  0.00000000000E+00 0.  1.
         11    1    1    2    0    0  0.44791482822E+02  0.23357164907E+02 -0.12588347829E+03  0.13564101220E+03  0.00000000000E+00 0. -1.
</event>
<event>
 6    1  0.9216756E-006  0.3209572E+03  0.7561462E-02  0.1075210E+00
         -1   -1    0    0    0  501 -0.00000000000E+00  0.00000000000E+00  0.15460408213E+03  0.15460408213E+03  0.00000000000E+00 0.  1.
          1   -1    0    0  501    0  0.00000000000E+00 -0.00000000000E+00 -0.13495859325E+04  0.13495859325E+04  0.00000000000E+00 0. -1.
          5    1    1    2  502    0 -0.12561180569E+03  0.25255427593E+02 -0.37005872554E+02  0.13342814304E+03  0.41800000000E+01 0. -1.
         -5    1    1    2    0  502 -0.16818804525E+03 -0.11272350677E+03 -0.38035171668E+02  0.20605328007E+03  0.41800000000E+01 0. -1.
        -11    1    1    2    0    0  0.12279869800E+03  0.91899094482E+01 -0.31798413112E+03  0.34099542858E+03  0.00000000000E+00 0.  1.
         11    1    1    2    0    0  0.17100115294E+03  0.78278169733E+02 -0.80195667503E+03  0.82371316293E+03  0.00000000000E+00 0. -1.
</event>
<event>
 6    1  0.9216756E-006  0.1162734E+03  0.7561462E-02  0.1249375E+00
          1   -1    0    0  501    0  0.00000000000E+00  0.00000000000E+00  0.40581392870E+03  0.40581392870E+03  0.00000000000E+00 0. -1.
         -1   -1    0    0    0  501 -0.00000000000E+00 -0.00000000000E+00 -0.46094157650E+02  0.46094157650E+02  0.00000000000E+00 0.  1.
          5    1    1    2  502    0 -0.52037338030E+02 -0.43664054942E+02  0.88685053332E+02  0.11178973713E+03  0.41800000000E+01 0.  1.
         -5    1    1    2    0  502 -0.13760567349E+02  0.69530859331E+02  0.42329031742E+02  0.82662645381E+02  0.41800000000E+01 0.  1.
        -11    1    1    2    0    0 -0.59409645980E+01 -0.20728842558E+02  0.45421320723E+01  0.22036581811E+02  0.00000000000E+00 0.  1.
         11    1    1    2    0    0  0.71738869976E+02 -0.51379618304E+01  0.22416355390E+03  0.23541912203E+03  0.00000000000E+00 0. -1.
</event>
<event>
 6    1  0.9216756E-006  0.1215083E+03  0.7561462E-02  0.1240629E+00
          1   -1    0    0  501    0  0.00000000000E+00  0.00000000000E+00  0.20044543282E+02  0.20044543282E+02  0.00000000000E+00 0. -1.
         -1   -1    0    0    0  501 -0.00000000000E+00 -0.00000000000E+00 -0.75559383197E+03  0.75559383197E+03  0.00000000000E+00 0.  1.
          5    1    1    2  502    0  0.34422833880E+02 -0.19902814260E+02 -0.10068198851E+03  0.10832999916E+03  0.41800000000E+01 0. -1.
         -5    1    1    2    0  502 -0.87579290561E+02  0.39192355236E+02 -0.33126992212E+03  0.34491072257E+03  0.41800000000E+01 0. -1.
        -11    1    1    2    0    0  0.17097010203E+02 -0.54183494348E+02 -0.18752802984E+03  0.19594621913E+03  0.00000000000E+00 0.  1.
         11    1    1    2    0    0  0.36059446477E+02  0.34893953373E+02 -0.11606934822E+03  0.12645143439E+03  0.00000000000E+00 0. -1.
</event>
<event>
 6    1  0.9216756E-006  0.1225489E+03  0.7561462E-02  0.1238950E+00
          2   -1    0    0  501    0  0.00000000000E+00  0.00000000000E+00  0.21855427281E+02  0.21855427281E+02  0.00000000000E+00 0. -1.
         -2   -1    0    0    0  501 -0.00000000000E+00 -0.00000000000E+00 -0.90619103565E+03  0.90619103565E+03  0.00000000000E+00 0.  1.
          5    1    1    2  502    0 -0.31539419035E+02 -0.45462042240E+02 -0.20403331636E+03  0.21144407966E+03  0.41800000000E+01 0. -1.
         -5    1    1    2    0  502  0.76016501459E+02 -0.48051982701E+01 -0.48367522235E+03  0.48965374658E+03  0.41800000000E+01 0.  1.
        -11    1    1    2    0    0 -0.52342617000E+02  0.72683948255E+02 -0.15606929213E+03  0.17994535235E+03  0.00000000000E+00 0. -1.
         11    1    1    2    0    0  0.78655345759E+01 -0.22416707745E+02 -0.40557777528E+02  0.47003284336E+02  0.00000000000E+00 0.  1.
</event>
<event>
 6    1  0.9216756E-006  0.1146156E+03  0.7561462E-02  0.1252254E+00
          1   -1    0    0  501    0  0.00000000000E+00  0.00000000000E+00  0.39963537388E+03  0.39963537388E+03  0.00000000000E+00 0. -1.
         -1   -1    0    0    0  501 -0.00000000000E+00 -0.00000000000E+00 -0.48191123515E+02  0.48191123515E+02  0.00000000000E+00 0.  1.
          5    1    1    2  502    0  0.56575641265E+02 -0.70407446618E+02  0.13469478348E+03  0.16222875460E+03  0.41800000000E+01 0.  1.
         -5    1    1    2    0  502  0.76580640844E+01  0.29693511084E+02 -0.73383757994E+01  0.31806834256E+02  0.41800000000E+01 0.  1.
        -11    1    1    2    0    0 -0.56349694374E+02 -0.94046411623E+01  0.63677867970E+02  0.85548852713E+02  0.00000000000E+00 0.  1.
         11    1    1    2    0    0 -0.78840109761E+01  0.50118576696E+02  0.16040997472E+03  0.16824205583E+03  0.00000000000E+00 0. -1.
</event>
<event>
 6    1  0.9216756E-006  0.2634199E+03  0.7561462E-02  0.1105106E+00
         -1   -1    0    0    0  501 -0.00000000000E+00  0.00000000000E+00  0.36568205864E+02  0.36568205864E+02  0.00000000000E+00 0.  1.
          1   -1    0    0  501    0  0.00000000000E+00 -0.00000000000E+00 -0.19865261360E+04  0.19865261360E+04  0.00000000000E+00 0. -1.
          5    1    1    2  502    0 -0.22755763111E+02 -0.14563923544E+02 -0.78426268106E+02  0.83054708191E+02  0.41800000000E+01 0.  1.
         -5    1    1    2    0  502  0.16363125701E+03 -0.18425583185E+03 -0.77862067034E+03  0.81669640658E+03  0.41800000000E+01 0.  1.
        -11    1    1    2    0    0 -0.17467896157E+02 -0.17399758970E+01 -0.30905375649E+02  0.35542891783E+02  0.00000000000E+00 0.  1.
         11    1    1    2    0    0 -0.12340759774E+03  0.20055973129E+03 -0.10620056161E+04  0.10878003353E+04  0.00000000000E+00 0. -1.
</event>
<event>
 6    1  0.9216756E-006  0.1965224E+03  0.7561462E-02  0.1152707E+00
          2   -1    0    0  501    0  0.00000000000E+00  0.00000000000E+00  0.55919940032E+03  0.55919940032E+03  0.00000000000E+00 0. -1.
         -2   -1    0    0    0  501 -0.00000000000E+00 -0.00000000000E+00 -0.85953255604E+02  0.85953255604E+02  0.00000000000E+00 0.  1.
          5    1    1    2  502    0  0.20493068042E+01  0.63440260269E+02  0.60731466853E+02  0.87946857519E+02  0.41800000000E+01 0. -1.
         -5    1    1    2    0  502 -0.13848873492E+03  0.39696102021E+02  0.61722464759E+02  0.15678662338E+03  0.41800000000E+01 0. -1.
        -11    1    1    2    0    0  0.14130242195E+03 -0.81478836530E+02  0.25980392662E+03  0.30676253933E+03  0.00000000000E+00 0.  1.
         11    1    1    2    0    0 -0.48629938283E+01 -0.21657525759E+02  0.90988286481E+02  0.93656635685E+02  0.00000000000E+00 0. -1.
</event>
<event>
 6    1  0.9216756E-006  0.1606429E+03  0.7561462E-02  0.1187973E+00
          1   -1    0    0  501    0  0.00000000000E+00  0.00000000000E+00  0.64694285191E+02  0.64694285191E+02  0.00000000000E+00 0. -1.
         -1   -1    0    0    0  501 -0.00000000000E+00 -0.00000000000E+00 -0.52522755971E+03  0.52522755971E+03  0.00000000000E+00 0.  1.
          5    1    1    2  502    0  0.27376646254E+02  0.58096783672E+02 -0.10835277945E+03  0.12602584754E+03  0.41800000000E+01 0. -1.
         -5    1    1    2    0  502 -0.47146994827E+02 -0.37503228180E+02 -0.17198548001E+03  0.18227948041E+03  0.41800000000E+01 0. -1.
        -11    1    1    2    0    0 -0.17750224882E+02  0.83772088509E+02 -0.13909439017E+03  0.16334038898E+03  0.00000000000E+00 0. -1.
         11    1    1    2    0    0  0.37520573455E+02 -0.10436564400E+03 -0.41100624885E+02  0.11827612796E+03  0.00000000000E+00 0.  1.
</event>
<event>
 6    1  0.9216756E-006  0.1742936E+03  0.7561462E-02  0.1173443E+00
          2   -1    0    0  501    0  0.00000000000E+00  0.00000000000E+00  0.49812414952E+03  0.49812414952E+03  0.00000000000E+00 0. -1.
         -2   -1    0    0    0  501 -0.00000000000E+00 -0.00000000000E+00 -0.68803612795E+02  0.68803612795E+02  0.00000000000E+00 0.  1.
          5    1    1    2  502    0  0.18559350823E+02  0.13328690753E+02 -0.48230525926E+01  0.23724201493E+02  0.41800000000E+01 0.  1.
         -5    1    1    2    0  502 -0.12474485535E+03  0.89623671000E+02  0.18879826552E+03  0.24342542760E+03  0.41800000000E+01 0.  1.
        -11    1    1    2    0    0  0.12088342873E+03 -0.81866423020E+02  0.19943273741E+03  0.24716053753E+03  0.00000000000E+00 0.  1.
         11    1    1    2    0    0 -0.14697924203E+02 -0.21085938733E+02  0.45912586393E+02  0.52617595702E+02  0.00000000000E+00 0. -1.
</event>
<event>
 6    1  0.9216756E-006  0.1121294E+03  0.7561462E-02  0.1256677E+00
          2   -1    0    0  501    0  0.00000000000E+00  0.00000000000E+00  0.44699027262E+03  0.44699027262E+03  0.00000000000E+00 0. -1.
         -2   -1    0    0    0  501 -0.00000000000E+00 -0.00000000000E+00 -0.36493835498E+02  0.36493835498E+02  0.00000000000E+00 0.  1.
          5    1    1    2  502    0 -0.15956934142E+02 -0.44805493777E+02  0.32063971765E+02  0.57512839481E+02  0.41800000000E+01 0.  1.
         -5    1    1    2    0  502  0.29304220969E+02  0.74595735967E+02  0.84859355925E+02  0.11679830427E+03  0.41800000000E+01 0.  1.
        -11    1    1    2    0    0 -0.42058322671E+01  0.32767841146E+02  0.83697999442E+02  0.89982084600E+02  0.00000000000E+00 0.  1.
         11    1    1    2    0    0 -0.91414545601E+01 -0.62558083336E+02  0.20987510999E+03  0.21919087977E+03  0.00000000000E+00 0. -1.
</event>
<event>
 6    1  0.9216756E-006  0.1312478E+03  0.7561462E-02  0.1225616E+00
         -1   -1    0    0    0  501 -0.00000000000E+00  0.00000000000E+00  0.15274613881E+02  0.15274613881E+02  0.00000000000E+00 0.  1.
          1   -1    0    0  501    0  0.00000000000E+00 -0.00000000000E+00 -0.15058600918E+04  0.15058600918E+04  0.00000000000E+00 0. -1.
          5    1    1    2  502    0 -0.66797251367E+02  0.52612393984E+02 -0.28384935211E+03  0.29634079012E+03  0.41800000000E+01 0.  1.
         -5    1    1    2    0  502 -0.33453366821E+02 -0.28943403175E+02 -0.64569510464E+03  0.64722213258E+03  0.41800000000E+01 0.  1.
        -11    1    1    2    0    0  0.57965041130E+02  0.29465046120E+02 -0.20339432454E+03  0.21353544481E+03  0.00000000000E+00 0.  1.
         11    1    1    2    0    0  0.42285577057E+02 -0.53134036929E+02 -0.35764669663E+03  0.36403633819E+03  0.00000000000E+00 0. -1.
</event>
<event>
 6    1  0.9216756E-006  0.1426619E+03  0.7561462E-02  0.1209791E+00
         -1   -1    0    0    0  501 -0.00000000000E+00  0.00000000000E+00  0.59832730869E+02  0.59832730869E+02  0.00000000000E+00 0.  1.
          1   -1    0    0  501    0  0.00000000000E+00 -0.00000000000E+00 -0.36835668628E+03  0.36835668628E+03  0.00000000000E+00 0. -1.
          5    1    1    2  502    0 -0.23953320176E+02 -0.26078475436E+02 -0.13693369144E+02  0.38194622489E+02  0.41800000000E+01 0.  1.
         -5    1    1    2    0  502 -0.82951498158E+01  0.11967957513E+03 -0.12327606041E+03  0.17206530645E+03  0.41800000000E+01 0.  1.
        -11    1    1    2    0    0  0.58220251364E+02 -0.41769141317E+02 -0.65582297807E+02  0.97135455015E+02  0.00000000000E+00 0.  1.
         11    1    1    2    0    0 -0.25971781372E+02 -0.51831958379E+02 -0.10597222806E+03  0.12079403320E+03  0.00000000000E+00 0. -1.
</event>
<event>
 6    1  0.9216756E-006  0.1219941E+03  0.7561462E-02  0.1239843E+00
          2   -1    0    0  501    0  0.00000000000E+00  0.00000000000E+00  0.90642076736E+03  0.90642076736E+03  0.00000000000E+00 0. -1.
         -2   -1    0    0    0  501 -0.00000000000E+00 -0.00000000000E+00 -0.22599689153E+02  0.22599689153E+02  0.00000000000E+00 0.  1.
          5    1    1    2  502    0 -0.85278875544E+02 -0.32300273216E+02  0.15058610781E+03  0.17609498155E+03  0.41800000000E+01 0.  1.
         -5    1    1    2    0  502  0.14654847502E+02 -0.20442872718E+02  0.27476228417E+03  0.27594285786E+03  0.41800000000E+01 0.  1.
        -11    1    1    2    0    0  0.45615344129E+02 -0.20351112059E+02  0.12353561372E+03  0.13325154874E+03  0.00000000000E+00 0.  1.
         11    1    1    2    0    0  0.25008683912E+02  0.73094257993E+02  0.33493707251E+03  0.34373106837E+03  0.00000000000E+00 0. -1.
</event>
<event>
 6    1  0.9216756E-006  0.7841106E+02  0.7561462E-02  0.1333622E+00
         -2   -1    0    0    0  501 -0.00000000000E+00  0.00000000000E+00  0.14935654923E+02  0.14935654923E+02  0.00000000000E+00 0.  1.
          2   -1    0    0  501    0  0.00000000000E+00 -0.00000000000E+00 -0.85797827101E+03  0.85797827101E+03  0.00000000000E+00 0. -1.
          5    1    1    2  502    0  0.21202667882E+02 -0.11386300350E+02 -0.10364339201E+02  0.26534748690E+02  0.41800000000E+01 0. -1.
         -5    1    1    2    0  502 -0.33315719834E+02 -0.12605982705E+02 -0.44556412009E+03  0.44700526339E+03  0.41800000000E+01 0. -1.
        -11    1    1    2    0    0 -0.12813695825E+02 -0.32417545034E+02 -0.17681928273E+03  0.18022249241E+03  0.00000000000E+00 0. -1.
         11    1    1    2    0    0  0.24926747777E+02  0.56409828088E+02 -0.21029487407E+03  0.21915142144E+03  0.00000000000E+00 0.  1.
</event>
<event>
 6    1  0.9216756E-006  0.5931530E+02  0.7561462E-02  0.1400728E+00
          2   -1    0    0  501    0  0.00000000000E+00  0.00000000000E+00  0.40232037746E+03  0.40232037746E+03  0.00000000000E+00 0. -1.
         -2   -1    0    0    0  501 -0.00000000000E+00 -0.00000000000E+00 -0.31673121524E+02  0.31673121524E+02  0.00000000000E+00 0.  1.
          5    1    1    2  502    0 -0.11181059794E+02 -0.28817790008E+02  0.17459038023E+03  0.17735488262E+03  0.41800000000E+01 0.  1.
         -5    1    1    2    0  502 -0.43741597115E+01 -0.52884580767E+01 -0.22036539397E+02  0.23455970041E+02  0.41800000000E+01 0.  1.
        -11    1    1    2    0    0 -0.25486282582E+02  0.28079334524E+02  0.13622887340E+03  0.14140829387E+03  0.00000000000E+00 0. -1.
         11    1    1    2    0    0  0.41041502087E+02  0.60269135606E+01  0.81864541693E+02  0.91774352448E+02  0.00000000000E+00 0.  1.
</event>
<event>
 6    1  0.9216756E-006  0.1328835E+03  0.7561462E-02  0.1223239E+00
          2   -1    0    0  501    0  0.00000000000E+00  0.00000000000E+00  0.30437268698E+03  0.30437268698E+03  0.00000000000E+00 0. -1.
         -2   -1    0    0    0  501 -0.00000000000E+00 -0.00000000000E+00 -0.89806802999E+02  0.89806802999E+02  0.00000000000E+00 0.  1.
          5    1    1    2  502    0 -0.37787606065E+02  0.94120832085E+02  0.17089393864E+03  0.19876831958E+03  0.41800000000E+01 0. -1.
         -5    1    1    2    0  502 -0.51533591533E+01  0.18610068249E+02 -0.22362160882E+02  0.29840080263E+02  0.41800000000E+01 0. -1.
        -11    1    1    2    0    0  0.66323907694E+02 -0.75080401942E+02  0.20943228773E+02  0.10234523105E+03  0.00000000000E+00 0.  1.
         11    1    1    2    0    0 -0.23382942476E+02 -0.37650498392E+02  0.45090877452E+02  0.63225859087E+02  0.00000000000E+00 0. -1.
</event>
<event>
 6    1  0.9216756E-006  0.9978628E+02  0.7561462E-02  0.1280746E+00
          4   -1    0    0  501    0  0.00000000000E+00  0.00000000000E+00  0.48975712640E+03  0.48975712640E+03  0.00000000000E+00 0.  1.
         -4   -1    0    0    0  501 -0.00000000000E+00 -0.00000000000E+00 -0.25931092291E+02  0.25931092291E+02  0.00000000000E+00 0. -1.
          5    1    1    2  502    0  0.37446448741E+02  0.91076351780E+02  0.24425179743E+03  0.26338859376E+03  0.41800000000E+01 0.  1.
         -5    1    1    2    0  502 -0.38975591153E+01 -0.27507147662E+02  0.97103806691E+01  0.29725376907E+02  0.41800000000E+01 0. -1.
        -11    1    1    2    0    0 -0.25066132520E+02 -0.56722400263E+02  0.19066245990E+03  0.20049417774E+03  0.00000000000E+00 0.  1.
         11    1    1    2    0    0 -0.84827571057E+01 -0.68468038553E+01  0.19201396109E+02  0.22080070283E+02  0.00000000000E+00 0. -1.
</event>
<event>
 6    1  0.9216756E-006  0.1037575E+03  0.7561462E-02  0.1272587E+00
          2   -1    0    0  501    0  0.00000000000E+00  0.00000000000E+00  0.96153642580E+03  0.96153642580E+03  0.00000000000E+00 0. -1.
         -2   -1    0    0    0  501 -0.00000000000E+00 -0.00000000000E+00 -0.13659093597E+02  0.13659093597E+02  0.00000000000E+00 0.  1.
          5    1    1    2  502    0  0.42962400949E+02  0.28718641737E+01  0.73675884051E+02  0.85437835821E+02  0.41800000000E+01 0.  1.
         -5    1    1    2    0  502 -0.57744410374E+02 -0.33360209219E+02  0.40482458841E+03  0.41030201105E+03  0.41800000000E+01 0.  1.
        -11    1    1    2    0    0 -0.22717342882E+02 -0.22858502374E+02  0.17506411901E+03  0.17800571497E+03  0.00000000000E+00 0. -1.
         11    1    1    2    0    0  0.37499352307E+02  0.53346847420E+02  0.29431274074E+03  0.30144995756E+03  0.00000000000E+00 0.  1.
</event>
<event>
 6    1  0.9216756E-006  0.7713790E+02  0.7561462E-02  0.1337376E+00
         -2   -1    0    0    0  501 -0.00000000000E+00  0.00000000000E+00  0.54219968622E+02  0.54219968622E+02  0.00000000000E+00 0.  1.
          2   -1    0    0  501    0  0.00000000000E+00 -0.00000000000E+00 -0.38595072299E+03  0.38595072299E+03  0.00000000000E+00 0. -1.
          5    1    1    2  502    0 -0.81513804932E+01  0.55138875496E+01 -0.12614228759E+03  0.12659461710E+03  0.41800000000E+01 0. -1.
         -5    1    1    2    0  502  0.16227135547E+02  0.44317359482E+02  0.29698786868E+02  0.55918142145E+02  0.41800000000E+01 0.  1.
        -11    1    1    2    0    0 -0.34884787453E+02  0.49312546235E+01 -0.41154284104E+02  0.54175093613E+02  0.00000000000E+00 0. -1.
         11    1    1    2    0    0  0.26809032399E+02 -0.54762501655E+02 -0.19413296954E+03  0.20348283876E+03  0.00000000000E+00 0.  1.
</event>
<event>
 6    1  0.9216756E-006  0.1429226E+03  0.7561462E-02  0.1209450E+00
          1   -1    0    0  501    0  0.00000000000E+00  0.00000000000E+00  0.31116975985E+03  0.31116975985E+03  0.00000000000E+00 0. -1.
         -1   -1    0    0    0  501 -0.00000000000E+00 -0.00000000000E+00 -0.87336375392E+02  0.87336375392E+02  0.00000000000E+00 0.  1.
          5    1    1    2  502    0  0.10784016784E+03 -0.39203040907E+02  0.11002683225E+03  0.15902753357E+03  0.41800000000E+01 0. -1.
         -5    1    1    2    0  502  0.14445420039E+02  0.38934519146E+02 -0.94020959355E+01  0.42783627117E+02  0.41800000000E+01 0. -1.
        -11    1    1    2    0    0 -0.96814246890E+02 -0.17294716503E+02  0.13192709459E+03  0.16455049045E+03  0.00000000000E+00 0. -1.
         11    1    1    2    0    0 -0.25471340992E+02  0.17563238264E+02 -0.87184464493E+01  0.32144484111E+02  0.00000000000E+00 0.  1.
</event>
<event>
 6    1  0.9216756E-006  0.1698961E+03  0.7561462E-02  0.1177956E+00
          1   -1    0    0  501    0  0.00000000000E+00  0.00000000000E+00  0.21123656402E+03  0.21123656402E+03  0.00000000000E+00 0. -1.
         -1   -1    0    0    0  501 -0.00000000000E+00 -0.00000000000E+00 -0.18841492890E+03  0.18841492890E+03  0.00000000000E+00 0.  1.
          5    1    1    2  502    0  0.11551574352E+03  0.59698175432E+02  0.54350065009E+02  0.14099347899E+03  0.41800000000E+01 0.  1.
         -5    1    1    2    0  502  0.28337635142E+02  0.18798962321E+02 -0.55440596608E+02  0.65173266774E+02  0.41800000000E+01 0.  1.
        -11    1    1    2    0    0 -0.19264198056E+02 -0.41037551495E+02  0.42408267595E+02  0.62077782820E+02  0.00000000000E+00 0. -1.
         11    1    1    2    0    0 -0.12458918061E+03 -0.37459586258E+02 -0.18496100878E+02  0.13140696433E+03  0.00000000000E+00 0.  1.
</event>
<event>
 6    1  0.9216756E-006  0.1458058E+03  0.7561462E-02  0.1205724E+00
          2   -1    0    0  501    0  0.00000000000E+00  0.00000000000E+00  0.37690477559E+02  0.37690477559E+02  0.00000000000E+00 0. -1.
         -2   -1    0    0    0  501 -0.00000000000E+00 -0.00000000000E+00 -0.63072427207E+03  0.63072427207E+03  0.00000000000E+00 0.  1.
          5    1    1    2  502    0  0.47429204780E+02 -0.12111683753E+03 -0.33876036813E+03  0.36289788814E+03  0.41800000000E+01 0.  1.
         -5    1    1    2    0  502 -0.27025109683E+02  0.17677563244E+02 -0.63690711835E+02  0.71532034570E+02  0.41800000000E+01 0.  1.
        -11    1    1    2    0    0  0.22420903170E+02  0.71614318231E+01 -0.69987504051E+02  0.73839242467E+02  0.00000000000E+00 0.  1.
         11    1    1    2    0    0 -0.42824998267E+02  0.96277842464E+02 -0.12059521049E+03  0.16014558445E+03  0.00000000000E+00 0. -1.
</event>
<event>
 6    1  0.9216756E-006  0.1342932E+03  0.7561462E-02  0.1221221E+00
         -2   -1    0    0    0  501 -0.00000000000E+00  0.00000000000E+00  0.20210299428E+02  0.20210299428E+02  0.00000000000E+00 0.  1.
          2   -1    0    0  501    0  0.00000000000E+00 -0.00000000000E+00 -0.99074597772E+03  0.99074597772E+03  0.00000000000E+00 0. -1.
          5    1    1    2  502    0  0.10913369491E+03 -0.33654767882E+02 -0.28474134055E+03  0.30681901861E+03  0.41800000000E+01 0.  1.
         -5    1    1    2    0  502 -0.33658633939E+02  0.57531761481E+01 -0.91722409390E+02  0.97961601961E+02  0.41800000000E+01 0.  1.
        -11    1    1    2    0    0  0.98485335918E-01  0.42862838584E+02 -0.24284870115E+03  0.24660236065E+03  0.00000000000E+00 0. -1.
         11    1    1    2    0    0 -0.75573546310E+02 -0.14961246850E+02 -0.35122322721E+03  0.35957329592E+03  0.00000000000E+00 0.  1.
</event>
<event>
 6    1  0.9216756E-006  0.1162559E+03  0.7561462E-02  0.1249405E+00
          1   -1    0    0  501    0  0.00000000000E+00  0.00000000000E+00  0.45740624216E+02  0.45740624216E+02  0.00000000000E+00 0. -1.
         -1   -1    0    0    0  501 -0.00000000000E+00 -0.00000000000E+00 -0.54885291702E+03  0.54885291702E+03  0.00000000000E+00 0.  1.
          5    1    1    2  502    0 -0.45034044681E+02  0.33965083001E+02 -0.34653113109E+03  0.35111677439E+03  0.41800000000E+01 0.  1.
         -5    1    1    2    0  502  0.41217601917E+02  0.44063697386E+02 -0.80670419378E+02  0.10082504202E+03  0.41800000000E+01 0.  1.
        -11    1    1    2    0    0  0.26759555463E+02  0.67857026239E+01 -0.17279250094E+01  0.27660536754E+02  0.00000000000E+00 0. -1.
         11    1    1    2    0    0 -0.22943112700E+02 -0.84814483011E+02 -0.74182817334E+02  0.11499118808E+03  0.00000000000E+00 0.  1.
</event>
<event>
 6    1  0.9216756E-006  0.1087253E+03  0.7561462E-02  0.1262949E+00
         -2   -1    0    0    0  501 -0.00000000000E+00  0.00000000000E+00  0.17559029474E+03  0.17559029474E+03  0.00000000000E+00 0.  1.
          2   -1    0    0  501    0  0.00000000000E+00 -0.00000000000E+00 -0.98836181026E+02  0.98836181026E+02  0.00000000000E+00 0. -1.
          5    1    1    2  502    0  0.11904118688E+02 -0.38625540988E+02  0.70332275370E+01  0.41238078858E+02  0.41800000000E+01 0. -1.
         -5    1    1    2    0  502 -0.66591733321E+02  0.64915958031E+02  0.80349961086E+02  0.12297206675E+03  0.41800000000E+01 0. -1.
        -11    1    1    2    0    0  0.37806489124E+02 -0.44835396339E+02  0.27344751277E+02  0.64709186420E+02  0.00000000000E+00 0.  1.
         11    1    1    2    0    0  0.16881125509E+02  0.18544979296E+02 -0.37973826190E+02  0.45507143736E+02  0.00000000000E+00 0. -1.
</event>
<event>
 6    1  0.9216756E-006  0.1053747E+03  0.7561462E-02  0.1269383E+00
          2   -1    0    0  501    0  0.00000000000E+00  0.00000000000E+00  0.12481784045E+04  0.12481784045E+04  0.00000000000E+00 0. -1.
         -2   -1    0    0    0  501 -0.00000000000E+00 -0.00000000000E+00 -0.72264819252E+02  0.72264819252E+02  0.00000000000E+00 0.  1.
          5    1    1    2  502    0  0.47635587343E+02 -0.67163136982E+02  0.93669147827E+03  0.94031294472E+03  0.41800000000E+01 0. -1.
         -5    1    1    2    0  502 -0.12094032443E+02  0.15611809318E+02 -0.58918658884E+02  0.62280614766E+02  0.41800000000E+01 0.  1.
        -11    1    1    2    0    0 -0.21360850684E+02  0.76496238477E+02  0.24361524709E+03  0.25623494894E+03  0.00000000000E+00 0.  1.
         11    1    1    2    0    0 -0.14180704216E+02 -0.24944910812E+02  0.54525518800E+02  0.61614715352E+02  0.00000000000E+00 0. -1.
</event>
<event>
 6    1  0.9216756E-006  0.1437769E+03  0.7561462E-02  0.1208335E+00
         -2   -1    0    0    0  501 -0.00000000000E+00  0.00000000000E+00  0.27359560704E+03  0.27359560704E+03  0.00000000000E+00 0.  1.
          2   -1    0    0  501    0  0.00000000000E+00 -0.00000000000E+00 -0.89053191478E+02  0.89053191478E+02  0.00000000000E+00 0. -1.
          5    1    1    2  502    0  0.70154948773E+02 -0.30323166844E+02  0.99082340355E+01  0.77180676250E+02  0.41800000000E+01 0. -1.
         -5    1    1    2    0  502 -0.16825499396E+02 -0.66026326431E+02  0.10505162039E+03  0.12528323335E+03  0.41800000000E+01 0. -1.
        -11    1    1    2    0    0 -0.35596419376E+02 -0.83449875072E+01  0.28388135576E+02  0.46288552909E+02  0.00000000000E+00 0.  1.
         11    1    1    2    0    0 -0.17733030002E+02  0.10469448078E+03  0.41194425561E+02  0.11389633601E+03  0.00000000000E+00 0. -1.
</event>
<event>
 6    1  0.9216756E-006  0.1122732E+03  0.7561462E-02  0.1256417E+00
          1   -1    0    0  501    0  0.00000000000E+00  0.00000000000E+00  0.25362116651E+03  0.25362116651E+03  0.00000000000E+00 0. -1.
         -1   -1    0    0    0  501 -0.00000000000E+00 -0.00000000000E+00 -0.56153486510E+02  0.56153486510E+02  0.00000000000E+00 0.  1.
          5    1    1    2  502    0 -0.13788573380E+02 -0.61597977462E+02  0.38843387710E+02  0.74234202037E+02  0.41800000000E+01 0. -1.
         -5    1    1    2    0  502  0.48674689808E+02  0.46413377495E+02  0.35266594993E+02  0.76056769329E+02  0.41800000000E+01 0. -1.
        -11    1    1    2    0    0 -0.48853482996E+02  0.41504150561E+02  0.10889727273E+03  0.12636405076E+03  0.00000000000E+00 0. -1.
         11    1    1    2    0    0  0.13967366569E+02 -0.26319550594E+02  0.14460424565E+02  0.33119630899E+02  0.00000000000E+00 0.  1.
</event>
<event>
 6    1  0.9216756E-006  0.1022891E+03  0.7561462E-02  0.1275555E+00
         -2   -1    0    0    0  501 -0.00000000000E+00  0.00000000000E+00  0.61441105382E+03  0.61441105382E+03  0.00000000000E+00 0.  1.
          2   -1    0    0  501    0  0.00000000000E+00 -0.00000000000E+00 -0.53279686596E+02  0.53279686596E+02  0.00000000000E+00 0. -1.
          5    1    1    2  502    0 -0.18756028585E+02  0.69734767140E+02  0.21013249657E+03  0.22223380677E+03  0.41800000000E+01 0.  1.
         -5    1    1    2    0  502  0.25017038657E+02 -0.35800965924E+02  0.34961452183E+03  0.35235684704E+03  0.41800000000E+01 0.  1.
        -11    1    1    2    0    0  0.36470278524E+02 -0.51133106413E+01  0.15039962266E+02  0.39779738892E+02  0.00000000000E+00 0.  1.
         11    1    1    2    0    0 -0.42731288597E+02 -0.28820490575E+02 -0.13655613437E+02  0.53320347715E+02  0.00000000000E+00 0. -1.
</event>
<event>
 6    1  0.9216756E-006  0.1368874E+03  0.7561462E-02  0.1217580E+00
         -2   -1    0    0    0  501 -0.00000000000E+00  0.00000000000E+00  0.57368461279E+02  0.57368461279E+02  0.00000000000E+00 0.  1.
          2   -1    0    0  501    0  0.00000000000E+00 -0.00000000000E+00 -0.34398870666E+03  0.34398870666E+03  0.00000000000E+00 0. -1.
          5    1    1    2  502    0 -0.12704780530E+02  0.79666629176E+02 -0.90014745386E+02  0.12094755078E+03  0.41800000000E+01 0. -1.
         -5    1    1    2    0  502  0.67485716138E+02 -0.12836028293E+02 -0.43730259093E+02  0.81540747269E+02  0.41800000000E+01 0. -1.
        -11    1    1    2    0    0 -0.63658676714E+02 -0.74076733535E+01 -0.57251903406E+02  0.85936495094E+02  0.00000000000E+00 0. -1.
         11    1    1    2    0    0  0.88777411062E+01 -0.59422927529E+02 -0.95623337494E+02  0.11293237479E+03  0.00000000000E+00 0.  1.
</event>
<event>
 6    1  0.9216756E-006  0.7438987E+02  0.7561462E-02  0.1345771E+00
          2   -1    0    0  501    0  0.00000000000E+00  0.00000000000E+00  0.11088407281E+03  0.11088407281E+03  0.00000000000E+00 0. -1.
         -2   -1    0    0    0  501 -0.00000000000E+00 -0.00000000000E+00 -0.12904386278E+03  0.12904386278E+03  0.00000000000E+00 0.  1.
          5    1    1    2  502    0  0.40939136545E+02 -0.20754364989E+02 -0.75282787426E+02  0.88270759880E+02  0.41800000000E+01 0.  1.
         -5    1    1    2    0  502 -0.13380613869E+02 -0.16951534837E+02  0.43711257569E+02  0.48934055617E+02  0.41800000000E+01 0.  1.
        -11    1    1    2    0    0 -0.41889685317E+02  0.47502111584E+02  0.37065514450E+02  0.73382891074E+02  0.00000000000E+00 0. -1.
         11    1    1    2    0    0  0.14331162641E+02 -0.97962117581E+01 -0.23653774568E+02  0.29340229017E+02  0.00000000000E+00 0.  1.
</event>
<event>
 6    1  0.9216756E-006  0.1680794E+03  0.7561462E-02  0.1179866E+00
         -1   -1    0    0    0  501 -0.00000000000E+00  0.00000000000E+00  0.23305107832E+02  0.23305107832E+02  0.00000000000E+00 0.  1.
          1   -1    0    0  501    0  0.00000000000E+00 -0.00000000000E+00 -0.14312132905E+04  0.14312132905E+04  0.00000000000E+00 0. -1.
          5    1    1    2  502    0  0.20543567639E+02 -0.15118470557E+02 -0.17572390894E+03  0.17761466971E+03  0.41800000000E+01 0. -1.
         -5    1    1    2    0  502 -0.15478123064E+03  0.25015515915E+02 -0.78008900667E+03  0.79570053169E+03  0.41800000000E+01 0. -1.
        -11    1    1    2    0    0  0.10384195347E+03 -0.39439306631E+02 -0.23398862412E+03  0.25901599647E+03  0.00000000000E+00 0.  1.
         11    1    1    2    0    0  0.30395709533E+02  0.29542261273E+02 -0.21810664295E+03  0.22218720048E+03  0.00000000000E+00 0. -1.
</event>
<event>
 6    1  0.9216756E-006  0.1479563E+03  0.7561462E-02  0.1203007E+00
         -1   -1    0    0    0  501 -0.00000000000E+00  0.00000000000E+00  0.20846010159E+03  0.20846010159E+03  0.00000000000E+00 0.  1.
          1   -1    0    0  501    0  0.00000000000E+00 -0.00000000000E+00 -0.12220710740E+03  0.12220710740E+03  0.00000000000E+00 0. -1.
          5    1    1    2  502    0 -0.75746547292E+02 -0.29123862719E+02  0.55251197804E+02  0.98264470003E+02  0.41800000000E+01 0.  1.
         -5    1    1    2    0  502  0.36272585785E+02 -0.75966248807E+02  0.24506198663E+02  0.87775837281E+02  0.41800000000E+01 0.  1.
        -11    1    1    2    0    0 -0.18182282462E+02  0.15845505168E+02 -0.24064647360E+02  0.34070260963E+02  0.00000000000E+00 0. -1.
         11    1    1    2    0    0  0.57656243968E+02  0.89244606359E+02  0.30560245081E+02  0.11055664074E+03  0.00000000000E+00 0.  1.
</event>
<event>
 6    1  0.9216756E-006  0.1234904E+03  0.7561462E-02  0.1237447E+00
         -2   -1    0    0    0  501 -0.00000000000E+00  0.00000000000E+00  0.47104961746E+03  0.47104961746E+03  0.00000000000E+00 0. -1.
          2   -1    0    0  501    0  0.00000000000E+00 -0.00000000000E+00 -0.38425678134E+02  0.38425678134E+02  0.00000000000E+00 0.  1.
          5    1    1    2  502    0  0.37807833738E+02  0.13032519454E+02  0.94462527366E+02  0.10266411414E+03  0.41800000000E+01 0. -1.
         -5    1    1    2    0  502 -0.87586635377E+02 -0.31049141743E+02  0.13385883251E+03  0.16300652545E+03  0.41800000000E+01 0. -1.
        -11    1    1    2    0    0 -0.16489448962E+02  0.40535468981E+02  0.22947543224E+02  0.49412710031E+02  0.00000000000E+00 0.  1.
         11    1    1    2    0    0  0.66268250601E+02 -0.22518846692E+02  0.18135503623E+03  0.19439194598E+03  0.00000000000E+00 0. -1.
</event>
<event>
 6    1  0.9216756E-006  0.6782124E+02  0.7561462E-02  0.1367663E+00
          2   -1    0    0  501    0  0.00000000000E+00  0.00000000000E+00  0.43270089262E+03  0.43270089262E+03  0.00000000000E+00 0. -1.
         -2   -1    0    0    0  501 -0.00000000000E+00 -0.00000000000E+00 -0.31335165508E+02  0.31335165508E+02  0.00000000000E+00 0.  1.
          5    1    1    2  502    0 -0.14630738729E+02  0.24906096232E+02 -0.64458187229E+01  0.29889682572E+02  0.41800000000E+01 0. -1.
         -5    1    1    2    0  502  0.29468731190E+02 -0.19910893216E+02  0.18652627431E+03  0.18993254907E+03  0.41800000000E+01 0. -1.
        -11    1    1    2    0    0  0.27834999504E+01 -0.35397421622E+02  0.20000581316E+03  0.20313308600E+03  0.00000000000E+00 0. -1.
         11    1    1    2    0    0 -0.17621492411E+02  0.30402218606E+02  0.21279458363E+02  0.41080740490E+02  0.00000000000E+00 0.  1.
</event>
<event>
 6    1  0.9216756E-006  0.7298104E+02  0.7561462E-02  0.1350240E+00
          2   -1    0    0  501    0  0.00000000000E+00  0.00000000000E+00  0.77280960214E+02  0.77280960214E+02  0.00000000000E+00 0. -1.
         -2   -1    0    0    0  501 -0.00000000000E+00 -0.00000000000E+00 -0.23136055279E+03  0.23136055279E+03  0.00000000000E+00 0.  1.
          5    1    1    2  502    0 -0.47293048296E+02  0.33399285602E+02 -0.13661299785E+02  0.59634287181E+02  0.41800000000E+01 0.  1.
         -5    1    1    2    0  502  0.19278786244E+02 -0.27844987178E+01 -0.14618997868E+03  0.14754120543E+03  0.41800000000E+01 0.  1.
        -11    1    1    2    0    0  0.14176227178E+00 -0.38910339242E+02 -0.34356971420E+02  0.51907957787E+02  0.00000000000E+00 0.  1.
         11    1    1    2    0    0  0.27872499780E+02  0.82955523577E+01  0.40128657304E+02  0.49558062613E+02  0.00000000000E+00 0. -1.
</event>
<event>
 6    1  0.9216756E-006  0.9980161E+02  0.7561462E-02  0.1280714E+00
          3   -1    0    0  501    0  0.00000000000E+00  0.00000000000E+00  0.22090866829E+03  0.22090866829E+03  0.00000000000E+00 0. -1.
         -3   -1    0    0    0  501 -0.00000000000E+00 -0.00000000000E+00 -0.86906108068E+02  0.86906108068E+02  0.00000000000E+00 0.  1.
          5    1    1    2  502    0 -0.25131670655E+01  0.72453812356E+02 -0.45891020153E+02  0.85903021276E+02  0.41800000000E+01 0. -1.
         -5    1    1    2    0  502 -0.60507191464E+01 -0.29009834759E+02  0.36412905102E+02  0.47133361570E+02  0.41800000000E+01 0. -1.
        -11    1    1    2    0    0 -0.11977702348E+02 -0.65693188399E+02  0.11619904395E+03  0.13401969322E+03  0.00000000000E+00 0.  1.
         11    1    1    2    0    0  0.20541588560E+02  0.22249210802E+02  0.27281631321E+02  0.40758700291E+02  0.00000000000E+00 0. -1.
</event>
<event>
 6    1  0.9216756E-006  0.1229143E+03  0.7561462E-02  0.1238365E+00
         -1   -1    0    0    0  501 -0.00000000000E+00  0.00000000000E+00  0.10531200911E+03  0.10531200911E+03  0.00000000000E+00 0.  1.
          1   -1    0    0  501    0  0.00000000000E+00 -0.00000000000E+00 -0.39033840840E+03  0.39033840840E+03  0.00000000000E+00 0. -1.
          5    1    1    2  502    0 -0.57421439841E+02 -0.54900250796E+02 -0.13282092481E+03  0.15482289805E+03  0.41800000000E+01 0. -1.
         -5    1    1    2    0  502 -0.28646822427E+02  0.44810699816E+02  0.68502952665E+02  0.86826068533E+02  0.41800000000E+01 0.  1.
        -11    1    1    2    0    0  0.98437270181E+02  0.26103705868E+01 -0.21811893435E+03  0.23931690228E+03  0.00000000000E+00 0. -1.
         11    1    1    2    0    0 -0.12369007913E+02  0.74791803932E+01 -0.25894927851E+01  0.14684548648E+02  0.00000000000E+00 0.  1.
</event>
<event>
 6    1  0.9216756E-006  0.8233754E+02  0.7561462E-02  0.1322546E+00
         -1   -1    0    0    0  501 -0.00000000000E+00  0.00000000000E+00  0.18044312834E+03  0.18044312834E+03  0.00000000000E+00 0.  1.
          1   -1    0    0  501    0  0.00000000000E+00 -0.00000000000E+00 -0.83712515338E+02  0.83712515338E+02  0.00000000000E+00 0. -1.
          5    1    1    2  502    0  0.50028363286E+02  0.35609769980E+02  0.90091676262E+02  0.10910946514E+03  0.41800000000E+01 0. -1.
         -5    1    1    2    0  502  0.77399569731E+01 -0.39909530143E+02 -0.20038266089E+02  0.45515733961E+02  0.41800000000E+01 0. -1.
        -11    1    1    2    0    0 -0.45071079882E+02  0.12949394651E+02  0.58033776075E+02  0.74612386566E+02  0.00000000000E+00 0.  1.
         11    1    1    2    0    0 -0.12697240377E+02 -0.86496344875E+01 -0.31356573243E+02  0.34918058014E+02  0.00000000000E+00 0. -1.
</event>
<event>
 6    1  0.9216756E-006  0.1132490E+03  0.7561462E-02  0.1254669E+00
         -2   -1    0    0    0  501 -0.00000000000E+00  0.00000000000E+00  0.10388681864E+03  0.10388681864E+03  0.00000000000E+00 0.  1.
          2   -1    0    0  501    0  0.00000000000E+00 -0.00000000000E+00 -0.27175064607E+03  0.27175064607E+03  0.00000000000E+00 0. -1.
          5    1    1    2  502    0  0.34316110977E+02  0.89961561741E+02  0.48712562264E+02  0.10798640741E+03  0.41800000000E+01 0.  1.
         -5    1    1    2    0  502  0.21859895833E+02 -0.16374771718E+02 -0.39154891485E+02  0.47922501206E+02  0.41800000000E+01 0.  1.
        -11    1    1    2    0    0 -0.33450774147E+02 -0.99192187080E+01 -0.59261902999E+01  0.35390181157E+02  0.00000000000E+00 0.  1.
         11    1    1    2    0    0 -0.22725232663E+02 -0.63667571316E+02 -0.17149530791E+03  0.18433837493E+03  0.00000000000E+00 0. -1.
</event>
<event>
 6    1  0.9216756E-006  0.7971733E+02  0.7561462E-02  0.1329856E+00
          1   -1    0    0  501    0  0.00000000000E+00  0.00000000000E+00  0.75934439322E+02  0.75934439322E+02  0.00000000000E+00 0. -1.
         -1   -1    0    0    0  501 -0.00000000000E+00 -0.00000000000E+00 -0.25142642471E+03  0.25142642471E+03  0.00000000000E+00 0.  1.
          5    1    1    2  502    0 -0.15040742697E+02 -0.44682715962E+02  0.15186543471E+02  0.49707872105E+02  0.41800000000E+01 0. -1.
         -5    1    1    2    0  502 -0.33039499389E+01 -0.32073907931E+02 -0.14029168430E+03  0.14401000222E+03  0.41800000000E+01 0. -1.
        -11    1    1    2    0    0  0.10527835493E+02  0.23340444188E+02  0.28334108873E+02  0.38189440696E+02  0.00000000000E+00 0. -1.
         11    1    1    2    0    0  0.78168571428E+01  0.53416179704E+02 -0.78720953434E+02  0.95453549014E+02  0.00000000000E+00 0.  1.
</event>
<event>
 6    1  0.9216756E-006  0.1168568E+03  0.7561462E-02  0.1248374E+00
         -3   -1    0    0    0  501 -0.00000000000E+00  0.00000000000E+00  0.47881573812E+03  0.47881573812E+03  0.00000000000E+00 0.  1.
          3   -1    0    0  501    0  0.00000000000E+00 -0.00000000000E+00 -0.40313429668E+02  0.40313429668E+02  0.00000000000E+00 0. -1.
          5    1    1    2  502    0 -0.68280017098E+01 -0.46789691928E+02  0.58841165046E+02  0.75601931074E+02  0.41800000000E+01 0. -1.
         -5    1    1    2    0  502 -0.53833516005E+02  0.53603494559E+02  0.29443878268E+03  0.30411026162E+03  0.41800000000E+01 0. -1.
        -11    1    1    2    0    0  0.75377021739E+02 -0.31279242686E+02  0.59603119211E+02  0.10105749972E+03  0.00000000000E+00 0. -1.
         11    1    1    2    0    0 -0.14715504024E+02  0.24465440055E+02  0.25619241513E+02  0.38359475381E+02  0.00000000000E+00 0.  1.
</event>
<event>
 6    1  0.9216756E-006  0.1489214E+03  0.7561462E-02  0.1201805E+00
         -1   -1    0    0    0  501 -0.00000000000E+00  0.00000000000E+00  0.30575933946E+02  0.30575933946E+02  0.00000000000E+00 0.  1.
          1   -1    0    0  501    0  0.00000000000E+00 -0.00000000000E+00 -0.82354451632E+03  0.82354451632E+03  0.00000000000E+00 0. -1.
          5    1    1    2  502    0  0.10512590662E+02  0.28490638985E+02 -0.82829794932E+02  0.88320317032E+02  0.41800000000E+01 0. -1.
         -5    1    1    2    0  502  0.25183712242E+02 -0.13008314814E+03 -0.23500715377E+03  0.26981786360E+03  0.41800000000E+01 0. -1.
        -11    1    1    2    0    0 -0.25362680516E+02  0.11496187069E+03 -0.45350958988E+03  0.46854076171E+03  0.00000000000E+00 0. -1.
         11    1    1    2    0    0 -0.10333622388E+02 -0.13369361526E+02 -0.21622043786E+02  0.27441507917E+02  0.00000000000E+00 0.  1.
</event>
<event>
 6    1  0.9216756E-006  0.5138184E+02  0.7561462E-02  0.1438028E+00
          1   -1    0    0  501    0  0.00000000000E+00  0.00000000000E+00  0.47309285194E+02  0.47309285194E+02  0.00000000000E+00 0. -1.
         -1   -1    0    0    0  501 -0.00000000000E+00 -0.00000000000E+00 -0.29676826198E+03  0.29676826198E+03  0.00000000000E+00 0.  1.
          5    1    1    2  502    0 -0.21080084077E+01 -0.12198617395E+02  0.16616259790E+02  0.21138175304E+02  0.41800000000E+01 0. -1.
         -5    1    1    2    0  502  0.32636814623E+02 -0.75688987201E+01 -0.20586130315E+03  0.20861159707E+03  0.41800000000E+01 0. -1.
        -11    1    1    2    0    0  0.10891468774E+02  0.35986574852E+01  0.19746309822E+02  0.22836181365E+02  0.00000000000E+00 0. -1.
         11    1    1    2    0    0 -0.41420274989E+02  0.16168858630E+02 -0.79960243255E+02  0.91491593444E+02  0.00000000000E+00 0.  1.
</event>
<event>
 6    1  0.9216756E-006  0.3219929E+03  0.7561462E-02  0.1074736E+00
          2   -1    0    0  501    0  0.00000000000E+00  0.00000000000E+00  0.20617289825E+03  0.20617289825E+03  0.00000000000E+00 0. -1.
         -2   -1    0    0    0  501 -0.00000000000E+00 -0.00000000000E+00 -0.52811632868E+03  0.52811632868E+03  0.00000000000E+00 0.  1.
          5    1    1    2  502    0  0.51370378863E+02  0.12977351865E+03 -0.10790458017E+03  0.17646799367E+03  0.41800000000E+01 0.  1.
         -5    1    1    2    0  502  0.17624071640E+03  0.78876164265E+02 -0.12630645295E+03  0.23076618440E+03  0.41800000000E+01 0.  1.
        -11    1    1    2    0    0 -0.15235508669E+03 -0.11391784007E+03 -0.78244421847E+02  0.20569768175E+03  0.00000000000E+00 0. -1.
         11    1    1    2    0    0 -0.75256008573E+02 -0.94731842845E+02 -0.94879754637E+01  0.12135736712E+03  0.00000000000E+00 0.  1.
</event>
<event>
 6    1  0.9216756E-006  0.8836289E+02  0.7561462E-02  0.1306865E+00
         -2   -1    0    0    0  501 -0.00000000000E+00  0.00000000000E+00  0.12092008649E+03  0.12092008649E+03  0.00000000000E+00 0.  1.
          2   -1    0    0  501    0  0.00000000000E+00 -0.00000000000E+00 -0.17055118522E+03  0.17055118522E+03  0.00000000000E+00 0. -1.
          5    1    1    2  502    0 -0.28030770237E+02 -0.18310860141E+01 -0.68004696633E+02  0.73696595038E+02  0.41800000000E+01 0. -1.
         -5    1    1    2    0  502  0.20197367577E+02 -0.71257841785E+02  0.88102322897E+02  0.11517423919E+03  0.41800000000E+01 0.  1.
        -11    1    1    2    0    0 -0.20716073867E+01  0.22397890639E+02 -0.13426085688E+02  0.26195740859E+02  0.00000000000E+00 0.  1.
         11    1    1    2    0    0  0.99050100468E+01  0.50691037160E+02 -0.56302639315E+02  0.76404696624E+02  0.00000000000E+00 0. -1.
</event>
<event>
 6    1  0.9216756E-006  0.1089930E+03  0.7561462E-02  0.1262446E+00
          2   -1    0    0  501    0  0.00000000000E+00  0.00000000000E+00  0.18389327515E+03  0.18389327515E+03  0.00000000000E+00 0. -1.
         -2   -1    0    0    0  501 -0.00000000000E+00 -0.00000000000E+00 -0.13006354650E+03  0.13006354650E+03  0.00000000000E+00 0.  1.
          5    1    1    2  502    0  0.32720880533E+02 -0.10096140207E+02 -0.79521462654E+02  0.86681736788E+02  0.41800000000E+01 0. -1.
         -5    1    1    2    0  502  0.43711187407E+02 -0.35657119257E+02  0.43138990441E+02  0.71137493311E+02  0.41800000000E+01 0. -1.
        -11    1    1    2    0    0 -0.60653535501E+02  0.73323019147E+02  0.73535508249E+02  0.12026049842E+03  0.00000000000E+00 0. -1.
         11    1    1    2    0    0 -0.15778532440E+02 -0.27569759682E+02  0.16676692612E+02  0.35877093129E+02  0.00000000000E+00 0.  1.
</event>
<event>
 6    1  0.9216756E-006  0.1530520E+03  0.7561462E-02  0.1196772E+00
         -3   -1    0    0    0  501 -0.00000000000E+00  0.00000000000E+00  0.14667336467E+04  0.14667336467E+04  0.00000000000E+00 0.  1.
          3   -1    0    0  501    0  0.00000000000E+00 -0.00000000000E+00 -0.29789675186E+02  0.29789675186E+02  0.00000000000E+00 0. -1.
          5    1    1    2  502    0 -0.33679173092E+02  0.13642366703E+03  0.79463901621E+03  0.80697852642E+03  0.41800000000E+01 0. -1.
         -5    1    1    2    0  502  0.25169523969E+02 -0.87211802387E+01  0.40954160037E+03  0.41042826261E+03  0.41800000000E+01 0. -1.
        -11    1    1    2    0    0  0.24534095650E+02 -0.26570288899E+02  0.12641781826E+03  0.13148903709E+03  0.00000000000E+00 0.  1.
         11    1    1    2    0    0 -0.16024446527E+02 -0.10113219789E+03  0.10634553673E+03  0.14762749581E+03  0.00000000000E+00 0. -1.
</event>
<event>
 6    1  0.9216756E-006  0.6407632E+02  0.7561462E-02  0.1381480E+00
         -1   -1    0    0    0  501 -0.00000000000E+00  0.00000000000E+00  0.32218812998E+02  0.32218812998E+02  0.00000000000E+00 0.  1.
          1   -1    0    0  501    0  0.00000000000E+00 -0.00000000000E+00 -0.46049949722E+03  0.46049949722E+03  0.00000000000E+00 0. -1.
          5    1    1    2  502    0 -0.84435766576E+01  0.22940446400E+01  0.14770357101E+02  0.17668969310E+02  0.41800000000E+01 0.  1.
         -5    1    1    2    0  502 -0.46789993773E+02  0.52850482738E+01 -0.25078772539E+03  0.25520421403E+03  0.41800000000E+01 0.  1.
        -11    1    1    2    0    0  0.16724194002E+02  0.18296143489E+02 -0.29890627520E+01  0.24967619584E+02  0.00000000000E+00 0.  1.
         11    1    1    2    0    0  0.38509376429E+02 -0.25875236403E+02 -0.18927425318E+03  0.19487750730E+03  0.00000000000E+00 0. -1.
</event>
<event>
 6    1  0.9216756E-006  0.1096072E+03  0.7561462E-02  0.1261299E+00
          1   -1    0    0  501    0  0.00000000000E+00  0.00000000000E+00  0.34266824243E+03  0.34266824243E+03  0.00000000000E+00 0. -1.
         -1   -1    0    0    0  501 -0.00000000000E+00 -0.00000000000E+00 -0.52857873204E+02  0.52857873204E+02  0.00000000000E+00 0.  1.
          5    1    1    2  502    0 -0.37645738451E+02  0.68547000339E+02  0.45183979149E+02  0.90415470196E+02  0.41800000000E+01 0.  1.
         -5    1    1    2    0  502  0.63077789729E+02 -0.34610728970E+01  0.61100008328E+02  0.87985623828E+02  0.41800000000E+01 0.  1.
        -11    1    1    2    0    0  0.76003262054E+01 -0.22135589194E+02 -0.23410707642E+01  0.23520839265E+02  0.00000000000E+00 0.  1.
         11    1    1    2    0    0 -0.33032377483E+02 -0.42950338248E+02  0.18586745251E+03  0.19360418234E+03  0.00000000000E+00 0. -1.
</event>
<event>
 6    1  0.9216756E-006  0.8312394E+02  0.7561462E-02  0.1320413E+00
         -2   -1    0    0    0  501 -0.00000000000E+00  0.00000000000E+00  0.72599755826E+03  0.72599755826E+03  0.00000000000E+00 0.  1.
          2   -1    0    0  501    0  0.00000000000E+00 -0.00000000000E+00 -0.20929528360E+02  0.20929528360E+02  0.00000000000E+00 0. -1.
          5    1    1    2  502    0  0.29825096790E+02  0.10081313900E+02  0.31263505609E+02  0.44565103741E+02  0.41800000000E+01 0. -1.
         -5    1    1    2    0  502 -0.56176434036E+02  0.29182645981E+02  0.47602487807E+03  0.48023387584E+03  0.41800000000E+01 0. -1.
        -11    1    1    2    0    0 -0.10866627724E+02 -0.31100133120E+02  0.17426918613E+03  0.17735571915E+03  0.00000000000E+00 0.  1.
         11    1    1    2    0    0  0.37217964970E+02 -0.81638267608E+01  0.23510460092E+02  0.44772387893E+02  0.00000000000E+00 0. -1.
</event>
<event>
 6    1  0.9216756E-006  0.9349948E+02  0.7561462E-02  0.1294592E+00
          1   -1    0    0  501    0  0.00000000000E+00  0.00000000000E+00  0.30638506908E+03  0.30638506908E+03  0.00000000000E+00 0. -1.
         -1   -1    0    0    0  501 -0.00000000000E+00 -0.00000000000E+00 -0.49635123357E+02  0.49635123357E+02  0.00000000000E+00 0.  1.
          5    1    1    2  502    0  0.27997565788E+02 -0.18234358431E+02  0.83306854779E+02  0.89854660261E+02  0.41800000000E+01 0.  1.
         -5    1    1    2    0  502 -0.82973665949E+02  0.11160449132E+02  0.34312610591E+02  0.90576004060E+02  0.41800000000E+01 0.  1.
        -11    1    1    2    0    0 -0.24469304093E+01  0.11642590668E+02 -0.10113278933E+02  0.15614602034E+02  0.00000000000E+00 0.  1.
         11    1    1    2    0    0  0.57423030571E+02 -0.45686813691E+01  0.14924375929E+03  0.15997492609E+03  0.00000000000E+00 0. -1.
</event>
<event>
 6    1  0.9216756E-006  0.1225365E+03  0.7561462E-02  0.1238970E+00
          1   -1    0    0  501    0  0.00000000000E+00  0.00000000000E+00  0.19390384777E+03  0.19390384777E+03  0.00000000000E+00 0. -1.
         -1   -1    0    0    0  501 -0.00000000000E+00 -0.00000000000E+00 -0.99555304648E+02  0.99555304648E+02  0.00000000000E+00 0.  1.
          5    1    1    2  502    0  0.78405987409E+02 -0.25731372649E+02  0.64661516742E+02  0.10491990539E+03  0.41800000000E+01 0.  1.
         -5    1    1    2    0  502 -0.17700017639E+02 -0.34726981965E+02 -0.31484938794E+02  0.50279495539E+02  0.41800000000E+01 0.  1.
        -11    1    1    2    0    0 -0.76312789623E+02  0.18563336796E+02  0.46161926175E+02  0.91099740731E+02  0.00000000000E+00 0.  1.
         11    1    1    2    0    0  0.15606819853E+02  0.41895017818E+02  0.15010038998E+02  0.47160010757E+02  0.00000000000E+00 0. -1.
</event>
<event>
 6    1  0.9216756E-006  0.1062608E+03  0.7561462E-02  0.1267655E+00
          1   -1    0    0  501    0  0.00000000000E+00  0.00000000000E+00  0.88831604263E+02  0.88831604263E+02  0.00000000000E+00 0. -1.
         -1   -1    0    0    0  501 -0.00000000000E+00 -0.00000000000E+00 -0.30662861170E+03  0.30662861170E+03  0.00000000000E+00 0.  1.
          5    1    1    2  502    0  0.31834719785E+02 -0.14263224499E+02 -0.36797165367E+02  0.50876249232E+02  0.41800000000E+01 0.  1.
         -5    1    1    2    0  502 -0.92090437858E+02  0.50869987909E+02 -0.20111461145E+03  0.22700873057E+03  0.41800000000E+01 0.  1.
        -11    1    1    2    0    0  0.33431588211E+02 -0.11489639105E+02 -0.36028296774E+02  0.50474954834E+02  0.00000000000E+00 0.  1.
         11    1    1    2    0    0  0.26824129862E+02 -0.25117124305E+02  0.56143066159E+02  0.67100281325E+02  0.00000000000E+00 0. -1.
</event>
<event>
 6    1  0.9216756E-006  0.2302428E+03  0.7561462E-02  0.1126469E+00
         -2   -1    0    0    0  501 -0.00000000000E+00  0.00000000000E+00  0.48360186147E+02  0.48360186147E+02  0.00000000000E+00 0.  1.
          2   -1    0    0  501    0  0.00000000000E+00 -0.00000000000E+00 -0.16442039209E+04  0.16442039209E+04  0.00000000000E+00 0. -1.
          5    1    1    2  502    0 -0.18213838149E+02  0.14497826584E+02 -0.10055314078E+03  0.10329732521E+03  0.41800000000E+01 0.  1.
         -5    1    1    2    0  502 -0.14316178680E+03 -0.15013189177E+03 -0.25900100202E+03  0.33186423967E+03  0.41800000000E+01 0.  1.
        -11    1    1    2    0    0  0.96475837500E+02  0.22732934900E+02 -0.51502899518E+03  0.52447997047E+03  0.00000000000E+00 0.  1.
         11    1    1    2    0    0  0.64899787448E+02  0.11290113029E+03 -0.72126059675E+03  0.73292257167E+03  0.00000000000E+00 0. -1.
</event>
<event>
 6    1  0.9216756E-006  0.1235723E+03  0.7561462E-02  0.1237318E+00
          1   -1    0    0  501    0  0.00000000000E+00  0.00000000000E+00  0.32253219916E+03  0.32253219916E+03  0.00000000000E+00 0. -1.
         -1   -1    0    0    0  501 -0.00000000000E+00 -0.00000000000E+00 -0.10018558324E+03  0.10018558324E+03  0.00000000000E+00 0.  1.
          5    1    1    2  502    0  0.99461451411E+02 -0.21711308434E+02 -0.58070999009E+01  0.10205467182E+03  0.41800000000E+01 0. -1.
         -5    1    1    2    0  502 -0.33356932375E+02 -0.40385593132E+02 -0.66419423767E+01  0.52964788951E+02  0.41800000000E+01 0. -1.
        -11    1    1    2    0    0 -0.60359991243E+02  0.46828512327E+02  0.23894932268E+03  0.25086453899E+03  0.00000000000E+00 0. -1.
         11    1    1    2    0    0 -0.57445277925E+01  0.15268389238E+02 -0.41536644816E+01  0.16833782645E+02  0.00000000000E+00 0.  1.
</event>
<event>
 6    1  0.9216756E-006  0.9303874E+02  0.7561462E-02  0.1295655E+00
          2   -1    0    0  501    0  0.00000000000E+00  0.00000000000E+00  0.34470086324E+03  0.34470086324E+03  0.00000000000E+00 0. -1.
         -2   -1    0    0    0  501 -0.00000000000E+00 -0.00000000000E+00 -0.38455452781E+02  0.38455452781E+02  0.00000000000E+00 0.  1.
          5    1    1    2  502    0  0.23614186425E+01  0.40020939933E+02  0.74868570182E+02  0.85029566224E+02  0.41800000000E+01 0. -1.
         -5    1    1    2    0  502 -0.18338971757E+02 -0.49653761333E+02  0.54964732916E+01  0.53380684880E+02  0.41800000000E+01 0.  1.
        -11    1    1    2    0    0  0.34848196193E+02 -0.31779926066E+02  0.92758586440E+02  0.10406015490E+03  0.00000000000E+00 0.  1.
         11    1    1    2    0    0 -0.18870643079E+02  0.41412747465E+02  0.13312178054E+03  0.14068591002E+03  0.00000000000E+00 0. -1.
</event>
<event>
 6    1  0.9216756E-006  0.8837708E+02  0.7561462E-02  0.1306830E+00
         -2   -1    0    0    0  501 -0.00000000000E+00  0.00000000000E+00  0.52021548010E+02  0.52021548010E+02  0.00000000000E+00 0.  1.
          2   -1    0    0  501    0  0.00000000000E+00 -0.00000000000E+00 -0.29051504312E+03  0.29051504312E+03  0.00000000000E+00 0. -1.
          5    1    1    2  502    0 -0.15209937581E+02  0.43846247128E+02 -0.12828968915E+03  0.13649011807E+03  0.41800000000E+01 0. -1.
         -5    1    1    2    0  502 -0.29201134095E+01 -0.37492967135E+02  0.22373507507E+02  0.43957887633E+02  0.41800000000E+01 0.  1.
        -11    1    1    2    0    0  0.54582512796E+02 -0.10656937102E+02 -0.90795030369E+02  0.10647327623E+03  0.00000000000E+00 0. -1.
         11    1    1    2    0    0 -0.36452461805E+02  0.43036571089E+01 -0.41782283098E+02  0.55615309197E+02  0.00000000000E+00 0.  1.
</event>
<event>
 6    1  0.9216756E-006  0.1697255E+03  0.7561462E-02  0.1178134E+00
          2   -1    0    0  501    0  0.00000000000E+00  0.00000000000E+00  0.55199304922E+02  0.55199304922E+02  0.00000000000E+00 0. -1.
         -2   -1    0    0    0  501 -0.00000000000E+00 -0.00000000000E+00 -0.64388105488E+03  0.64388105488E+03  0.00000000000E+00 0.  1.
          5    1    1    2  502    0 -0.12159310306E+03  0.12784481790E+01 -0.30637961147E+03  0.32965505588E+03  0.41800000000E+01 0. -1.
         -5    1    1    2    0  502 -0.21828209820E+02  0.50967000762E+02 -0.38288630716E+02  0.67509981134E+02  0.41800000000E+01 0. -1.
        -11    1    1    2    0    0  0.11915886994E+03 -0.63955022259E+02 -0.23885912500E+03  0.27448636169E+03  0.00000000000E+00 0.  1.
         11    1    1    2    0    0  0.24262442945E+02  0.11709573318E+02 -0.51543827632E+01  0.27428961092E+02  0.00000000000E+00 0. -1.
</event>
<event>
 6    1  0.9216756E-006  0.1127169E+03  0.7561462E-02  0.1255620E+00
         -1   -1    0    0    0  501 -0.00000000000E+00  0.00000000000E+00  0.55556040952E+02  0.55556040952E+02  0.00000000000E+00 0.  1.
          1   -1    0    0  501    0  0.00000000000E+00 -0.00000000000E+00 -0.25705232325E+03  0.25705232325E+03  0.00000000000E+00 0. -1.
          5    1    1    2  502    0 -0.67696674971E+02 -0.18981962917E+02 -0.82477331297E+02  0.10845799784E+03  0.41800000000E+01 0. -1.
         -5    1    1    2    0  502  0.28991320203E+02  0.51569793247E+02 -0.26365269666E+02  0.64904083594E+02  0.41800000000E+01 0. -1.
        -11    1    1    2    0    0  0.37494504168E+02 -0.58646307154E+02 -0.88872113427E+02  0.11288702198E+03  0.00000000000E+00 0.  1.
         11    1    1    2    0    0  0.12108506003E+01  0.26058476825E+02 -0.37815679103E+01  0.26359260791E+02  0.00000000000E+00 0. -1.
</event>
<event>
 6    1  0.9216756E-006  0.8520663E+02  0.7561462E-02  0.1314893E+00
         -1   -1    0    0    0  501 -0.00000000000E+00  0.00000000000E+00  0.37082061181E+03  0.37082061181E+03  0.00000000000E+00 0.  1.
          1   -1    0    0  501    0  0.00000000000E+00 -0.00000000000E+00 -0.34918907430E+02  0.34918907430E+02  0.00000000000E+00 0. -1.
          5    1    1    2  502    0 -0.14901528391E+02  0.44835495485E+02  0.12444131455E+03  0.13317428570E+03  0.41800000000E+01 0. -1.
         -5    1    1    2    0  502 -0.18709162250E+02 -0.70611411222E+02  0.65726060255E+02  0.98353401281E+02  0.41800000000E+01 0. -1.
        -11    1    1    2    0    0  0.14575833728E+02 -0.34103026146E+01 -0.77257322199E+01  0.16845534457E+02  0.00000000000E+00 0. -1.
         11    1    1    2    0    0  0.19034856913E+02  0.29186218351E+02  0.15346006179E+03  0.15736629780E+03  0.00000000000E+00 0.  1.
</event>
<event>
 6    1  0.9216756E-006  0.1426069E+03  0.7561462E-02  0.1209864E+00
         -2   -1    0    0    0  501 -0.00000000000E+00  0.00000000000E+00  0.28582553232E+02  0.28582553232E+02  0.00000000000E+00 0. -1.
          2   -1    0    0  501    0  0.00000000000E+00 -0.00000000000E+00 -0.87510810289E+03  0.87510810289E+03  0.00000000000E+00 0.  1.
          5    1    1    2  502    0  0.11032902128E+03  0.32406610303E+02 -0.41513281555E+03  0.43078464257E+03  0.41800000000E+01 0.  1.
         -5    1    1    2    0  502  0.14931942835E+01 -0.49194246499E+02 -0.10593578879E+03  0.11688527394E+03  0.41800000000E+01 0.  1.
        -11    1    1    2    0    0 -0.11040188217E+03  0.67411019567E+01 -0.32749738822E+03  0.34567116937E+03  0.00000000000E+00 0.  1.
         11    1    1    2    0    0 -0.14203333902E+01  0.10046534239E+02  0.20404428931E+01  0.10349570249E+02  0.00000000000E+00 0. -1.
</event>
<event>
 6    1  0.9216756E-006  0.1067794E+03  0.7561462E-02  0.1266653E+00
          2   -1    0    0  501    0  0.00000000000E+00  0.00000000000E+00  0.22519673872E+03  0.22519673872E+03  0.00000000000E+00 0. -1.
         -2   -1    0    0    0  501 -0.00000000000E+00 -0.00000000000E+00 -0.64143695741E+02  0.64143695741E+02  0.00000000000E+00 0.  1.
          5    1    1    2  502    0  0.10739188094E+02  0.57251435900E+02 -0.34283944580E+01  0.58500285146E+02  0.41800000000E+01 0.  1.
         -5    1    1    2    0  502 -0.50674089086E+02 -0.27926458661E+02  0.72155469258E+02  0.92583122338E+02  0.41800000000E+01 0.  1.
        -11    1    1    2    0    0  0.63230372051E+02 -0.49377764383E+01  0.80577684476E+02  0.10254377027E+03  0.00000000000E+00 0. -1.
         11    1    1    2    0    0 -0.23295471059E+02 -0.24387200801E+02  0.11748283708E+02  0.35713256710E+02  0.00000000000E+00 0.  1.
</event>
<event>
 6    1  0.9216756E-006  0.2039166E+03  0.7561462E-02  0.1146476E+00
          2   -1    0    0  501    0  0.00000000000E+00  0.00000000000E+00  0.14554519590E+04  0.14554519590E+04  0.00000000000E+00 0.  1.
         -2   -1    0    0    0  501 -0.00000000000E+00 -0.00000000000E+00 -0.34884992776E+02  0.34884992776E+02  0.00000000000E+00 0. -1.
          5    1    1    2  502    0  0.32305454947E+02  0.34820175600E+02  0.52846053105E+02  0.71177698592E+02  0.41800000000E+01 0.  1.
         -5    1    1    2    0  502 -0.11176194875E+02  0.16004902721E+03  0.63229974605E+03  0.65235039641E+03  0.41800000000E+01 0.  1.
        -11    1    1    2    0    0 -0.30225167138E+02 -0.10309944187E+03  0.24104124392E+03  0.26390137725E+03  0.00000000000E+00 0.  1.
         11    1    1    2    0    0  0.90959070656E+01 -0.91769760941E+02  0.49437992310E+03  0.50290747948E+03  0.00000000000E+00 0. -1.
</event>
<event>
 6    1  0.9216756E-006  0.9011773E+02  0.7561462E-02  0.1302567E+00
          2   -1    0    0  501    0  0.00000000000E+00  0.00000000000E+00  0.17589037481E+03  0.17589037481E+03  0.00000000000E+00 0. -1.
         -2   -1    0    0    0  501 -0.00000000000E+00 -0.00000000000E+00 -0.93471453113E+02  0.93471453113E+02  0.00000000000E+00 0.  1.
          5    1    1    2  502    0 -0.77789706989E+00  0.30564240671E+02  0.44188427900E+02  0.53896822651E+02  0.41800000000E+01 0.  1.
         -5    1    1    2    0  502 -0.42658456006E+02 -0.52595520096E+02 -0.43036626614E+02  0.80347098475E+02  0.41800000000E+01 0.  1.
        -11    1    1    2    0    0  0.55871309031E+02  0.33048893256E+02  0.14765130396E+02  0.66572078185E+02  0.00000000000E+00 0.  1.
         11    1    1    2    0    0 -0.12434955955E+02 -0.11017613831E+02  0.66501990013E+02  0.68545828610E+02  0.00000000000E+00 0. -1.
</event>
<event>
 6    1  0.9216756E-006  0.1136455E+03  0.7561462E-02  0.1253964E+00
         -2   -1    0    0    0  501 -0.00000000000E+00  0.00000000000E+00  0.10289293324E+03  0.10289293324E+03  0.00000000000E+00 0.  1.
          2   -1    0    0  501    0  0.00000000000E+00 -0.00000000000E+00 -0.18059473834E+03  0.18059473834E+03  0.00000000000E+00 0. -1.
          5    1    1    2  502    0 -0.90708918543E+02 -0.97753526950E+01 -0.53292940553E+02  0.10574154972E+03  0.41800000000E+01 0.  1.
         -5    1    1    2    0  502  0.14927263892E+02 -0.64226818063E+01  0.38639728843E+02  0.42125705857E+02  0.41800000000E+01 0.  1.
        -11    1    1    2    0    0 -0.37995772884E+01 -0.27928382021E+02 -0.22188406590E+02  0.35871391064E+02  0.00000000000E+00 0.  1.
         11    1    1    2    0    0  0.79581231940E+02  0.44126416522E+02 -0.40860186799E+02  0.99749024945E+02  0.00000000000E+00 0. -1.
</event>
<event>
 6    1  0.9216756E-006  0.1082847E+03  0.7561462E-02  0.1263780E+00
         -2   -1    0    0    0  501 -0.00000000000E+00  0.00000000000E+00  0.75173770973E+02  0.75173770973E+02  0.00000000000E+00 0. -1.
          2   -1    0    0  501    0  0.00000000000E+00 -0.00000000000E+00 -0.18701507687E+03  0.18701507687E+03  0.00000000000E+00 0.  1.
          5    1    1    2  502    0  0.98214554047E+01  0.45171976752E+02 -0.16798048222E+02  0.49362083567E+02  0.41800000000E+01 0.  1.
         -5    1    1    2    0  502 -0.29914888973E+02 -0.78534493366E+02 -0.15269473542E+02  0.85517228982E+02  0.41800000000E+01 0.  1.
        -11    1    1    2    0    0  0.29745370077E+02 -0.17317729098E+02 -0.26503584557E+01  0.34521227992E+02  0.00000000000E+00 0. -1.
         11    1    1    2    0    0 -0.96519365082E+01  0.50680245712E+02 -0.77123425674E+02  0.92788307299E+02  0.00000000000E+00 0.  1.
</event>
<event>
 6    1  0.9216756E-006  0.1452331E+03  0.7561462E-02  0.1206456E+00
         -1   -1    0    0    0  501 -0.00000000000E+00  0.00000000000E+00  0.35299694611E+02  0.35299694611E+02  0.00000000000E+00 0.  1.
          1   -1    0    0  501    0  0.00000000000E+00 -0.00000000000E+00 -0.76353349187E+03  0.76353349187E+03  0.00000000000E+00 0. -1.
          5    1    1    2  502    0  0.11899978817E+03  0.97107392146E+01 -0.14646014482E+03  0.18900606991E+03  0.41800000000E+01 0. -1.
         -5    1    1    2    0  502 -0.65894218194E+01 -0.34929598158E+02 -0.13658854161E+03  0.14119985625E+03  0.41800000000E+01 0. -1.
        -11    1    1    2    0    0 -0.84103895825E+02 -0.15595280510E+02 -0.35996920533E+03  0.36999257675E+03  0.00000000000E+00 0. -1.
         11    1    1    2    0    0 -0.28306470521E+02  0.40814139453E+02 -0.85215905505E+02  0.98634683574E+02  0.00000000000E+00 0.  1.
</event>
<event>
 6    1  0.9216756E-006  0.9333428E+02  0.7561462E-02  0.1294972E+00
          2   -1    0    0  501    0  0.00000000000E+00  0.00000000000E+00  0.57184583227E+03  0.57184583227E+03  0.00000000000E+00 0. -1.
         -2   -1    0    0    0  501 -0.00000000000E+00 -0.00000000000E+00 -0.28094133984E+02  0.28094133984E+02  0.00000000000E+00 0.  1.
          5    1    1    2  502    0  0.27397432538E+02  0.46052665989E+02  0.45677365883E+02  0.70536242517E+02  0.41800000000E+01 0.  1.
         -5    1    1    2    0  502 -0.26765116243E+02  0.14785926283E+02  0.30753762627E+03  0.30908228522E+03  0.41800000000E+01 0.  1.
        -11    1    1    2    0    0 -0.46916712924E+01 -0.81179832586E+02  0.10783158395E+03  0.13505490548E+03  0.00000000000E+00 0.  1.
         11    1    1    2    0    0  0.40593549972E+01  0.20341240314E+02  0.82705122185E+02  0.85266533037E+02  0.00000000000E+00 0. -1.
</event>
<event>
 6    1  0.9216756E-006  0.1322397E+03  0.7561462E-02  0.1224170E+00
          1   -1    0    0  501    0  0.00000000000E+00  0.00000000000E+00  0.92608594578E+02  0.92608594578E+02  0.00000000000E+00 0. -1.
         -1   -1    0    0    0  501 -0.00000000000E+00 -0.00000000000E+00 -0.22190304461E+03  0.22190304461E+03  0.00000000000E+00 0.  1.
          5    1    1    2  502    0 -0.11027623513E+02  0.78226587929E+02 -0.31201108128E+02  0.85041102343E+02  0.41800000000E+01 0.  1.
         -5    1    1    2    0  502 -0.66937120161E+02 -0.25540162855E+02 -0.76968696511E+02  0.10523559577E+03  0.41800000000E+01 0.  1.
        -11    1    1    2    0    0  0.39572525366E+02  0.93365379229E+01 -0.30312180971E+02  0.50714731779E+02  0.00000000000E+00 0. -1.
         11    1    1    2    0    0  0.38392218308E+02 -0.62022962996E+02  0.91875355757E+01  0.73520209299E+02  0.00000000000E+00 0.  1.
</event>
<event>
 6    1  0.9216756E-006  0.1859079E+03  0.7561462E-02  0.1162205E+00
         -2   -1    0    0    0  501 -0.00000000000E+00  0.00000000000E+00  0.36728743219E+02  0.36728743219E+02  0.00000000000E+00 0.  1.
          2   -1    0    0  501    0  0.00000000000E+00 -0.00000000000E+00 -0.11848331099E+04  0.11848331099E+04  0.00000000000E+00 0. -1.
          5    1    1    2  502    0  0.43496183876E+02  0.11179756291E+02 -0.26176191932E+03  0.26561942657E+03  0.41800000000E+01 0. -1.
         -5    1    1    2    0  502  0.12155704564E+03 -0.61625674322E+02 -0.18953089348E+03  0.23348077236E+03  0.41800000000E+01 0. -1.
        -11    1    1    2    0    0 -0.10002999753E+02 -0.18221426409E+02 -0.92646753021E+02  0.94949993311E+02  0.00000000000E+00 0. -1.
         11    1    1    2    0    0 -0.15505022976E+03  0.68667344441E+02 -0.60416480086E+03  0.62751166088E+03  0.00000000000E+00 0.  1.
</event>
<event>
 6    1  0.9216756E-006  0.7854521E+02  0.7561462E-02  0.1333231E+00
          2   -1    0    0  501    0  0.00000000000E+00  0.00000000000E+00  0.90215720972E+02  0.90215720972E+02  0.00000000000E+00 0. -1.
         -2   -1    0    0    0  501 -0.00000000000E+00 -0.00000000000E+00 -0.16872326605E+03  0.16872326605E+03  0.00000000000E+00 0.  1.
          5    1    1    2  502    0 -0.61126149656E+02  0.40077737499E+02 -0.92495149198E+02  0.11796379207E+03  0.41800000000E+01 0. -1.
         -5    1    1    2    0  502  0.30531677195E+02  0.14904079007E+00  0.18473780790E+02  0.35929910968E+02  0.41800000000E+01 0. -1.
        -11    1    1    2    0    0  0.12228502836E+02 -0.29155144668E+02  0.42749034282E+02  0.53169903839E+02  0.00000000000E+00 0. -1.
         11    1    1    2    0    0  0.18365969625E+02 -0.11071633621E+02 -0.47235210952E+02  0.51875380143E+02  0.00000000000E+00 0.  1.
</event>
<event>
 6    1  0.9216756E-006  0.2434994E+03  0.7561462E-02  0.1117483E+00
          2   -1    0    0  501    0  0.00000000000E+00  0.00000000000E+00  0.11260269510E+04  0.11260269510E+04  0.00000000000E+00 0.  1.
         -2   -1    0    0    0  501 -0.00000000000E+00 -0.00000000000E+00 -0.74696128435E+02  0.74696128435E+02  0.00000000000E+00 0. -1.
          5    1    1    2  502    0  0.35622453747E+01 -0.50245019545E+02 -0.19662435571E+01  0.50582507796E+02  0.41800000000E+01 0.  1.
         -5    1    1    2    0  502  0.28531289344E+02 -0.18294262018E+03  0.27017424967E+03  0.32755707035E+03  0.41800000000E+01 0.  1.
        -11    1    1    2    0    0 -0.51279632552E+02  0.69105907620E+02  0.29240335069E+03  0.30480312773E+03  0.00000000000E+00 0.  1.
         11    1    1    2    0    0  0.19186097833E+02  0.16408173210E+03  0.49071946572E+03  0.51778037352E+03  0.00000000000E+00 0. -1.
</event>
<event>
 6    1  0.9216756E-006  0.1057254E+03  0.7561462E-02  0.1268697E+00
         -2   -1    0    0    0  501 -0.00000000000E+00  0.00000000000E+00  0.23526345906E+03  0.23526345906E+03  0.00000000000E+00 0.  1.
          2   -1    0    0  501    0  0.00000000000E+00 -0.00000000000E+00 -0.65785657333E+02  0.65785657333E+02  0.00000000000E+00 0. -1.
          5    1    1    2  502    0  0.59500071954E+01 -0.38486003230E+02  0.39696946631E+00  0.39168929204E+02  0.41800000000E+01 0.  1.
         -5    1    1    2    0  502 -0.55570222063E+02  0.62364764707E+02  0.10031125184E+03  0.13060334262E+03  0.41800000000E+01 0.  1.
        -11    1    1    2    0    0  0.79771494140E+00  0.21784747157E+02 -0.13215532300E+02  0.25492388115E+02  0.00000000000E+00 0. -1.
         11    1    1    2    0    0  0.48822499926E+02 -0.45663508634E+02  0.81985112714E+02  0.10578445645E+03  0.00000000000E+00 0.  1.
</event>
<event>
 6    1  0.9216756E-006  0.1085104E+03  0.7561462E-02  0.1263354E+00
         -2   -1    0    0    0  501 -0.00000000000E+00  0.00000000000E+00  0.71065660465E+02  0.71065660465E+02  0.00000000000E+00 0.  1.
          2   -1    0    0  501    0  0.00000000000E+00 -0.00000000000E+00 -0.37103579333E+03  0.37103579333E+03  0.00000000000E+00 0. -1.
          5    1    1    2  502    0  0.53522195421E+02  0.18948938667E+02  0.37078388846E+02  0.67940908139E+02  0.41800000000E+01 0.  1.
         -5    1    1    2    0  502  0.17784239959E+02 -0.40257184975E+02 -0.67610888270E+02  0.80781339094E+02  0.41800000000E+01 0.  1.
        -11    1    1    2    0    0 -0.91266963068E+02  0.26906179345E+02 -0.22753824696E+03  0.24663182046E+03  0.00000000000E+00 0.  1.
         11    1    1    2    0    0  0.19960527688E+02 -0.55979330368E+01 -0.41899386489E+02  0.46747386109E+02  0.00000000000E+00 0. -1.
</event>
<event>
 6    1  0.9216756E-006  0.1151600E+03  0.7561462E-02  0.1251302E+00
          2   -1    0    0  501    0  0.00000000000E+00  0.00000000000E+00  0.30499024822E+03  0.30499024822E+03  0.00000000000E+00 0. -1.
         -2   -1    0    0    0  501 -0.00000000000E+00 -0.00000000000E+00 -0.51765071066E+02  0.51765071066E+02  0.00000000000E+00 0.  1.
          5    1    1    2  502    0  0.55033774134E+02  0.61644950896E+02  0.10839970376E+03  0.13637002765E+03  0.41800000000E+01 0.  1.
         -5    1    1    2    0  502  0.51951978341E+01 -0.46878710970E+02  0.14197822261E+02  0.49433330656E+02  0.41800000000E+01 0.  1.
        -11    1    1    2    0    0 -0.54464253580E+02  0.25083338059E+02  0.40840069813E+02  0.72549569734E+02  0.00000000000E+00 0.  1.
         11    1    1    2    0    0 -0.57647183876E+01 -0.39849577985E+02  0.89787581321E+02  0.98402391247E+02  0.00000000000E+00 0. -1.
</event>
<event>
 6    1  0.9216756E-006  0.1344406E+03  0.7561462E-02  0.1221012E+00
         -2   -1    0    0    0  501 -0.00000000000E+00  0.00000000000E+00  0.45620440387E+02  0.45620440387E+02  0.00000000000E+00 0.  1.
          2   -1    0    0  501    0  0.00000000000E+00 -0.00000000000E+00 -0.44925305104E+03  0.44925305104E+03  0.00000000000E+00 0. -1.
          5    1    1    2  502    0 -0.16252873027E+02  0.90678093330E+02 -0.75835737017E+02  0.11939515861E+03  0.41800000000E+01 0.  1.
         -5    1    1    2    0  502  0.54055218012E+02 -0.14398371236E+02 -0.81048245293E+02  0.98567591802E+02  0.41800000000E+01 0.  1.
        -11    1    1    2    0    0 -0.65399720933E+02 -0.58438383829E+02 -0.13986263403E+03  0.16508702130E+03  0.00000000000E+00 0.  1.
         11    1    1    2    0    0  0.27597375948E+02 -0.17841338264E+02 -0.10688599431E+03  0.11182371971E+03  0.00000000000E+00 0. -1.
</event>
