<event>
 7    1  0.2989693E-009  0.1031761E+03  0.7561462E-02  0.1273755E+00
         -2   -1    0    0    0  501 -0.00000000000E+00  0.00000000000E+00  0.24363036860E+02  0.24363036860E+02  0.00000000000E+00 0.  1.
          2   -1    0    0  501    0  0.00000000000E+00 -0.00000000000E+00 -0.56008174009E+03  0.56008174009E+03  0.00000000000E+00 0. -1.
         25    2    1    2    0    0  0.16233043116E+02  0.41285040702E+02 -0.28680632035E+03  0.31602753079E+03  0.12509024163E+03 0.  0.
          5    1    3    3  502    0 -0.47105810527E+01 -0.30805317155E+02 -0.16599968079E+02  0.35555428265E+02  0.41800000000E+01 0. -1.
         -5    1    3    3    0  502  0.20943624169E+02  0.72090357857E+02 -0.27020635227E+03  0.28047210253E+03  0.41800000000E+01 0. -1.
        -11    1    1    2    0    0 -0.39533133070E+02 -0.58603398426E+02 -0.19038083099E+03  0.20308148051E+03  0.00000000000E+00 0. -1.
         11    1    1    2    0    0  0.23300089954E+02  0.17318357724E+02 -0.58531551883E+02  0.65335765641E+02  0.00000000000E+00 0.  1.
</event>
<event>
 7    1  0.4400793E-009  0.9995871E+02  0.7561462E-02  0.1280383E+00
          2   -1    0    0  501    0  0.00000000000E+00  0.00000000000E+00  0.19131288247E+04  0.19131288247E+04  0.00000000000E+00 0. -1.
         -2   -1    0    0    0  501 -0.00000000000E+00 -0.00000000000E+00 -0.10938426165E+02  0.10938426165E+02  0.00000000000E+00 0.  1.
         25    2    1    2    0    0 -0.35479589307E+01  0.37332338248E+01  0.16693315399E+04  0.16740196046E+04  0.12508925358E+03 0.  0.
          5    1    3    3  502    0 -0.34896348925E+02 -0.49005969015E+02  0.63337983782E+03  0.63624431748E+03  0.41800000000E+01 0.  1.
         -5    1    3    3    0  502  0.31348389994E+02  0.52739202840E+02  0.10359517021E+04  0.10377752871E+04  0.41800000000E+01 0.  1.
        -11    1    1    2    0    0 -0.15455855553E+02  0.33177490967E+02  0.46796715063E+02  0.59410116297E+02  0.00000000000E+00 0.  1.
         11    1    1    2    0    0  0.19003814484E+02 -0.36910724792E+02  0.18606214356E+03  0.19063752997E+03  0.00000000000E+00 0. -1.
</event>
<event>
 7    1  0.2989693E-009  0.1202416E+03  0.7561462E-02  0.1242699E+00
         -2   -1    0    0    0  501 -0.00000000000E+00  0.00000000000E+00  0.76923770235E+02  0.76923770235E+02  0.00000000000E+00 0.  1.
          2   -1    0    0  501    0  0.00000000000E+00 -0.00000000000E+00 -0.26612837975E+03  0.26612837975E+03  0.00000000000E+00 0. -1.
         25    2    1    2    0    0  0.72324152435E+02 -0.43958211504E+02 -0.58486106351E+02  0.16195880506E+03  0.12508765933E+03 0.  0.
          5    1    3    3  502    0  0.79912813041E+00  0.39966579657E+02 -0.99347093602E+01  0.41402136965E+02  0.41800000000E+01 0. -1.
         -5    1    3    3    0  502  0.71525024304E+02 -0.83924791161E+02 -0.48551396991E+02  0.12055666810E+03  0.41800000000E+01 0. -1.
        -11    1    1    2    0    0 -0.19230345173E+02 -0.25005120035E+01 -0.10377768968E+03  0.10557399117E+03  0.00000000000E+00 0. -1.
         11    1    1    2    0    0 -0.53093807262E+02  0.46458723508E+02 -0.26940813477E+02  0.75519353747E+02  0.00000000000E+00 0.  1.
</event>
<event>
 7    1  0.2989693E-009  0.2080562E+03  0.7561462E-02  0.1143115E+00
          1   -1    0    0  501    0  0.00000000000E+00  0.00000000000E+00  0.22000215769E+03  0.22000215769E+03  0.00000000000E+00 0. -1.
         -1   -1    0    0    0  501 -0.00000000000E+00 -0.00000000000E+00 -0.27203558627E+03  0.27203558627E+03  0.00000000000E+00 0.  1.
         25    2    1    2    0    0  0.18130348053E+03  0.51965005755E+02  0.84386219874E+02  0.24153823054E+03  0.12509344040E+03 0.  0.
          5    1    3    3  502    0  0.10757046039E+03 -0.31827678398E+02  0.59718120397E+02  0.12715396716E+03  0.41800000000E+01 0. -1.
         -5    1    3    3    0  502  0.73733020139E+02  0.83792684152E+02  0.24668099477E+02  0.11438426338E+03  0.41800000000E+01 0. -1.
        -11    1    1    2    0    0 -0.13962403356E+03 -0.23246003430E+02 -0.14085698030E+03  0.19968959994E+03  0.00000000000E+00 0.  1.
         11    1    1    2    0    0 -0.41679446967E+02 -0.28719002325E+02  0.44373318470E+01  0.50809913481E+02  0.00000000000E+00 0. -1.
</event>
<event>
 7    1  0.2989693E-009  0.9977566E+02  0.7561462E-02  0.1280768E+00
         -1   -1    0    0    0  501 -0.00000000000E+00  0.00000000000E+00  0.28842205688E+02  0.28842205688E+02  0.00000000000E+00 0. -1.
          1   -1    0    0  501    0  0.00000000000E+00 -0.00000000000E+00 -0.56044314499E+03  0.56044314499E+03  0.00000000000E+00 0.  1.
         25    2    1    2    0    0  0.40588522691E+02  0.39733174018E+02 -0.21271919009E+03  0.25325490006E+03  0.12514965952E+03 0.  0.
          5    1    3    3  502    0 -0.84196676199E+01  0.43309856673E+02 -0.19635572926E+03  0.20129500565E+03  0.41800000000E+01 0. -1.
         -5    1    3    3    0  502  0.49008190310E+02 -0.35766826549E+01 -0.16363460835E+02  0.51959894407E+02  0.41800000000E+01 0. -1.
        -11    1    1    2    0    0 -0.68671240716E+02 -0.19765551091E+02 -0.20983253259E+03  0.22166665975E+03  0.00000000000E+00 0.  1.
         11    1    1    2    0    0  0.28082718025E+02 -0.19967622927E+02 -0.10904921662E+03  0.11436379087E+03  0.00000000000E+00 0. -1.
</event>
<event>
 7    1  0.2989693E-009  0.1754453E+03  0.7561462E-02  0.1172285E+00
          1   -1    0    0  501    0  0.00000000000E+00  0.00000000000E+00  0.37556562500E+03  0.37556562500E+03  0.00000000000E+00 0. -1.
         -1   -1    0    0    0  501 -0.00000000000E+00 -0.00000000000E+00 -0.10611582121E+03  0.10611582121E+03  0.00000000000E+00 0.  1.
         25    2    1    2    0    0  0.12864116568E+03  0.59500279452E+02  0.25074388214E+03  0.31402014824E+03  0.12508927337E+03 0.  0.
          5    1    3    3  502    0  0.15152833379E+02  0.72544615005E+02  0.11001190715E+03  0.13271179917E+03  0.41800000000E+01 0.  1.
         -5    1    3    3    0  502  0.11348833230E+03 -0.13044335554E+02  0.14073197499E+03  0.18130834907E+03  0.41800000000E+01 0.  1.
        -11    1    1    2    0    0 -0.10742454351E+02 -0.41766115959E+02 -0.11573220445E+02  0.44651407584E+02  0.00000000000E+00 0. -1.
         11    1    1    2    0    0 -0.11789871133E+03 -0.17734163493E+02  0.30279142099E+02  0.12300989039E+03  0.00000000000E+00 0.  1.
</event>
<event>
 7    1  0.2989693E-009  0.1508610E+03  0.7561462E-02  0.1199419E+00
          1   -1    0    0  501    0  0.00000000000E+00  0.00000000000E+00  0.34701144080E+03  0.34701144080E+03  0.00000000000E+00 0. -1.
         -1   -1    0    0    0  501 -0.00000000000E+00 -0.00000000000E+00 -0.94067216575E+02  0.94067216575E+02  0.00000000000E+00 0.  1.
         25    2    1    2    0    0  0.12154440384E+03  0.16128569500E+02  0.22459160125E+03  0.28481957789E+03  0.12509049420E+03 0.  0.
          5    1    3    3  502    0  0.62025483486E+02  0.49791674735E+02  0.42522403893E+02  0.90288419564E+02  0.41800000000E+01 0.  1.
         -5    1    3    3    0  502  0.59518920356E+02 -0.33663105234E+02  0.18206919736E+03  0.19453115833E+03  0.41800000000E+01 0.  1.
        -11    1    1    2    0    0 -0.56641252080E+02  0.38704131245E+02  0.15446069663E+02  0.70319430321E+02  0.00000000000E+00 0.  1.
         11    1    1    2    0    0 -0.64903151761E+02 -0.54832700745E+02  0.12906553312E+02  0.85939649161E+02  0.00000000000E+00 0. -1.
</event>
<event>
 7    1  0.2989693E-009  0.9547167E+02  0.7561462E-02  0.1290117E+00
          1   -1    0    0  501    0  0.00000000000E+00  0.00000000000E+00  0.88148091850E+03  0.88148091850E+03  0.00000000000E+00 0. -1.
         -1   -1    0    0    0  501 -0.00000000000E+00 -0.00000000000E+00 -0.20240272841E+02  0.20240272841E+02  0.00000000000E+00 0.  1.
         25    2    1    2    0    0 -0.60115540176E+02  0.24105748244E+02  0.61189943928E+03  0.62791151300E+03  0.12512785099E+03 0.  0.
          5    1    3    3  502    0 -0.79009641307E+02 -0.16834672726E+02  0.51037892889E+03  0.51674950709E+03  0.41800000000E+01 0. -1.
         -5    1    3    3    0  502  0.18894101131E+02  0.40940420970E+02  0.10152051040E+03  0.11116200591E+03  0.41800000000E+01 0. -1.
        -11    1    1    2    0    0  0.15576574340E+02 -0.61716683180E+01 -0.29308543800E+01  0.17009087729E+02  0.00000000000E+00 0.  1.
         11    1    1    2    0    0  0.44538965836E+02 -0.17934079926E+02  0.25227206076E+03  0.25680059061E+03  0.00000000000E+00 0. -1.
</event>
<event>
 7    1  0.2989693E-009  0.8979370E+02  0.7561462E-02  0.1303352E+00
         -1   -1    0    0    0  501 -0.00000000000E+00  0.00000000000E+00  0.29610726217E+02  0.29610726217E+02  0.00000000000E+00 0.  1.
          1   -1    0    0  501    0  0.00000000000E+00 -0.00000000000E+00 -0.41242354660E+03  0.41242354660E+03  0.00000000000E+00 0. -1.
         25    2    1    2    0    0  0.14474410994E+02  0.32467504706E+01 -0.24595559078E+03  0.27633674417E+03  0.12509114110E+03 0.  0.
          5    1    3    3  502    0  0.63939866221E+02  0.25075507182E+02 -0.10744996422E+03  0.12759331786E+03  0.41800000000E+01 0.  1.
         -5    1    3    3    0  502 -0.49465455228E+02 -0.21828756711E+02 -0.13850562657E+03  0.14874342631E+03  0.41800000000E+01 0.  1.
        -11    1    1    2    0    0 -0.15498419764E+02 -0.27878612097E+02 -0.58976031831E+01  0.32437628627E+02  0.00000000000E+00 0.  1.
         11    1    1    2    0    0  0.10240087705E+01  0.24631861627E+02 -0.13095962642E+03  0.13325990002E+03  0.00000000000E+00 0. -1.
</event>
<event>
 7    1  0.3915548E-009  0.1387901E+03  0.7561462E-02  0.1214966E+00
          2   -1    0    0  501    0  0.00000000000E+00  0.00000000000E+00  0.55961312208E+03  0.55961312208E+03  0.00000000000E+00 0. -1.
         -2   -1    0    0    0  501 -0.00000000000E+00 -0.00000000000E+00 -0.43608593401E+02  0.43608593401E+02  0.00000000000E+00 0.  1.
         25    2    1    2    0    0  0.69770108506E+02  0.79065386327E+02  0.35127597843E+03  0.38750670232E+03  0.12508967968E+03 0.  0.
          5    1    3    3  502    0  0.29870531749E+02  0.10839917184E+03  0.21923571559E+03  0.24642321423E+03  0.41800000000E+01 0.  1.
         -5    1    3    3    0  502  0.39899576757E+02 -0.29333785517E+02  0.13204026284E+03  0.14108348808E+03  0.41800000000E+01 0.  1.
        -11    1    1    2    0    0 -0.50551525736E+02 -0.21965613722E+02  0.19465570180E+02  0.58453856698E+02  0.00000000000E+00 0.  1.
         11    1    1    2    0    0 -0.19218582770E+02 -0.57099772606E+02  0.14526298007E+03  0.15726115647E+03  0.00000000000E+00 0. -1.
</event>
<event>
 6    1  0.2989693E-009  0.1167445E+03  0.7561462E-02  0.1248566E+00
          1   -1    0    0  501    0  0.00000000000E+00  0.00000000000E+00  0.14064146133E+03  0.14064146133E+03  0.00000000000E+00 0. -1.
         -1   -1    0    0    0  501 -0.00000000000E+00 -0.00000000000E+00 -0.13736820111E+03  0.13736820111E+03  0.00000000000E+00 0.  1.
          5    1    1    2  502    0  0.79166023996E+02 -0.44182140018E+02 -0.67956294271E+02  0.11337923612E+03  0.41800000000E+01 0.  1.
         -5    1    1    2    0  502 -0.47725748484E+01  0.24702092952E+02  0.28825668544E+02  0.38488471441E+02  0.41800000000E+01 0.  1.
        -11    1    1    2    0    0 -0.58330833872E+02 -0.29725011512E+02  0.33775895279E+02  0.73667316983E+02  0.00000000000E+00 0.  1.
         11    1    1    2    0    0 -0.16062615275E+02  0.49205058578E+02  0.86279906768E+01  0.52474637895E+02  0.00000000000E+00 0. -1.
</event>
<event>
 7    1  0.2989693E-009  0.1106777E+03  0.7561462E-02  0.1259320E+00
          4   -1    0    0  501    0  0.00000000000E+00  0.00000000000E+00  0.27844993189E+02  0.27844993189E+02  0.00000000000E+00 0. -1.
         -4   -1    0    0    0  501 -0.00000000000E+00 -0.00000000000E+00 -0.58511069552E+03  0.58511069552E+03  0.00000000000E+00 0.  1.
         25    2    1    2    0    0  0.38364078213E+02 -0.53996204689E+02 -0.30609968285E+03  0.33724205909E+03  0.12509115861E+03 0.  0.
          5    1    3    3  502    0 -0.30266968166E+02 -0.32706267312E+02 -0.35195021822E+02  0.56938135239E+02  0.41800000000E+01 0.  1.
         -5    1    3    3    0  502  0.68631046379E+02 -0.21289937377E+02 -0.27090466102E+03  0.28030392385E+03  0.41800000000E+01 0.  1.
        -11    1    1    2    0    0 -0.51165660111E+02  0.21449864858E+01 -0.17739570887E+03  0.18463954957E+03  0.00000000000E+00 0.  1.
         11    1    1    2    0    0  0.12801581897E+02  0.51851218203E+02 -0.73770310616E+02  0.91074080048E+02  0.00000000000E+00 0. -1.
</event>
<event>
 7    1  0.2989693E-009  0.1224458E+03  0.7561462E-02  0.1239116E+00
          2   -1    0    0  501    0  0.00000000000E+00  0.00000000000E+00  0.55062820748E+02  0.55062820748E+02  0.00000000000E+00 0.  1.
         -2   -1    0    0    0  501 -0.00000000000E+00 -0.00000000000E+00 -0.27660084609E+03  0.27660084609E+03  0.00000000000E+00 0. -1.
         25    2    1    2    0    0  0.10803624862E+02 -0.58277370146E+02 -0.11961929108E+03  0.18294386357E+03  0.12508681881E+03 0.  0.
          5    1    3    3  502    0  0.64888990567E+02 -0.52758919486E+02 -0.68160865524E+02  0.10796972108E+03  0.41800000000E+01 0. -1.
         -5    1    3    3    0  502 -0.54085365705E+02 -0.55184506602E+01 -0.51458425553E+02  0.74974142486E+02  0.41800000000E+01 0. -1.
        -11    1    1    2    0    0 -0.47827592095E+02  0.48976397504E+02 -0.52475738659E+02  0.86254676545E+02  0.00000000000E+00 0.  1.
         11    1    1    2    0    0  0.37023967233E+02  0.93009726426E+01 -0.49442995602E+02  0.62465126717E+02  0.00000000000E+00 0. -1.
</event>
<event>
 7    1  0.2989693E-009  0.1627917E+03  0.7561462E-02  0.1185581E+00
         -2   -1    0    0    0  501 -0.00000000000E+00  0.00000000000E+00  0.77438812488E+02  0.77438812488E+02  0.00000000000E+00 0.  1.
          2   -1    0    0  501    0  0.00000000000E+00 -0.00000000000E+00 -0.50572382882E+03  0.50572382882E+03  0.00000000000E+00 0. -1.
         25    2    1    2    0    0 -0.13793218885E+03  0.38270312039E+02 -0.10332726404E+03  0.21636709507E+03  0.12509312862E+03 0.  0.
          5    1    3    3  502    0 -0.33766901986E+02  0.57060970465E+02  0.27017568925E+01  0.66490073774E+02  0.41800000000E+01 0.  1.
         -5    1    3    3    0  502 -0.10416528687E+03 -0.18790658426E+02 -0.10602902093E+03  0.14987702129E+03  0.41800000000E+01 0.  1.
        -11    1    1    2    0    0  0.12109097082E+03 -0.11558384234E+02 -0.30756238479E+03  0.33074346554E+03  0.00000000000E+00 0. -1.
         11    1    1    2    0    0  0.16841218032E+02 -0.26711927806E+02 -0.17395367499E+02  0.36052080693E+02  0.00000000000E+00 0.  1.
</event>
<event>
 7    1  0.2989693E-009  0.1246348E+03  0.7561462E-02  0.1235641E+00
          1   -1    0    0  501    0  0.00000000000E+00  0.00000000000E+00  0.13699927167E+03  0.13699927167E+03  0.00000000000E+00 0. -1.
         -1   -1    0    0    0  501 -0.00000000000E+00 -0.00000000000E+00 -0.14972486238E+03  0.14972486238E+03  0.00000000000E+00 0.  1.
         25    2    1    2    0    0 -0.76625252178E+02 -0.41071093884E+02 -0.15878685869E+02  0.15316502712E+03  0.12509647814E+03 0.  0.
          5    1    3    3  502    0 -0.49904866274E+02  0.22180323208E+02  0.37256985073E+02  0.66242114642E+02  0.41800000000E+01 0.  1.
         -5    1    3    3    0  502 -0.26720385904E+02 -0.63251417092E+02 -0.53135670942E+02  0.86922912477E+02  0.41800000000E+01 0.  1.
        -11    1    1    2    0    0  0.73398453700E+02 -0.10402948557E+02  0.24014574802E+02  0.77924669696E+02  0.00000000000E+00 0.  1.
         11    1    1    2    0    0  0.32267984784E+01  0.51474042440E+02 -0.20861479649E+02  0.55634437237E+02  0.00000000000E+00 0. -1.
</event>
<event>
 7    1  0.2989693E-009  0.1343396E+03  0.7561462E-02  0.1221155E+00
         -2   -1    0    0    0  501 -0.00000000000E+00  0.00000000000E+00  0.55125555198E+02  0.55125555198E+02  0.00000000000E+00 0.  1.
          2   -1    0    0  501    0  0.00000000000E+00 -0.00000000000E+00 -0.48115342633E+03  0.48115342633E+03  0.00000000000E+00 0. -1.
         25    2    1    2    0    0  0.37628231935E+02 -0.81244275478E+02 -0.93642595543E+02  0.18009212670E+03  0.12509085603E+03 0.  0.
          5    1    3    3  502    0  0.29096041594E+02 -0.11057060165E+03 -0.45927682053E+02  0.12328528689E+03  0.41800000000E+01 0. -1.
         -5    1    3    3    0  502  0.85321903413E+01  0.29326326173E+02 -0.47714913490E+02  0.56806839801E+02  0.41800000000E+01 0. -1.
        -11    1    1    2    0    0  0.25675353607E+02  0.41167163868E+02 -0.17932901853E+03  0.18577636032E+03  0.00000000000E+00 0. -1.
         11    1    1    2    0    0 -0.63303585542E+02  0.40077111609E+02 -0.15305625705E+03  0.17041049452E+03  0.00000000000E+00 0.  1.
</event>
<event>
 7    1  0.2989693E-009  0.9928339E+02  0.7561462E-02  0.1281810E+00
          1   -1    0    0  501    0  0.00000000000E+00  0.00000000000E+00  0.36143410365E+03  0.36143410365E+03  0.00000000000E+00 0. -1.
         -1   -1    0    0    0  501 -0.00000000000E+00 -0.00000000000E+00 -0.40801910086E+02  0.40801910086E+02  0.00000000000E+00 0.  1.
         25    2    1    2    0    0  0.46611645263E+02 -0.79109257067E+01  0.13257718818E+03  0.18830723617E+03  0.12509067171E+03 0.  0.
          5    1    3    3  502    0  0.78609406058E+02  0.29548043324E+02  0.88428236414E+02  0.12202274780E+03  0.41800000000E+01 0. -1.
         -5    1    3    3    0  502 -0.31997760795E+02 -0.37458969031E+02  0.44148951762E+02  0.66284488370E+02  0.41800000000E+01 0. -1.
        -11    1    1    2    0    0 -0.24607167894E+02 -0.18411876700E+02  0.95878017087E+01  0.32193723876E+02  0.00000000000E+00 0.  1.
         11    1    1    2    0    0 -0.22004477369E+02  0.26322802407E+02  0.17846720368E+03  0.18173505369E+03  0.00000000000E+00 0. -1.
</event>
<event>
 7    1  0.2989693E-009  0.1019954E+03  0.7561462E-02  0.1276155E+00
         -3   -1    0    0    0  501 -0.00000000000E+00  0.00000000000E+00  0.61492649160E+02  0.61492649160E+02  0.00000000000E+00 0.  1.
          3   -1    0    0  501    0  0.00000000000E+00 -0.00000000000E+00 -0.29581692279E+03  0.29581692279E+03  0.00000000000E+00 0. -1.
         25    2    1    2    0    0  0.28490612113E+01  0.59969906885E+01 -0.22749203206E+02  0.12731020633E+03  0.12508509641E+03 0.  0.
          5    1    3    3  502    0  0.44335626446E+02  0.44748711118E+02  0.62237696549E+01  0.63437391401E+02  0.41800000000E+01 0. -1.
         -5    1    3    3    0  502 -0.41486565234E+02 -0.38751720429E+02 -0.28972972861E+02  0.63872814934E+02  0.41800000000E+01 0. -1.
        -11    1    1    2    0    0  0.40275688079E+02 -0.65659457904E+01 -0.14534252690E+03  0.15096255437E+03  0.00000000000E+00 0. -1.
         11    1    1    2    0    0 -0.43124749291E+02  0.56895510185E+00 -0.66232543524E+02  0.79036811252E+02  0.00000000000E+00 0.  1.
</event>
<event>
 7    1  0.2989693E-009  0.1008174E+03  0.7561462E-02  0.1278586E+00
         -2   -1    0    0    0  501 -0.00000000000E+00  0.00000000000E+00  0.61916365597E+02  0.61916365597E+02  0.00000000000E+00 0.  1.
          2   -1    0    0  501    0  0.00000000000E+00 -0.00000000000E+00 -0.23200439540E+03  0.23200439540E+03  0.00000000000E+00 0. -1.
         25    2    1    2    0    0 -0.36772968261E+02  0.36218575902E+02 -0.10662379961E+03  0.17227908820E+03  0.12508962049E+03 0.  0.
          5    1    3    3  502    0 -0.55156206883E+01 -0.30984031012E+02  0.10648856122E+02  0.33485859493E+02  0.41800000000E+01 0.  1.
         -5    1    3    3    0  502 -0.31257347572E+02  0.67202606914E+02 -0.11727265573E+03  0.13879322871E+03  0.41800000000E+01 0.  1.
        -11    1    1    2    0    0  0.11445932313E+01 -0.55249144055E+02 -0.59265035871E+02  0.81031614134E+02  0.00000000000E+00 0. -1.
         11    1    1    2    0    0  0.35628375029E+02  0.19030568152E+02 -0.41991943247E+01  0.40610058660E+02  0.00000000000E+00 0.  1.
</event>
<event>
 7    1  0.2989693E-009  0.1195790E+03  0.7561462E-02  0.1243793E+00
         -2   -1    0    0    0  501 -0.00000000000E+00  0.00000000000E+00  0.37548173671E+02  0.37548173671E+02  0.00000000000E+00 0.  1.
          2   -1    0    0  501    0  0.00000000000E+00 -0.00000000000E+00 -0.54554131491E+03  0.54554131491E+03  0.00000000000E+00 0. -1.
         25    2    1    2    0    0 -0.52462689124E+02  0.74271056390E+02 -0.31267442104E+03  0.34882852960E+03  0.12509007124E+03 0.  0.
          5    1    3    3  502    0 -0.87279882475E+02  0.31527192377E+02 -0.14435306236E+03  0.17165960724E+03  0.41800000000E+01 0. -1.
         -5    1    3    3    0  502  0.34817193351E+02  0.42743864012E+02 -0.16832135868E+03  0.17716892236E+03  0.41800000000E+01 0. -1.
        -11    1    1    2    0    0  0.29315078906E+02 -0.39026508609E+02 -0.18041244810E+02  0.52037762632E+02  0.00000000000E+00 0.  1.
         11    1    1    2    0    0  0.23147610217E+02 -0.35244547781E+02 -0.17727747539E+03  0.18222319635E+03  0.00000000000E+00 0. -1.
</event>
<event>
 7    1  0.2989693E-009  0.1728000E+03  0.7561462E-02  0.1174959E+00
         -1   -1    0    0    0  501 -0.00000000000E+00  0.00000000000E+00  0.16062356735E+03  0.16062356735E+03  0.00000000000E+00 0.  1.
          1   -1    0    0  501    0  0.00000000000E+00 -0.00000000000E+00 -0.27337695655E+03  0.27337695655E+03  0.00000000000E+00 0. -1.
         25    2    1    2    0    0  0.78707241418E+02 -0.15113968655E+03  0.66693487195E+00  0.21139091829E+03  0.12509053054E+03 0.  0.
          5    1    3    3  502    0  0.73802301478E+02 -0.10817434415E+03  0.54767395443E+02  0.14200495921E+03  0.41800000000E+01 0.  1.
         -5    1    3    3    0  502  0.49049399398E+01 -0.42965342398E+02 -0.54100460572E+02  0.69385959079E+02  0.41800000000E+01 0.  1.
        -11    1    1    2    0    0 -0.54864268174E+02  0.11972352440E+03 -0.12493015004E+03  0.18152507432E+03  0.00000000000E+00 0. -1.
         11    1    1    2    0    0 -0.23842973245E+02  0.31416162151E+02  0.11509825970E+02  0.41084531290E+02  0.00000000000E+00 0.  1.
</event>
<event>
 7    1  0.2989693E-009  0.1071338E+03  0.7561462E-02  0.1265972E+00
         -3   -1    0    0    0  501 -0.00000000000E+00  0.00000000000E+00  0.28179534807E+03  0.28179534807E+03  0.00000000000E+00 0.  1.
          3   -1    0    0  501    0  0.00000000000E+00 -0.00000000000E+00 -0.63631550076E+02  0.63631550076E+02  0.00000000000E+00 0. -1.
         25    2    1    2    0    0 -0.62953557837E+02  0.21331193823E+02  0.17994696358E+03  0.22900937510E+03  0.12508482683E+03 0.  0.
          5    1    3    3  502    0 -0.49177133283E+02  0.71733355368E+02  0.13095970490E+03  0.15726404998E+03  0.41800000000E+01 0.  1.
         -5    1    3    3    0  502 -0.13776424554E+02 -0.50402161545E+02  0.48987258689E+02  0.71745325114E+02  0.41800000000E+01 0.  1.
        -11    1    1    2    0    0  0.29588655465E+02  0.76740889166E+01  0.59845688312E+02  0.67200346594E+02  0.00000000000E+00 0.  1.
         11    1    1    2    0    0  0.33364902372E+02 -0.29005282740E+02 -0.21628853903E+02  0.49217176456E+02  0.00000000000E+00 0. -1.
</event>
<event>
 7    1  0.2989693E-009  0.1262485E+03  0.7561462E-02  0.1233131E+00
          2   -1    0    0  501    0  0.00000000000E+00  0.00000000000E+00  0.12176362369E+03  0.12176362369E+03  0.00000000000E+00 0. -1.
         -2   -1    0    0    0  501 -0.00000000000E+00 -0.00000000000E+00 -0.15517347167E+03  0.15517347167E+03  0.00000000000E+00 0.  1.
         25    2    1    2    0    0  0.31764382381E+02 -0.57805324944E+02 -0.71645416959E+02  0.15852681588E+03  0.12508898434E+03 0.  0.
          5    1    3    3  502    0  0.75031770294E+02 -0.61708520891E+02 -0.55702822601E+02  0.11206241542E+03  0.41800000000E+01 0. -1.
         -5    1    3    3    0  502 -0.43267387913E+02  0.39031959465E+01 -0.15942594358E+02  0.46464400462E+02  0.41800000000E+01 0. -1.
        -11    1    1    2    0    0 -0.63241186093E+02  0.31802125849E+02  0.19091592307E+02  0.73316517401E+02  0.00000000000E+00 0. -1.
         11    1    1    2    0    0  0.31476803713E+02  0.26003199096E+02  0.19143976674E+02  0.45093762075E+02  0.00000000000E+00 0.  1.
</event>
<event>
 7    1  0.3331749E-009  0.1080976E+03  0.7561462E-02  0.1264134E+00
          2   -1    0    0  501    0  0.00000000000E+00  0.00000000000E+00  0.52676682396E+03  0.52676682396E+03  0.00000000000E+00 0.  1.
         -2   -1    0    0    0  501 -0.00000000000E+00 -0.00000000000E+00 -0.36952989225E+02  0.36952989225E+02  0.00000000000E+00 0. -1.
         25    2    1    2    0    0 -0.16910117074E+02  0.70229442877E+02  0.16846087839E+03  0.22191084904E+03  0.12508889106E+03 0.  0.
          5    1    3    3  502    0  0.51717979763E+02  0.49158734394E+02  0.97402211861E+02  0.12081388113E+03  0.41800000000E+01 0. -1.
         -5    1    3    3    0  502 -0.68628096837E+02  0.21070708484E+02  0.71058666529E+02  0.10109696791E+03  0.41800000000E+01 0. -1.
        -11    1    1    2    0    0  0.83548175937E+01 -0.52044312953E+02  0.31686184705E+03  0.32121619449E+03  0.00000000000E+00 0.  1.
         11    1    1    2    0    0  0.85552994803E+01 -0.18185129924E+02  0.44911092999E+01  0.20592769660E+02  0.00000000000E+00 0. -1.
</event>
<event>
 7    1  0.2989693E-009  0.1001208E+03  0.7561462E-02  0.1280042E+00
         -1   -1    0    0    0  501 -0.00000000000E+00  0.00000000000E+00  0.58385805838E+02  0.58385805838E+02  0.00000000000E+00 0.  1.
          1   -1    0    0  501    0  0.00000000000E+00 -0.00000000000E+00 -0.31584057990E+03  0.31584057990E+03  0.00000000000E+00 0. -1.
         25    2    1    2    0    0  0.40017578495E+02  0.31671847410E+02 -0.53097727581E+02  0.14515994944E+03  0.12509008650E+03 0.  0.
          5    1    3    3  502    0 -0.19861649525E+02  0.30653023817E+02 -0.73147737027E+02  0.81866701553E+02  0.41800000000E+01 0.  1.
         -5    1    3    3    0  502  0.59879228021E+02  0.10188235933E+01  0.20050009446E+02  0.63293247892E+02  0.41800000000E+01 0.  1.
        -11    1    1    2    0    0  0.27426469789E+02 -0.22308240682E+02 -0.72997109049E+02  0.81107624653E+02  0.00000000000E+00 0. -1.
         11    1    1    2    0    0 -0.67444048285E+02 -0.93636067283E+01 -0.13135993744E+03  0.14795881164E+03  0.00000000000E+00 0.  1.
</event>
<event>
 7    1  0.2989693E-009  0.1071945E+03  0.7561462E-02  0.1265855E+00
          3   -1    0    0  501    0  0.00000000000E+00  0.00000000000E+00  0.36443285168E+03  0.36443285168E+03  0.00000000000E+00 0. -1.
         -3   -1    0    0    0  501 -0.00000000000E+00 -0.00000000000E+00 -0.37525403592E+02  0.37525403592E+02  0.00000000000E+00 0.  1.
         25    2    1    2    0    0  0.69114182525E+01  0.47258521583E+02  0.19609983322E+03  0.23745299029E+03  0.12509053698E+03 0.  0.
          5    1    3    3  502    0 -0.38022934916E+02 -0.22860458682E+02  0.37388921646E+02  0.58169992373E+02  0.41800000000E+01 0.  1.
         -5    1    3    3    0  502  0.44934353169E+02  0.70118980266E+02  0.15871091158E+03  0.17928299792E+03  0.41800000000E+01 0.  1.
        -11    1    1    2    0    0 -0.85006455462E+01 -0.66546411062E+02  0.56471078781E+02  0.87690755149E+02  0.00000000000E+00 0.  1.
         11    1    1    2    0    0  0.15892272938E+01  0.19287889479E+02  0.74336536084E+02  0.76814509834E+02  0.00000000000E+00 0. -1.
</event>
<event>
 7    1  0.2989693E-009  0.1407335E+03  0.7561462E-02  0.1212345E+00
          2   -1    0    0  501    0  0.00000000000E+00  0.00000000000E+00  0.88072105706E+02  0.88072105706E+02  0.00000000000E+00 0. -1.
         -2   -1    0    0    0  501 -0.00000000000E+00 -0.00000000000E+00 -0.23192706339E+03  0.23192706339E+03  0.00000000000E+00 0.  1.
         25    2    1    2    0    0 -0.88388899839E+02  0.23319534264E+02 -0.93239716063E+02  0.18082566818E+03  0.12509148384E+03 0.  0.
          5    1    3    3  502    0  0.31825003440E+02 -0.13644390251E+01 -0.18402411210E+02  0.37024501025E+02  0.41800000000E+01 0. -1.
         -5    1    3    3    0  502 -0.12021390328E+03  0.24683973289E+02 -0.74837304853E+02  0.14380116716E+03  0.41800000000E+01 0. -1.
        -11    1    1    2    0    0  0.42956223970E+02 -0.56002295593E+02 -0.43113986596E+02  0.82706167422E+02  0.00000000000E+00 0. -1.
         11    1    1    2    0    0  0.45432675869E+02  0.32682761329E+02 -0.75012550264E+01  0.56467333492E+02  0.00000000000E+00 0.  1.
</event>
<event>
 7    1  0.2989693E-009  0.1335138E+03  0.7561462E-02  0.1222333E+00
         -1   -1    0    0    0  501 -0.00000000000E+00  0.00000000000E+00  0.39387287252E+02  0.39387287252E+02  0.00000000000E+00 0.  1.
          1   -1    0    0  501    0  0.00000000000E+00 -0.00000000000E+00 -0.61721793314E+03  0.61721793314E+03  0.00000000000E+00 0. -1.
         25    2    1    2    0    0  0.23892405961E+02  0.82067097004E+02 -0.16279780992E+03  0.22238788338E+03  0.12508952109E+03 0.  0.
          5    1    3    3  502    0  0.19369669822E+02  0.11293431627E+03 -0.99988631159E+02  0.15213330556E+03  0.41800000000E+01 0. -1.
         -5    1    3    3    0  502  0.45227361388E+01 -0.30867219269E+02 -0.62809178760E+02  0.70254577815E+02  0.41800000000E+01 0. -1.
        -11    1    1    2    0    0 -0.32830259247E+01 -0.95973807370E+02 -0.37493144536E+03  0.38703402781E+03  0.00000000000E+00 0.  1.
         11    1    1    2    0    0 -0.20609380036E+02  0.13906710366E+02 -0.40101390601E+02  0.47183309198E+02  0.00000000000E+00 0. -1.
</event>
<event>
 7    1  0.2989693E-009  0.1118906E+03  0.7561462E-02  0.1257108E+00
          2   -1    0    0  501    0  0.00000000000E+00  0.00000000000E+00  0.52034769710E+03  0.52034769710E+03  0.00000000000E+00 0. -1.
         -2   -1    0    0    0  501 -0.00000000000E+00 -0.00000000000E+00 -0.34740974597E+02  0.34740974597E+02  0.00000000000E+00 0.  1.
         25    2    1    2    0    0 -0.63466732173E+02  0.39452044841E+01  0.36307631109E+03  0.38925058868E+03  0.12509205565E+03 0.  0.
          5    1    3    3  502    0 -0.87796250892E+02 -0.25118261548E+01  0.34941064477E+03  0.36030509574E+03  0.41800000000E+01 0. -1.
         -5    1    3    3    0  502  0.24329518718E+02  0.64570306389E+01  0.13665666320E+02  0.28945492943E+02  0.41800000000E+01 0. -1.
        -11    1    1    2    0    0  0.56885415301E+02 -0.42633917207E+02  0.65875051850E+02  0.96918129504E+02  0.00000000000E+00 0.  1.
         11    1    1    2    0    0  0.65813168719E+01  0.38688712723E+02  0.56655359568E+02  0.68919953509E+02  0.00000000000E+00 0. -1.
</event>
<event>
 7    1  0.2989693E-009  0.2512403E+03  0.7561462E-02  0.1112523E+00
          2   -1    0    0  501    0  0.00000000000E+00  0.00000000000E+00  0.12535115193E+04  0.12535115193E+04  0.00000000000E+00 0. -1.
         -2   -1    0    0    0  501 -0.00000000000E+00 -0.00000000000E+00 -0.60049140399E+02  0.60049140399E+02  0.00000000000E+00 0.  1.
         25    2    1    2    0    0 -0.23487816848E+03 -0.79074957223E+02  0.52104310998E+03  0.59038266374E+03  0.12508063118E+03 0.  0.
          5    1    3    3  502    0 -0.11653753554E+03 -0.62853663724E+02  0.14784303716E+03  0.19851099785E+03  0.41800000000E+01 0. -1.
         -5    1    3    3    0  502 -0.11834063294E+03 -0.16221293499E+02  0.37320007283E+03  0.39187166589E+03  0.41800000000E+01 0. -1.
        -11    1    1    2    0    0  0.14611835605E+03  0.67569318652E+02  0.30345117591E+03  0.34350953838E+03  0.00000000000E+00 0. -1.
         11    1    1    2    0    0  0.88759812435E+02  0.11505638570E+02  0.36896809303E+03  0.37966845760E+03  0.00000000000E+00 0.  1.
</event>
<event>
 7    1  0.2989693E-009  0.1419643E+03  0.7561462E-02  0.1210710E+00
         -2   -1    0    0    0  501 -0.00000000000E+00  0.00000000000E+00  0.99423348303E+02  0.99423348303E+02  0.00000000000E+00 0.  1.
          2   -1    0    0  501    0  0.00000000000E+00 -0.00000000000E+00 -0.24549437510E+03  0.24549437510E+03  0.00000000000E+00 0. -1.
         25    2    1    2    0    0  0.11102913204E+03 -0.32539701567E+01 -0.66168434260E+02  0.17989901946E+03  0.12508932419E+03 0.  0.
          5    1    3    3  502    0  0.12644690578E+03  0.26915277472E+02 -0.35803650341E+02  0.13421112443E+03  0.41800000000E+01 0. -1.
         -5    1    3    3    0  502 -0.15417773739E+02 -0.30169247629E+02 -0.30364783919E+02  0.45687895028E+02  0.41800000000E+01 0. -1.
        -11    1    1    2    0    0 -0.80829852039E+02 -0.18875311136E+02 -0.72920092935E+01  0.83324160666E+02  0.00000000000E+00 0.  1.
         11    1    1    2    0    0 -0.30199280000E+02  0.22129281293E+02 -0.72610583247E+02  0.81694543285E+02  0.00000000000E+00 0. -1.
</event>
<event>
 7    1  0.2989693E-009  0.1268558E+03  0.7561462E-02  0.1232197E+00
         -2   -1    0    0    0  501 -0.00000000000E+00  0.00000000000E+00  0.47011017469E+02  0.47011017469E+02  0.00000000000E+00 0.  1.
          2   -1    0    0  501    0  0.00000000000E+00 -0.00000000000E+00 -0.39755213699E+03  0.39755213699E+03  0.00000000000E+00 0. -1.
         25    2    1    2    0    0  0.73677004016E+02 -0.76932839883E+01 -0.14088459440E+03  0.20245307366E+03  0.12510511802E+03 0.  0.
          5    1    3    3  502    0  0.93695371332E+02 -0.36204702362E+02 -0.67443316783E+02  0.12106063134E+03  0.41800000000E+01 0.  1.
         -5    1    3    3    0  502 -0.20018367316E+02  0.28511418374E+02 -0.73441277618E+02  0.81392442314E+02  0.41800000000E+01 0.  1.
        -11    1    1    2    0    0 -0.90366309554E+02  0.25289697512E+02 -0.18547638382E+03  0.20786324268E+03  0.00000000000E+00 0. -1.
         11    1    1    2    0    0  0.16689305538E+02 -0.17596413524E+02 -0.24180141300E+02  0.34246838125E+02  0.00000000000E+00 0.  1.
</event>
<event>
 7    1  0.2989693E-009  0.1061008E+03  0.7561462E-02  0.1267966E+00
          3   -1    0    0  501    0  0.00000000000E+00  0.00000000000E+00  0.34775370423E+03  0.34775370423E+03  0.00000000000E+00 0. -1.
         -3   -1    0    0    0  501 -0.00000000000E+00 -0.00000000000E+00 -0.55370532229E+02  0.55370532229E+02  0.00000000000E+00 0.  1.
         25    2    1    2    0    0 -0.40698230779E+02  0.89718577060E+01  0.50995124596E+02  0.14136639751E+03  0.12508843029E+03 0.  0.
          5    1    3    3  502    0 -0.70094402919E+02 -0.33287979389E+02  0.43846585404E+02  0.89226175217E+02  0.41800000000E+01 0. -1.
         -5    1    3    3    0  502  0.29396172140E+02  0.42259837095E+02  0.71485391918E+01  0.52140222289E+02  0.41800000000E+01 0. -1.
        -11    1    1    2    0    0  0.42848218326E+02 -0.35857653011E+02  0.22098388668E+03  0.22793775305E+03  0.00000000000E+00 0. -1.
         11    1    1    2    0    0 -0.21499875471E+01  0.26885795305E+02  0.20404160725E+02  0.33820085904E+02  0.00000000000E+00 0.  1.
</event>
<event>
 7    1  0.2989693E-009  0.9989364E+02  0.7561462E-02  0.1280520E+00
          1   -1    0    0  501    0  0.00000000000E+00  0.00000000000E+00  0.43219439229E+03  0.43219439229E+03  0.00000000000E+00 0. -1.
         -1   -1    0    0    0  501 -0.00000000000E+00 -0.00000000000E+00 -0.34974301556E+02  0.34974301556E+02  0.00000000000E+00 0.  1.
         25    2    1    2    0    0 -0.41190092728E+01  0.58638502591E+02  0.21122704630E+03  0.25242819306E+03  0.12509071643E+03 0.  0.
          5    1    3    3  502    0 -0.56998640938E+02  0.37575958220E+02  0.60713385491E+02  0.91457013305E+02  0.41800000000E+01 0. -1.
         -5    1    3    3    0  502  0.52879631665E+02  0.21062544371E+02  0.15051366081E+03  0.16097117975E+03  0.41800000000E+01 0. -1.
        -11    1    1    2    0    0  0.22942983031E+02 -0.46683739742E+02  0.18526548708E+03  0.19242934477E+03  0.00000000000E+00 0. -1.
         11    1    1    2    0    0 -0.18823973758E+02 -0.11954762849E+02  0.72755734619E+00  0.22311156010E+02  0.00000000000E+00 0.  1.
</event>
<event>
 7    1  0.2989693E-009  0.9402746E+02  0.7561462E-02  0.1293382E+00
         -1   -1    0    0    0  501 -0.00000000000E+00  0.00000000000E+00  0.57058070611E+02  0.57058070611E+02  0.00000000000E+00 0.  1.
          1   -1    0    0  501    0  0.00000000000E+00 -0.00000000000E+00 -0.62141764382E+03  0.62141764382E+03  0.00000000000E+00 0. -1.
         25    2    1    2    0    0  0.54723535461E+02 -0.44808788839E+02 -0.54183661686E+03  0.56056818010E+03  0.12508905739E+03 0.  0.
          5    1    3    3  502    0  0.38896965767E+01 -0.55107185398E+01  0.53730605185E+01  0.95833155859E+01  0.41800000000E+01 0. -1.
         -5    1    3    3    0  502  0.50833838885E+02 -0.39298070299E+02 -0.54720967738E+03  0.55098486451E+03  0.41800000000E+01 0. -1.
        -11    1    1    2    0    0 -0.48509743713E+02 -0.18648056460E+02 -0.95488258525E+01  0.52840565099E+02  0.00000000000E+00 0.  1.
         11    1    1    2    0    0 -0.62137917484E+01  0.63456845299E+02 -0.12974130499E+02  0.65066969235E+02  0.00000000000E+00 0. -1.
</event>
<event>
 7    1  0.2989693E-009  0.1010463E+03  0.7561462E-02  0.1278111E+00
         -2   -1    0    0    0  501 -0.00000000000E+00  0.00000000000E+00  0.35360131558E+03  0.35360131558E+03  0.00000000000E+00 0.  1.
          2   -1    0    0  501    0  0.00000000000E+00 -0.00000000000E+00 -0.43538198618E+02  0.43538198618E+02  0.00000000000E+00 0. -1.
         25    2    1    2    0    0  0.39470886824E+02  0.37704298713E+02  0.21427384308E+03  0.25404812998E+03  0.12509039718E+03 0.  0.
          5    1    3    3  502    0  0.74805610828E+02  0.37759680292E+02  0.19776061523E+03  0.21482180105E+03  0.41800000000E+01 0.  1.
         -5    1    3    3    0  502 -0.35334724004E+02 -0.55381578983E-01  0.16513227849E+02  0.39226328933E+02  0.41800000000E+01 0.  1.
        -11    1    1    2    0    0 -0.36878088900E+02 -0.54396860080E+02  0.10498477439E+03  0.12385804245E+03  0.00000000000E+00 0.  1.
         11    1    1    2    0    0 -0.25927979243E+01  0.16692561367E+02 -0.91955005048E+01  0.19233341769E+02  0.00000000000E+00 0. -1.
</event>
<event>
 7    1  0.2989693E-009  0.2896231E+03  0.7561462E-02  0.1090546E+00
          2   -1    0    0  501    0  0.00000000000E+00  0.00000000000E+00  0.27463269255E+03  0.27463269255E+03  0.00000000000E+00 0. -1.
         -2   -1    0    0    0  501 -0.00000000000E+00 -0.00000000000E+00 -0.46241952179E+03  0.46241952179E+03  0.00000000000E+00 0.  1.
         25    2    1    2    0    0  0.14843374153E+03  0.23807844700E+03  0.10221101092E+03  0.32374223216E+03  0.12509204444E+03 0.  0.
          5    1    3    3  502    0  0.74494480341E+02  0.54541144977E+02  0.84172679920E+02  0.12500670599E+03  0.41800000000E+01 0.  1.
         -5    1    3    3    0  502  0.73939261186E+02  0.18353730203E+03  0.18038330999E+02  0.19873552618E+03  0.41800000000E+01 0.  1.
        -11    1    1    2    0    0 -0.88523288032E+02 -0.77988270713E+02 -0.15881691340E+03  0.19784174199E+03  0.00000000000E+00 0.  1.
         11    1    1    2    0    0 -0.59910453496E+02 -0.16009017629E+03 -0.13118092676E+03  0.21546824018E+03  0.00000000000E+00 0. -1.
</event>
<event>
 7    1  0.2989693E-009  0.1070355E+03  0.7561462E-02  0.1266160E+00
          2   -1    0    0  501    0  0.00000000000E+00  0.00000000000E+00  0.82628485619E+02  0.82628485619E+02  0.00000000000E+00 0. -1.
         -2   -1    0    0    0  501 -0.00000000000E+00 -0.00000000000E+00 -0.35486047492E+03  0.35486047492E+03  0.00000000000E+00 0.  1.
         25    2    1    2    0    0  0.50967761109E+02  0.36746579368E+02  0.36106333150E+01  0.14003133517E+03  0.12509082456E+03 0.  0.
          5    1    3    3  502    0  0.18638095358E+02 -0.43109945978E+02 -0.19042755670E+02  0.50852187606E+02  0.41800000000E+01 0.  1.
         -5    1    3    3    0  502  0.32329665751E+02  0.79856525345E+02  0.22653388985E+02  0.89179147564E+02  0.41800000000E+01 0.  1.
        -11    1    1    2    0    0 -0.33727291235E+02 -0.49019983970E+02 -0.26856618570E+03  0.27507868893E+03  0.00000000000E+00 0.  1.
         11    1    1    2    0    0 -0.17240469874E+02  0.12273404603E+02 -0.72764369183E+01  0.22378936441E+02  0.00000000000E+00 0. -1.
</event>
<event>
 7    1  0.2989693E-009  0.8510707E+02  0.7561462E-02  0.1315153E+00
         -1   -1    0    0    0  501 -0.00000000000E+00  0.00000000000E+00  0.70017198249E+02  0.70017198249E+02  0.00000000000E+00 0.  1.
          1   -1    0    0  501    0  0.00000000000E+00 -0.00000000000E+00 -0.35638888730E+03  0.35638888730E+03  0.00000000000E+00 0. -1.
         25    2    1    2    0    0 -0.71337298393E+02 -0.43299840124E+02 -0.26053892223E+03  0.30081595299E+03  0.12508325740E+03 0.  0.
          5    1    3    3  502    0 -0.21068032116E+02 -0.63236128493E+01  0.89884903122E+01  0.24127068094E+02  0.41800000000E+01 0. -1.
         -5    1    3    3    0  502 -0.50269266277E+02 -0.36976227275E+02 -0.26952741254E+03  0.27668888490E+03  0.41800000000E+01 0. -1.
        -11    1    1    2    0    0  0.11488178449E+02  0.13466923639E+00  0.30604962399E+02  0.32690367134E+02  0.00000000000E+00 0.  1.
         11    1    1    2    0    0  0.59849119945E+02  0.43165170888E+02 -0.56437729221E+02  0.92899765423E+02  0.00000000000E+00 0. -1.
</event>
<event>
 7    1  0.2989693E-009  0.1875141E+03  0.7561462E-02  0.1160723E+00
         -3   -1    0    0    0  501 -0.00000000000E+00  0.00000000000E+00  0.17177275711E+03  0.17177275711E+03  0.00000000000E+00 0. -1.
          3   -1    0    0  501    0  0.00000000000E+00 -0.00000000000E+00 -0.23119078667E+03  0.23119078667E+03  0.00000000000E+00 0.  1.
         25    2    1    2    0    0  0.20303683381E+02  0.16140164384E+03  0.82664210205E+01  0.20536765706E+03  0.12507921752E+03 0.  0.
          5    1    3    3  502    0  0.44048665788E+02  0.14167534930E+02 -0.24636636498E+02  0.52587453462E+02  0.41800000000E+01 0. -1.
         -5    1    3    3    0  502 -0.23744982407E+02  0.14723410891E+03  0.32903057518E+02  0.15278020360E+03  0.41800000000E+01 0. -1.
        -11    1    1    2    0    0  0.15265336335E+02 -0.13295505672E+03 -0.26998875818E+02  0.13652478491E+03  0.00000000000E+00 0.  1.
         11    1    1    2    0    0 -0.35569019715E+02 -0.28446587123E+02 -0.40685574759E+02  0.61071101807E+02  0.00000000000E+00 0. -1.
</event>
<event>
 7    1  0.2989693E-009  0.6802933E+02  0.7561462E-02  0.1366926E+00
         -1   -1    0    0    0  501 -0.00000000000E+00  0.00000000000E+00  0.15925998883E+03  0.15925998883E+03  0.00000000000E+00 0.  1.
          1   -1    0    0  501    0  0.00000000000E+00 -0.00000000000E+00 -0.11526222837E+03  0.11526222837E+03  0.00000000000E+00 0. -1.
         25    2    1    2    0    0 -0.31998980916E+01  0.50961718898E+01  0.10580680273E+03  0.16394777307E+03  0.12509029728E+03 0.  0.
          5    1    3    3  502    0  0.47708910270E+02  0.19319815060E+02  0.74057282159E+01  0.52170035303E+02  0.41800000000E+01 0.  1.
         -5    1    3    3    0  502 -0.50908808361E+02 -0.14223643170E+02  0.98401074514E+02  0.11177773776E+03  0.41800000000E+01 0.  1.
        -11    1    1    2    0    0  0.17026810744E+02 -0.14185016255E+01 -0.83146625689E+02  0.84883954871E+02  0.00000000000E+00 0. -1.
         11    1    1    2    0    0 -0.13826912653E+02 -0.36776702643E+01  0.21337583421E+02  0.25690489258E+02  0.00000000000E+00 0.  1.
</event>
<event>
 7    1  0.2989693E-009  0.1325660E+03  0.7561462E-02  0.1223697E+00
          1   -1    0    0  501    0  0.00000000000E+00  0.00000000000E+00  0.99583539612E+03  0.99583539612E+03  0.00000000000E+00 0. -1.
         -1   -1    0    0    0  501 -0.00000000000E+00 -0.00000000000E+00 -0.30418527474E+02  0.30418527474E+02  0.00000000000E+00 0.  1.
         25    2    1    2    0    0  0.26835369681E+02  0.11773931656E+03  0.34011693400E+03  0.38198247202E+03  0.12509355062E+03 0.  0.
          5    1    3    3  502    0  0.11078987517E+02  0.53351322567E+02  0.25275924865E+02  0.60211729438E+02  0.41800000000E+01 0.  1.
         -5    1    3    3    0  502  0.15756382163E+02  0.64387993992E+02  0.31484100913E+03  0.32177074258E+03  0.41800000000E+01 0.  1.
        -11    1    1    2    0    0  0.25445659626E+02 -0.17110907465E+02  0.56568213519E+02  0.64344599842E+02  0.00000000000E+00 0.  1.
         11    1    1    2    0    0 -0.52281029307E+02 -0.10062840910E+03  0.56873172112E+03  0.57992685173E+03  0.00000000000E+00 0. -1.
</event>
<event>
 7    1  0.3186638E-009  0.1186905E+03  0.7561462E-02  0.1245273E+00
         -1   -1    0    0    0  501 -0.00000000000E+00  0.00000000000E+00  0.71748476732E+02  0.71748476732E+02  0.00000000000E+00 0.  1.
          1   -1    0    0  501    0  0.00000000000E+00 -0.00000000000E+00 -0.23546537253E+03  0.23546537253E+03  0.00000000000E+00 0. -1.
         25    2    1    2    0    0 -0.55230343516E+02 -0.36935549608E+02 -0.12203654786E+03  0.18696098119E+03  0.12508742464E+03 0.  0.
          5    1    3    3  502    0 -0.16827812877E+02 -0.79892923445E+02 -0.87053870175E+02  0.11942321054E+03  0.41800000000E+01 0. -1.
         -5    1    3    3    0  502 -0.38402530639E+02  0.42957373838E+02 -0.34982677687E+02  0.67537770652E+02  0.41800000000E+01 0. -1.
        -11    1    1    2    0    0  0.63897245894E+02  0.50715508290E+02 -0.69214501448E+01  0.81870796295E+02  0.00000000000E+00 0.  1.
         11    1    1    2    0    0 -0.86669023775E+01 -0.13779958682E+02 -0.34758897787E+02  0.38382071772E+02  0.00000000000E+00 0. -1.
</event>
<event>
 7    1  0.2989693E-009  0.1275447E+03  0.7561462E-02  0.1231145E+00
          2   -1    0    0  501    0  0.00000000000E+00  0.00000000000E+00  0.27682813361E+02  0.27682813361E+02  0.00000000000E+00 0. -1.
         -2   -1    0    0    0  501 -0.00000000000E+00 -0.00000000000E+00 -0.63503840456E+03  0.63503840456E+03  0.00000000000E+00 0.  1.
         25    2    1    2    0    0  0.62857315308E+02  0.39004208791E+02 -0.37320822238E+03  0.40050207388E+03  0.12508062813E+03 0.  0.
          5    1    3    3  502    0  0.10081476229E+03  0.32698698100E+02 -0.25739431230E+03  0.27839203573E+03  0.41800000000E+01 0. -1.
         -5    1    3    3    0  502 -0.37957446986E+02  0.63055106912E+01 -0.11581391009E+03  0.12211003815E+03  0.41800000000E+01 0. -1.
        -11    1    1    2    0    0  0.13624504154E+02  0.12191596977E+02 -0.85133974309E+02  0.87075000614E+02  0.00000000000E+00 0.  1.
         11    1    1    2    0    0 -0.76481819462E+02 -0.51195805768E+02 -0.14901339450E+03  0.17514414343E+03  0.00000000000E+00 0. -1.
</event>
<event>
 7    1  0.2989693E-009  0.2753419E+03  0.7561462E-02  0.1098261E+00
          2   -1    0    0  501    0  0.00000000000E+00  0.00000000000E+00  0.16728841861E+04  0.16728841861E+04  0.00000000000E+00 0.  1.
         -2   -1    0    0    0  501 -0.00000000000E+00 -0.00000000000E+00 -0.51620424274E+02  0.51620424274E+02  0.00000000000E+00 0. -1.
         25    2    1    2    0    0 -0.25207869955E+03  0.10134533139E+03  0.74750471592E+03  0.80512309943E+03  0.12508140528E+03 0.  0.
          5    1    3    3  502    0 -0.37874871529E+02  0.27132866333E+02  0.37990224921E+02  0.60261330207E+02  0.41800000000E+01 0. -1.
         -5    1    3    3    0  502 -0.21420382803E+03  0.74212465058E+02  0.70951449100E+03  0.74486176922E+03  0.41800000000E+01 0. -1.
        -11    1    1    2    0    0  0.11328445899E+03 -0.75103596491E+02  0.31554869371E+03  0.34357662457E+03  0.00000000000E+00 0.  1.
         11    1    1    2    0    0  0.13879424056E+03 -0.26241734900E+02  0.55821035216E+03  0.57580488633E+03  0.00000000000E+00 0. -1.
</event>
<event>
 7    1  0.2989693E-009  0.1020985E+03  0.7561462E-02  0.1275944E+00
         -1   -1    0    0    0  501 -0.00000000000E+00  0.00000000000E+00  0.13703629232E+03  0.13703629232E+03  0.00000000000E+00 0.  1.
          1   -1    0    0  501    0  0.00000000000E+00 -0.00000000000E+00 -0.13073229862E+03  0.13073229862E+03  0.00000000000E+00 0. -1.
         25    2    1    2    0    0 -0.71555203364E+02 -0.26929323208E+02  0.19597377918E+02  0.14790740197E+03  0.12508879550E+03 0.  0.
          5    1    3    3  502    0 -0.41899623114E+01 -0.22512926719E+02  0.63255204235E+02  0.67402380643E+02  0.41800000000E+01 0.  1.
         -5    1    3    3    0  502 -0.67365241053E+02 -0.44163964894E+01 -0.43657826317E+02  0.80505021326E+02  0.41800000000E+01 0.  1.
        -11    1    1    2    0    0  0.30254538147E+02 -0.30224626056E+02  0.12853270540E+02  0.44655029530E+02  0.00000000000E+00 0.  1.
         11    1    1    2    0    0  0.41300665217E+02  0.57153949265E+02 -0.26146654756E+02  0.75206159448E+02  0.00000000000E+00 0. -1.
</event>
<event>
 6    1  0.2989693E-009  0.1165961E+03  0.7561462E-02  0.1248820E+00
          1   -1    0    0  501    0  0.00000000000E+00  0.00000000000E+00  0.17133824612E+03  0.17133824612E+03  0.00000000000E+00 0. -1.
         -1   -1    0    0    0  501 -0.00000000000E+00 -0.00000000000E+00 -0.11012028110E+03  0.11012028110E+03  0.00000000000E+00 0.  1.
          5    1    1    2  502    0  0.46088664185E+02 -0.66698099109E+02 -0.44587515824E+02  0.92619222402E+02  0.41800000000E+01 0.  1.
         -5    1    1    2    0  502 -0.39107612802E+02 -0.52049110934E+01  0.34214367482E+02  0.52388852066E+02  0.41800000000E+01 0.  1.
        -11    1    1    2    0    0  0.39003711324E+02  0.42857458361E+02  0.19505533887E+02  0.61143414088E+02  0.00000000000E+00 0.  1.
         11    1    1    2    0    0 -0.45984762706E+02  0.29045551842E+02  0.52085579474E+02  0.75307038662E+02  0.00000000000E+00 0. -1.
</event>
<event>
 7    1  0.2989693E-009  0.8797451E+02  0.7561462E-02  0.1307832E+00
         -1   -1    0    0    0  501 -0.00000000000E+00  0.00000000000E+00  0.28982165517E+03  0.28982165517E+03  0.00000000000E+00 0.  1.
          1   -1    0    0  501    0  0.00000000000E+00 -0.00000000000E+00 -0.42017644338E+02  0.42017644338E+02  0.00000000000E+00 0. -1.
         25    2    1    2    0    0  0.12590639821E+02 -0.13695151568E+02  0.18388534740E+03  0.22317476505E+03  0.12508826235E+03 0.  0.
          5    1    3    3  502    0 -0.44849657808E+02 -0.40501530973E+02  0.11130638100E+03  0.12672193444E+03  0.41800000000E+01 0. -1.
         -5    1    3    3    0  502  0.57440297630E+02  0.26806379404E+02  0.72578966397E+02  0.96452830605E+02  0.41800000000E+01 0. -1.
        -11    1    1    2    0    0 -0.36855388161E+01  0.31619863710E+02 -0.89734432279E+01  0.33074486553E+02  0.00000000000E+00 0. -1.
         11    1    1    2    0    0 -0.89051010053E+01 -0.17924712141E+02  0.72892106657E+02  0.75590047904E+02  0.00000000000E+00 0.  1.
</event>
<event>
 7    1  0.2989693E-009  0.1635903E+03  0.7561462E-02  0.1184702E+00
          1   -1    0    0  501    0  0.00000000000E+00  0.00000000000E+00  0.95591001987E+02  0.95591001987E+02  0.00000000000E+00 0. -1.
         -1   -1    0    0    0  501 -0.00000000000E+00 -0.00000000000E+00 -0.32406814517E+03  0.32406814517E+03  0.00000000000E+00 0.  1.
         25    2    1    2    0    0 -0.13527554865E+03 -0.34963822160E+01 -0.88881966074E+02  0.20459328470E+03  0.12508680786E+03 0.  0.
          5    1    3    3  502    0 -0.98349804665E+02 -0.59419561232E+02 -0.40790525438E+02  0.12200290038E+03  0.41800000000E+01 0.  1.
         -5    1    3    3    0  502 -0.36925743981E+02  0.55923179016E+02 -0.48091440636E+02  0.82590384321E+02  0.41800000000E+01 0.  1.
        -11    1    1    2    0    0  0.27106992594E+01 -0.11341983821E+02  0.94761499599E+01  0.15026174015E+02  0.00000000000E+00 0. -1.
         11    1    1    2    0    0  0.13256484939E+03  0.14838366037E+02 -0.14907132707E+03  0.20003968845E+03  0.00000000000E+00 0.  1.
</event>
<event>
 7    1  0.2989693E-009  0.7552210E+02  0.7561462E-02  0.1342262E+00
          2   -1    0    0  501    0  0.00000000000E+00  0.00000000000E+00  0.40058447595E+03  0.40058447595E+03  0.00000000000E+00 0. -1.
         -2   -1    0    0    0  501 -0.00000000000E+00 -0.00000000000E+00 -0.39646652840E+02  0.39646652840E+02  0.00000000000E+00 0.  1.
         25    2    1    2    0    0 -0.14270137583E+02  0.33611237280E+02  0.28413578112E+03  0.31259340378E+03  0.12509253324E+03 0.  0.
          5    1    3    3  502    0 -0.34559322100E+02 -0.20063108384E+02  0.25391130529E+02  0.47529537886E+02  0.41800000000E+01 0. -1.
         -5    1    3    3    0  502  0.20289184518E+02  0.53674345664E+02  0.25874465059E+03  0.26506386589E+03  0.41800000000E+01 0. -1.
        -11    1    1    2    0    0  0.27812983723E+02 -0.21336628623E+02 -0.11940645297E+02  0.37032320946E+02  0.00000000000E+00 0.  1.
         11    1    1    2    0    0 -0.13542846140E+02 -0.12274608657E+02  0.88742687292E+02  0.90605404072E+02  0.00000000000E+00 0. -1.
</event>
<event>
 7    1  0.2989693E-009  0.1470526E+03  0.7561462E-02  0.1204142E+00
         -2   -1    0    0    0  501 -0.00000000000E+00  0.00000000000E+00  0.14979560237E+03  0.14979560237E+03  0.00000000000E+00 0.  1.
          2   -1    0    0  501    0  0.00000000000E+00 -0.00000000000E+00 -0.15778141237E+03  0.15778141237E+03  0.00000000000E+00 0. -1.
         25    2    1    2    0    0 -0.92935126962E+02  0.33871789454E+02  0.39804636595E+02  0.16436766603E+03  0.12509230431E+03 0.  0.
          5    1    3    3  502    0 -0.10696361917E+03  0.64838672121E+02  0.29212569888E+02  0.12851504140E+03  0.41800000000E+01 0. -1.
         -5    1    3    3    0  502  0.14028492204E+02 -0.30966882666E+02  0.10592066707E+02  0.35852624628E+02  0.41800000000E+01 0. -1.
        -11    1    1    2    0    0  0.33817118497E+02  0.31744277015E+02 -0.21008207349E+02  0.50917987025E+02  0.00000000000E+00 0.  1.
         11    1    1    2    0    0  0.59118008465E+02 -0.65616066469E+02 -0.26782239247E+02  0.92291361691E+02  0.00000000000E+00 0. -1.
</event>
<event>
 7    1  0.2989693E-009  0.1125393E+03  0.7561462E-02  0.1255938E+00
          4   -1    0    0  501    0  0.00000000000E+00  0.00000000000E+00  0.13581517965E+02  0.13581517965E+02  0.00000000000E+00 0. -1.
         -4   -1    0    0    0  501 -0.00000000000E+00 -0.00000000000E+00 -0.12838322969E+04  0.12838322969E+04  0.00000000000E+00 0.  1.
         25    2    1    2    0    0 -0.22511080440E+01 -0.59544516829E+02 -0.93285882508E+03  0.94309269348E+03  0.12509046328E+03 0.  0.
          5    1    3    3  502    0 -0.43828411919E+02  0.68590213404E+01 -0.15471754376E+03  0.16100610737E+03  0.41800000000E+01 0.  1.
         -5    1    3    3    0  502  0.41577303875E+02 -0.66403538170E+02 -0.77814128132E+03  0.78208658611E+03  0.41800000000E+01 0.  1.
        -11    1    1    2    0    0 -0.29745437282E+01  0.80454658936E+02 -0.30475107780E+03  0.31520631255E+03  0.00000000000E+00 0. -1.
         11    1    1    2    0    0  0.52256517722E+01 -0.20910142106E+02 -0.32640876036E+02  0.39114808804E+02  0.00000000000E+00 0.  1.
</event>
<event>
 7    1  0.2989693E-009  0.8915834E+02  0.7561462E-02  0.1304903E+00
         -2   -1    0    0    0  501 -0.00000000000E+00  0.00000000000E+00  0.45962934583E+03  0.45962934583E+03  0.00000000000E+00 0.  1.
          2   -1    0    0  501    0  0.00000000000E+00 -0.00000000000E+00 -0.59466011072E+02  0.59466011072E+02  0.00000000000E+00 0. -1.
         25    2    1    2    0    0  0.15260477394E+02  0.21978716915E+02  0.40947413802E+03  0.42899614107E+03  0.12511064375E+03 0.  0.
          5    1    3    3  502    0 -0.49079317071E+02  0.63501761081E+01  0.27022097648E+03  0.27474707028E+03  0.41800000000E+01 0. -1.
         -5    1    3    3    0  502  0.64339794465E+02  0.15628540807E+02  0.13925316154E+03  0.15424907078E+03  0.41800000000E+01 0. -1.
        -11    1    1    2    0    0  0.20588682879E+02 -0.65765237659E+00  0.27574448280E+02  0.34419130833E+02  0.00000000000E+00 0.  1.
         11    1    1    2    0    0 -0.35849160273E+02 -0.21321064539E+02 -0.36885251535E+02  0.55680085004E+02  0.00000000000E+00 0. -1.
</event>
<event>
 7    1  0.2989693E-009  0.1884456E+03  0.7561462E-02  0.1159871E+00
          2   -1    0    0  501    0  0.00000000000E+00  0.00000000000E+00  0.27404508952E+03  0.27404508952E+03  0.00000000000E+00 0. -1.
         -2   -1    0    0    0  501 -0.00000000000E+00 -0.00000000000E+00 -0.17317659680E+03  0.17317659680E+03  0.00000000000E+00 0.  1.
         25    2    1    2    0    0  0.12103007151E+03 -0.13996637848E+03 -0.41630373065E+01  0.22339080974E+03  0.12508899905E+03 0.  0.
          5    1    3    3  502    0  0.50437261597E+02 -0.32222882117E+02 -0.58250757053E+02  0.83623289738E+02  0.41800000000E+01 0. -1.
         -5    1    3    3    0  502  0.70592809915E+02 -0.10774349636E+03  0.54087719747E+02  0.13976752000E+03  0.41800000000E+01 0. -1.
        -11    1    1    2    0    0 -0.11721737636E+03  0.12022829143E+03  0.66948135634E+02  0.18076727649E+03  0.00000000000E+00 0.  1.
         11    1    1    2    0    0 -0.38126951474E+01  0.19738087047E+02  0.38083394388E+02  0.43063600090E+02  0.00000000000E+00 0. -1.
</event>
<event>
 7    1  0.2989693E-009  0.7255886E+02  0.7561462E-02  0.1351602E+00
         -3   -1    0    0    0  501 -0.00000000000E+00  0.00000000000E+00  0.24304844898E+03  0.24304844898E+03  0.00000000000E+00 0.  1.
          3   -1    0    0  501    0  0.00000000000E+00 -0.00000000000E+00 -0.84324896584E+02  0.84324896584E+02  0.00000000000E+00 0. -1.
         25    2    1    2    0    0 -0.39152212833E+02 -0.25684948824E+02  0.17829557672E+03  0.22277461050E+03  0.12508637832E+03 0.  0.
          5    1    3    3  502    0  0.59496519730E+01 -0.45543304543E+02  0.16533556890E+03  0.17164764400E+03  0.41800000000E+01 0. -1.
         -5    1    3    3    0  502 -0.45101864806E+02  0.19858355719E+02  0.12960007818E+02  0.51126966500E+02  0.41800000000E+01 0. -1.
        -11    1    1    2    0    0  0.21150391103E+02  0.42924948941E+01  0.36237661346E+02  0.42177395084E+02  0.00000000000E+00 0.  1.
         11    1    1    2    0    0  0.18001821730E+02  0.21392453930E+02 -0.55809685667E+02  0.62421339981E+02  0.00000000000E+00 0. -1.
</event>
<event>
 7    1  0.2989693E-009  0.1034841E+03  0.7561462E-02  0.1273135E+00
         -2   -1    0    0    0  501 -0.00000000000E+00  0.00000000000E+00  0.36306991392E+02  0.36306991392E+02  0.00000000000E+00 0.  1.
          2   -1    0    0  501    0  0.00000000000E+00 -0.00000000000E+00 -0.44710413367E+03  0.44710413367E+03  0.00000000000E+00 0. -1.
         25    2    1    2    0    0 -0.42510547102E+02  0.32470620631E+02 -0.15298151014E+03  0.20472440484E+03  0.12508897504E+03 0.  0.
          5    1    3    3  502    0  0.23698501945E+02 -0.32234177272E+02 -0.27479216428E+02  0.48715920543E+02  0.41800000000E+01 0.  1.
         -5    1    3    3    0  502 -0.66209049047E+02  0.64704797903E+02 -0.12550229371E+03  0.15600848430E+03  0.41800000000E+01 0.  1.
        -11    1    1    2    0    0 -0.12032170882E+02 -0.57732433423E+01  0.47452940855E+00  0.13353975176E+02  0.00000000000E+00 0.  1.
         11    1    1    2    0    0  0.54542717984E+02 -0.26697377288E+02 -0.25829016155E+03  0.26533274504E+03  0.00000000000E+00 0. -1.
</event>
<event>
 7    1  0.2989693E-009  0.1186876E+03  0.7561462E-02  0.1245278E+00
         -1   -1    0    0    0  501 -0.00000000000E+00  0.00000000000E+00  0.10262660597E+03  0.10262660597E+03  0.00000000000E+00 0.  1.
          1   -1    0    0  501    0  0.00000000000E+00 -0.00000000000E+00 -0.22498912304E+03  0.22498912304E+03  0.00000000000E+00 0. -1.
         25    2    1    2    0    0 -0.40500048878E+01 -0.83660698796E+02  0.31186976704E+01  0.15056979416E+03  0.12508405804E+03 0.  0.
          5    1    3    3  502    0 -0.47210143822E+02 -0.57119528486E+02 -0.39635641349E+02  0.84142110024E+02  0.41800000000E+01 0.  1.
         -5    1    3    3    0  502  0.43160138934E+02 -0.26541170310E+02  0.42754339019E+02  0.66427684133E+02  0.41800000000E+01 0.  1.
        -11    1    1    2    0    0 -0.26847749322E+02  0.43517961664E+01 -0.22679773200E+01  0.27292553831E+02  0.00000000000E+00 0.  1.
         11    1    1    2    0    0  0.30897754209E+02  0.79308902630E+02 -0.12321323742E+03  0.14975338102E+03  0.00000000000E+00 0. -1.
</event>
<event>
 7    1  0.2989693E-009  0.2366789E+03  0.7561462E-02  0.1122025E+00
          2   -1    0    0  501    0  0.00000000000E+00  0.00000000000E+00  0.14054461707E+04  0.14054461707E+04  0.00000000000E+00 0. -1.
         -2   -1    0    0    0  501 -0.00000000000E+00 -0.00000000000E+00 -0.60020916966E+02  0.60020916966E+02  0.00000000000E+00 0.  1.
         25    2    1    2    0    0 -0.59144723111E+02  0.21425510992E+03  0.10707801372E+04  0.11007362522E+04  0.12508734694E+03 0.  0.
          5    1    3    3  502    0  0.14052706998E+02  0.15293309636E+03  0.54049448606E+03  0.56190548351E+03  0.41800000000E+01 0. -1.
         -5    1    3    3    0  502 -0.73197430109E+02  0.61322013564E+02  0.53028565115E+03  0.53883076874E+03  0.41800000000E+01 0. -1.
        -11    1    1    2    0    0  0.17045436212E+02 -0.11603407148E+03  0.77766488591E+02  0.14071986138E+03  0.00000000000E+00 0.  1.
         11    1    1    2    0    0  0.42099286898E+02 -0.98221038448E+02  0.19687862788E+03  0.22401097399E+03  0.00000000000E+00 0. -1.
</event>
<event>
 7    1  0.2989693E-009  0.1154563E+03  0.7561462E-02  0.1250787E+00
          2   -1    0    0  501    0  0.00000000000E+00  0.00000000000E+00  0.59756510580E+03  0.59756510580E+03  0.00000000000E+00 0. -1.
         -2   -1    0    0    0  501 -0.00000000000E+00 -0.00000000000E+00 -0.25689402404E+02  0.25689402404E+02  0.00000000000E+00 0.  1.
         25    2    1    2    0    0  0.44944938058E+02 -0.38808382996E+02  0.28230003716E+03  0.31443219365E+03  0.12509258722E+03 0.  0.
          5    1    3    3  502    0 -0.36483632039E+02 -0.12797999942E+02  0.33514805851E+02  0.51337693954E+02  0.41800000000E+01 0.  1.
         -5    1    3    3    0  502  0.81428570097E+02 -0.26010383055E+02  0.24878523130E+03  0.26309449970E+03  0.41800000000E+01 0.  1.
        -11    1    1    2    0    0 -0.10472119891E+02 -0.28748294873E+02  0.66368142024E+02  0.73081187927E+02  0.00000000000E+00 0.  1.
         11    1    1    2    0    0 -0.34472818166E+02  0.67556677869E+02  0.22320752421E+03  0.23574112662E+03  0.00000000000E+00 0. -1.
</event>
<event>
 7    1  0.2989693E-009  0.1621971E+03  0.7561462E-02  0.1186238E+00
          1   -1    0    0  501    0  0.00000000000E+00  0.00000000000E+00  0.73997524207E+03  0.73997524207E+03  0.00000000000E+00 0. -1.
         -1   -1    0    0    0  501 -0.00000000000E+00 -0.00000000000E+00 -0.38870565197E+02  0.38870565197E+02  0.00000000000E+00 0.  1.
         25    2    1    2    0    0 -0.89436409832E+02  0.83845645120E+02  0.27973538779E+03  0.33004312633E+03  0.12509042507E+03 0.  0.
          5    1    3    3  502    0 -0.24615681531E+02  0.10065749523E+03  0.20409659815E+03  0.22893395751E+03  0.41800000000E+01 0.  1.
         -5    1    3    3    0  502 -0.64820728301E+02 -0.16811850109E+02  0.75638789642E+02  0.10110916882E+03  0.41800000000E+01 0.  1.
        -11    1    1    2    0    0  0.33015557098E+02  0.17672122413E+02  0.83032262470E+02  0.91086154447E+02  0.00000000000E+00 0.  1.
         11    1    1    2    0    0  0.56420852734E+02 -0.10151776753E+03  0.33833702661E+03  0.35771652648E+03  0.00000000000E+00 0. -1.
</event>
<event>
 7    1  0.2989693E-009  0.8041488E+02  0.7561462E-02  0.1327878E+00
          2   -1    0    0  501    0  0.00000000000E+00  0.00000000000E+00  0.11946296131E+04  0.11946296131E+04  0.00000000000E+00 0. -1.
         -2   -1    0    0    0  501 -0.00000000000E+00 -0.00000000000E+00 -0.14792483255E+02  0.14792483255E+02  0.00000000000E+00 0.  1.
         25    2    1    2    0    0  0.44454266141E+02  0.64998263381E+01  0.94428824325E+03  0.95359560777E+03  0.12508344128E+03 0.  0.
          5    1    3    3  502    0  0.52759743813E+02 -0.55931407571E+01  0.15000845632E+03  0.15916935370E+03  0.41800000000E+01 0.  1.
         -5    1    3    3    0  502 -0.83054776723E+01  0.12092967095E+02  0.79427978694E+03  0.79442625407E+03  0.41800000000E+01 0.  1.
        -11    1    1    2    0    0  0.22875196881E+02 -0.99331080513E+01  0.27484848717E+02  0.37112776465E+02  0.00000000000E+00 0.  1.
         11    1    1    2    0    0 -0.67329463022E+02  0.34332817133E+01  0.20806403784E+03  0.21871371209E+03  0.00000000000E+00 0. -1.
</event>
<event>
 7    1  0.2989693E-009  0.3028820E+03  0.7561462E-02  0.1083809E+00
          2   -1    0    0  501    0  0.00000000000E+00  0.00000000000E+00  0.21505907029E+03  0.21505907029E+03  0.00000000000E+00 0.  1.
         -2   -1    0    0    0  501 -0.00000000000E+00 -0.00000000000E+00 -0.50130763419E+03  0.50130763419E+03  0.00000000000E+00 0. -1.
         25    2    1    2    0    0  0.14128663926E+03 -0.24787788548E+03 -0.12912377306E+02  0.31180000340E+03  0.12508857698E+03 0.  0.
          5    1    3    3  502    0 -0.20434468512E+02 -0.22657751800E+02  0.12715764948E+02  0.33318227718E+02  0.41800000000E+01 0.  1.
         -5    1    3    3    0  502  0.16172110777E+03 -0.22522013368E+03 -0.25628142254E+02  0.27848177569E+03  0.41800000000E+01 0.  1.
        -11    1    1    2    0    0 -0.19614148783E+02  0.11831485663E+03 -0.97686847978E+02  0.15467979958E+03  0.00000000000E+00 0.  1.
         11    1    1    2    0    0 -0.12167249047E+03  0.12956302886E+03 -0.17564933862E+03  0.24988690150E+03  0.00000000000E+00 0. -1.
</event>
<event>
 7    1  0.2989693E-009  0.2115278E+03  0.7561462E-02  0.1140362E+00
         -2   -1    0    0    0  501 -0.00000000000E+00  0.00000000000E+00  0.15568997330E+03  0.15568997330E+03  0.00000000000E+00 0.  1.
          2   -1    0    0  501    0  0.00000000000E+00 -0.00000000000E+00 -0.36638125936E+03  0.36638125936E+03  0.00000000000E+00 0. -1.
         25    2    1    2    0    0 -0.10952280542E+03 -0.17927524068E+03 -0.75679409516E+02  0.25594928225E+03  0.12509118765E+03 0.  0.
          5    1    3    3  502    0 -0.58694918468E+02 -0.11235510447E+03  0.20152734027E+02  0.12842261500E+03  0.41800000000E+01 0. -1.
         -5    1    3    3    0  502 -0.50827886957E+02 -0.66920136208E+02 -0.95832143543E+02  0.12752666724E+03  0.41800000000E+01 0. -1.
        -11    1    1    2    0    0  0.96382983526E+01  0.37096326081E+02  0.10214402645E+02  0.39665705909E+02  0.00000000000E+00 0. -1.
         11    1    1    2    0    0  0.99884507072E+02  0.14217891460E+03 -0.14522627919E+03  0.22645624451E+03  0.00000000000E+00 0.  1.
</event>
<event>
 7    1  0.2989693E-009  0.1058614E+03  0.7561462E-02  0.1268432E+00
         -2   -1    0    0    0  501 -0.00000000000E+00  0.00000000000E+00  0.29654870049E+02  0.29654870049E+02  0.00000000000E+00 0.  1.
          2   -1    0    0  501    0  0.00000000000E+00 -0.00000000000E+00 -0.67960133967E+03  0.67960133967E+03  0.00000000000E+00 0. -1.
         25    2    1    2    0    0 -0.20096398403E+02  0.88336429390E+02 -0.30589712899E+03  0.34267781163E+03  0.12509132292E+03 0.  0.
          5    1    3    3  502    0 -0.12274632323E+02 -0.85679966807E+01 -0.19302703285E+03  0.19365171049E+03  0.41800000000E+01 0. -1.
         -5    1    3    3    0  502 -0.78217660802E+01  0.96904426070E+02 -0.11287009614E+03  0.14902610113E+03  0.41800000000E+01 0. -1.
        -11    1    1    2    0    0  0.29188011419E+02 -0.39045798409E+02 -0.28493550425E+03  0.28907569245E+03  0.00000000000E+00 0. -1.
         11    1    1    2    0    0 -0.90916130159E+01 -0.49290630981E+02 -0.59113836380E+02  0.77502705638E+02  0.00000000000E+00 0.  1.
</event>
<event>
 7    1  0.2989693E-009  0.1065102E+03  0.7561462E-02  0.1267172E+00
          1   -1    0    0  501    0  0.00000000000E+00  0.00000000000E+00  0.93148785203E+03  0.93148785203E+03  0.00000000000E+00 0. -1.
         -1   -1    0    0    0  501 -0.00000000000E+00 -0.00000000000E+00 -0.12900582369E+02  0.12900582369E+02  0.00000000000E+00 0.  1.
         25    2    1    2    0    0  0.29595274132E+02 -0.15715680266E+02  0.57561903207E+03  0.59000554457E+03  0.12508560939E+03 0.  0.
          5    1    3    3  502    0 -0.10531644755E+02 -0.61719364422E+02  0.20564617292E+03  0.21500701459E+03  0.41800000000E+01 0.  1.
         -5    1    3    3    0  502  0.40126918887E+02  0.46003684156E+02  0.36997285916E+03  0.37499852998E+03  0.41800000000E+01 0.  1.
        -11    1    1    2    0    0 -0.90544261746E+01 -0.34055314731E+02  0.14539476131E+03  0.14960408989E+03  0.00000000000E+00 0.  1.
         11    1    1    2    0    0 -0.20540847958E+02  0.49770994997E+02  0.19757347628E+03  0.20477879994E+03  0.00000000000E+00 0. -1.
</event>
<event>
 7    1  0.2989693E-009  0.1096420E+03  0.7561462E-02  0.1261234E+00
          2   -1    0    0  501    0  0.00000000000E+00  0.00000000000E+00  0.38930317510E+03  0.38930317510E+03  0.00000000000E+00 0. -1.
         -2   -1    0    0    0  501 -0.00000000000E+00 -0.00000000000E+00 -0.31755712122E+02  0.31755712122E+02  0.00000000000E+00 0.  1.
         25    2    1    2    0    0  0.49649640090E+01  0.12397452818E+02  0.21111237922E+03  0.24575540896E+03  0.12509571004E+03 0.  0.
          5    1    3    3  502    0  0.60822288989E+02  0.28590183164E+02  0.10688928726E+03  0.12633107908E+03  0.41800000000E+01 0. -1.
         -5    1    3    3    0  502 -0.55857324980E+02 -0.16192730346E+02  0.10422309196E+03  0.11942432988E+03  0.41800000000E+01 0. -1.
        -11    1    1    2    0    0 -0.43439842073E+02  0.15492919715E+02  0.92912323398E+02  0.10372921613E+03  0.00000000000E+00 0. -1.
         11    1    1    2    0    0  0.38474878064E+02 -0.27890372534E+02  0.53522760363E+02  0.71574262127E+02  0.00000000000E+00 0.  1.
</event>
<event>
 7    1  0.2989693E-009  0.1180694E+03  0.7561462E-02  0.1246316E+00
         -1   -1    0    0    0  501 -0.00000000000E+00  0.00000000000E+00  0.46431832619E+02  0.46431832619E+02  0.00000000000E+00 0.  1.
          1   -1    0    0  501    0  0.00000000000E+00 -0.00000000000E+00 -0.63881713392E+03  0.63881713392E+03  0.00000000000E+00 0. -1.
         25    2    1    2    0    0  0.52457946115E+02 -0.45939947839E+02 -0.54173282782E+03  0.56034222497E+03  0.12508651974E+03 0.  0.
          5    1    3    3  502    0  0.79830865168E+02  0.99111167185E+01 -0.28671061247E+03  0.29781142518E+03  0.41800000000E+01 0.  1.
         -5    1    3    3    0  502 -0.27372919053E+02 -0.55851064557E+02 -0.25502221536E+03  0.26253079978E+03  0.41800000000E+01 0.  1.
        -11    1    1    2    0    0 -0.57578170184E+02  0.11861759525E+02  0.54779761957E+01  0.59041978659E+02  0.00000000000E+00 0.  1.
         11    1    1    2    0    0  0.51202240682E+01  0.34078188314E+02 -0.56130449670E+02  0.65864762912E+02  0.00000000000E+00 0. -1.
</event>
<event>
 7    1  0.2989693E-009  0.1604680E+03  0.7561462E-02  0.1188169E+00
         -1   -1    0    0    0  501 -0.00000000000E+00  0.00000000000E+00  0.30548461989E+02  0.30548461989E+02  0.00000000000E+00 0.  1.
          1   -1    0    0  501    0  0.00000000000E+00 -0.00000000000E+00 -0.12124268813E+04  0.12124268813E+04  0.00000000000E+00 0. -1.
         25    2    1    2    0    0 -0.82525921303E+02 -0.95083158784E+02 -0.92904405472E+03  0.94584530131E+03  0.12509653729E+03 0.  0.
          5    1    3    3  502    0  0.91087088953E+01 -0.82092650772E+02 -0.51185401909E+03  0.51849221899E+03  0.41800000000E+01 0. -1.
         -5    1    3    3    0  502 -0.91634630199E+02 -0.12990508012E+02 -0.41719003562E+03  0.42735308233E+03  0.41800000000E+01 0. -1.
        -11    1    1    2    0    0  0.58402629578E+02  0.12728329489E+02 -0.53944021014E+02  0.80516053780E+02  0.00000000000E+00 0.  1.
         11    1    1    2    0    0  0.24123291725E+02  0.82354829295E+02 -0.19889034356E+03  0.21661398817E+03  0.00000000000E+00 0. -1.
</event>
<event>
 7    1  0.2989693E-009  0.1011524E+03  0.7561462E-02  0.1277891E+00
         -2   -1    0    0    0  501 -0.00000000000E+00  0.00000000000E+00  0.10266525795E+03  0.10266525795E+03  0.00000000000E+00 0.  1.
          2   -1    0    0  501    0  0.00000000000E+00 -0.00000000000E+00 -0.22278889956E+03  0.22278889956E+03  0.00000000000E+00 0. -1.
         25    2    1    2    0    0  0.59530058453E+01 -0.49710498465E+01  0.49938885863E+02  0.13495285176E+03  0.12513285045E+03 0.  0.
          5    1    3    3  502    0 -0.56318619289E+02 -0.20461382508E+02  0.15624575820E+02  0.62064924251E+02  0.41800000000E+01 0.  1.
         -5    1    3    3    0  502  0.62271625134E+02  0.15490332661E+02  0.34314310043E+02  0.72887927509E+02  0.41800000000E+01 0.  1.
        -11    1    1    2    0    0  0.13539307350E+01  0.41075091161E+02 -0.12875587490E+03  0.13515573078E+03  0.00000000000E+00 0. -1.
         11    1    1    2    0    0 -0.73069365802E+01 -0.36104041314E+02 -0.41306652576E+02  0.55345574967E+02  0.00000000000E+00 0.  1.
</event>
<event>
 7    1  0.2989693E-009  0.1379803E+03  0.7561462E-02  0.1216073E+00
          2   -1    0    0  501    0  0.00000000000E+00  0.00000000000E+00  0.10137309240E+04  0.10137309240E+04  0.00000000000E+00 0.  1.
         -2   -1    0    0    0  501 -0.00000000000E+00 -0.00000000000E+00 -0.30999066081E+02  0.30999066081E+02  0.00000000000E+00 0. -1.
         25    2    1    2    0    0  0.37137699690E+02  0.62172844774E+02  0.82772979730E+03  0.84025528463E+03  0.12509058576E+03 0.  0.
          5    1    3    3  502    0 -0.29436364422E+02 -0.22100626389E+02  0.20653210422E+03  0.20982831008E+03  0.41800000000E+01 0. -1.
         -5    1    3    3    0  502  0.66574064112E+02  0.84273471163E+02  0.62119769307E+03  0.63042697455E+03  0.41800000000E+01 0. -1.
        -11    1    1    2    0    0  0.32656298792E+02 -0.51282973940E+02  0.54619452537E+02  0.81729198346E+02  0.00000000000E+00 0. -1.
         11    1    1    2    0    0 -0.69793998482E+02 -0.10889870834E+02  0.10038260813E+03  0.12274550715E+03  0.00000000000E+00 0.  1.
</event>
<event>
 7    1  0.2989693E-009  0.1208337E+03  0.7561462E-02  0.1241728E+00
          2   -1    0    0  501    0  0.00000000000E+00  0.00000000000E+00  0.47123299059E+03  0.47123299059E+03  0.00000000000E+00 0. -1.
         -2   -1    0    0    0  501 -0.00000000000E+00 -0.00000000000E+00 -0.45173376631E+02  0.45173376631E+02  0.00000000000E+00 0.  1.
         25    2    1    2    0    0  0.77472230509E+02 -0.33688637101E+02  0.13866226910E+03  0.20496808962E+03  0.12509125517E+03 0.  0.
          5    1    3    3  502    0  0.37574377718E+02 -0.75929035906E+02  0.48744834123E+02  0.97829359643E+02  0.41800000000E+01 0.  1.
         -5    1    3    3    0  502  0.39897852791E+02  0.42240398804E+02  0.89917434974E+02  0.10713872998E+03  0.41800000000E+01 0.  1.
        -11    1    1    2    0    0 -0.42547029725E+02 -0.89479669662E+01  0.43918245324E+02  0.61799094844E+02  0.00000000000E+00 0.  1.
         11    1    1    2    0    0 -0.34925200784E+02  0.42636604068E+02  0.24347909953E+03  0.24963918275E+03  0.00000000000E+00 0. -1.
</event>
<event>
 7    1  0.2989693E-009  0.1118680E+03  0.7561462E-02  0.1257149E+00
         -3   -1    0    0    0  501 -0.00000000000E+00  0.00000000000E+00  0.20319943061E+02  0.20319943061E+02  0.00000000000E+00 0.  1.
          3   -1    0    0  501    0  0.00000000000E+00 -0.00000000000E+00 -0.66831336939E+03  0.66831336939E+03  0.00000000000E+00 0. -1.
         25    2    1    2    0    0 -0.24322866582E+02 -0.23453097495E+02 -0.29713804373E+03  0.32416158315E+03  0.12509222732E+03 0.  0.
          5    1    3    3  502    0  0.43089660281E+02 -0.36151354767E+02 -0.93009695018E+02  0.10877460660E+03  0.41800000000E+01 0.  1.
         -5    1    3    3    0  502 -0.67412526864E+02  0.12698257272E+02 -0.20412834872E+03  0.21538697655E+03  0.41800000000E+01 0.  1.
        -11    1    1    2    0    0  0.58261449468E+02  0.27508802288E+02 -0.22204571703E+03  0.23120430608E+03  0.00000000000E+00 0. -1.
         11    1    1    2    0    0 -0.33938582886E+02 -0.40557047935E+01 -0.12880966556E+03  0.13326742322E+03  0.00000000000E+00 0.  1.
</event>
<event>
 7    1  0.2989693E-009  0.9907043E+02  0.7561462E-02  0.1282263E+00
          3   -1    0    0  501    0  0.00000000000E+00  0.00000000000E+00  0.10495900592E+04  0.10495900592E+04  0.00000000000E+00 0. -1.
         -3   -1    0    0    0  501 -0.00000000000E+00 -0.00000000000E+00 -0.22582850492E+02  0.22582850492E+02  0.00000000000E+00 0.  1.
         25    2    1    2    0    0  0.48021714527E+02 -0.66641273494E+01  0.88550695955E+03  0.89560404338E+03  0.12503412119E+03 0.  0.
          5    1    3    3  502    0  0.48129868242E+02 -0.37929221554E+02  0.19650796259E+03  0.20588336948E+03  0.41800000000E+01 0.  1.
         -5    1    3    3    0  502 -0.10815371548E+00  0.31265094204E+02  0.68899899695E+03  0.68972067391E+03  0.41800000000E+01 0.  1.
        -11    1    1    2    0    0 -0.75729050630E+02 -0.31163869501E+01  0.94499586222E+02  0.12113947653E+03  0.00000000000E+00 0.  1.
         11    1    1    2    0    0  0.27707336103E+02  0.97805142996E+01  0.47000662896E+02  0.55429389737E+02  0.00000000000E+00 0. -1.
</event>
<event>
 7    1  0.2989693E-009  0.1005202E+03  0.7561462E-02  0.1279206E+00
          2   -1    0    0  501    0  0.00000000000E+00  0.00000000000E+00  0.53382258628E+02  0.53382258628E+02  0.00000000000E+00 0.  1.
         -2   -1    0    0    0  501 -0.00000000000E+00 -0.00000000000E+00 -0.23702888009E+03  0.23702888009E+03  0.00000000000E+00 0. -1.
         25    2    1    2    0    0  0.15264114251E+02 -0.25068781121E+02 -0.10318380656E+03  0.16479136364E+03  0.12509140108E+03 0.  0.
          5    1    3    3  502    0  0.46092433585E+02  0.36665018241E+02 -0.41815142587E+02  0.72352018258E+02  0.41800000000E+01 0.  1.
         -5    1    3    3    0  502 -0.30828319334E+02 -0.61733799363E+02 -0.61368663976E+02  0.92439345383E+02  0.41800000000E+01 0.  1.
        -11    1    1    2    0    0  0.18361347654E+02  0.33497629965E+02 -0.82478761307E+02  0.90895414448E+02  0.00000000000E+00 0. -1.
         11    1    1    2    0    0 -0.33625461905E+02 -0.84288488430E+01  0.20159464077E+01  0.34724360629E+02  0.00000000000E+00 0.  1.
</event>
<event>
 7    1  0.2989693E-009  0.9170945E+02  0.7561462E-02  0.1298764E+00
         -1   -1    0    0    0  501 -0.00000000000E+00  0.00000000000E+00  0.52049456350E+03  0.52049456350E+03  0.00000000000E+00 0.  1.
          1   -1    0    0  501    0  0.00000000000E+00 -0.00000000000E+00 -0.35422563594E+02  0.35422563594E+02  0.00000000000E+00 0. -1.
         25    2    1    2    0    0 -0.77137165302E+01  0.49468868805E+02  0.42162245442E+03  0.44262909333E+03  0.12509336428E+03 0.  0.
          5    1    3    3  502    0 -0.54300739521E+02  0.12253408461E+02  0.91848053306E+02  0.10748141061E+03  0.41800000000E+01 0. -1.
         -5    1    3    3    0  502  0.46587022991E+02  0.37215460344E+02  0.32977440111E+03  0.33514768272E+03  0.41800000000E+01 0. -1.
        -11    1    1    2    0    0 -0.18537757558E+02 -0.12035057748E+02  0.63847855039E+02  0.67565077247E+02  0.00000000000E+00 0.  1.
         11    1    1    2    0    0  0.26251474088E+02 -0.37433811057E+02 -0.39830955462E+00  0.45722956516E+02  0.00000000000E+00 0. -1.
</event>
<event>
 7    1  0.2989693E-009  0.9712925E+02  0.7561462E-02  0.1286451E+00
          1   -1    0    0  501    0  0.00000000000E+00  0.00000000000E+00  0.48862571604E+03  0.48862571604E+03  0.00000000000E+00 0. -1.
         -1   -1    0    0    0  501 -0.00000000000E+00 -0.00000000000E+00 -0.43268601712E+02  0.43268601712E+02  0.00000000000E+00 0.  1.
         25    2    1    2    0    0 -0.74115442206E+02  0.45420595950E+02  0.15636206384E+03  0.21829570514E+03  0.12509112903E+03 0.  0.
          5    1    3    3  502    0  0.97413104344E+01  0.49247228596E+01 -0.17486239550E+02  0.21032997833E+02  0.41800000000E+01 0.  1.
         -5    1    3    3    0  502 -0.83856752640E+02  0.40495873090E+02  0.17384830339E+03  0.19726270730E+03  0.41800000000E+01 0.  1.
        -11    1    1    2    0    0  0.18643961170E+02 -0.22786843035E+02  0.14834267429E+02  0.32968060206E+02  0.00000000000E+00 0.  1.
         11    1    1    2    0    0  0.55471481036E+02 -0.22633752915E+02  0.27416078306E+03  0.28063055241E+03  0.00000000000E+00 0. -1.
</event>
<event>
 7    1  0.4530011E-009  0.1560564E+03  0.7561462E-02  0.1193222E+00
         -4   -1    0    0    0  501 -0.00000000000E+00  0.00000000000E+00  0.84107663235E+02  0.84107663235E+02  0.00000000000E+00 0.  1.
          4   -1    0    0  501    0  0.00000000000E+00 -0.00000000000E+00 -0.33650392370E+03  0.33650392370E+03  0.00000000000E+00 0. -1.
         25    2    1    2    0    0  0.73804701809E+02 -0.10492208092E+03 -0.13117854948E+03  0.22206035569E+03  0.12508881906E+03 0.  0.
          5    1    3    3  502    0  0.63953293965E+02 -0.12184515728E+03 -0.14324900137E+03  0.19868068591E+03  0.41800000000E+01 0.  1.
         -5    1    3    3    0  502  0.98514078434E+01  0.16923076365E+02  0.12070451891E+02  0.23379669779E+02  0.41800000000E+01 0.  1.
        -11    1    1    2    0    0  0.18333218140E+02  0.32138725821E+02 -0.14042107569E+02  0.39575059946E+02  0.00000000000E+00 0.  1.
         11    1    1    2    0    0 -0.92137919949E+02  0.72783355098E+02 -0.10717560342E+03  0.15897617130E+03  0.00000000000E+00 0. -1.
</event>
<event>
 7    1  0.2989693E-009  0.1212087E+03  0.7561462E-02  0.1241116E+00
         -3   -1    0    0    0  501 -0.00000000000E+00  0.00000000000E+00  0.57454820479E+03  0.57454820479E+03  0.00000000000E+00 0.  1.
          3   -1    0    0  501    0  0.00000000000E+00 -0.00000000000E+00 -0.37986994266E+02  0.37986994266E+02  0.00000000000E+00 0. -1.
         25    2    1    2    0    0  0.58857108662E+02  0.24503698340E+02  0.44872607790E+03  0.47017801769E+03  0.12509070654E+03 0.  0.
          5    1    3    3  502    0  0.35688114255E+02  0.75396768698E+02  0.29261701912E+03  0.30430331334E+03  0.41800000000E+01 0. -1.
         -5    1    3    3    0  502  0.23168994407E+02 -0.50893070358E+02  0.15610905878E+03  0.16587470435E+03  0.41800000000E+01 0. -1.
        -11    1    1    2    0    0 -0.28471311988E+02  0.29410543744E+02  0.86176797907E+01  0.41831329104E+02  0.00000000000E+00 0. -1.
         11    1    1    2    0    0 -0.30385796675E+02 -0.53914242084E+02  0.79217452834E+02  0.10052585226E+03  0.00000000000E+00 0.  1.
</event>
<event>
 7    1  0.2989693E-009  0.1481159E+03  0.7561462E-02  0.1202807E+00
          1   -1    0    0  501    0  0.00000000000E+00  0.00000000000E+00  0.55933493604E+03  0.55933493604E+03  0.00000000000E+00 0. -1.
         -1   -1    0    0    0  501 -0.00000000000E+00 -0.00000000000E+00 -0.58833858865E+02  0.58833858865E+02  0.00000000000E+00 0.  1.
         25    2    1    2    0    0 -0.13060532730E+03  0.11514215180E+02  0.37059881450E+03  0.41252975176E+03  0.12508791351E+03 0.  0.
          5    1    3    3  502    0 -0.13425915672E+03  0.21743926067E+02  0.20215989154E+03  0.24368917422E+03  0.41800000000E+01 0. -1.
         -5    1    3    3    0  502  0.36538294280E+01 -0.10229710887E+02  0.16843892297E+03  0.16884057754E+03  0.41800000000E+01 0. -1.
        -11    1    1    2    0    0  0.91071514931E+02 -0.40326936570E+02  0.48770514782E+02  0.11090016121E+03  0.00000000000E+00 0.  1.
         11    1    1    2    0    0  0.39533812366E+02  0.28812721391E+02  0.81131747886E+02  0.94738881929E+02  0.00000000000E+00 0. -1.
</event>
<event>
 7    1  0.2989693E-009  0.1184823E+03  0.7561462E-02  0.1245622E+00
         -1   -1    0    0    0  501 -0.00000000000E+00  0.00000000000E+00  0.44597303313E+02  0.44597303313E+02  0.00000000000E+00 0.  1.
          1   -1    0    0  501    0  0.00000000000E+00 -0.00000000000E+00 -0.37067911505E+03  0.37067911505E+03  0.00000000000E+00 0. -1.
         25    2    1    2    0    0  0.34990392990E+01 -0.63275036575E+02 -0.21437397222E+03  0.25616555147E+03  0.12509442938E+03 0.  0.
          5    1    3    3  502    0  0.52527597040E+01 -0.99415368267E+02 -0.12641544652E+03  0.16096379857E+03  0.41800000000E+01 0. -1.
         -5    1    3    3    0  502 -0.17537204050E+01  0.36140331693E+02 -0.87958525707E+02  0.95201752897E+02  0.41800000000E+01 0. -1.
        -11    1    1    2    0    0  0.20249736370E+02  0.72610720284E+02 -0.11024295582E+03  0.13355103082E+03  0.00000000000E+00 0. -1.
         11    1    1    2    0    0 -0.23748775668E+02 -0.93356837098E+01 -0.14648836877E+01  0.25559836077E+02  0.00000000000E+00 0.  1.
</event>
<event>
 7    1  0.2989693E-009  0.3338606E+03  0.7561462E-02  0.1069441E+00
         -2   -1    0    0    0  501 -0.00000000000E+00  0.00000000000E+00  0.23126203802E+03  0.23126203802E+03  0.00000000000E+00 0.  1.
          2   -1    0    0  501    0  0.00000000000E+00 -0.00000000000E+00 -0.53514974883E+03  0.53514974883E+03  0.00000000000E+00 0. -1.
         25    2    1    2    0    0  0.31336485539E+03 -0.52725699695E+02 -0.41545844717E+02  0.34402398358E+03  0.12509561169E+03 0.  0.
          5    1    3    3  502    0  0.17576816740E+03 -0.86565150066E+02  0.11466464815E+01  0.19597642989E+03  0.41800000000E+01 0.  1.
         -5    1    3    3    0  502  0.13759668799E+03  0.33839450371E+02 -0.42692491199E+02  0.14804755368E+03  0.41800000000E+01 0.  1.
        -11    1    1    2    0    0 -0.74894981608E+02  0.52598866891E+02 -0.58058978485E+02  0.10838239733E+03  0.00000000000E+00 0. -1.
         11    1    1    2    0    0 -0.23846987378E+03  0.12683280406E+00 -0.20428288761E+03  0.31400540593E+03  0.00000000000E+00 0.  1.
</event>
<event>
 7    1  0.2989693E-009  0.1709382E+03  0.7561462E-02  0.1176873E+00
          2   -1    0    0  501    0  0.00000000000E+00  0.00000000000E+00  0.52646173207E+03  0.52646173207E+03  0.00000000000E+00 0. -1.
         -2   -1    0    0    0  501 -0.00000000000E+00 -0.00000000000E+00 -0.59463059174E+02  0.59463059174E+02  0.00000000000E+00 0.  1.
         25    2    1    2    0    0 -0.37465282784E+02 -0.13367265677E+03  0.23871120226E+03  0.30315324294E+03  0.12508726569E+03 0.  0.
          5    1    3    3  502    0 -0.22311596204E+02  0.16651330155E+02  0.76131934241E+02  0.81170302034E+02  0.41800000000E+01 0.  1.
         -5    1    3    3    0  502 -0.15153686581E+02 -0.15032398693E+03  0.16257926802E+03  0.22198294091E+03  0.41800000000E+01 0.  1.
        -11    1    1    2    0    0  0.53431778476E+02  0.37954798527E+02  0.61882429327E+02  0.90138541933E+02  0.00000000000E+00 0.  1.
         11    1    1    2    0    0 -0.15966495692E+02  0.95717858244E+02  0.16640504131E+03  0.19263300637E+03  0.00000000000E+00 0. -1.
</event>
<event>
 7    1  0.2989693E-009  0.8523558E+02  0.7561462E-02  0.1314818E+00
         -1   -1    0    0    0  501 -0.00000000000E+00  0.00000000000E+00  0.39027418138E+02  0.39027418138E+02  0.00000000000E+00 0.  1.
          1   -1    0    0  501    0  0.00000000000E+00 -0.00000000000E+00 -0.33538024825E+03  0.33538024825E+03  0.00000000000E+00 0. -1.
         25    2    1    2    0    0 -0.39185261210E+01  0.36749664297E+02 -0.19622948468E+03  0.23562577770E+03  0.12509038246E+03 0.  0.
          5    1    3    3  502    0 -0.15212273808E+02 -0.18752236546E+02  0.62846186817E+01  0.25298784197E+02  0.41800000000E+01 0.  1.
         -5    1    3    3    0  502  0.11293747687E+02  0.55501900843E+02 -0.20251410336E+03  0.21032699350E+03  0.41800000000E+01 0.  1.
        -11    1    1    2    0    0 -0.36027907895E+02 -0.33328328074E+02 -0.80165903497E+02  0.93996593997E+02  0.00000000000E+00 0. -1.
         11    1    1    2    0    0  0.39946434016E+02 -0.34213362231E+01 -0.19957441933E+02  0.44785294692E+02  0.00000000000E+00 0.  1.
</event>
<event>
 7    1  0.2989693E-009  0.9690355E+02  0.7561462E-02  0.1286945E+00
         -2   -1    0    0    0  501 -0.00000000000E+00  0.00000000000E+00  0.17436190925E+02  0.17436190925E+02  0.00000000000E+00 0.  1.
          2   -1    0    0  501    0  0.00000000000E+00 -0.00000000000E+00 -0.11229220966E+04  0.11229220966E+04  0.00000000000E+00 0. -1.
         25    2    1    2    0    0  0.68011952050E+02 -0.32134799722E+02 -0.79221041951E+03  0.80554430794E+03  0.12508402099E+03 0.  0.
          5    1    3    3  502    0  0.17077265030E+02  0.80754985286E+01 -0.12296928600E+02  0.22924517670E+02  0.41800000000E+01 0.  1.
         -5    1    3    3    0  502  0.50934687020E+02 -0.40210298251E+02 -0.77991349091E+03  0.78261979027E+03  0.41800000000E+01 0.  1.
        -11    1    1    2    0    0 -0.32531642820E+02  0.57328938634E+02 -0.24610742232E+03  0.25478182492E+03  0.00000000000E+00 0. -1.
         11    1    1    2    0    0 -0.35480309230E+02 -0.25194138912E+02 -0.67168063851E+02  0.80032154663E+02  0.00000000000E+00 0.  1.
</event>
<event>
 7    1  0.2989693E-009  0.1229423E+03  0.7561462E-02  0.1238321E+00
         -2   -1    0    0    0  501 -0.00000000000E+00  0.00000000000E+00  0.43378189489E+02  0.43378189489E+02  0.00000000000E+00 0.  1.
          2   -1    0    0  501    0  0.00000000000E+00 -0.00000000000E+00 -0.58454378748E+03  0.58454378748E+03  0.00000000000E+00 0. -1.
         25    2    1    2    0    0 -0.11366504742E+03  0.84140906687E+01 -0.23084692591E+03  0.28624019612E+03  0.12511037824E+03 0.  0.
          5    1    3    3  502    0 -0.10212511662E+03  0.23481654861E+02 -0.24206110234E+03  0.26380291360E+03  0.41800000000E+01 0. -1.
         -5    1    3    3    0  502 -0.11539930807E+02 -0.15067564193E+02  0.11214176429E+02  0.22437282516E+02  0.41800000000E+01 0. -1.
        -11    1    1    2    0    0  0.43204165798E+02 -0.23986863811E+02 -0.22297372891E+03  0.22838400417E+03  0.00000000000E+00 0. -1.
         11    1    1    2    0    0  0.70460881627E+02  0.15572773142E+02 -0.87344943173E+02  0.11329777668E+03  0.00000000000E+00 0.  1.
</event>
<event>
 7    1  0.2989693E-009  0.1118494E+03  0.7561462E-02  0.1257183E+00
          1   -1    0    0  501    0  0.00000000000E+00  0.00000000000E+00  0.21769038013E+03  0.21769038013E+03  0.00000000000E+00 0. -1.
         -1   -1    0    0    0  501 -0.00000000000E+00 -0.00000000000E+00 -0.73866801792E+02  0.73866801792E+02  0.00000000000E+00 0.  1.
         25    2    1    2    0    0 -0.59188563582E+02  0.13183748816E+01  0.11213257732E+03  0.17811630412E+03  0.12508668485E+03 0.  0.
          5    1    3    3  502    0  0.35200882693E+02  0.10434072364E+02  0.58211357696E+02  0.68949304371E+02  0.41800000000E+01 0.  1.
         -5    1    3    3    0  502 -0.94389446276E+02 -0.91156974821E+01  0.53921219620E+02  0.10916699975E+03  0.41800000000E+01 0.  1.
        -11    1    1    2    0    0  0.57005450380E+02 -0.29069404404E+02  0.49057967835E+02  0.80630861670E+02  0.00000000000E+00 0. -1.
         11    1    1    2    0    0  0.21831132022E+01  0.27751029523E+02 -0.17366966808E+02  0.32810016137E+02  0.00000000000E+00 0.  1.
</event>
<event>
 7    1  0.2989693E-009  0.1304790E+03  0.7561462E-02  0.1226747E+00
         -1   -1    0    0    0  501 -0.00000000000E+00  0.00000000000E+00  0.14794957758E+03  0.14794957758E+03  0.00000000000E+00 0.  1.
          1   -1    0    0  501    0  0.00000000000E+00 -0.00000000000E+00 -0.20418571987E+03  0.20418571987E+03  0.00000000000E+00 0. -1.
         25    2    1    2    0    0 -0.57609145064E+02  0.52926182652E+02 -0.14053040538E+03  0.20375877165E+03  0.12509535477E+03 0.  0.
          5    1    3    3  502    0 -0.66990235413E+02 -0.21432903862E+02 -0.51316602952E+02  0.87166089434E+02  0.41800000000E+01 0.  1.
         -5    1    3    3    0  502  0.93810903490E+01  0.74359086514E+02 -0.89213802431E+02  0.11659268222E+03  0.41800000000E+01 0.  1.
        -11    1    1    2    0    0  0.53128294334E+02  0.85347897040E+01  0.15456974956E+02  0.55985501416E+02  0.00000000000E+00 0. -1.
         11    1    1    2    0    0  0.44808507310E+01 -0.61460972356E+02  0.68837288137E+02  0.92391024370E+02  0.00000000000E+00 0.  1.
</event>
<event>
 6    1  0.2989693E-009  0.1241291E+03  0.7561462E-02  0.1236437E+00
         -1   -1    0    0    0  501 -0.00000000000E+00  0.00000000000E+00  0.33517215332E+02  0.33517215332E+02  0.00000000000E+00 0. -1.
          1   -1    0    0  501    0  0.00000000000E+00 -0.00000000000E+00 -0.59441487615E+03  0.59441487615E+03  0.00000000000E+00 0.  1.
          5    1    1    2  502    0 -0.83499358603E+01  0.58348321015E+02 -0.20281714071E+03  0.21124988275E+03  0.41800000000E+01 0. -1.
         -5    1    1    2    0  502  0.76726350547E+02  0.39397444654E+00 -0.80936771628E+02  0.11160341162E+03  0.41800000000E+01 0.  1.
        -11    1    1    2    0    0 -0.15322346290E+02  0.15026308732E+02 -0.11549834577E+02  0.24371354675E+02  0.00000000000E+00 0. -1.
         11    1    1    2    0    0 -0.53054068397E+02 -0.73768604193E+02 -0.26559391390E+03  0.28070744243E+03  0.00000000000E+00 0.  1.
</event>
<event>
 7    1  0.2989693E-009  0.1137104E+03  0.7561462E-02  0.1253849E+00
         -2   -1    0    0    0  501 -0.00000000000E+00  0.00000000000E+00  0.62917322271E+02  0.62917322271E+02  0.00000000000E+00 0.  1.
          2   -1    0    0  501    0  0.00000000000E+00 -0.00000000000E+00 -0.28089287416E+03  0.28089287416E+03  0.00000000000E+00 0. -1.
         25    2    1    2    0    0 -0.55138326438E+02 -0.54391666239E+02 -0.12997922007E+03  0.19631854121E+03  0.12509070140E+03 0.  0.
          5    1    3    3  502    0  0.22970695936E+02 -0.48695634050E+02 -0.97448044715E+02  0.11141145123E+03  0.41800000000E+01 0.  1.
         -5    1    3    3    0  502 -0.78109022374E+02 -0.56960321884E+01 -0.32531175354E+02  0.84907089980E+02  0.41800000000E+01 0.  1.
        -11    1    1    2    0    0  0.42534279390E+02  0.36330008227E+01  0.27234432348E+01  0.42775936708E+02  0.00000000000E+00 0.  1.
         11    1    1    2    0    0  0.12604047049E+02  0.50758665416E+02 -0.90719775058E+02  0.10471571851E+03  0.00000000000E+00 0. -1.
</event>
<event>
 7    1  0.2989693E-009  0.8411966E+02  0.7561462E-02  0.1317751E+00
          1   -1    0    0  501    0  0.00000000000E+00  0.00000000000E+00  0.53174390652E+03  0.53174390652E+03  0.00000000000E+00 0. -1.
         -1   -1    0    0    0  501 -0.00000000000E+00 -0.00000000000E+00 -0.22964620356E+02  0.22964620356E+02  0.00000000000E+00 0.  1.
         25    2    1    2    0    0  0.18242154465E+02 -0.11977437658E+02  0.33021250104E+03  0.35378651895E+03  0.12509344480E+03 0.  0.
          5    1    3    3  502    0 -0.37642079336E+02  0.89861721982E+01  0.34285823997E+02  0.51871644997E+02  0.41800000000E+01 0.  1.
         -5    1    3    3    0  502  0.55884233801E+02 -0.20963609856E+02  0.29592667705E+03  0.30191487395E+03  0.41800000000E+01 0.  1.
        -11    1    1    2    0    0  0.18496845732E+02  0.24471924469E+02  0.14902987563E+03  0.15215423826E+03  0.00000000000E+00 0. -1.
         11    1    1    2    0    0 -0.36739000196E+02 -0.12494486812E+02  0.29536909486E+02  0.48767769665E+02  0.00000000000E+00 0.  1.
</event>
<event>
 7    1  0.2989693E-009  0.1310151E+03  0.7561462E-02  0.1225957E+00
          2   -1    0    0  501    0  0.00000000000E+00  0.00000000000E+00  0.16792297063E+03  0.16792297063E+03  0.00000000000E+00 0. -1.
         -2   -1    0    0    0  501 -0.00000000000E+00 -0.00000000000E+00 -0.14587246480E+03  0.14587246480E+03  0.00000000000E+00 0.  1.
         25    2    1    2    0    0  0.10649898499E+03 -0.19389757338E+02  0.40470326200E+02  0.17030419011E+03  0.12509066062E+03 0.  0.
          5    1    3    3  502    0  0.32291444766E+02 -0.51282166219E+02  0.61804082058E+02  0.86659188412E+02  0.41800000000E+01 0.  1.
         -5    1    3    3    0  502  0.74207540225E+02  0.31892408881E+02 -0.21333755857E+02  0.83645001700E+02  0.41800000000E+01 0.  1.
        -11    1    1    2    0    0 -0.78266430883E+02 -0.10873268116E+02  0.25608578347E+02  0.83064200758E+02  0.00000000000E+00 0. -1.
         11    1    1    2    0    0 -0.28232554108E+02  0.30263025454E+02 -0.44028398714E+02  0.60427044562E+02  0.00000000000E+00 0.  1.
</event>
<event>
 7    1  0.2989693E-009  0.2591371E+03  0.7561462E-02  0.1107663E+00
          1   -1    0    0  501    0  0.00000000000E+00  0.00000000000E+00  0.22693006594E+03  0.22693006594E+03  0.00000000000E+00 0. -1.
         -1   -1    0    0    0  501 -0.00000000000E+00 -0.00000000000E+00 -0.31181153020E+03  0.31181153020E+03  0.00000000000E+00 0.  1.
         25    2    1    2    0    0  0.22927144178E+03  0.43736290209E+02  0.61356554008E+00  0.26481397702E+03  0.12509120220E+03 0.  0.
          5    1    3    3  502    0  0.23475667100E+02  0.49473414087E+02  0.18910649090E+02  0.58084513394E+02  0.41800000000E+01 0. -1.
         -5    1    3    3    0  502  0.20579577468E+03 -0.57371238784E+01 -0.18297083550E+02  0.20672946363E+03  0.41800000000E+01 0. -1.
        -11    1    1    2    0    0 -0.18635225881E+03 -0.78492915467E+02 -0.50071248380E+02  0.20831570286E+03  0.00000000000E+00 0.  1.
         11    1    1    2    0    0 -0.42919182966E+02  0.34756625259E+02 -0.35423781423E+02  0.65611916267E+02  0.00000000000E+00 0. -1.
</event>
<event>
 7    1  0.2989693E-009  0.1023732E+03  0.7561462E-02  0.1275383E+00
          1   -1    0    0  501    0  0.00000000000E+00  0.00000000000E+00  0.81123762103E+03  0.81123762103E+03  0.00000000000E+00 0. -1.
         -1   -1    0    0    0  501 -0.00000000000E+00 -0.00000000000E+00 -0.25153131361E+02  0.25153131361E+02  0.00000000000E+00 0.  1.
         25    2    1    2    0    0  0.37451932674E+02 -0.12512300958E+02  0.66924142524E+03  0.68197550613E+03  0.12508917127E+03 0.  0.
          5    1    3    3  502    0 -0.20836037549E+02  0.26289198065E+02  0.61320730160E+02  0.70021187815E+02  0.41800000000E+01 0.  1.
         -5    1    3    3    0  502  0.58287970223E+02 -0.38801499024E+02  0.60792069508E+03  0.61195431831E+03  0.41800000000E+01 0.  1.
        -11    1    1    2    0    0 -0.50439183310E+02 -0.28390669191E+02  0.71346278738E+02  0.91871828108E+02  0.00000000000E+00 0. -1.
         11    1    1    2    0    0  0.12987250636E+02  0.40902970149E+02  0.45496785696E+02  0.62543418157E+02  0.00000000000E+00 0.  1.
</event>
<event>
 7    1  0.4064292E-009  0.9275280E+02  0.7561462E-02  0.1296319E+00
          2   -1    0    0  501    0  0.00000000000E+00  0.00000000000E+00  0.16540689728E+04  0.16540689728E+04  0.00000000000E+00 0. -1.
         -2   -1    0    0    0  501 -0.00000000000E+00 -0.00000000000E+00 -0.95204164431E+01  0.95204164431E+01  0.00000000000E+00 0.  1.
         25    2    1    2    0    0  0.25271731646E+02  0.38991478527E+02  0.12028177570E+04  0.12101954453E+04  0.12507383249E+03 0.  0.
          5    1    3    3  502    0 -0.13654043356E+01 -0.21573631953E+02  0.89718431314E+03  0.89745442785E+03  0.41800000000E+01 0. -1.
         -5    1    3    3    0  502  0.26637135981E+02  0.60565110480E+02  0.30563344382E+03  0.31274101746E+03  0.41800000000E+01 0. -1.
        -11    1    1    2    0    0 -0.56061680780E+02 -0.14653514980E+02  0.32806602123E+03  0.33314404068E+03  0.00000000000E+00 0.  1.
         11    1    1    2    0    0  0.30789949135E+02 -0.24337963547E+02  0.11366477819E+03  0.12024990328E+03  0.00000000000E+00 0. -1.
</event>
<event>
 7    1  0.2989693E-009  0.2603350E+03  0.7561462E-02  0.1106942E+00
          1   -1    0    0  501    0  0.00000000000E+00  0.00000000000E+00  0.40683171907E+03  0.40683171907E+03  0.00000000000E+00 0. -1.
         -1   -1    0    0    0  501 -0.00000000000E+00 -0.00000000000E+00 -0.19321284788E+03  0.19321284788E+03  0.00000000000E+00 0.  1.
         25    2    1    2    0    0  0.40023528490E+02  0.24503256529E+03  0.32309037303E+02  0.27988313358E+03  0.12509138134E+03 0.  0.
          5    1    3    3  502    0 -0.27783730321E+02  0.10057420253E+03 -0.29795326913E+02  0.10859254022E+03  0.41800000000E+01 0.  1.
         -5    1    3    3    0  502  0.67807258811E+02  0.14445836276E+03  0.62104364216E+02  0.17129059336E+03  0.41800000000E+01 0.  1.
        -11    1    1    2    0    0  0.16924748796E+02 -0.86952726472E+02  0.99690291498E+02  0.13336183105E+03  0.00000000000E+00 0.  1.
         11    1    1    2    0    0 -0.56948277286E+02 -0.15807983882E+03  0.81619542384E+02  0.18679960232E+03  0.00000000000E+00 0. -1.
</event>
<event>
 7    1  0.2989693E-009  0.1013935E+03  0.7561462E-02  0.1277393E+00
         -1   -1    0    0    0  501 -0.00000000000E+00  0.00000000000E+00  0.57719376073E+02  0.57719376073E+02  0.00000000000E+00 0.  1.
          1   -1    0    0  501    0  0.00000000000E+00 -0.00000000000E+00 -0.18525042284E+03  0.18525042284E+03  0.00000000000E+00 0. -1.
         25    2    1    2    0    0 -0.46532005066E+02  0.17910366876E+02 -0.10245432914E+03  0.16920447327E+03  0.12508899024E+03 0.  0.
          5    1    3    3  502    0  0.37169930150E+02 -0.19425566218E+02 -0.24091766814E+02  0.48547316697E+02  0.41800000000E+01 0. -1.
         -5    1    3    3    0  502 -0.83701935215E+02  0.37335933094E+02 -0.78362562326E+02  0.12065715658E+03  0.41800000000E+01 0. -1.
        -11    1    1    2    0    0  0.26687746751E+02 -0.34086103598E+02 -0.11527701659E+02  0.44799399446E+02  0.00000000000E+00 0.  1.
         11    1    1    2    0    0  0.19844258314E+02  0.16175736723E+02 -0.13549015966E+02  0.28965926193E+02  0.00000000000E+00 0. -1.
</event>
<event>
 7    1  0.2989693E-009  0.9617665E+02  0.7561462E-02  0.1288548E+00
         -1   -1    0    0    0  501 -0.00000000000E+00  0.00000000000E+00  0.73073401011E+02  0.73073401011E+02  0.00000000000E+00 0. -1.
          1   -1    0    0  501    0  0.00000000000E+00 -0.00000000000E+00 -0.18797012446E+03  0.18797012446E+03  0.00000000000E+00 0.  1.
         25    2    1    2    0    0  0.94269169211E+01  0.43586338736E+02 -0.67475397094E+02  0.14896314072E+03  0.12509377440E+03 0.  0.
          5    1    3    3  502    0  0.63145632125E+02  0.19799220895E+02 -0.10720121034E+02  0.67169735740E+02  0.41800000000E+01 0. -1.
         -5    1    3    3    0  502 -0.53718715203E+02  0.23787117841E+02 -0.56755276060E+02  0.81793404984E+02  0.41800000000E+01 0. -1.
        -11    1    1    2    0    0  0.19730924280E+02 -0.83886594764E+01  0.20859992332E+02  0.29913513014E+02  0.00000000000E+00 0. -1.
         11    1    1    2    0    0 -0.29157841201E+02 -0.35197679260E+02 -0.68281318687E+02  0.82166871733E+02  0.00000000000E+00 0.  1.
</event>
<event>
 7    1  0.2989693E-009  0.3252598E+03  0.7561462E-02  0.1073254E+00
          1   -1    0    0  501    0  0.00000000000E+00  0.00000000000E+00  0.13032212458E+04  0.13032212458E+04  0.00000000000E+00 0. -1.
         -1   -1    0    0    0  501 -0.00000000000E+00 -0.00000000000E+00 -0.94615766090E+02  0.94615766090E+02  0.00000000000E+00 0.  1.
         25    2    1    2    0    0 -0.74315421173E+02  0.30880129909E+03  0.40962941242E+03  0.53322252108E+03  0.12509587255E+03 0.  0.
          5    1    3    3  502    0 -0.52624700952E+02  0.13633589644E+03  0.96867284541E+02  0.17537838813E+03  0.41800000000E+01 0. -1.
         -5    1    3    3    0  502 -0.21690720221E+02  0.17246540264E+03  0.31276212788E+03  0.35784413295E+03  0.41800000000E+01 0. -1.
        -11    1    1    2    0    0  0.23334357929E+02 -0.69899097514E+01  0.59619935064E+02  0.64404097349E+02  0.00000000000E+00 0.  1.
         11    1    1    2    0    0  0.50981063244E+02 -0.30181138934E+03  0.73935613228E+03  0.80021039351E+03  0.00000000000E+00 0. -1.
</event>
<event>
 7    1  0.2989693E-009  0.1536563E+03  0.7561462E-02  0.1196051E+00
          1   -1    0    0  501    0  0.00000000000E+00  0.00000000000E+00  0.61589579928E+03  0.61589579928E+03  0.00000000000E+00 0. -1.
         -1   -1    0    0    0  501 -0.00000000000E+00 -0.00000000000E+00 -0.49417888871E+02  0.49417888871E+02  0.00000000000E+00 0.  1.
         25    2    1    2    0    0  0.12577626800E+02 -0.11637911431E+03  0.42857259424E+03  0.46154723469E+03  0.12509630839E+03 0.  0.
          5    1    3    3  502    0  0.11129529461E+02  0.18718005207E+02  0.15857587740E+02  0.27261064430E+02  0.41800000000E+01 0.  1.
         -5    1    3    3    0  502  0.14480973397E+01 -0.13509711951E+03  0.41271500650E+03  0.43428617026E+03  0.41800000000E+01 0.  1.
        -11    1    1    2    0    0  0.22593211717E+02  0.11231384237E+03  0.10734886355E+03  0.15699882454E+03  0.00000000000E+00 0.  1.
         11    1    1    2    0    0 -0.35170838518E+02  0.40652719417E+01  0.30556452617E+02  0.46767628917E+02  0.00000000000E+00 0. -1.
</event>
<event>
 7    1  0.3143785E-009  0.1647878E+03  0.7561462E-02  0.1183395E+00
          2   -1    0    0  501    0  0.00000000000E+00  0.00000000000E+00  0.75308544955E+03  0.75308544955E+03  0.00000000000E+00 0.  1.
         -2   -1    0    0    0  501 -0.00000000000E+00 -0.00000000000E+00 -0.37795767492E+02  0.37795767492E+02  0.00000000000E+00 0. -1.
         25    2    1    2    0    0 -0.10883215104E+03  0.67135276113E+02  0.41583972089E+03  0.45268304813E+03  0.12509071184E+03 0.  0.
          5    1    3    3  502    0 -0.30441343605E+02  0.90620311874E+02  0.19709639275E+03  0.21909627281E+03  0.41800000000E+01 0.  1.
         -5    1    3    3    0  502 -0.78390807431E+02 -0.23485035761E+02  0.21874332814E+03  0.23358677532E+03  0.41800000000E+01 0.  1.
        -11    1    1    2    0    0  0.10559373576E+03 -0.23480203231E+02  0.24851490262E+03  0.27103692332E+03  0.00000000000E+00 0.  1.
         11    1    1    2    0    0  0.32384152735E+01 -0.43655072882E+02  0.50935058541E+02  0.67161245599E+02  0.00000000000E+00 0. -1.
</event>
<event>
 7    1  0.2989693E-009  0.1089932E+03  0.7561462E-02  0.1262446E+00
          1   -1    0    0  501    0  0.00000000000E+00  0.00000000000E+00  0.92385504657E+02  0.92385504657E+02  0.00000000000E+00 0. -1.
         -1   -1    0    0    0  501 -0.00000000000E+00 -0.00000000000E+00 -0.31811714772E+03  0.31811714772E+03  0.00000000000E+00 0.  1.
         25    2    1    2    0    0 -0.41713338793E+02  0.82559716530E+02 -0.56616013574E+01  0.15567841008E+03  0.12509038415E+03 0.  0.
          5    1    3    3  502    0 -0.52428635943E+02  0.38297153393E+02  0.51140489119E+02  0.82754189333E+02  0.41800000000E+01 0. -1.
         -5    1    3    3    0  502  0.10715297150E+02  0.44262563137E+02 -0.56802090477E+02  0.72924220743E+02  0.41800000000E+01 0. -1.
        -11    1    1    2    0    0  0.15671366928E+02 -0.79432887863E+02 -0.21268656093E+03  0.22757580851E+03  0.00000000000E+00 0.  1.
         11    1    1    2    0    0  0.26041971864E+02 -0.31268286664E+01 -0.73834807752E+01  0.27248433798E+02  0.00000000000E+00 0. -1.
</event>
<event>
 7    1  0.2989693E-009  0.1082187E+03  0.7561462E-02  0.1263905E+00
         -2   -1    0    0    0  501 -0.00000000000E+00  0.00000000000E+00  0.14023805506E+02  0.14023805506E+02  0.00000000000E+00 0.  1.
          2   -1    0    0  501    0  0.00000000000E+00 -0.00000000000E+00 -0.15504617887E+04  0.15504617887E+04  0.00000000000E+00 0. -1.
         25    2    1    2    0    0  0.62851531764E+02 -0.11816246897E+02 -0.11876327993E+04  0.11959131836E+04  0.12508692167E+03 0.  0.
          5    1    3    3  502    0 -0.14779523327E+02  0.96627471394E+01 -0.78869097965E+03  0.78889970007E+03  0.41800000000E+01 0.  1.
         -5    1    3    3    0  502  0.77631055090E+02 -0.21478994037E+02 -0.39894181967E+03  0.40701348354E+03  0.41800000000E+01 0.  1.
        -11    1    1    2    0    0 -0.80422167084E+02  0.35695728456E+02 -0.23384064253E+03  0.24984666515E+03  0.00000000000E+00 0.  1.
         11    1    1    2    0    0  0.17570635321E+02 -0.23879481559E+02 -0.11496454136E+03  0.11872574546E+03  0.00000000000E+00 0. -1.
</event>
<event>
 7    1  0.2989693E-009  0.1406309E+03  0.7561462E-02  0.1212482E+00
          2   -1    0    0  501    0  0.00000000000E+00  0.00000000000E+00  0.22186930732E+03  0.22186930732E+03  0.00000000000E+00 0. -1.
         -2   -1    0    0    0  501 -0.00000000000E+00 -0.00000000000E+00 -0.93383659876E+02  0.93383659876E+02  0.00000000000E+00 0.  1.
         25    2    1    2    0    0  0.81346703583E+02 -0.45996117364E+02  0.95804146092E+02  0.18319139226E+03  0.12509085815E+03 0.  0.
          5    1    3    3  502    0  0.77532951267E+01 -0.76025665074E+02  0.48216925135E+02  0.90456396152E+02  0.41800000000E+01 0. -1.
         -5    1    3    3    0  502  0.73593408457E+02  0.30029547710E+02  0.47587220957E+02  0.92734996104E+02  0.41800000000E+01 0. -1.
        -11    1    1    2    0    0 -0.26271242454E+01 -0.21365690336E+02  0.16666213507E+02  0.27224202064E+02  0.00000000000E+00 0. -1.
         11    1    1    2    0    0 -0.78719579338E+02  0.67361807700E+02  0.16015287850E+02  0.10483737288E+03  0.00000000000E+00 0.  1.
</event>
<event>
 7    1  0.2989693E-009  0.1613429E+03  0.7561462E-02  0.1187189E+00
         -2   -1    0    0    0  501 -0.00000000000E+00  0.00000000000E+00  0.39329024064E+03  0.39329024064E+03  0.00000000000E+00 0.  1.
          2   -1    0    0  501    0  0.00000000000E+00 -0.00000000000E+00 -0.70014129114E+02  0.70014129114E+02  0.00000000000E+00 0. -1.
         25    2    1    2    0    0  0.10452986432E+03 -0.66991660232E+02  0.19788447338E+03  0.26499088198E+03  0.12509007815E+03 0.  0.
          5    1    3    3  502    0  0.10988942269E+03 -0.96252865077E+02  0.16148405063E+03  0.21779547806E+03  0.41800000000E+01 0. -1.
         -5    1    3    3    0  502 -0.53595583713E+01  0.29261204845E+02  0.36400422750E+02  0.47195403921E+02  0.41800000000E+01 0. -1.
        -11    1    1    2    0    0 -0.75255694330E+02  0.83892228556E+02  0.67764748606E+02  0.13150432196E+03  0.00000000000E+00 0. -1.
         11    1    1    2    0    0 -0.29274169991E+02 -0.16900568324E+02  0.57626889543E+02  0.66809165814E+02  0.00000000000E+00 0.  1.
</event>
<event>
 7    1  0.2989693E-009  0.3090119E+03  0.7561462E-02  0.1080820E+00
          2   -1    0    0  501    0  0.00000000000E+00  0.00000000000E+00  0.21293060113E+03  0.21293060113E+03  0.00000000000E+00 0. -1.
         -2   -1    0    0    0  501 -0.00000000000E+00 -0.00000000000E+00 -0.86892790683E+03  0.86892790683E+03  0.00000000000E+00 0.  1.
         25    2    1    2    0    0  0.16989515120E+03 -0.24621326780E+03 -0.69313328464E+03  0.76522297036E+03  0.12508840253E+03 0.  0.
          5    1    3    3  502    0  0.17887807256E+02 -0.11040918643E+03 -0.16769224107E+03  0.20161429069E+03  0.41800000000E+01 0.  1.
         -5    1    3    3    0  502  0.15200734395E+03 -0.13580408138E+03 -0.52544104356E+03  0.56360867967E+03  0.41800000000E+01 0.  1.
        -11    1    1    2    0    0 -0.80058147227E+02  0.79414644806E+02  0.56622742845E+02  0.12618291388E+03  0.00000000000E+00 0.  1.
         11    1    1    2    0    0 -0.89837003975E+02  0.16679862300E+03 -0.19486763909E+02  0.19045262373E+03  0.00000000000E+00 0. -1.
</event>
<event>
 7    1  0.3145990E-009  0.1198820E+03  0.7561462E-02  0.1243292E+00
         -1   -1    0    0    0  501 -0.00000000000E+00  0.00000000000E+00  0.31237304841E+02  0.31237304841E+02  0.00000000000E+00 0.  1.
          1   -1    0    0  501    0  0.00000000000E+00 -0.00000000000E+00 -0.67875575191E+03  0.67875575191E+03  0.00000000000E+00 0. -1.
         25    2    1    2    0    0 -0.56847472992E+01 -0.93007554455E+02 -0.41602127250E+03  0.44430151259E+03  0.12508962141E+03 0.  0.
          5    1    3    3  502    0 -0.56125005630E+02 -0.25949021729E+02 -0.25794627677E+03  0.26528686753E+03  0.41800000000E+01 0.  1.
         -5    1    3    3    0  502  0.50440258331E+02 -0.67058532725E+02 -0.15807499573E+03  0.17901464507E+03  0.41800000000E+01 0.  1.
        -11    1    1    2    0    0  0.86202188668E+01  0.57088800238E+02 -0.22061664302E+03  0.22804636034E+03  0.00000000000E+00 0. -1.
         11    1    1    2    0    0 -0.29354715677E+01  0.35918754216E+02 -0.10880531546E+02  0.37645183815E+02  0.00000000000E+00 0.  1.
</event>
<event>
 7    1  0.2989693E-009  0.1172818E+03  0.7561462E-02  0.1247650E+00
          2   -1    0    0  501    0  0.00000000000E+00  0.00000000000E+00  0.84530147381E+03  0.84530147381E+03  0.00000000000E+00 0. -1.
         -2   -1    0    0    0  501 -0.00000000000E+00 -0.00000000000E+00 -0.21572853353E+02  0.21572853353E+02  0.00000000000E+00 0.  1.
         25    2    1    2    0    0  0.30825026275E+02  0.48542357030E+02  0.63542295936E+03  0.65016804747E+03  0.12509840126E+03 0.  0.
          5    1    3    3  502    0  0.68144328699E+02  0.65125237520E+02  0.38438091713E+03  0.39579174820E+03  0.41800000000E+01 0. -1.
         -5    1    3    3    0  502 -0.37319302425E+02 -0.16582880490E+02  0.25104204224E+03  0.25437629927E+03  0.41800000000E+01 0. -1.
        -11    1    1    2    0    0  0.24778253199E+02 -0.33296344211E+02  0.12185742378E+03  0.12873165928E+03  0.00000000000E+00 0. -1.
         11    1    1    2    0    0 -0.55603279474E+02 -0.15246012819E+02  0.66448237309E+02  0.87974620412E+02  0.00000000000E+00 0.  1.
</event>
<event>
 7    1  0.2989693E-009  0.1009660E+03  0.7561462E-02  0.1278278E+00
         -2   -1    0    0    0  501 -0.00000000000E+00  0.00000000000E+00  0.19347524175E+03  0.19347524175E+03  0.00000000000E+00 0.  1.
          2   -1    0    0  501    0  0.00000000000E+00 -0.00000000000E+00 -0.82695322448E+02  0.82695322448E+02  0.00000000000E+00 0. -1.
         25    2    1    2    0    0 -0.53350837819E+02 -0.35142930560E+02  0.53828857855E+02  0.15042440921E+03  0.12509444225E+03 0.  0.
          5    1    3    3  502    0  0.30928626610E+02 -0.23854359137E+02  0.52129035062E+02  0.65272651932E+02  0.41800000000E+01 0.  1.
         -5    1    3    3    0  502 -0.84279464429E+02 -0.11288571424E+02  0.16998227929E+01  0.85151757273E+02  0.41800000000E+01 0.  1.
        -11    1    1    2    0    0  0.14806055933E+02 -0.10217795160E+02  0.63371409598E+02  0.65875323033E+02  0.00000000000E+00 0.  1.
         11    1    1    2    0    0  0.38544781886E+02  0.45360725721E+02 -0.64203481555E+01  0.59870831955E+02  0.00000000000E+00 0. -1.
</event>
<event>
 7    1  0.2989693E-009  0.8403099E+02  0.7561462E-02  0.1317986E+00
         -1   -1    0    0    0  501 -0.00000000000E+00  0.00000000000E+00  0.29573646507E+02  0.29573646507E+02  0.00000000000E+00 0.  1.
          1   -1    0    0  501    0  0.00000000000E+00 -0.00000000000E+00 -0.30267753696E+03  0.30267753696E+03  0.00000000000E+00 0. -1.
         25    2    1    2    0    0  0.36354242125E+01 -0.43666471196E+01 -0.19571085519E+03  0.23233526063E+03  0.12507857760E+03 0.  0.
          5    1    3    3  502    0  0.81905626719E+00  0.58626645279E+02 -0.68288311833E+02  0.90102831936E+02  0.41800000000E+01 0. -1.
         -5    1    3    3    0  502  0.28163679453E+01 -0.62993292399E+02 -0.12742254336E+03  0.14223242869E+03  0.41800000000E+01 0. -1.
        -11    1    1    2    0    0  0.14496871946E+02 -0.14087776370E+02 -0.70215007030E+02  0.73066900520E+02  0.00000000000E+00 0. -1.
         11    1    1    2    0    0 -0.18132296159E+02  0.18454423490E+02 -0.71780282335E+01  0.26849022322E+02  0.00000000000E+00 0.  1.
</event>
<event>
 7    1  0.3152365E-009  0.1188471E+03  0.7561462E-02  0.1245011E+00
         -1   -1    0    0    0  501 -0.00000000000E+00  0.00000000000E+00  0.95216310012E+02  0.95216310012E+02  0.00000000000E+00 0.  1.
          1   -1    0    0  501    0  0.00000000000E+00 -0.00000000000E+00 -0.16296647609E+03  0.16296647609E+03  0.00000000000E+00 0. -1.
         25    2    1    2    0    0 -0.53022698964E+02 -0.26106771504E+01 -0.69260315693E+02  0.15252083232E+03  0.12508953082E+03 0.  0.
          5    1    3    3  502    0 -0.72618429273E+02 -0.46836070272E+02 -0.52290054415E+02  0.10108796140E+03  0.41800000000E+01 0. -1.
         -5    1    3    3    0  502  0.19595730309E+02  0.44225393121E+02 -0.16970261279E+02  0.51432870919E+02  0.41800000000E+01 0. -1.
        -11    1    1    2    0    0  0.16896576431E+02 -0.41972559058E+02  0.13134596376E+02  0.47113773262E+02  0.00000000000E+00 0. -1.
         11    1    1    2    0    0  0.36126122533E+02  0.44583236209E+02 -0.11624446760E+02  0.58548180524E+02  0.00000000000E+00 0.  1.
</event>
<event>
 7    1  0.2989693E-009  0.1127949E+03  0.7561462E-02  0.1255480E+00
         -1   -1    0    0    0  501 -0.00000000000E+00  0.00000000000E+00  0.16193623450E+03  0.16193623450E+03  0.00000000000E+00 0.  1.
          1   -1    0    0  501    0  0.00000000000E+00 -0.00000000000E+00 -0.94893557883E+02  0.94893557883E+02  0.00000000000E+00 0. -1.
         25    2    1    2    0    0  0.29817013037E+02  0.50842484904E+02  0.31860666374E+02  0.14190426098E+03  0.12509078577E+03 0.  0.
          5    1    3    3  502    0 -0.35763706508E+00 -0.38553289229E+02 -0.76514996269E+01  0.39528494294E+02  0.41800000000E+01 0. -1.
         -5    1    3    3    0  502  0.30174650102E+02  0.89395774133E+02  0.39512166001E+02  0.10237576668E+03  0.41800000000E+01 0. -1.
        -11    1    1    2    0    0  0.20070549918E+02  0.14124818128E+01  0.37594721559E+02  0.42640182551E+02  0.00000000000E+00 0.  1.
         11    1    1    2    0    0 -0.49887562955E+02 -0.52254966717E+02 -0.24127113103E+01  0.72285348861E+02  0.00000000000E+00 0. -1.
</event>
<event>
 7    1  0.2989693E-009  0.1034398E+03  0.7561462E-02  0.1273225E+00
         -2   -1    0    0    0  501 -0.00000000000E+00  0.00000000000E+00  0.30206185335E+02  0.30206185335E+02  0.00000000000E+00 0.  1.
          2   -1    0    0  501    0  0.00000000000E+00 -0.00000000000E+00 -0.55240848092E+03  0.55240848092E+03  0.00000000000E+00 0. -1.
         25    2    1    2    0    0 -0.23109098048E+02  0.59548883307E+02 -0.35805549614E+03  0.38462035926E+03  0.12509589333E+03 0.  0.
          5    1    3    3  502    0  0.13180643915E+01 -0.16768365419E+02  0.35735693333E+00  0.17335382215E+02  0.41800000000E+01 0. -1.
         -5    1    3    3    0  502 -0.24427162440E+02  0.76317248726E+02 -0.35841285307E+03  0.36728497705E+03  0.41800000000E+01 0. -1.
        -11    1    1    2    0    0  0.21379739837E+02  0.20275198621E+02 -0.59207924861E+02  0.66134373218E+02  0.00000000000E+00 0.  1.
         11    1    1    2    0    0  0.17293582111E+01 -0.79824081928E+02 -0.10493887459E+03  0.13185993377E+03  0.00000000000E+00 0. -1.
</event>
<event>
 7    1  0.3015807E-009  0.1231564E+03  0.7561462E-02  0.1237979E+00
          4   -1    0    0  501    0  0.00000000000E+00  0.00000000000E+00  0.88294395436E+02  0.88294395436E+02  0.00000000000E+00 0. -1.
         -4   -1    0    0    0  501 -0.00000000000E+00 -0.00000000000E+00 -0.18252901097E+03  0.18252901097E+03  0.00000000000E+00 0.  1.
         25    2    1    2    0    0 -0.44528196632E+02  0.45892775068E+02 -0.35412123512E+02  0.14488176888E+03  0.12509117221E+03 0.  0.
          5    1    3    3  502    0 -0.65934214347E+02  0.75262290673E+02 -0.10658223514E+02  0.10071148468E+03  0.41800000000E+01 0. -1.
         -5    1    3    3    0  502  0.21406017714E+02 -0.29369515605E+02 -0.24753899998E+02  0.44170284201E+02  0.41800000000E+01 0. -1.
        -11    1    1    2    0    0 -0.26036802502E+02 -0.24742787485E+02 -0.30139035668E+02  0.46887973811E+02  0.00000000000E+00 0.  1.
         11    1    1    2    0    0  0.70564999134E+02 -0.21149987583E+02 -0.28683456353E+02  0.79053663709E+02  0.00000000000E+00 0. -1.
</event>
<event>
 7    1  0.2989693E-009  0.2276674E+03  0.7561462E-02  0.1128292E+00
         -1   -1    0    0    0  501 -0.00000000000E+00  0.00000000000E+00  0.35953842439E+03  0.35953842439E+03  0.00000000000E+00 0.  1.
          1   -1    0    0  501    0  0.00000000000E+00 -0.00000000000E+00 -0.17886181890E+03  0.17886181890E+03  0.00000000000E+00 0. -1.
         25    2    1    2    0    0 -0.21634944222E+03 -0.91616709920E+01  0.17240125847E+03  0.30374415674E+03  0.12508917405E+03 0.  0.
          5    1    3    3  502    0 -0.15499329916E+03  0.24021397412E+02  0.17341213258E+03  0.23385720097E+03  0.41800000000E+01 0.  1.
         -5    1    3    3    0  502 -0.61356143061E+02 -0.33183068404E+02 -0.10108741120E+01  0.69886955768E+02  0.41800000000E+01 0.  1.
        -11    1    1    2    0    0  0.12665091576E+03 -0.30824939356E+02 -0.21332753882E+02  0.13208223853E+03  0.00000000000E+00 0. -1.
         11    1    1    2    0    0  0.89698526468E+02  0.39986610348E+02  0.29608100896E+02  0.10257384801E+03  0.00000000000E+00 0.  1.
</event>
<event>
 7    1  0.2989693E-009  0.1212760E+03  0.7561462E-02  0.1241007E+00
          2   -1    0    0  501    0  0.00000000000E+00  0.00000000000E+00  0.11589136431E+04  0.11589136431E+04  0.00000000000E+00 0. -1.
         -2   -1    0    0    0  501 -0.00000000000E+00 -0.00000000000E+00 -0.57426751215E+02  0.57426751215E+02  0.00000000000E+00 0.  1.
         25    2    1    2    0    0 -0.16744971010E+02  0.89918973033E+02  0.10693816543E+04  0.10805512146E+04  0.12509192210E+03 0.  0.
          5    1    3    3  502    0 -0.63811123851E+02  0.21412630898E+02  0.35594030497E+03  0.36227245740E+03  0.41800000000E+01 0.  1.
         -5    1    3    3    0  502  0.47066152841E+02  0.68506342136E+02  0.71344134938E+03  0.71827875721E+03  0.41800000000E+01 0.  1.
        -11    1    1    2    0    0  0.15971957231E+02 -0.64016055726E+02  0.65866729490E+02  0.93228669744E+02  0.00000000000E+00 0. -1.
         11    1    1    2    0    0  0.77301377864E+00 -0.25902917307E+02 -0.33761491913E+02  0.42560510000E+02  0.00000000000E+00 0.  1.
</event>
<event>
 7    1  0.2989693E-009  0.1258222E+03  0.7561462E-02  0.1233790E+00
          1   -1    0    0  501    0  0.00000000000E+00  0.00000000000E+00  0.63519783584E+02  0.63519783584E+02  0.00000000000E+00 0. -1.
         -1   -1    0    0    0  501 -0.00000000000E+00 -0.00000000000E+00 -0.26756554648E+03  0.26756554648E+03  0.00000000000E+00 0.  1.
         25    2    1    2    0    0 -0.64146521397E+02  0.13387050933E+02 -0.14594428588E+03  0.20305787557E+03  0.12505509550E+03 0.  0.
          5    1    3    3  502    0  0.36010669485E+02 -0.19429267233E+01 -0.59997080004E+02  0.70126067122E+02  0.41800000000E+01 0.  1.
         -5    1    3    3    0  502 -0.10015719088E+03  0.15329977657E+02 -0.85947205872E+02  0.13293180845E+03  0.41800000000E+01 0.  1.
        -11    1    1    2    0    0  0.30385076870E+02  0.40323489964E+02 -0.22451529589E+02  0.55256745472E+02  0.00000000000E+00 0.  1.
         11    1    1    2    0    0  0.33761444527E+02 -0.53710540897E+02 -0.35649947436E+02  0.72770709026E+02  0.00000000000E+00 0. -1.
</event>
<event>
 7    1  0.2989693E-009  0.1010387E+03  0.7561462E-02  0.1278127E+00
          2   -1    0    0  501    0  0.00000000000E+00  0.00000000000E+00  0.14558695500E+03  0.14558695500E+03  0.00000000000E+00 0. -1.
         -2   -1    0    0    0  501 -0.00000000000E+00 -0.00000000000E+00 -0.11266074790E+03  0.11266074790E+03  0.00000000000E+00 0.  1.
         25    2    1    2    0    0 -0.51442031291E+02  0.10377832245E+02 -0.22587192689E+02  0.13751927074E+03  0.12508951421E+03 0.  0.
          5    1    3    3  502    0  0.14669111659E+00 -0.51507982223E+02 -0.23658164186E+02  0.56835507243E+02  0.41800000000E+01 0. -1.
         -5    1    3    3    0  502 -0.51588722407E+02  0.61885814467E+02  0.10709714966E+01  0.80683763496E+02  0.41800000000E+01 0. -1.
        -11    1    1    2    0    0 -0.21600067543E+01  0.11593478186E+02 -0.21403021441E+02  0.24436932959E+02  0.00000000000E+00 0.  1.
         11    1    1    2    0    0  0.53602038045E+02 -0.21971310431E+02  0.76916421229E+02  0.96291499206E+02  0.00000000000E+00 0. -1.
</event>
<event>
 7    1  0.2989693E-009  0.1275227E+03  0.7561462E-02  0.1231179E+00
         -2   -1    0    0    0  501 -0.00000000000E+00  0.00000000000E+00  0.21529366472E+02  0.21529366472E+02  0.00000000000E+00 0.  1.
          2   -1    0    0  501    0  0.00000000000E+00 -0.00000000000E+00 -0.11060336708E+04  0.11060336708E+04  0.00000000000E+00 0. -1.
         25    2    1    2    0    0  0.26534987811E+02 -0.97449718537E+02 -0.71150735924E+03  0.72944821084E+03  0.12510562270E+03 0.  0.
          5    1    3    3  502    0  0.48784967685E+01 -0.93796247232E+02 -0.69580547196E+03  0.70212838066E+03  0.41800000000E+01 0. -1.
         -5    1    3    3    0  502  0.21656491043E+02 -0.36534713047E+01 -0.15701887279E+02  0.27319830179E+02  0.41800000000E+01 0. -1.
        -11    1    1    2    0    0  0.29233963004E+02  0.71333756473E+02 -0.22394181277E+03  0.23683974521E+03  0.00000000000E+00 0.  1.
         11    1    1    2    0    0 -0.55768950815E+02  0.26115962065E+02 -0.14905513227E+03  0.16127508117E+03  0.00000000000E+00 0. -1.
</event>
<event>
 7    1  0.3422630E-009  0.6140696E+02  0.7561462E-02  0.1392020E+00
         -1   -1    0    0    0  501 -0.00000000000E+00  0.00000000000E+00  0.19852898557E+03  0.19852898557E+03  0.00000000000E+00 0.  1.
          1   -1    0    0  501    0  0.00000000000E+00 -0.00000000000E+00 -0.73735557097E+02  0.73735557097E+02  0.00000000000E+00 0. -1.
         25    2    1    2    0    0  0.12732040600E+02  0.44550280923E+02  0.10168216740E+03  0.16772855005E+03  0.12508705348E+03 0.  0.
          5    1    3    3  502    0  0.10901897150E+02 -0.99793167007E-01  0.11903637969E+03  0.11960766451E+03  0.41800000000E+01 0.  1.
         -5    1    3    3    0  502  0.18301434497E+01  0.44650074090E+02 -0.17354212289E+02  0.48120885544E+02  0.41800000000E+01 0.  1.
        -11    1    1    2    0    0 -0.29454466680E+02 -0.16947817731E+02  0.51401423012E+02  0.61618993995E+02  0.00000000000E+00 0.  1.
         11    1    1    2    0    0  0.16722426081E+02 -0.27602463193E+02 -0.28290161936E+02  0.42916998622E+02  0.00000000000E+00 0. -1.
</event>
<event>
 7    1  0.2989693E-009  0.1060004E+03  0.7561462E-02  0.1268161E+00
         -2   -1    0    0    0  501 -0.00000000000E+00  0.00000000000E+00  0.30463593430E+02  0.30463593430E+02  0.00000000000E+00 0.  1.
          2   -1    0    0  501    0  0.00000000000E+00 -0.00000000000E+00 -0.58473098100E+03  0.58473098100E+03  0.00000000000E+00 0. -1.
         25    2    1    2    0    0  0.50900408704E+02  0.34103376702E+02 -0.20393499440E+03  0.24695997608E+03  0.12508339593E+03 0.  0.
          5    1    3    3  502    0  0.71592843061E+02  0.31624582815E+02 -0.21057740434E+03  0.22469082099E+03  0.41800000000E+01 0.  1.
         -5    1    3    3    0  502 -0.20692434357E+02  0.24787938870E+01  0.66424099445E+01  0.22269155095E+02  0.41800000000E+01 0.  1.
        -11    1    1    2    0    0  0.21235140894E+02 -0.34171031573E+02 -0.10234208160E+03  0.10996586868E+03  0.00000000000E+00 0.  1.
         11    1    1    2    0    0 -0.72135549598E+02  0.67654870610E-01 -0.24799031157E+03  0.25826872967E+03  0.00000000000E+00 0. -1.
</event>
<event>
 7    1  0.2989693E-009  0.1507754E+03  0.7561462E-02  0.1199523E+00
          1   -1    0    0  501    0  0.00000000000E+00  0.00000000000E+00  0.37309842957E+03  0.37309842957E+03  0.00000000000E+00 0. -1.
         -1   -1    0    0    0  501 -0.00000000000E+00 -0.00000000000E+00 -0.81100389141E+02  0.81100389141E+02  0.00000000000E+00 0.  1.
         25    2    1    2    0    0 -0.12891270711E+03 -0.11716666918E+02  0.20728711360E+03  0.27452504435E+03  0.12506112974E+03 0.  0.
          5    1    3    3  502    0 -0.42910667886E+02  0.36984107100E+02  0.15742258554E+02  0.58944386508E+02  0.41800000000E+01 0. -1.
         -5    1    3    3    0  502 -0.86002039220E+02 -0.48700774018E+02  0.19154485504E+03  0.21558065784E+03  0.41800000000E+01 0. -1.
        -11    1    1    2    0    0 -0.55847168935E+01  0.98406165610E+01  0.34148016120E+02  0.35973793267E+02  0.00000000000E+00 0. -1.
         11    1    1    2    0    0  0.13449742400E+03  0.18760503571E+01  0.50562910707E+02  0.14369998109E+03  0.00000000000E+00 0.  1.
</event>
<event>
 7    1  0.2989693E-009  0.1427610E+03  0.7561462E-02  0.1209661E+00
          4   -1    0    0  501    0  0.00000000000E+00  0.00000000000E+00  0.16862796459E+04  0.16862796459E+04  0.00000000000E+00 0. -1.
         -4   -1    0    0    0  501 -0.00000000000E+00 -0.00000000000E+00 -0.18213333341E+02  0.18213333341E+02  0.00000000000E+00 0.  1.
         25    2    1    2    0    0 -0.73205736800E+02 -0.72257461518E+02  0.13297846450E+04  0.13396100143E+04  0.12509023867E+03 0.  0.
          5    1    3    3  502    0  0.35055900333E+02 -0.27241111427E+02  0.37887564524E+03  0.38149078790E+03  0.41800000000E+01 0.  1.
         -5    1    3    3    0  502 -0.10826163713E+03 -0.45016350090E+02  0.95090899974E+03  0.95811922642E+03  0.41800000000E+01 0.  1.
        -11    1    1    2    0    0  0.42879148827E+02 -0.24806549445E+01  0.20205311456E+03  0.20656775198E+03  0.00000000000E+00 0. -1.
         11    1    1    2    0    0  0.30326587973E+02  0.74738116462E+02  0.13622855302E+03  0.15831521294E+03  0.00000000000E+00 0.  1.
</event>
<event>
 7    1  0.2989693E-009  0.9195191E+02  0.7561462E-02  0.1298193E+00
         -1   -1    0    0    0  501 -0.00000000000E+00  0.00000000000E+00  0.27954696841E+03  0.27954696841E+03  0.00000000000E+00 0.  1.
          1   -1    0    0  501    0  0.00000000000E+00 -0.00000000000E+00 -0.58150316461E+02  0.58150316461E+02  0.00000000000E+00 0. -1.
         25    2    1    2    0    0 -0.46791556943E+02  0.65006878741E+00  0.18721151805E+03  0.22996886295E+03  0.12509057937E+03 0.  0.
          5    1    3    3  502    0  0.17050323615E+01  0.27930985053E+02 -0.59472784286E+01  0.28911755085E+02  0.41800000000E+01 0.  1.
         -5    1    3    3    0  502 -0.48496589305E+02 -0.27280916266E+02  0.19315879648E+03  0.20105710786E+03  0.41800000000E+01 0.  1.
        -11    1    1    2    0    0  0.24979889871E+02  0.43728992951E+02  0.28728386351E+02  0.57978788404E+02  0.00000000000E+00 0.  1.
         11    1    1    2    0    0  0.21811667072E+02 -0.44379061739E+02  0.54567475506E+01  0.49749633517E+02  0.00000000000E+00 0. -1.
</event>
<event>
 7    1  0.2989693E-009  0.7068236E+02  0.7561462E-02  0.1357788E+00
          1   -1    0    0  501    0  0.00000000000E+00  0.00000000000E+00  0.45138428230E+02  0.45138428230E+02  0.00000000000E+00 0. -1.
         -1   -1    0    0    0  501 -0.00000000000E+00 -0.00000000000E+00 -0.34059641178E+03  0.34059641178E+03  0.00000000000E+00 0.  1.
         25    2    1    2    0    0 -0.52553200854E+01  0.57405650668E+02 -0.15262577156E+03  0.20558546766E+03  0.12509089195E+03 0.  0.
          5    1    3    3  502    0  0.44241678756E+01  0.17375468290E+02 -0.16208154216E+03  0.16312381453E+03  0.41800000000E+01 0. -1.
         -5    1    3    3    0  502 -0.96794879611E+01  0.40030182379E+02  0.94557705936E+01  0.42461653123E+02  0.41800000000E+01 0. -1.
        -11    1    1    2    0    0 -0.22493226835E+02 -0.46666389463E+02 -0.14114016962E+03  0.15034708058E+03  0.00000000000E+00 0.  1.
         11    1    1    2    0    0  0.27748546921E+02 -0.10739261206E+02 -0.16920423652E+01  0.29802291771E+02  0.00000000000E+00 0. -1.
</event>
<event>
 7    1  0.2989693E-009  0.1056713E+03  0.7561462E-02  0.1268803E+00
          2   -1    0    0  501    0  0.00000000000E+00  0.00000000000E+00  0.18140378046E+03  0.18140378046E+03  0.00000000000E+00 0. -1.
         -2   -1    0    0    0  501 -0.00000000000E+00 -0.00000000000E+00 -0.10458065747E+03  0.10458065747E+03  0.00000000000E+00 0.  1.
         25    2    1    2    0    0  0.15736253067E+01 -0.32418011853E+02 -0.42330617060E+02  0.13599026583E+03  0.12509223585E+03 0.  0.
          5    1    3    3  502    0  0.57107150405E+02 -0.42612417597E+02 -0.14215674624E+02  0.72777761479E+02  0.41800000000E+01 0.  1.
         -5    1    3    3    0  502 -0.55533525098E+02  0.10194405744E+02 -0.28114942436E+02  0.63212504352E+02  0.41800000000E+01 0.  1.
        -11    1    1    2    0    0 -0.35466500354E+02 -0.13702134121E+01  0.22177971042E+02  0.41852270329E+02  0.00000000000E+00 0.  1.
         11    1    1    2    0    0  0.33892875047E+02  0.33788225265E+02  0.96975769008E+02  0.10814190178E+03  0.00000000000E+00 0. -1.
</event>
<event>
 7    1  0.2989693E-009  0.3526472E+03  0.7561462E-02  0.1061534E+00
          1   -1    0    0  501    0  0.00000000000E+00  0.00000000000E+00  0.57936212917E+03  0.57936212917E+03  0.00000000000E+00 0. -1.
         -1   -1    0    0    0  501 -0.00000000000E+00 -0.00000000000E+00 -0.22878941242E+03  0.22878941242E+03  0.00000000000E+00 0.  1.
         25    2    1    2    0    0  0.32682250489E+03 -0.11384138700E+03  0.14621749233E+03  0.39598090684E+03  0.12509401433E+03 0.  0.
          5    1    3    3  502    0  0.17198523064E+03 -0.95356869755E+02  0.24695263167E+02  0.19824020932E+03  0.41800000000E+01 0. -1.
         -5    1    3    3    0  502  0.15483727425E+03 -0.18484517241E+02  0.12152222916E+03  0.19774069752E+03  0.41800000000E+01 0. -1.
        -11    1    1    2    0    0 -0.20479890178E+03  0.36195432267E+02  0.85090445065E+02  0.22470666062E+03  0.00000000000E+00 0.  1.
         11    1    1    2    0    0 -0.12202360311E+03  0.77645954729E+02  0.11926477935E+03  0.18746397413E+03  0.00000000000E+00 0. -1.
</event>
<event>
 7    1  0.2989693E-009  0.1326503E+03  0.7561462E-02  0.1223575E+00
          4   -1    0    0  501    0  0.00000000000E+00  0.00000000000E+00  0.48623482493E+03  0.48623482493E+03  0.00000000000E+00 0. -1.
         -4   -1    0    0    0  501 -0.00000000000E+00 -0.00000000000E+00 -0.11473718797E+03  0.11473718797E+03  0.00000000000E+00 0.  1.
         25    2    1    2    0    0  0.10698994181E+02 -0.11607887057E+03 -0.29588102786E+02  0.17352867427E+03  0.12509185544E+03 0.  0.
          5    1    3    3  502    0  0.15941895857E+02 -0.32360027680E+02  0.47319945600E+02  0.59648680510E+02  0.41800000000E+01 0.  1.
         -5    1    3    3    0  502 -0.52429016753E+01 -0.83718842892E+02 -0.76908048385E+02  0.11387999376E+03  0.41800000000E+01 0.  1.
        -11    1    1    2    0    0 -0.48561363795E+02  0.57684484044E+02  0.16706109287E+03  0.18328970103E+03  0.00000000000E+00 0.  1.
         11    1    1    2    0    0  0.37862369613E+02  0.58394386528E+02  0.23402464687E+03  0.24415363760E+03  0.00000000000E+00 0. -1.
</event>
<event>
 7    1  0.2989693E-009  0.1752348E+03  0.7561462E-02  0.1172496E+00
          2   -1    0    0  501    0  0.00000000000E+00  0.00000000000E+00  0.30486343039E+03  0.30486343039E+03  0.00000000000E+00 0.  1.
         -2   -1    0    0    0  501 -0.00000000000E+00 -0.00000000000E+00 -0.10424025290E+03  0.10424025290E+03  0.00000000000E+00 0. -1.
         25    2    1    2    0    0  0.70277214031E+02  0.12025001017E+03  0.13977901973E+03  0.23363392689E+03  0.12509070980E+03 0.  0.
          5    1    3    3  502    0  0.57999920744E+02 -0.76277088224E+01  0.42022429164E+02  0.72149356900E+02  0.41800000000E+01 0. -1.
         -5    1    3    3    0  502  0.12277293287E+02  0.12787771899E+03  0.97756590569E+02  0.16148456999E+03  0.41800000000E+01 0. -1.
        -11    1    1    2    0    0  0.67047853559E+01 -0.72263575039E+02  0.38016293428E+02  0.81928120875E+02  0.00000000000E+00 0.  1.
         11    1    1    2    0    0 -0.76981999387E+02 -0.47986435131E+02  0.22827864336E+02  0.93541635523E+02  0.00000000000E+00 0. -1.
</event>
<event>
 7    1  0.2989693E-009  0.1173961E+03  0.7561462E-02  0.1247456E+00
         -4   -1    0    0    0  501 -0.00000000000E+00  0.00000000000E+00  0.40661268450E+03  0.40661268450E+03  0.00000000000E+00 0.  1.
          4   -1    0    0  501    0  0.00000000000E+00 -0.00000000000E+00 -0.40031369149E+02  0.40031369149E+02  0.00000000000E+00 0. -1.
         25    2    1    2    0    0 -0.18581693856E+02 -0.47407444373E+02  0.28290074157E+03  0.31348492490E+03  0.12508886216E+03 0.  0.
          5    1    3    3  502    0  0.33966131915E+02 -0.66971318276E+02  0.12510981636E+03  0.14597532030E+03  0.41800000000E+01 0. -1.
         -5    1    3    3    0  502 -0.52547825771E+02  0.19563873903E+02  0.15779092521E+03  0.16750960460E+03  0.41800000000E+01 0. -1.
        -11    1    1    2    0    0 -0.28243543422E+02  0.48941228008E+02  0.50089500207E+02  0.75510923547E+02  0.00000000000E+00 0. -1.
         11    1    1    2    0    0  0.46825237278E+02 -0.15337836354E+01  0.33591073580E+02  0.57648205199E+02  0.00000000000E+00 0.  1.
</event>
<event>
 6    1  0.2989693E-009  0.8361447E+02  0.7561462E-02  0.1319096E+00
          1   -1    0    0  501    0  0.00000000000E+00  0.00000000000E+00  0.11460655727E+03  0.11460655727E+03  0.00000000000E+00 0. -1.
         -1   -1    0    0    0  501 -0.00000000000E+00 -0.00000000000E+00 -0.13341441115E+03  0.13341441115E+03  0.00000000000E+00 0.  1.
          5    1    1    2  502    0  0.28370730706E+02  0.14945286559E+02  0.26343555679E+02  0.41709894233E+02  0.41800000000E+01 0. -1.
         -5    1    1    2    0  502 -0.43621161691E+02 -0.49651110957E+02 -0.77434081196E+02  0.10188988123E+03  0.41800000000E+01 0. -1.
        -11    1    1    2    0    0 -0.17222441487E+02  0.31674458494E+02  0.54221988342E+02  0.65114574647E+02  0.00000000000E+00 0. -1.
         11    1    1    2    0    0  0.32472872472E+02  0.30313659044E+01 -0.21939316704E+02  0.39306618314E+02  0.00000000000E+00 0.  1.
</event>
<event>
 7    1  0.2989693E-009  0.1193549E+03  0.7561462E-02  0.1244165E+00
          2   -1    0    0  501    0  0.00000000000E+00  0.00000000000E+00  0.10397463126E+03  0.10397463126E+03  0.00000000000E+00 0. -1.
         -2   -1    0    0    0  501 -0.00000000000E+00 -0.00000000000E+00 -0.18993753323E+03  0.18993753323E+03  0.00000000000E+00 0.  1.
         25    2    1    2    0    0 -0.37404884917E+01  0.89599464515E+02 -0.31565994183E+02  0.15712210709E+03  0.12509552051E+03 0.  0.
          5    1    3    3  502    0  0.25706151691E+02 -0.41428994243E+01 -0.50497885104E+02  0.56969102594E+02  0.41800000000E+01 0.  1.
         -5    1    3    3    0  502 -0.29446640183E+02  0.93742363939E+02  0.18931890921E+02  0.10015300449E+03  0.41800000000E+01 0.  1.
        -11    1    1    2    0    0  0.37044236774E+02 -0.43833276285E+02  0.12667162837E+01  0.57404147570E+02  0.00000000000E+00 0. -1.
         11    1    1    2    0    0 -0.33303748283E+02 -0.45766188230E+02 -0.55663624073E+02  0.79385909831E+02  0.00000000000E+00 0.  1.
</event>
<event>
 7    1  0.2989693E-009  0.1087017E+03  0.7561462E-02  0.1262993E+00
          2   -1    0    0  501    0  0.00000000000E+00  0.00000000000E+00  0.97016711313E+03  0.97016711313E+03  0.00000000000E+00 0. -1.
         -2   -1    0    0    0  501 -0.00000000000E+00 -0.00000000000E+00 -0.13525093132E+02  0.13525093132E+02  0.00000000000E+00 0.  1.
         25    2    1    2    0    0 -0.13687865986E+02  0.20797948721E+02  0.63255651511E+03  0.64529262539E+03  0.12511960367E+03 0.  0.
          5    1    3    3  502    0 -0.29632246087E+02  0.68865062605E+02  0.32455108326E+03  0.33312361805E+03  0.41800000000E+01 0.  1.
         -5    1    3    3    0  502  0.15944380101E+02 -0.48067113884E+02  0.30800543185E+03  0.31216900734E+03  0.41800000000E+01 0.  1.
        -11    1    1    2    0    0  0.51252599833E+02 -0.15636437127E+02  0.24367817370E+03  0.24950025951E+03  0.00000000000E+00 0. -1.
         11    1    1    2    0    0 -0.37564733847E+02 -0.51615115945E+01  0.80407331178E+02  0.88899321359E+02  0.00000000000E+00 0.  1.
</event>
<event>
 7    1  0.2989693E-009  0.9426247E+02  0.7561462E-02  0.1292846E+00
          2   -1    0    0  501    0  0.00000000000E+00  0.00000000000E+00  0.70756532008E+02  0.70756532008E+02  0.00000000000E+00 0. -1.
         -2   -1    0    0    0  501 -0.00000000000E+00 -0.00000000000E+00 -0.23045485027E+03  0.23045485027E+03  0.00000000000E+00 0.  1.
         25    2    1    2    0    0 -0.54181568953E+02  0.30022019689E+02 -0.58444274547E+02  0.15132869837E+03  0.12509067768E+03 0.  0.
          5    1    3    3  502    0 -0.31254053599E+02 -0.19034678955E+02 -0.83690202258E+02  0.91436629549E+02  0.41800000000E+01 0. -1.
         -5    1    3    3    0  502 -0.22927515355E+02  0.49056698644E+02  0.25245927710E+02  0.59892068825E+02  0.41800000000E+01 0. -1.
        -11    1    1    2    0    0  0.13113717336E+02  0.25291601379E+02 -0.13413263735E+01  0.28520761545E+02  0.00000000000E+00 0. -1.
         11    1    1    2    0    0  0.41067851617E+02 -0.55313621068E+02 -0.99912717339E+02  0.12136192236E+03  0.00000000000E+00 0.  1.
</event>
<event>
 7    1  0.2989693E-009  0.1284089E+03  0.7561462E-02  0.1229836E+00
         -1   -1    0    0    0  501 -0.00000000000E+00  0.00000000000E+00  0.26962591702E+03  0.26962591702E+03  0.00000000000E+00 0.  1.
          1   -1    0    0  501    0  0.00000000000E+00 -0.00000000000E+00 -0.76610812128E+02  0.76610812128E+02  0.00000000000E+00 0. -1.
         25    2    1    2    0    0 -0.32255454905E+02 -0.66942300904E+02  0.34524863177E+02  0.14953513957E+03  0.12508839181E+03 0.  0.
          5    1    3    3  502    0  0.33183326480E+02 -0.67056614630E+02 -0.10343149559E+01  0.74941743570E+02  0.41800000000E+01 0.  1.
         -5    1    3    3    0  502 -0.65438781385E+02  0.11431372653E+00  0.35559178132E+02  0.74593395996E+02  0.41800000000E+01 0.  1.
        -11    1    1    2    0    0  0.47096162462E+02 -0.65807767190E+00  0.69735321371E+02  0.84151628812E+02  0.00000000000E+00 0. -1.
         11    1    1    2    0    0 -0.14840707557E+02  0.67600378576E+02  0.88754920347E+02  0.11254996077E+03  0.00000000000E+00 0.  1.
</event>
<event>
 7    1  0.2989693E-009  0.8268652E+02  0.7561462E-02  0.1321596E+00
          2   -1    0    0  501    0  0.00000000000E+00  0.00000000000E+00  0.55235481500E+02  0.55235481500E+02  0.00000000000E+00 0. -1.
         -2   -1    0    0    0  501 -0.00000000000E+00 -0.00000000000E+00 -0.31481876104E+03  0.31481876104E+03  0.00000000000E+00 0.  1.
         25    2    1    2    0    0 -0.56964346747E+02  0.38146152617E+02 -0.10093287469E+03  0.17474095737E+03  0.12508753427E+03 0.  0.
          5    1    3    3  502    0 -0.62250084593E+02  0.24871061168E+02  0.53900791332E+01  0.67380769278E+02  0.41800000000E+01 0.  1.
         -5    1    3    3    0  502  0.52857378457E+01  0.13275091448E+02 -0.10632295382E+03  0.10736018809E+03  0.41800000000E+01 0.  1.
        -11    1    1    2    0    0  0.44733878375E+02 -0.15783052403E+01 -0.15987174202E+02  0.47531049440E+02  0.00000000000E+00 0. -1.
         11    1    1    2    0    0  0.12230468372E+02 -0.36567847376E+02 -0.14266323064E+03  0.14778223572E+03  0.00000000000E+00 0.  1.
</event>
<event>
 7    1  0.2989693E-009  0.1570176E+03  0.7561462E-02  0.1192106E+00
         -3   -1    0    0    0  501 -0.00000000000E+00  0.00000000000E+00  0.77285956864E+03  0.77285956864E+03  0.00000000000E+00 0.  1.
          3   -1    0    0  501    0  0.00000000000E+00 -0.00000000000E+00 -0.42983891475E+02  0.42983891475E+02  0.00000000000E+00 0. -1.
         25    2    1    2    0    0 -0.14776079658E+02  0.12424944912E+03  0.26894071740E+03  0.32191313713E+03  0.12507078096E+03 0.  0.
          5    1    3    3  502    0  0.26574694540E+02  0.27432780312E+01  0.12972667505E+03  0.13251499003E+03  0.41800000000E+01 0. -1.
         -5    1    3    3    0  502 -0.41350774198E+02  0.12150617108E+03  0.13921404235E+03  0.18939814710E+03  0.41800000000E+01 0. -1.
        -11    1    1    2    0    0  0.19634979659E+02  0.11490191256E+02  0.13772128534E+02  0.26593767045E+02  0.00000000000E+00 0. -1.
         11    1    1    2    0    0 -0.48589000008E+01 -0.13573964037E+03  0.44716283123E+03  0.46733655593E+03  0.00000000000E+00 0.  1.
</event>
<event>
 7    1  0.2989693E-009  0.2306359E+03  0.7561462E-02  0.1126193E+00
          2   -1    0    0  501    0  0.00000000000E+00  0.00000000000E+00  0.15140713516E+04  0.15140713516E+04  0.00000000000E+00 0. -1.
         -2   -1    0    0    0  501 -0.00000000000E+00 -0.00000000000E+00 -0.39505789324E+02  0.39505789324E+02  0.00000000000E+00 0.  1.
         25    2    1    2    0    0 -0.21070898374E+03  0.46958304399E+02  0.64890276968E+03  0.69521448531E+03  0.12508004597E+03 0.  0.
          5    1    3    3  502    0  0.11940996487E+02  0.15124295845E+02  0.10140456622E+03  0.10330387297E+03  0.41800000000E+01 0.  1.
         -5    1    3    3    0  502 -0.22264998023E+03  0.31834008554E+02  0.54749820347E+03  0.59191061234E+03  0.41800000000E+01 0.  1.
        -11    1    1    2    0    0  0.74314463543E+02 -0.25264946512E+02  0.15631623882E+03  0.17491633295E+03  0.00000000000E+00 0.  1.
         11    1    1    2    0    0  0.13639452020E+03 -0.21693357887E+02  0.66934655382E+03  0.68344632271E+03  0.00000000000E+00 0. -1.
</event>
<event>
 7    1  0.2989693E-009  0.1395586E+03  0.7561462E-02  0.1213924E+00
          2   -1    0    0  501    0  0.00000000000E+00  0.00000000000E+00  0.75963353058E+03  0.75963353058E+03  0.00000000000E+00 0. -1.
         -2   -1    0    0    0  501 -0.00000000000E+00 -0.00000000000E+00 -0.29390341580E+02  0.29390341580E+02  0.00000000000E+00 0.  1.
         25    2    1    2    0    0 -0.87128932503E+02 -0.43566362183E+02  0.30651996120E+03  0.34509815345E+03  0.12509504431E+03 0.  0.
          5    1    3    3  502    0  0.41172318056E+01 -0.63251162761E+02  0.14856086617E+03  0.16157185567E+03  0.41800000000E+01 0.  1.
         -5    1    3    3    0  502 -0.91246164309E+02  0.19684800577E+02  0.15795909503E+03  0.18352629778E+03  0.41800000000E+01 0.  1.
        -11    1    1    2    0    0 -0.33091037601E+01 -0.14373480988E+02  0.13919109813E+02  0.20280254964E+02  0.00000000000E+00 0.  1.
         11    1    1    2    0    0  0.90438036263E+02  0.57939843172E+02  0.40980411799E+03  0.42364546375E+03  0.00000000000E+00 0. -1.
</event>
<event>
 7    1  0.2989693E-009  0.1159239E+03  0.7561462E-02  0.1249977E+00
         -2   -1    0    0    0  501 -0.00000000000E+00  0.00000000000E+00  0.60047802002E+02  0.60047802002E+02  0.00000000000E+00 0.  1.
          2   -1    0    0  501    0  0.00000000000E+00 -0.00000000000E+00 -0.34291565813E+03  0.34291565813E+03  0.00000000000E+00 0. -1.
         25    2    1    2    0    0 -0.63314633398E+02  0.43897913113E+02 -0.22868285618E+03  0.27180652056E+03  0.12508863389E+03 0.  0.
          5    1    3    3  502    0 -0.87712478308E+02  0.56486641222E+02 -0.11740864911E+03  0.15711932654E+03  0.41800000000E+01 0. -1.
         -5    1    3    3    0  502  0.24397844911E+02 -0.12588728109E+02 -0.11127420707E+03  0.11468719402E+03  0.41800000000E+01 0. -1.
        -11    1    1    2    0    0  0.48234032229E+02  0.50028857150E+01  0.95460706619E+01  0.49423457949E+02  0.00000000000E+00 0.  1.
         11    1    1    2    0    0  0.15080601169E+02 -0.48900798828E+02 -0.63731070612E+02  0.81733481628E+02  0.00000000000E+00 0. -1.
</event>
<event>
 7    1  0.2989693E-009  0.1366275E+03  0.7561462E-02  0.1217940E+00
         -2   -1    0    0    0  501 -0.00000000000E+00  0.00000000000E+00  0.12516573153E+03  0.12516573153E+03  0.00000000000E+00 0.  1.
          2   -1    0    0  501    0  0.00000000000E+00 -0.00000000000E+00 -0.27650342326E+03  0.27650342326E+03  0.00000000000E+00 0. -1.
         25    2    1    2    0    0  0.87057609650E+02  0.81842958209E+02 -0.17902012938E+03  0.24894570404E+03  0.12509380333E+03 0.  0.
          5    1    3    3  502    0 -0.17050221581E+02 -0.46705742645E+01  0.64654004461E+01  0.19282067390E+02  0.41800000000E+01 0.  1.
         -5    1    3    3    0  502  0.10410783123E+03  0.86513532473E+02 -0.18548552983E+03  0.22966363665E+03  0.41800000000E+01 0.  1.
        -11    1    1    2    0    0 -0.62184027575E+02 -0.54361109407E+02 -0.26793824257E+02  0.86832554493E+02  0.00000000000E+00 0. -1.
         11    1    1    2    0    0 -0.24873582075E+02 -0.27481848801E+02  0.54476261906E+02  0.65890896261E+02  0.00000000000E+00 0.  1.
</event>
<event>
 7    1  0.2989693E-009  0.1076585E+03  0.7561462E-02  0.1264968E+00
          4   -1    0    0  501    0  0.00000000000E+00  0.00000000000E+00  0.18442869380E+03  0.18442869380E+03  0.00000000000E+00 0. -1.
         -4   -1    0    0    0  501 -0.00000000000E+00 -0.00000000000E+00 -0.10654251505E+03  0.10654251505E+03  0.00000000000E+00 0.  1.
         25    2    1    2    0    0 -0.47927095939E+01  0.29137737052E+02  0.12943742139E+03  0.18241055059E+03  0.12509030787E+03 0.  0.
          5    1    3    3  502    0 -0.63176937666E+02  0.26704925164E+02  0.57234604627E+02  0.89430145072E+02  0.41800000000E+01 0. -1.
         -5    1    3    3    0  502  0.58384228072E+02  0.24328118886E+01  0.72202816762E+02  0.92980405514E+02  0.41800000000E+01 0. -1.
        -11    1    1    2    0    0 -0.39119780663E+02 -0.12738020565E+02 -0.32753225422E+01  0.41271565815E+02  0.00000000000E+00 0. -1.
         11    1    1    2    0    0  0.43912490257E+02 -0.16399716487E+02 -0.48275920100E+02  0.67289092451E+02  0.00000000000E+00 0.  1.
</event>
<event>
 7    1  0.2989693E-009  0.1559882E+03  0.7561462E-02  0.1193302E+00
          2   -1    0    0  501    0  0.00000000000E+00  0.00000000000E+00  0.15934625498E+03  0.15934625498E+03  0.00000000000E+00 0. -1.
         -2   -1    0    0    0  501 -0.00000000000E+00 -0.00000000000E+00 -0.18065266147E+03  0.18065266147E+03  0.00000000000E+00 0.  1.
         25    2    1    2    0    0  0.11389680177E+03 -0.35572622145E+02 -0.63856612491E+02  0.18428729217E+03  0.12508495592E+03 0.  0.
          5    1    3    3  502    0  0.77977785140E+02  0.35519266362E+02 -0.59510928873E+02  0.10440869846E+03  0.41800000000E+01 0. -1.
         -5    1    3    3    0  502  0.35919016626E+02 -0.71091888508E+02 -0.43456836179E+01  0.79878593710E+02  0.41800000000E+01 0. -1.
        -11    1    1    2    0    0 -0.69840317263E+02  0.63394819598E+02  0.42864088147E+02  0.10360455164E+03  0.00000000000E+00 0. -1.
         11    1    1    2    0    0 -0.44056484503E+02 -0.27822197453E+02 -0.31388214965E+00  0.52107072647E+02  0.00000000000E+00 0.  1.
</event>
<event>
 7    1  0.2989693E-009  0.1314873E+03  0.7561462E-02  0.1225265E+00
          1   -1    0    0  501    0  0.00000000000E+00  0.00000000000E+00  0.83839525536E+03  0.83839525536E+03  0.00000000000E+00 0. -1.
         -1   -1    0    0    0  501 -0.00000000000E+00 -0.00000000000E+00 -0.22558802064E+02  0.22558802064E+02  0.00000000000E+00 0.  1.
         25    2    1    2    0    0 -0.64104652356E+02  0.52567157344E+02  0.40971172902E+03  0.43632983323E+03  0.12508920812E+03 0.  0.
          5    1    3    3  502    0  0.30292452758E+02 -0.58871477593E+01  0.42573760219E+02  0.52747404315E+02  0.41800000000E+01 0.  1.
         -5    1    3    3    0  502 -0.94397105113E+02  0.58454305103E+02  0.36713796880E+03  0.38358242891E+03  0.41800000000E+01 0.  1.
        -11    1    1    2    0    0  0.16284841655E+02  0.24861141709E+02  0.63356597948E+02  0.69980932677E+02  0.00000000000E+00 0.  1.
         11    1    1    2    0    0  0.47819810701E+02 -0.77428299053E+02  0.34276812633E+03  0.35464329152E+03  0.00000000000E+00 0. -1.
</event>
<event>
 7    1  0.2989693E-009  0.1261874E+03  0.7561462E-02  0.1233225E+00
         -2   -1    0    0    0  501 -0.00000000000E+00  0.00000000000E+00  0.29199138322E+02  0.29199138322E+02  0.00000000000E+00 0.  1.
          2   -1    0    0  501    0  0.00000000000E+00 -0.00000000000E+00 -0.90358828218E+03  0.90358828218E+03  0.00000000000E+00 0. -1.
         25    2    1    2    0    0  0.70829968793E+02 -0.32072778879E+02 -0.20142079754E+03  0.24952618601E+03  0.12508969660E+03 0.  0.
          5    1    3    3  502    0  0.49079478279E+02 -0.72814174290E+02 -0.77430873820E+02  0.11714824705E+03  0.41800000000E+01 0.  1.
         -5    1    3    3    0  502  0.21750490514E+02  0.40741395411E+02 -0.12398992372E+03  0.13237793896E+03  0.41800000000E+01 0.  1.
        -11    1    1    2    0    0  0.23767802243E+01 -0.25095671052E+02 -0.13504480684E+03  0.13737736947E+03  0.00000000000E+00 0. -1.
         11    1    1    2    0    0 -0.73206749017E+02  0.57168449930E+02 -0.53792353948E+03  0.54588386503E+03  0.00000000000E+00 0.  1.
</event>
<event>
 7    1  0.2989693E-009  0.1824967E+03  0.7561462E-02  0.1165408E+00
         -2   -1    0    0    0  501 -0.00000000000E+00  0.00000000000E+00  0.50204283199E+02  0.50204283199E+02  0.00000000000E+00 0.  1.
          2   -1    0    0  501    0  0.00000000000E+00 -0.00000000000E+00 -0.82362049013E+03  0.82362049013E+03  0.00000000000E+00 0. -1.
         25    2    1    2    0    0  0.14298174749E+03  0.83939585265E+02 -0.50038879916E+03  0.54178023668E+03  0.12508893015E+03 0.  0.
          5    1    3    3  502    0  0.11340616398E+03  0.31574675042E+02 -0.44355213305E+03  0.45892688444E+03  0.41800000000E+01 0. -1.
         -5    1    3    3    0  502  0.29575583510E+02  0.52364910223E+02 -0.56836666111E+02  0.82853352239E+02  0.41800000000E+01 0. -1.
        -11    1    1    2    0    0 -0.75589259004E+02  0.45014017654E+01 -0.87184854732E+02  0.11547812602E+03  0.00000000000E+00 0.  1.
         11    1    1    2    0    0 -0.67392488487E+02 -0.88440987031E+02 -0.18584255303E+03  0.21656641062E+03  0.00000000000E+00 0. -1.
</event>
<event>
 7    1  0.2989693E-009  0.1205401E+03  0.7561462E-02  0.1242209E+00
         -2   -1    0    0    0  501 -0.00000000000E+00  0.00000000000E+00  0.30960302316E+02  0.30960302316E+02  0.00000000000E+00 0.  1.
          2   -1    0    0  501    0  0.00000000000E+00 -0.00000000000E+00 -0.70181207533E+03  0.70181207533E+03  0.00000000000E+00 0. -1.
         25    2    1    2    0    0  0.69558026103E+02  0.67964434778E+02 -0.40636811471E+03  0.43616523468E+03  0.12509030299E+03 0.  0.
          5    1    3    3  502    0  0.37147372939E+02  0.57470606568E+01 -0.18723827656E+02  0.42202015882E+02  0.41800000000E+01 0.  1.
         -5    1    3    3    0  502  0.32410653164E+02  0.62217374122E+02 -0.38764428706E+03  0.39396321880E+03  0.41800000000E+01 0.  1.
        -11    1    1    2    0    0  0.22276514386E+02 -0.16386396832E+02 -0.73072986469E+02  0.78130777840E+02  0.00000000000E+00 0. -1.
         11    1    1    2    0    0 -0.91834540488E+02 -0.51578037946E+02 -0.19141067183E+03  0.21847636512E+03  0.00000000000E+00 0.  1.
</event>
<event>
 7    1  0.2989693E-009  0.1211904E+03  0.7561462E-02  0.1241146E+00
          2   -1    0    0  501    0  0.00000000000E+00  0.00000000000E+00  0.15338960211E+04  0.15338960211E+04  0.00000000000E+00 0. -1.
         -2   -1    0    0    0  501 -0.00000000000E+00 -0.00000000000E+00 -0.63417113745E+02  0.63417113745E+02  0.00000000000E+00 0.  1.
         25    2    1    2    0    0 -0.71903473747E+02 -0.34138875599E+02  0.14682156639E+04  0.14756831330E+04  0.12509157020E+03 0.  0.
          5    1    3    3  502    0 -0.39254860758E+02 -0.76837302153E+02  0.65337559373E+03  0.65906149483E+03  0.41800000000E+01 0.  1.
         -5    1    3    3    0  502 -0.32648612989E+02  0.42698426554E+02  0.81484007021E+03  0.81662163821E+03  0.41800000000E+01 0.  1.
        -11    1    1    2    0    0  0.28923014969E+02 -0.18341785491E+02 -0.30895494713E+02  0.46124759983E+02  0.00000000000E+00 0.  1.
         11    1    1    2    0    0  0.42980458778E+02  0.52480661091E+02  0.33158738091E+02  0.75505241785E+02  0.00000000000E+00 0. -1.
</event>
<event>
 7    1  0.2989693E-009  0.1914874E+03  0.7561462E-02  0.1157127E+00
          2   -1    0    0  501    0  0.00000000000E+00  0.00000000000E+00  0.65713347212E+03  0.65713347212E+03  0.00000000000E+00 0. -1.
         -2   -1    0    0    0  501 -0.00000000000E+00 -0.00000000000E+00 -0.94345884340E+02  0.94345884340E+02  0.00000000000E+00 0.  1.
         25    2    1    2    0    0  0.14763085907E+03 -0.96205862500E+02  0.80228256203E+02  0.23051022453E+03  0.12509177426E+03 0.  0.
          5    1    3    3  502    0  0.10648164312E+03 -0.98763118069E+02  0.10764278496E+03  0.18082293927E+03  0.41800000000E+01 0. -1.
         -5    1    3    3    0  502  0.41149215953E+02  0.25572555682E+01 -0.27414528755E+02  0.49687285259E+02  0.41800000000E+01 0. -1.
        -11    1    1    2    0    0 -0.10591299047E+02  0.50775651223E+02  0.13450481823E+03  0.14415924701E+03  0.00000000000E+00 0. -1.
         11    1    1    2    0    0 -0.13703956003E+03  0.45430211277E+02  0.34805451335E+03  0.37680988491E+03  0.00000000000E+00 0.  1.
</event>
<event>
 7    1  0.2989693E-009  0.1087468E+03  0.7561462E-02  0.1262908E+00
          4   -1    0    0  501    0  0.00000000000E+00  0.00000000000E+00  0.40435596800E+02  0.40435596800E+02  0.00000000000E+00 0. -1.
         -4   -1    0    0    0  501 -0.00000000000E+00 -0.00000000000E+00 -0.32000117487E+03  0.32000117487E+03  0.00000000000E+00 0.  1.
         25    2    1    2    0    0 -0.22056775288E+02  0.22938871309E+02 -0.19081449712E+03  0.23037251580E+03  0.12509448658E+03 0.  0.
          5    1    3    3  502    0  0.40202769374E+02 -0.26824772728E+02 -0.60339219862E+02  0.77421734357E+02  0.41800000000E+01 0. -1.
         -5    1    3    3    0  502 -0.62259544662E+02  0.49763644036E+02 -0.13047527726E+03  0.15295078145E+03  0.41800000000E+01 0. -1.
        -11    1    1    2    0    0  0.20442988471E+02 -0.54168766617E+02 -0.77696196912E+02  0.96896181911E+02  0.00000000000E+00 0.  1.
         11    1    1    2    0    0  0.16137868166E+01  0.31229895309E+02 -0.11054884038E+02  0.33168073956E+02  0.00000000000E+00 0. -1.
</event>
<event>
 7    1  0.2989693E-009  0.1141497E+03  0.7561462E-02  0.1253073E+00
          3   -1    0    0  501    0  0.00000000000E+00  0.00000000000E+00  0.70726645363E+02  0.70726645363E+02  0.00000000000E+00 0. -1.
         -3   -1    0    0    0  501 -0.00000000000E+00 -0.00000000000E+00 -0.26754964211E+03  0.26754964211E+03  0.00000000000E+00 0.  1.
         25    2    1    2    0    0 -0.29374789435E+02 -0.79836505652E+02 -0.10162324713E+03  0.18224072477E+03  0.12509057326E+03 0.  0.
          5    1    3    3  502    0 -0.65708149717E+02 -0.76303737807E+02 -0.10475441830E+03  0.14536430750E+03  0.41800000000E+01 0. -1.
         -5    1    3    3    0  502  0.36333360282E+02 -0.35327678459E+01  0.31311711652E+01  0.36876417273E+02  0.41800000000E+01 0. -1.
        -11    1    1    2    0    0  0.13145952063E+02  0.71171670782E+02 -0.15208774757E+02  0.73956268207E+02  0.00000000000E+00 0. -1.
         11    1    1    2    0    0  0.16228837372E+02  0.86648348703E+01 -0.79990974858E+02  0.82079294493E+02  0.00000000000E+00 0.  1.
</event>
<event>
 7    1  0.2989693E-009  0.1015786E+03  0.7561462E-02  0.1277011E+00
         -3   -1    0    0    0  501 -0.00000000000E+00  0.00000000000E+00  0.90218754811E+03  0.90218754811E+03  0.00000000000E+00 0.  1.
          3   -1    0    0  501    0  0.00000000000E+00 -0.00000000000E+00 -0.18096486973E+02  0.18096486973E+02  0.00000000000E+00 0. -1.
         25    2    1    2    0    0 -0.24335810288E+02 -0.46728581080E+02  0.64136429189E+03  0.65556939081E+03  0.12508908544E+03 0.  0.
          5    1    3    3  502    0 -0.47617781019E+02  0.13849956659E+02  0.46394754035E+03  0.46660911582E+03  0.41800000000E+01 0. -1.
         -5    1    3    3    0  502  0.23281970731E+02 -0.60578537740E+02  0.17741675154E+03  0.18896027498E+03  0.41800000000E+01 0. -1.
        -11    1    1    2    0    0 -0.21626845907E+02  0.34630936250E+02  0.42540544711E+02  0.58963718961E+02  0.00000000000E+00 0. -1.
         11    1    1    2    0    0  0.45962656195E+02  0.12097644831E+02  0.20018622454E+03  0.20575092532E+03  0.00000000000E+00 0.  1.
</event>
<event>
 7    1  0.2989693E-009  0.1710472E+03  0.7561462E-02  0.1176760E+00
         -4   -1    0    0    0  501 -0.00000000000E+00  0.00000000000E+00  0.10893155008E+03  0.10893155008E+03  0.00000000000E+00 0. -1.
          4   -1    0    0  501    0  0.00000000000E+00 -0.00000000000E+00 -0.28421329341E+03  0.28421329341E+03  0.00000000000E+00 0.  1.
         25    2    1    2    0    0 -0.67623303287E+02 -0.11963702533E+03 -0.10612981146E+03  0.21401088155E+03  0.12510472240E+03 0.  0.
          5    1    3    3  502    0 -0.96501918814E+02 -0.11563254993E+03 -0.66642198962E+02  0.16474878458E+03  0.41800000000E+01 0. -1.
         -5    1    3    3    0  502  0.28878615527E+02 -0.40044754040E+01 -0.39487612494E+02  0.49262096976E+02  0.41800000000E+01 0. -1.
        -11    1    1    2    0    0  0.27213414298E+02  0.11846014790E+03 -0.66672062584E+02  0.13863095069E+03  0.00000000000E+00 0. -1.
         11    1    1    2    0    0  0.40409888989E+02  0.11768774289E+01 -0.24798692866E+01  0.40503011249E+02  0.00000000000E+00 0.  1.
</event>
<event>
 7    1  0.2989693E-009  0.1228150E+03  0.7561462E-02  0.1238524E+00
          1   -1    0    0  501    0  0.00000000000E+00  0.00000000000E+00  0.40142584160E+02  0.40142584160E+02  0.00000000000E+00 0. -1.
         -1   -1    0    0    0  501 -0.00000000000E+00 -0.00000000000E+00 -0.45700176600E+03  0.45700176600E+03  0.00000000000E+00 0.  1.
         25    2    1    2    0    0  0.75998845353E+02 -0.26902121616E+02 -0.23965542767E+03  0.28210386115E+03  0.12509322851E+03 0.  0.
          5    1    3    3  502    0  0.35691756216E+02  0.41268368165E+02 -0.41532045133E+02  0.68697618923E+02  0.41800000000E+01 0. -1.
         -5    1    3    3    0  502  0.40307089137E+02 -0.68170489781E+02 -0.19812338254E+03  0.21340624222E+03  0.41800000000E+01 0. -1.
        -11    1    1    2    0    0 -0.56079326945E+02  0.54079764208E+02 -0.15823066436E+03  0.17637022127E+03  0.00000000000E+00 0.  1.
         11    1    1    2    0    0 -0.19919518408E+02 -0.27177642593E+02 -0.18973089813E+02  0.38670267746E+02  0.00000000000E+00 0. -1.
</event>
<event>
 7    1  0.2989693E-009  0.7744751E+02  0.7561462E-02  0.1336455E+00
          1   -1    0    0  501    0  0.00000000000E+00  0.00000000000E+00  0.17173478641E+02  0.17173478641E+02  0.00000000000E+00 0. -1.
         -1   -1    0    0    0  501 -0.00000000000E+00 -0.00000000000E+00 -0.73899821652E+03  0.73899821652E+03  0.00000000000E+00 0.  1.
         25    2    1    2    0    0 -0.24779672819E+02 -0.23588059317E+02 -0.41802511657E+03  0.43767313789E+03  0.12506937601E+03 0.  0.
          5    1    3    3  502    0  0.78441785623E+01 -0.29205627397E+02 -0.39713442649E+03  0.39830606939E+03  0.41800000000E+01 0.  1.
         -5    1    3    3    0  502 -0.32623851381E+02  0.56175680800E+01 -0.20890690086E+02  0.39367068501E+02  0.41800000000E+01 0.  1.
        -11    1    1    2    0    0  0.48860828003E+02 -0.97997407526E+01 -0.11619663060E+03  0.12643208609E+03  0.00000000000E+00 0. -1.
         11    1    1    2    0    0 -0.24081155184E+02  0.33387800069E+02 -0.18760299070E+03  0.19206647117E+03  0.00000000000E+00 0.  1.
</event>
<event>
 7    1  0.2989693E-009  0.1141089E+03  0.7561462E-02  0.1253145E+00
         -1   -1    0    0    0  501 -0.00000000000E+00  0.00000000000E+00  0.59660325217E+03  0.59660325217E+03  0.00000000000E+00 0.  1.
          1   -1    0    0  501    0  0.00000000000E+00 -0.00000000000E+00 -0.28228437196E+02  0.28228437196E+02  0.00000000000E+00 0. -1.
         25    2    1    2    0    0 -0.52316193030E+02  0.18666631840E+02  0.42178939681E+03  0.44343998589E+03  0.12508916271E+03 0.  0.
          5    1    3    3  502    0 -0.93217178038E+02  0.53905372716E+01  0.27717656183E+03  0.29251122884E+03  0.41800000000E+01 0.  1.
         -5    1    3    3    0  502  0.40900985008E+02  0.13276094568E+02  0.14461283499E+03  0.15092875705E+03  0.41800000000E+01 0.  1.
        -11    1    1    2    0    0  0.28693910492E+02  0.27464502866E+02  0.11263775455E+03  0.11943577005E+03  0.00000000000E+00 0.  1.
         11    1    1    2    0    0  0.23622282538E+02 -0.46131134706E+02  0.33947663603E+02  0.61955933418E+02  0.00000000000E+00 0. -1.
</event>
<event>
 7    1  0.2989693E-009  0.1709948E+03  0.7561462E-02  0.1176814E+00
         -1   -1    0    0    0  501 -0.00000000000E+00  0.00000000000E+00  0.54175013092E+02  0.54175013092E+02  0.00000000000E+00 0.  1.
          1   -1    0    0  501    0  0.00000000000E+00 -0.00000000000E+00 -0.73735285940E+03  0.73735285940E+03  0.00000000000E+00 0. -1.
         25    2    1    2    0    0 -0.13740085470E+03 -0.57326513958E+02 -0.51044453893E+03  0.54622965130E+03  0.12509148878E+03 0.  0.
          5    1    3    3  502    0 -0.14741553997E+03 -0.78648801609E+02 -0.40553033779E+03  0.43862204993E+03  0.41800000000E+01 0.  1.
         -5    1    3    3    0  502  0.10014685274E+02  0.21322287651E+02 -0.10491420114E+03  0.10760760137E+03  0.41800000000E+01 0.  1.
        -11    1    1    2    0    0  0.63558663605E+02  0.13227720423E+02 -0.13806354801E+03  0.15256546004E+03  0.00000000000E+00 0. -1.
         11    1    1    2    0    0  0.73842191093E+02  0.44098793535E+02 -0.34669759372E+02  0.92732761156E+02  0.00000000000E+00 0.  1.
</event>
<event>
 7    1  0.2989693E-009  0.7456634E+02  0.7561462E-02  0.1345219E+00
          1   -1    0    0  501    0  0.00000000000E+00  0.00000000000E+00  0.68096514882E+02  0.68096514882E+02  0.00000000000E+00 0. -1.
         -1   -1    0    0    0  501 -0.00000000000E+00 -0.00000000000E+00 -0.17952805061E+03  0.17952805061E+03  0.00000000000E+00 0.  1.
         25    2    1    2    0    0 -0.19939839487E+02  0.11389239150E+02 -0.44350332018E+02  0.13468975879E+03  0.12508823768E+03 0.  0.
          5    1    3    3  502    0 -0.51399623079E+02  0.75806249127E+00  0.25276827806E+02  0.57435932441E+02  0.41800000000E+01 0.  1.
         -5    1    3    3    0  502  0.31459783592E+02  0.10631176659E+02 -0.69627159824E+02  0.77253826352E+02  0.41800000000E+01 0.  1.
        -11    1    1    2    0    0  0.25183907221E+02 -0.33191486850E+02 -0.77667799379E+02  0.88137341930E+02  0.00000000000E+00 0.  1.
         11    1    1    2    0    0 -0.52440677347E+01  0.21802247699E+02  0.10586595669E+02  0.24797464770E+02  0.00000000000E+00 0. -1.
</event>
<event>
 7    1  0.2989693E-009  0.1419289E+03  0.7561462E-02  0.1210757E+00
          2   -1    0    0  501    0  0.00000000000E+00  0.00000000000E+00  0.32408692822E+02  0.32408692822E+02  0.00000000000E+00 0. -1.
         -2   -1    0    0    0  501 -0.00000000000E+00 -0.00000000000E+00 -0.82568156133E+03  0.82568156133E+03  0.00000000000E+00 0.  1.
         25    2    1    2    0    0 -0.84373819727E+02 -0.60050021136E+02 -0.25432658380E+03  0.30173633070E+03  0.12505141160E+03 0.  0.
          5    1    3    3  502    0  0.16777777734E+02  0.13799036978E+02 -0.10257579013E+03  0.10493413348E+03  0.41800000000E+01 0.  1.
         -5    1    3    3    0  502 -0.10115159746E+03 -0.73849058115E+02 -0.15175079366E+03  0.19680219722E+03  0.41800000000E+01 0.  1.
        -11    1    1    2    0    0  0.24687565048E+02  0.71507367677E+02 -0.25543729895E+03  0.26640381603E+03  0.00000000000E+00 0. -1.
         11    1    1    2    0    0  0.59686254679E+02 -0.11457346541E+02 -0.28350898576E+03  0.28995010742E+03  0.00000000000E+00 0.  1.
</event>
<event>
 7    1  0.2989693E-009  0.8117418E+02  0.7561462E-02  0.1325752E+00
          2   -1    0    0  501    0  0.00000000000E+00  0.00000000000E+00  0.99030901527E+02  0.99030901527E+02  0.00000000000E+00 0. -1.
         -2   -1    0    0    0  501 -0.00000000000E+00 -0.00000000000E+00 -0.15144324330E+03  0.15144324330E+03  0.00000000000E+00 0.  1.
         25    2    1    2    0    0  0.36000922570E+02 -0.41851348327E+02 -0.19060416338E+02  0.13805074927E+03  0.12508840122E+03 0.  0.
          5    1    3    3  502    0  0.31310586280E+02 -0.46835389022E+02  0.45781997417E+02  0.72714305095E+02  0.41800000000E+01 0.  1.
         -5    1    3    3    0  502  0.46903362908E+01  0.49840406952E+01 -0.64842413754E+02  0.65336444177E+02  0.41800000000E+01 0.  1.
        -11    1    1    2    0    0 -0.42860038876E+02  0.62665895853E+02 -0.44326203761E+02  0.87913649539E+02  0.00000000000E+00 0.  1.
         11    1    1    2    0    0  0.68591163054E+01 -0.20814547526E+02  0.10974278323E+02  0.24509746019E+02  0.00000000000E+00 0. -1.
</event>
<event>
 7    1  0.2989693E-009  0.1040356E+03  0.7561462E-02  0.1272031E+00
         -1   -1    0    0    0  501 -0.00000000000E+00  0.00000000000E+00  0.38526805114E+02  0.38526805114E+02  0.00000000000E+00 0.  1.
          1   -1    0    0  501    0  0.00000000000E+00 -0.00000000000E+00 -0.38841384754E+03  0.38841384754E+03  0.00000000000E+00 0. -1.
         25    2    1    2    0    0  0.34968420149E+02 -0.33860118938E+02 -0.14898465076E+03  0.20053365460E+03  0.12509205571E+03 0.  0.
          5    1    3    3  502    0  0.70840671800E+02 -0.15400462213E+02 -0.14184341593E+03  0.15935056341E+03  0.41800000000E+01 0. -1.
         -5    1    3    3    0  502 -0.35872251652E+02 -0.18459656724E+02 -0.71412348347E+01  0.41183091189E+02  0.41800000000E+01 0. -1.
        -11    1    1    2    0    0 -0.63160691501E+01  0.57441592626E+02 -0.16478399946E+03  0.17462301043E+03  0.00000000000E+00 0.  1.
         11    1    1    2    0    0 -0.28652350998E+02 -0.23581473688E+02 -0.36118392204E+02  0.51783987626E+02  0.00000000000E+00 0. -1.
</event>
<event>
 7    1  0.2989693E-009  0.1134496E+03  0.7561462E-02  0.1254312E+00
          1   -1    0    0  501    0  0.00000000000E+00  0.00000000000E+00  0.21987560220E+03  0.21987560220E+03  0.00000000000E+00 0. -1.
         -1   -1    0    0    0  501 -0.00000000000E+00 -0.00000000000E+00 -0.63425572875E+02  0.63425572875E+02  0.00000000000E+00 0.  1.
         25    2    1    2    0    0  0.16062573685E+02  0.43550139405E+02  0.91238440790E+02  0.16163512380E+03  0.12508732650E+03 0.  0.
          5    1    3    3  502    0 -0.49966847360E+02  0.18013149654E+02  0.10735853413E+02  0.54349704176E+02  0.41800000000E+01 0.  1.
         -5    1    3    3    0  502  0.66029421045E+02  0.25536989751E+02  0.80502587377E+02  0.10728541962E+03  0.41800000000E+01 0.  1.
        -11    1    1    2    0    0 -0.17862125761E+01  0.28851018031E+02  0.19195347823E+02  0.34699181184E+02  0.00000000000E+00 0.  1.
         11    1    1    2    0    0 -0.14276361109E+02 -0.72401157436E+02  0.46016240715E+02  0.86966870095E+02  0.00000000000E+00 0. -1.
</event>
<event>
 7    1  0.2989693E-009  0.1878338E+03  0.7561462E-02  0.1160430E+00
         -3   -1    0    0    0  501 -0.00000000000E+00  0.00000000000E+00  0.31722343478E+03  0.31722343478E+03  0.00000000000E+00 0.  1.
          3   -1    0    0  501    0  0.00000000000E+00 -0.00000000000E+00 -0.11653441100E+03  0.11653441100E+03  0.00000000000E+00 0. -1.
         25    2    1    2    0    0  0.67983662448E+02 -0.14090509245E+03  0.81962196441E+02  0.21643049143E+03  0.12509329534E+03 0.  0.
          5    1    3    3  502    0  0.98970260639E+02 -0.66287186798E+02  0.43883346948E+02  0.12701308658E+03  0.41800000000E+01 0.  1.
         -5    1    3    3    0  502 -0.30986598190E+02 -0.74617905651E+02  0.38078849493E+02  0.89417404849E+02  0.41800000000E+01 0.  1.
        -11    1    1    2    0    0  0.96130841344E+01  0.69369923861E+02  0.76332209040E+02  0.10359152407E+03  0.00000000000E+00 0.  1.
         11    1    1    2    0    0 -0.77596746583E+02  0.71535168588E+02  0.42394618299E+02  0.11373583026E+03  0.00000000000E+00 0. -1.
</event>
<event>
 7    1  0.2989693E-009  0.1155147E+03  0.7561462E-02  0.1250685E+00
          1   -1    0    0  501    0  0.00000000000E+00  0.00000000000E+00  0.45028012275E+02  0.45028012275E+02  0.00000000000E+00 0. -1.
         -1   -1    0    0    0  501 -0.00000000000E+00 -0.00000000000E+00 -0.36331414097E+03  0.36331414097E+03  0.00000000000E+00 0.  1.
         25    2    1    2    0    0  0.56792861863E+02  0.22431846884E+02 -0.13011914156E+03  0.19053988812E+03  0.12508333643E+03 0.  0.
          5    1    3    3  502    0 -0.15072639049E+02 -0.39490782364E+02 -0.54832520239E+02  0.69359815566E+02  0.41800000000E+01 0. -1.
         -5    1    3    3    0  502  0.71865500913E+02  0.61922629248E+02 -0.75286621320E+02  0.12118007255E+03  0.41800000000E+01 0. -1.
        -11    1    1    2    0    0 -0.13093991987E+02  0.25543652701E+02 -0.12119300503E+03  0.12454587623E+03  0.00000000000E+00 0.  1.
         11    1    1    2    0    0 -0.43698869876E+02 -0.47975499585E+02 -0.66973982106E+02  0.93256388886E+02  0.00000000000E+00 0. -1.
</event>
<event>
 7    1  0.2989693E-009  0.1486083E+03  0.7561462E-02  0.1202194E+00
          2   -1    0    0  501    0  0.00000000000E+00  0.00000000000E+00  0.75069738579E+03  0.75069738579E+03  0.00000000000E+00 0. -1.
         -2   -1    0    0    0  501 -0.00000000000E+00 -0.00000000000E+00 -0.35200778726E+02  0.35200778726E+02  0.00000000000E+00 0.  1.
         25    2    1    2    0    0  0.11314683965E+03 -0.28132582594E+02  0.43307128462E+03  0.46560886882E+03  0.12508889492E+03 0.  0.
          5    1    3    3  502    0  0.12421741433E+03  0.10923983300E+02  0.26880740087E+03  0.29635146464E+03  0.41800000000E+01 0.  1.
         -5    1    3    3    0  502 -0.11070574679E+02 -0.39056565894E+02  0.16426388375E+03  0.16925740417E+03  0.41800000000E+01 0.  1.
        -11    1    1    2    0    0 -0.61325628934E+02  0.46177113405E+02  0.81313934177E+02  0.11182626909E+03  0.00000000000E+00 0.  1.
         11    1    1    2    0    0 -0.51821210718E+02 -0.18044530812E+02  0.20111138826E+03  0.20846302661E+03  0.00000000000E+00 0. -1.
</event>
<event>
 7    1  0.2989693E-009  0.1304762E+03  0.7561462E-02  0.1226751E+00
         -1   -1    0    0    0  501 -0.00000000000E+00  0.00000000000E+00  0.49910820524E+02  0.49910820524E+02  0.00000000000E+00 0.  1.
          1   -1    0    0  501    0  0.00000000000E+00 -0.00000000000E+00 -0.50794436808E+03  0.50794436808E+03  0.00000000000E+00 0. -1.
         25    2    1    2    0    0  0.30529740280E+02 -0.88186015505E+02 -0.36038740427E+03  0.39272810332E+03  0.12508974223E+03 0.  0.
          5    1    3    3  502    0 -0.23304175846E+02 -0.80801246905E+02 -0.12228910689E+03  0.14847230104E+03  0.41800000000E+01 0. -1.
         -5    1    3    3    0  502  0.53833916125E+02 -0.73847686001E+01 -0.23809829737E+03  0.24425580227E+03  0.41800000000E+01 0. -1.
        -11    1    1    2    0    0 -0.36972715869E+02  0.32941827541E+01 -0.63183957774E+02  0.73280596878E+02  0.00000000000E+00 0.  1.
         11    1    1    2    0    0  0.64429755897E+01  0.84891832751E+02 -0.34462185520E+02  0.91846488409E+02  0.00000000000E+00 0. -1.
</event>
<event>
 7    1  0.2989693E-009  0.1151668E+03  0.7561462E-02  0.1251290E+00
          2   -1    0    0  501    0  0.00000000000E+00  0.00000000000E+00  0.30496207634E+03  0.30496207634E+03  0.00000000000E+00 0. -1.
         -2   -1    0    0    0  501 -0.00000000000E+00 -0.00000000000E+00 -0.63306857860E+02  0.63306857860E+02  0.00000000000E+00 0.  1.
         25    2    1    2    0    0 -0.26132136153E+02 -0.57886577915E+02  0.54220126745E+02  0.15040299877E+03  0.12508994944E+03 0.  0.
          5    1    3    3  502    0 -0.75618223339E+02 -0.41458095730E+02  0.44738873319E+02  0.97241599064E+02  0.41800000000E+01 0. -1.
         -5    1    3    3    0  502  0.49486087186E+02 -0.16428482185E+02  0.94812534258E+01  0.53161399704E+02  0.41800000000E+01 0. -1.
        -11    1    1    2    0    0 -0.21342237576E+02  0.79260110944E+01  0.11747452967E+03  0.11966026023E+03  0.00000000000E+00 0. -1.
         11    1    1    2    0    0  0.47474373728E+02  0.49960566821E+02  0.69960562063E+02  0.98205675203E+02  0.00000000000E+00 0.  1.
</event>
<event>
 7    1  0.2989693E-009  0.1217975E+03  0.7561462E-02  0.1240161E+00
         -1   -1    0    0    0  501 -0.00000000000E+00  0.00000000000E+00  0.16563751148E+02  0.16563751148E+02  0.00000000000E+00 0.  1.
          1   -1    0    0  501    0  0.00000000000E+00 -0.00000000000E+00 -0.14057221277E+04  0.14057221277E+04  0.00000000000E+00 0. -1.
         25    2    1    2    0    0  0.33563949714E+02 -0.89135976251E+02 -0.94547153911E+03  0.95845625920E+03  0.12510079358E+03 0.  0.
          5    1    3    3  502    0  0.60174847332E+02 -0.34472899009E+02 -0.22672604912E+03  0.23713196067E+03  0.41800000000E+01 0.  1.
         -5    1    3    3    0  502 -0.26610897617E+02 -0.54663077242E+02 -0.71874548999E+03  0.72132429854E+03  0.41800000000E+01 0.  1.
        -11    1    1    2    0    0 -0.40052308219E+02  0.21933853534E+02 -0.66633011083E+02  0.80778954503E+02  0.00000000000E+00 0.  1.
         11    1    1    2    0    0  0.64883585050E+01  0.67202122717E+02 -0.37705382635E+03  0.38305066513E+03  0.00000000000E+00 0. -1.
</event>
<event>
 7    1  0.2989693E-009  0.3083115E+03  0.7561462E-02  0.1081158E+00
         -1   -1    0    0    0  501 -0.00000000000E+00  0.00000000000E+00  0.29162890986E+03  0.29162890986E+03  0.00000000000E+00 0.  1.
          1   -1    0    0  501    0  0.00000000000E+00 -0.00000000000E+00 -0.33598398398E+03  0.33598398398E+03  0.00000000000E+00 0. -1.
         25    2    1    2    0    0  0.28188969220E+03  0.80113871432E+02 -0.40111773846E+02  0.32114795616E+03  0.12508806651E+03 0.  0.
          5    1    3    3  502    0  0.28954746480E+03  0.89563023132E+02 -0.46715936487E+02  0.30669059425E+03  0.41800000000E+01 0. -1.
         -5    1    3    3    0  502 -0.76577726003E+01 -0.94491517008E+01  0.66041626409E+01  0.14457361905E+02  0.41800000000E+01 0. -1.
        -11    1    1    2    0    0 -0.23460979700E+02 -0.28851616342E+02  0.19399211731E+02  0.41942374156E+02  0.00000000000E+00 0.  1.
         11    1    1    2    0    0 -0.25842871250E+03 -0.51262255089E+02 -0.23642511997E+02  0.26452256352E+03  0.00000000000E+00 0. -1.
</event>
<event>
 7    1  0.2989693E-009  0.1017457E+03  0.7561462E-02  0.1276667E+00
         -1   -1    0    0    0  501 -0.00000000000E+00  0.00000000000E+00  0.63098432941E+03  0.63098432941E+03  0.00000000000E+00 0.  1.
          1   -1    0    0  501    0  0.00000000000E+00 -0.00000000000E+00 -0.23334713245E+02  0.23334713245E+02  0.00000000000E+00 0. -1.
         25    2    1    2    0    0 -0.42829278899E+02  0.36505235401E+00  0.38482927083E+03  0.40690908164E+03  0.12508777972E+03 0.  0.
          5    1    3    3  502    0 -0.75380445399E+02  0.11326919126E+02  0.34840297034E+03  0.35666877181E+03  0.41800000000E+01 0. -1.
         -5    1    3    3    0  502  0.32551166501E+02 -0.10961866772E+02  0.36426300493E+02  0.50240309825E+02  0.41800000000E+01 0. -1.
        -11    1    1    2    0    0  0.45262957982E+02  0.34928012501E+02  0.19252234176E+03  0.20083215255E+03  0.00000000000E+00 0.  1.
         11    1    1    2    0    0 -0.24336790837E+01 -0.35293064855E+02  0.30298003570E+02  0.46577808461E+02  0.00000000000E+00 0. -1.
</event>
<event>
 7    1  0.2989693E-009  0.1320214E+03  0.7561462E-02  0.1224487E+00
          1   -1    0    0  501    0  0.00000000000E+00  0.00000000000E+00  0.58716679708E+02  0.58716679708E+02  0.00000000000E+00 0. -1.
         -1   -1    0    0    0  501 -0.00000000000E+00 -0.00000000000E+00 -0.41701179512E+03  0.41701179512E+03  0.00000000000E+00 0.  1.
         25    2    1    2    0    0  0.79116288319E+02  0.65190868106E+02 -0.11991659695E+03  0.20135664140E+03  0.12512102321E+03 0.  0.
          5    1    3    3  502    0  0.53402135631E+02 -0.51015382459E+01 -0.11411873180E+03  0.12616802737E+03  0.41800000000E+01 0. -1.
         -5    1    3    3    0  502  0.25714152688E+02  0.70292406352E+02 -0.57978651532E+01  0.75188614029E+02  0.41800000000E+01 0. -1.
        -11    1    1    2    0    0 -0.22486875312E+02 -0.74554525537E+02 -0.14960507557E+03  0.16865857664E+03  0.00000000000E+00 0.  1.
         11    1    1    2    0    0 -0.56629413007E+02  0.93636574309E+01 -0.88773442892E+02  0.10571325679E+03  0.00000000000E+00 0. -1.
</event>
<event>
 7    1  0.2989693E-009  0.9027860E+02  0.7561462E-02  0.1302178E+00
          2   -1    0    0  501    0  0.00000000000E+00  0.00000000000E+00  0.26420499279E+02  0.26420499279E+02  0.00000000000E+00 0. -1.
         -2   -1    0    0    0  501 -0.00000000000E+00 -0.00000000000E+00 -0.94352399829E+03  0.94352399829E+03  0.00000000000E+00 0.  1.
         25    2    1    2    0    0  0.98860540347E+00  0.53948695466E+02 -0.79859932601E+03  0.81013555040E+03  0.12508911799E+03 0.  0.
          5    1    3    3  502    0 -0.30835813986E+02 -0.17942036280E+02 -0.85997378878E+02  0.93197562542E+02  0.41800000000E+01 0.  1.
         -5    1    3    3    0  502  0.31824419389E+02  0.71890731746E+02 -0.71260194713E+03  0.71693798786E+03  0.41800000000E+01 0.  1.
        -11    1    1    2    0    0 -0.19277786710E+02 -0.23598612934E+02 -0.12052428834E+03  0.12431665887E+03  0.00000000000E+00 0.  1.
         11    1    1    2    0    0  0.18289181306E+02 -0.30350082532E+02  0.20201153374E+01  0.35492288297E+02  0.00000000000E+00 0. -1.
</event>
<event>
 7    1  0.2989693E-009  0.1481208E+03  0.7561462E-02  0.1202801E+00
         -2   -1    0    0    0  501 -0.00000000000E+00  0.00000000000E+00  0.90233018544E+02  0.90233018544E+02  0.00000000000E+00 0. -1.
          2   -1    0    0  501    0  0.00000000000E+00 -0.00000000000E+00 -0.31544856997E+03  0.31544856997E+03  0.00000000000E+00 0.  1.
         25    2    1    2    0    0 -0.41124321559E+02  0.11434149729E+03 -0.17018342117E+03  0.24366998422E+03  0.12508987387E+03 0.  0.
          5    1    3    3  502    0 -0.23584385371E+02  0.13905153869E+03 -0.15470880352E+03  0.20938920682E+03  0.41800000000E+01 0. -1.
         -5    1    3    3    0  502 -0.17539936187E+02 -0.24710041406E+02 -0.15474617645E+02  0.34280777398E+02  0.41800000000E+01 0. -1.
        -11    1    1    2    0    0  0.21129631970E+02 -0.23783156055E+02 -0.61296802858E+02  0.69060827534E+02  0.00000000000E+00 0.  1.
         11    1    1    2    0    0  0.19994689589E+02 -0.90558341232E+02  0.62646725951E+01  0.92950776764E+02  0.00000000000E+00 0. -1.
</event>
<event>
 7    1  0.2989693E-009  0.1059435E+03  0.7561462E-02  0.1268272E+00
         -3   -1    0    0    0  501 -0.00000000000E+00  0.00000000000E+00  0.94045362592E+02  0.94045362592E+02  0.00000000000E+00 0.  1.
          3   -1    0    0  501    0  0.00000000000E+00 -0.00000000000E+00 -0.13676047214E+03  0.13676047214E+03  0.00000000000E+00 0. -1.
         25    2    1    2    0    0 -0.31247465997E+02 -0.10921409895E+02 -0.29350728980E+02  0.13268771024E+03  0.12509549086E+03 0.  0.
          5    1    3    3  502    0 -0.65174808684E+02  0.33428353405E+02 -0.15030328901E+02  0.74890544698E+02  0.41800000000E+01 0. -1.
         -5    1    3    3    0  502  0.33927342687E+02 -0.44349763300E+02 -0.14320400079E+02  0.57797165544E+02  0.41800000000E+01 0. -1.
        -11    1    1    2    0    0  0.31828703441E+02 -0.28725217333E+02  0.19038504995E+02  0.46911290176E+02  0.00000000000E+00 0. -1.
         11    1    1    2    0    0 -0.58123744360E+00  0.39646627228E+02 -0.32402885563E+02  0.51206834313E+02  0.00000000000E+00 0.  1.
</event>
<event>
 7    1  0.2989693E-009  0.2183769E+03  0.7561462E-02  0.1135099E+00
          1   -1    0    0  501    0  0.00000000000E+00  0.00000000000E+00  0.17143908208E+03  0.17143908208E+03  0.00000000000E+00 0. -1.
         -1   -1    0    0    0  501 -0.00000000000E+00 -0.00000000000E+00 -0.43160258631E+03  0.43160258631E+03  0.00000000000E+00 0.  1.
         25    2    1    2    0    0 -0.13660845270E+03 -0.14435364513E+03  0.32717383165E+02  0.23710245855E+03  0.12508918609E+03 0.  0.
          5    1    3    3  502    0 -0.41254496574E+02  0.19022522342E+02  0.65016877733E+01  0.46081820577E+02  0.41800000000E+01 0. -1.
         -5    1    3    3    0  502 -0.95353956128E+02 -0.16337616747E+03  0.26215695392E+02  0.19102063797E+03  0.41800000000E+01 0. -1.
        -11    1    1    2    0    0  0.31691006750E+02  0.57758958094E+02 -0.17113613079E+03  0.18337936746E+03  0.00000000000E+00 0.  1.
         11    1    1    2    0    0  0.10491744595E+03  0.86594687036E+02 -0.12174475660E+03  0.18255984238E+03  0.00000000000E+00 0. -1.
</event>
<event>
 7    1  0.2989693E-009  0.1040079E+03  0.7561462E-02  0.1272087E+00
         -1   -1    0    0    0  501 -0.00000000000E+00  0.00000000000E+00  0.53370398811E+03  0.53370398811E+03  0.00000000000E+00 0.  1.
          1   -1    0    0  501    0  0.00000000000E+00 -0.00000000000E+00 -0.38689703339E+02  0.38689703339E+02  0.00000000000E+00 0. -1.
         25    2    1    2    0    0 -0.11507360202E+02  0.54909704580E+02  0.11833717360E+03  0.18109892607E+03  0.12508253023E+03 0.  0.
          5    1    3    3  502    0  0.35057545227E+02 -0.94260196066E+01  0.89209483106E+02  0.96403763407E+02  0.41800000000E+01 0.  1.
         -5    1    3    3    0  502 -0.46564905428E+02  0.64335724186E+02  0.29127690499E+02  0.84695162660E+02  0.41800000000E+01 0.  1.
        -11    1    1    2    0    0 -0.95725311548E+01  0.15626664974E+02  0.20111006907E+02  0.27208061484E+02  0.00000000000E+00 0. -1.
         11    1    1    2    0    0  0.21079891356E+02 -0.70536369554E+02  0.35656610426E+03  0.36408670390E+03  0.00000000000E+00 0.  1.
</event>
<event>
 7    1  0.2989693E-009  0.1723328E+03  0.7561462E-02  0.1175437E+00
         -2   -1    0    0    0  501 -0.00000000000E+00  0.00000000000E+00  0.30090551037E+02  0.30090551037E+02  0.00000000000E+00 0.  1.
          2   -1    0    0  501    0  0.00000000000E+00 -0.00000000000E+00 -0.10697667960E+04  0.10697667960E+04  0.00000000000E+00 0. -1.
         25    2    1    2    0    0  0.14089694423E+03  0.15323273213E+02 -0.50345262945E+03  0.53776882907E+03  0.12507602416E+03 0.  0.
          5    1    3    3  502    0 -0.99606732444E+00  0.38103432623E+02 -0.56670478775E+02  0.68424259531E+02  0.41800000000E+01 0. -1.
         -5    1    3    3    0  502  0.14189301155E+03 -0.22780159409E+02 -0.44678215068E+03  0.46934456954E+03  0.41800000000E+01 0. -1.
        -11    1    1    2    0    0 -0.37974604473E+02 -0.41600100526E+02 -0.12059624109E+03  0.13310181183E+03  0.00000000000E+00 0.  1.
         11    1    1    2    0    0 -0.10292233975E+03  0.26276827312E+02 -0.41562737446E+03  0.42898670617E+03  0.00000000000E+00 0. -1.
</event>
<event>
 7    1  0.2989693E-009  0.1973336E+03  0.7561462E-02  0.1152008E+00
          2   -1    0    0  501    0  0.00000000000E+00  0.00000000000E+00  0.54685212855E+03  0.54685212855E+03  0.00000000000E+00 0.  1.
         -2   -1    0    0    0  501 -0.00000000000E+00 -0.00000000000E+00 -0.83631477782E+02  0.83631477782E+02  0.00000000000E+00 0. -1.
         25    2    1    2    0    0  0.38706971233E+02 -0.17154098822E+03  0.16375097043E+03  0.27089905052E+03  0.12508946796E+03 0.  0.
          5    1    3    3  502    0  0.63601131630E+02 -0.34164478263E+02  0.32692563199E+02  0.79363666802E+02  0.41800000000E+01 0. -1.
         -5    1    3    3    0  502 -0.24894160397E+02 -0.13737650996E+03  0.13105840723E+03  0.19153538372E+03  0.41800000000E+01 0. -1.
        -11    1    1    2    0    0 -0.49892391235E+02  0.12048282899E+03  0.26935336863E+03  0.29926008751E+03  0.00000000000E+00 0.  1.
         11    1    1    2    0    0  0.11185420002E+02  0.51058159229E+02  0.30116311705E+02  0.60324468296E+02  0.00000000000E+00 0. -1.
</event>
<event>
 7    1  0.2989693E-009  0.1417401E+03  0.7561462E-02  0.1211007E+00
          1   -1    0    0  501    0  0.00000000000E+00  0.00000000000E+00  0.40446294873E+03  0.40446294873E+03  0.00000000000E+00 0. -1.
         -1   -1    0    0    0  501 -0.00000000000E+00 -0.00000000000E+00 -0.52029448001E+02  0.52029448001E+02  0.00000000000E+00 0.  1.
         25    2    1    2    0    0  0.75888228170E+02  0.58461044563E+02  0.19398500748E+03  0.24990001462E+03  0.12507244810E+03 0.  0.
          5    1    3    3  502    0  0.92040950366E+02  0.15457779831E+01  0.15006166635E+03  0.17609628639E+03  0.41800000000E+01 0. -1.
         -5    1    3    3    0  502 -0.16152722196E+02  0.56915266580E+02  0.43923341131E+02  0.73803728228E+02  0.41800000000E+01 0. -1.
        -11    1    1    2    0    0 -0.61326281791E+02  0.99052156256E+01  0.83959778738E+02  0.10444266648E+03  0.00000000000E+00 0. -1.
         11    1    1    2    0    0 -0.14561946378E+02 -0.68366260189E+02  0.74488714510E+02  0.10214971563E+03  0.00000000000E+00 0.  1.
</event>
<event>
 7    1  0.2989693E-009  0.1030620E+03  0.7561462E-02  0.1273986E+00
         -1   -1    0    0    0  501 -0.00000000000E+00  0.00000000000E+00  0.76535016853E+02  0.76535016853E+02  0.00000000000E+00 0.  1.
          1   -1    0    0  501    0  0.00000000000E+00 -0.00000000000E+00 -0.22581507701E+03  0.22581507701E+03  0.00000000000E+00 0. -1.
         25    2    1    2    0    0 -0.27472601229E+02  0.61182540690E+02 -0.48311935191E+02  0.14990626794E+03  0.12505918192E+03 0.  0.
          5    1    3    3  502    0 -0.47426689156E+02  0.36838544517E+02  0.28637355126E+02  0.66662881089E+02  0.41800000000E+01 0.  1.
         -5    1    3    3    0  502  0.19954087927E+02  0.24343996172E+02 -0.76949290317E+02  0.83243386854E+02  0.41800000000E+01 0.  1.
        -11    1    1    2    0    0  0.27076648195E+02  0.19576564920E+02 -0.27719908957E+02  0.43414054454E+02  0.00000000000E+00 0.  1.
         11    1    1    2    0    0  0.39595303362E+00 -0.80759105609E+02 -0.73248216011E+02  0.10902977147E+03  0.00000000000E+00 0. -1.
</event>
<event>
 7    1  0.2989693E-009  0.1806527E+03  0.7561462E-02  0.1167173E+00
          2   -1    0    0  501    0  0.00000000000E+00  0.00000000000E+00  0.11622339440E+04  0.11622339440E+04  0.00000000000E+00 0. -1.
         -2   -1    0    0    0  501 -0.00000000000E+00 -0.00000000000E+00 -0.43422165940E+02  0.43422165940E+02  0.00000000000E+00 0.  1.
         25    2    1    2    0    0  0.72121636918E+02  0.15135372459E+03  0.30710287508E+03  0.37157395442E+03  0.12508216205E+03 0.  0.
          5    1    3    3  502    0  0.16302654383E+02  0.64030693669E+02  0.23776166170E+03  0.24680718475E+03  0.41800000000E+01 0.  1.
         -5    1    3    3    0  502  0.55818982536E+02  0.87323030921E+02  0.69341213382E+02  0.12476676967E+03  0.41800000000E+01 0.  1.
        -11    1    1    2    0    0 -0.51152296939E+02 -0.14839948274E+02  0.19952077921E+03  0.20650744026E+03  0.00000000000E+00 0.  1.
         11    1    1    2    0    0 -0.20969339980E+02 -0.13651377632E+03  0.61218812372E+03  0.62757471521E+03  0.00000000000E+00 0. -1.
</event>
<event>
 7    1  0.2989693E-009  0.1218738E+03  0.7561462E-02  0.1240038E+00
          1   -1    0    0  501    0  0.00000000000E+00  0.00000000000E+00  0.27746748741E+02  0.27746748741E+02  0.00000000000E+00 0. -1.
         -1   -1    0    0    0  501 -0.00000000000E+00 -0.00000000000E+00 -0.65245655513E+03  0.65245655513E+03  0.00000000000E+00 0.  1.
         25    2    1    2    0    0  0.34402600532E+02  0.66811334854E+02 -0.34032386027E+03  0.37029075522E+03  0.12509044784E+03 0.  0.
          5    1    3    3  502    0  0.64668543943E+02  0.85686228948E+02 -0.28230959980E+03  0.30206014789E+03  0.41800000000E+01 0.  1.
         -5    1    3    3    0  502 -0.30265943411E+02 -0.18874894094E+02 -0.58014260473E+02  0.68230607324E+02  0.41800000000E+01 0.  1.
        -11    1    1    2    0    0 -0.42154858378E+02 -0.10344022237E+02 -0.21860939669E+03  0.22287687004E+03  0.00000000000E+00 0.  1.
         11    1    1    2    0    0  0.77522578462E+01 -0.56467312617E+02 -0.65776549434E+02  0.87035678612E+02  0.00000000000E+00 0. -1.
</event>
<event>
 7    1  0.2989693E-009  0.2247892E+03  0.7561462E-02  0.1130362E+00
         -2   -1    0    0    0  501 -0.00000000000E+00  0.00000000000E+00  0.17468653529E+03  0.17468653529E+03  0.00000000000E+00 0. -1.
          2   -1    0    0  501    0  0.00000000000E+00 -0.00000000000E+00 -0.38388724982E+03  0.38388724982E+03  0.00000000000E+00 0.  1.
         25    2    1    2    0    0  0.28875968654E+01  0.20980407474E+03 -0.22183034113E+03  0.32997249352E+03  0.12508820185E+03 0.  0.
          5    1    3    3  502    0 -0.36517225111E+02  0.10641871580E+03 -0.17857428793E+03  0.21110352795E+03  0.41800000000E+01 0.  1.
         -5    1    3    3    0  502  0.39404821976E+02  0.10338535893E+03 -0.43256053195E+02  0.11886896557E+03  0.41800000000E+01 0.  1.
        -11    1    1    2    0    0 -0.31890720947E+02 -0.28836710289E+02  0.14319012725E+02  0.45316752622E+02  0.00000000000E+00 0. -1.
         11    1    1    2    0    0  0.29003124082E+02 -0.18096736445E+03 -0.16893861226E+01  0.18328453897E+03  0.00000000000E+00 0.  1.
</event>
<event>
 7    1  0.2989693E-009  0.1003345E+03  0.7561462E-02  0.1279594E+00
          1   -1    0    0  501    0  0.00000000000E+00  0.00000000000E+00  0.16156512211E+03  0.16156512211E+03  0.00000000000E+00 0. -1.
         -1   -1    0    0    0  501 -0.00000000000E+00 -0.00000000000E+00 -0.11425169397E+03  0.11425169397E+03  0.00000000000E+00 0.  1.
         25    2    1    2    0    0  0.31968719826E+02  0.37501023783E+02 -0.45698593231E+02  0.14200235050E+03  0.12509188740E+03 0.  0.
          5    1    3    3  502    0  0.49360100384E+02  0.72942791093E+02 -0.51141699478E+02  0.10193142846E+03  0.41800000000E+01 0. -1.
         -5    1    3    3    0  502 -0.17391380558E+02 -0.35441767310E+02  0.54431062464E+01  0.40070922043E+02  0.41800000000E+01 0. -1.
        -11    1    1    2    0    0  0.38433793471E+01 -0.36776435070E+02  0.90668317355E+02  0.97918443172E+02  0.00000000000E+00 0. -1.
         11    1    1    2    0    0 -0.35812099174E+02 -0.72458871310E+00  0.23437040240E+01  0.35896022406E+02  0.00000000000E+00 0.  1.
</event>
<event>
 7    1  0.2989693E-009  0.8782235E+02  0.7561462E-02  0.1308213E+00
          1   -1    0    0  501    0  0.00000000000E+00  0.00000000000E+00  0.10182275390E+03  0.10182275390E+03  0.00000000000E+00 0. -1.
         -1   -1    0    0    0  501 -0.00000000000E+00 -0.00000000000E+00 -0.31220922568E+03  0.31220922568E+03  0.00000000000E+00 0.  1.
         25    2    1    2    0    0 -0.80628989503E+02  0.23179378124E+02  0.21523700007E+02  0.15214800198E+03  0.12508967713E+03 0.  0.
          5    1    3    3  502    0 -0.78851736220E+02  0.12638564757E+02  0.67570188296E+02  0.10469256120E+03  0.41800000000E+01 0.  1.
         -5    1    3    3    0  502 -0.17772532827E+01  0.10540813367E+02 -0.46046488290E+02  0.47455440778E+02  0.41800000000E+01 0.  1.
        -11    1    1    2    0    0  0.57111304944E+02 -0.12994077699E+02 -0.22866940025E+03  0.23605135419E+03  0.00000000000E+00 0.  1.
         11    1    1    2    0    0  0.23517684558E+02 -0.10185300425E+02 -0.32407715375E+01  0.25832623403E+02  0.00000000000E+00 0. -1.
</event>
<event>
 7    1  0.2989693E-009  0.4293531E+03  0.7561462E-02  0.1034065E+00
         -2   -1    0    0    0  501 -0.00000000000E+00  0.00000000000E+00  0.11303421086E+03  0.11303421086E+03  0.00000000000E+00 0. -1.
          2   -1    0    0  501    0  0.00000000000E+00 -0.00000000000E+00 -0.17129192805E+04  0.17129192805E+04  0.00000000000E+00 0.  1.
         25    2    1    2    0    0 -0.52807892556E+01 -0.41947516315E+03 -0.96288945217E+03  0.10577296523E+04  0.12509444810E+03 0.  0.
          5    1    3    3  502    0 -0.58002321435E+02 -0.30922188025E+03 -0.72197925907E+03  0.78756203784E+03  0.41800000000E+01 0. -1.
         -5    1    3    3    0  502  0.52721532179E+02 -0.11025328290E+03 -0.24091019310E+03  0.27016761443E+03  0.41800000000E+01 0. -1.
        -11    1    1    2    0    0  0.24564328224E+02  0.25493789058E+03 -0.31387219691E+03  0.40510799827E+03  0.00000000000E+00 0. -1.
         11    1    1    2    0    0 -0.19283538968E+02  0.16453727257E+03 -0.32312342059E+03  0.36311584085E+03  0.00000000000E+00 0.  1.
</event>
<event>
 7    1  0.2989693E-009  0.1239077E+03  0.7561462E-02  0.1236786E+00
          1   -1    0    0  501    0  0.00000000000E+00  0.00000000000E+00  0.86233764050E+02  0.86233764050E+02  0.00000000000E+00 0. -1.
         -1   -1    0    0    0  501 -0.00000000000E+00 -0.00000000000E+00 -0.18679716162E+03  0.18679716162E+03  0.00000000000E+00 0.  1.
         25    2    1    2    0    0 -0.62750530264E+02  0.15575400023E+02 -0.38087705867E+02  0.14587030802E+03  0.12508897349E+03 0.  0.
          5    1    3    3  502    0  0.83093433703E+01 -0.43618845754E+02  0.27495722077E+01  0.44684241512E+02  0.41800000000E+01 0.  1.
         -5    1    3    3    0  502 -0.71059873634E+02  0.59194245778E+02 -0.40837278075E+02  0.10118606650E+03  0.41800000000E+01 0.  1.
        -11    1    1    2    0    0 -0.23784580706E+01  0.30667944692E+02 -0.20033250158E+02  0.36708459601E+02  0.00000000000E+00 0.  1.
         11    1    1    2    0    0  0.65128988335E+02 -0.46243344715E+02 -0.42442441545E+02  0.90452158052E+02  0.00000000000E+00 0. -1.
</event>
<event>
 7    1  0.2989693E-009  0.1386462E+03  0.7561462E-02  0.1215162E+00
          2   -1    0    0  501    0  0.00000000000E+00  0.00000000000E+00  0.15143630978E+03  0.15143630978E+03  0.00000000000E+00 0. -1.
         -2   -1    0    0    0  501 -0.00000000000E+00 -0.00000000000E+00 -0.14067928936E+03  0.14067928936E+03  0.00000000000E+00 0.  1.
         25    2    1    2    0    0  0.88516836551E+02  0.28579888919E+02  0.32493608905E+02  0.15923096361E+03  0.12508646909E+03 0.  0.
          5    1    3    3  502    0 -0.13172460307E+02 -0.28074794936E+02  0.29051542905E+02  0.42698622535E+02  0.41800000000E+01 0.  1.
         -5    1    3    3    0  502  0.10168929686E+03  0.56654683855E+02  0.34420659993E+01  0.11653234108E+03  0.41800000000E+01 0.  1.
        -11    1    1    2    0    0 -0.64049952206E+02  0.26448945613E+02 -0.13651148995E+01  0.69309498919E+02  0.00000000000E+00 0. -1.
         11    1    1    2    0    0 -0.24466884345E+02 -0.55028834533E+02 -0.20371473583E+02  0.63575136614E+02  0.00000000000E+00 0.  1.
</event>
<event>
 6    1  0.2989693E-009  0.1197168E+03  0.7561462E-02  0.1243565E+00
         -1   -1    0    0    0  501 -0.00000000000E+00  0.00000000000E+00  0.67122229924E+02  0.67122229924E+02  0.00000000000E+00 0.  1.
          1   -1    0    0  501    0  0.00000000000E+00 -0.00000000000E+00 -0.30833816452E+03  0.30833816452E+03  0.00000000000E+00 0. -1.
          5    1    1    2  502    0  0.14350535940E+02 -0.87403456718E+02 -0.20439043660E+02  0.90997412237E+02  0.41800000000E+01 0. -1.
         -5    1    1    2    0  502  0.10611882173E+02  0.44339707393E+02 -0.73167942332E+01  0.46364097886E+02  0.41800000000E+01 0. -1.
        -11    1    1    2    0    0  0.32961248512E+02  0.27224087435E+00 -0.56634198359E+02  0.65528241563E+02  0.00000000000E+00 0.  1.
         11    1    1    2    0    0 -0.57923666625E+02  0.42791508451E+02 -0.15682589834E+03  0.17257064276E+03  0.00000000000E+00 0. -1.
</event>
<event>
 7    1  0.2989693E-009  0.1059862E+03  0.7561462E-02  0.1268189E+00
         -1   -1    0    0    0  501 -0.00000000000E+00  0.00000000000E+00  0.15842633941E+03  0.15842633941E+03  0.00000000000E+00 0.  1.
          1   -1    0    0  501    0  0.00000000000E+00 -0.00000000000E+00 -0.84043715844E+02  0.84043715844E+02  0.00000000000E+00 0. -1.
         25    2    1    2    0    0 -0.32142744076E+01  0.84127170101E+01  0.21791657922E+01  0.12543410363E+03  0.12509140747E+03 0.  0.
          5    1    3    3  502    0 -0.44541906657E+02 -0.38479947240E+02 -0.14177705537E+02  0.60689105468E+02  0.41800000000E+01 0. -1.
         -5    1    3    3    0  502  0.41327632249E+02  0.46892664250E+02  0.16356871329E+02  0.64744998165E+02  0.41800000000E+01 0. -1.
        -11    1    1    2    0    0  0.37969290652E+02 -0.30873067576E+02  0.50451568483E+02  0.70286372055E+02  0.00000000000E+00 0.  1.
         11    1    1    2    0    0 -0.34755016244E+02  0.22460350566E+02  0.21751889286E+02  0.46749579562E+02  0.00000000000E+00 0. -1.
</event>
<event>
 7    1  0.2989693E-009  0.9659886E+02  0.7561462E-02  0.1287615E+00
          2   -1    0    0  501    0  0.00000000000E+00  0.00000000000E+00  0.11129098329E+04  0.11129098329E+04  0.00000000000E+00 0.  1.
         -2   -1    0    0    0  501 -0.00000000000E+00 -0.00000000000E+00 -0.22611308519E+02  0.22611308519E+02  0.00000000000E+00 0. -1.
         25    2    1    2    0    0 -0.53614242600E+02 -0.32551869722E+02  0.93304131701E+03  0.94347718153E+03  0.12509588958E+03 0.  0.
          5    1    3    3  502    0 -0.73060825025E+02 -0.47031844770E+02  0.37758163684E+03  0.38747289383E+03  0.41800000000E+01 0. -1.
         -5    1    3    3    0  502  0.19446582425E+02  0.14479975049E+02  0.55545968017E+03  0.55600428770E+03  0.41800000000E+01 0. -1.
        -11    1    1    2    0    0  0.63985034255E+02  0.24662195207E+02  0.16371835161E+03  0.17749931587E+03  0.00000000000E+00 0.  1.
         11    1    1    2    0    0 -0.10370791655E+02  0.78896745144E+01 -0.64611442674E+01  0.14544643988E+02  0.00000000000E+00 0. -1.
</event>
<event>
 7    1  0.2989693E-009  0.1529740E+03  0.7561462E-02  0.1196866E+00
          1   -1    0    0  501    0  0.00000000000E+00  0.00000000000E+00  0.85370592802E+02  0.85370592802E+02  0.00000000000E+00 0. -1.
         -1   -1    0    0    0  501 -0.00000000000E+00 -0.00000000000E+00 -0.48592037449E+03  0.48592037449E+03  0.00000000000E+00 0.  1.
         25    2    1    2    0    0 -0.74120234731E+02 -0.10967299422E+03 -0.54775928495E+02  0.19018384331E+03  0.12509003580E+03 0.  0.
          5    1    3    3  502    0 -0.17930517982E+01  0.11401753202E+02  0.25177102785E+02  0.28010246615E+02  0.41800000000E+01 0.  1.
         -5    1    3    3    0  502 -0.72327182933E+02 -0.12107474743E+03 -0.79953031280E+02  0.16217359670E+03  0.41800000000E+01 0.  1.
        -11    1    1    2    0    0 -0.69672206239E+01  0.53457370759E+02 -0.70946506373E+02  0.89104654302E+02  0.00000000000E+00 0. -1.
         11    1    1    2    0    0  0.81087455355E+02  0.56215623464E+02 -0.27482734682E+03  0.29200246968E+03  0.00000000000E+00 0.  1.
</event>
<event>
 7    1  0.2989693E-009  0.9893831E+02  0.7561462E-02  0.1282544E+00
          4   -1    0    0  501    0  0.00000000000E+00  0.00000000000E+00  0.95645049981E+02  0.95645049981E+02  0.00000000000E+00 0.  1.
         -4   -1    0    0    0  501 -0.00000000000E+00 -0.00000000000E+00 -0.21346522955E+03  0.21346522955E+03  0.00000000000E+00 0. -1.
         25    2    1    2    0    0  0.39916407083E+02  0.42599894978E+02 -0.13348447250E+03  0.19202579520E+03  0.12509089102E+03 0.  0.
          5    1    3    3  502    0  0.55738007734E+02  0.50565806333E+02 -0.21230612486E+02  0.78306050742E+02  0.41800000000E+01 0. -1.
         -5    1    3    3    0  502 -0.15821600650E+02 -0.79659113551E+01 -0.11225386002E+03  0.11371974446E+03  0.41800000000E+01 0. -1.
        -11    1    1    2    0    0  0.23532705922E+02 -0.32392606756E+02 -0.18720828116E+02  0.44198853218E+02  0.00000000000E+00 0.  1.
         11    1    1    2    0    0 -0.63449113005E+02 -0.10207288221E+02  0.34385121046E+02  0.72885631117E+02  0.00000000000E+00 0. -1.
</event>
<event>
 7    1  0.2989693E-009  0.1203362E+03  0.7561462E-02  0.1242543E+00
          1   -1    0    0  501    0  0.00000000000E+00  0.00000000000E+00  0.46935052970E+03  0.46935052970E+03  0.00000000000E+00 0. -1.
         -1   -1    0    0    0  501 -0.00000000000E+00 -0.00000000000E+00 -0.40410159644E+02  0.40410159644E+02  0.00000000000E+00 0.  1.
         25    2    1    2    0    0 -0.27614739732E+02  0.66761703355E+02  0.15828343948E+03  0.21429212434E+03  0.12509104067E+03 0.  0.
          5    1    3    3  502    0 -0.50833083396E+02  0.93872048935E+02  0.13174353974E+03  0.16961661653E+03  0.41800000000E+01 0.  1.
         -5    1    3    3    0  502  0.23218343665E+02 -0.27110345581E+02  0.26539899736E+02  0.44675507809E+02  0.41800000000E+01 0.  1.
        -11    1    1    2    0    0 -0.20952278573E+01 -0.68127203088E+02  0.92796217989E+02  0.11513836829E+03  0.00000000000E+00 0.  1.
         11    1    1    2    0    0  0.29709967589E+02  0.13654997338E+01  0.17786071259E+03  0.18033019671E+03  0.00000000000E+00 0. -1.
</event>
<event>
 7    1  0.2989693E-009  0.9194330E+02  0.7561462E-02  0.1298213E+00
         -1   -1    0    0    0  501 -0.00000000000E+00  0.00000000000E+00  0.41518216605E+02  0.41518216605E+02  0.00000000000E+00 0.  1.
          1   -1    0    0  501    0  0.00000000000E+00 -0.00000000000E+00 -0.31258244280E+03  0.31258244280E+03  0.00000000000E+00 0. -1.
         25    2    1    2    0    0 -0.34902819731E+02  0.46052949444E+01 -0.17747581635E+03  0.21996171316E+03  0.12508426880E+03 0.  0.
          5    1    3    3  502    0 -0.37321769770E+02  0.38512160070E+02 -0.17775039059E+03  0.18571153633E+03  0.41800000000E+01 0. -1.
         -5    1    3    3    0  502  0.24189500390E+01 -0.33906865126E+02  0.27457424035E+00  0.34250176831E+02  0.41800000000E+01 0. -1.
        -11    1    1    2    0    0  0.41541886598E+02 -0.41286266913E+02 -0.52415392758E+02  0.78598076158E+02  0.00000000000E+00 0.  1.
         11    1    1    2    0    0 -0.66390668677E+01  0.36680971968E+02 -0.41173017081E+02  0.55540870078E+02  0.00000000000E+00 0. -1.
</event>
<event>
 7    1  0.2989693E-009  0.1263794E+03  0.7561462E-02  0.1232929E+00
          1   -1    0    0  501    0  0.00000000000E+00  0.00000000000E+00  0.71272540055E+02  0.71272540055E+02  0.00000000000E+00 0. -1.
         -1   -1    0    0    0  501 -0.00000000000E+00 -0.00000000000E+00 -0.28329845309E+03  0.28329845309E+03  0.00000000000E+00 0.  1.
         25    2    1    2    0    0 -0.69371865879E+02  0.57713329820E+02 -0.10088965258E+03  0.18430830663E+03  0.12509015022E+03 0.  0.
          5    1    3    3  502    0  0.29254558750E+02 -0.87415322067E+01 -0.44505251208E+01  0.31137166969E+02  0.41800000000E+01 0. -1.
         -5    1    3    3    0  502 -0.98626424629E+02  0.66454862027E+02 -0.96439127454E+02  0.15317113966E+03  0.41800000000E+01 0. -1.
        -11    1    1    2    0    0  0.31173186438E+02 -0.56729688382E+02 -0.14483905314E+02  0.66331053133E+02  0.00000000000E+00 0. -1.
         11    1    1    2    0    0  0.38198679440E+02 -0.98364143884E+00 -0.96652355143E+02  0.10393163338E+03  0.00000000000E+00 0.  1.
</event>
<event>
 7    1  0.2989693E-009  0.1133569E+03  0.7561462E-02  0.1254477E+00
         -1   -1    0    0    0  501 -0.00000000000E+00  0.00000000000E+00  0.23485802684E+03  0.23485802684E+03  0.00000000000E+00 0.  1.
          1   -1    0    0  501    0  0.00000000000E+00 -0.00000000000E+00 -0.60099087864E+02  0.60099087864E+02  0.00000000000E+00 0. -1.
         25    2    1    2    0    0  0.31889351658E+02 -0.25040982613E+02  0.83032158311E+02  0.15551682524E+03  0.12508861683E+03 0.  0.
          5    1    3    3  502    0  0.74860457164E+02 -0.34000375159E+02  0.73592596281E+02  0.11042398374E+03  0.41800000000E+01 0.  1.
         -5    1    3    3    0  502 -0.42971105507E+02  0.89593925469E+01  0.94395620300E+01  0.45092841501E+02  0.41800000000E+01 0.  1.
        -11    1    1    2    0    0 -0.56764757619E+02 -0.96775290399E+01  0.31589305896E+02  0.65679346243E+02  0.00000000000E+00 0. -1.
         11    1    1    2    0    0  0.24875405961E+02  0.34718511652E+02  0.60137474766E+02  0.73760943217E+02  0.00000000000E+00 0.  1.
</event>
<event>
 7    1  0.2989693E-009  0.1346899E+03  0.7561462E-02  0.1220658E+00
         -2   -1    0    0    0  501 -0.00000000000E+00  0.00000000000E+00  0.21268722141E+03  0.21268722141E+03  0.00000000000E+00 0. -1.
          2   -1    0    0  501    0  0.00000000000E+00 -0.00000000000E+00 -0.15088424554E+03  0.15088424554E+03  0.00000000000E+00 0.  1.
         25    2    1    2    0    0  0.51998304471E+02 -0.11203571282E+03  0.10764308935E+03  0.20613324671E+03  0.12509219041E+03 0.  0.
          5    1    3    3  502    0  0.55729248947E+02 -0.90920247652E+02  0.13438184685E+03  0.17160476038E+03  0.41800000000E+01 0.  1.
         -5    1    3    3    0  502 -0.37309444766E+01 -0.21115465164E+02 -0.26738757501E+02  0.34528486334E+02  0.41800000000E+01 0.  1.
        -11    1    1    2    0    0 -0.85023962967E+01 -0.88895647591E+01  0.11386738919E+02  0.16762247093E+02  0.00000000000E+00 0. -1.
         11    1    1    2    0    0 -0.43495908174E+02  0.12092527758E+03 -0.57226852404E+02  0.14067597315E+03  0.00000000000E+00 0.  1.
</event>
<event>
 7    1  0.2989693E-009  0.1158901E+03  0.7561462E-02  0.1250035E+00
         -3   -1    0    0    0  501 -0.00000000000E+00  0.00000000000E+00  0.44337787682E+02  0.44337787682E+02  0.00000000000E+00 0.  1.
          3   -1    0    0  501    0  0.00000000000E+00 -0.00000000000E+00 -0.40580814351E+03  0.40580814351E+03  0.00000000000E+00 0. -1.
         25    2    1    2    0    0 -0.53097728905E+02 -0.36731928071E+02 -0.26805028635E+03  0.30276428009E+03  0.12508656977E+03 0.  0.
          5    1    3    3  502    0 -0.81111857313E+02 -0.15794558005E+02 -0.24969286004E+03  0.26304485970E+03  0.41800000000E+01 0.  1.
         -5    1    3    3    0  502  0.28014128408E+02 -0.20937370066E+02 -0.18357426303E+02  0.39719420391E+02  0.41800000000E+01 0.  1.
        -11    1    1    2    0    0  0.77270107486E+02  0.43554462427E+02 -0.69338255592E+02  0.11258532052E+03  0.00000000000E+00 0.  1.
         11    1    1    2    0    0 -0.24172378581E+02 -0.68225343561E+01 -0.24081813886E+02  0.34796330573E+02  0.00000000000E+00 0. -1.
</event>
<event>
 7    1  0.2989693E-009  0.9677500E+02  0.7561462E-02  0.1287228E+00
         -3   -1    0    0    0  501 -0.00000000000E+00  0.00000000000E+00  0.11337898624E+04  0.11337898624E+04  0.00000000000E+00 0. -1.
          3   -1    0    0  501    0  0.00000000000E+00 -0.00000000000E+00 -0.11684628495E+02  0.11684628495E+02  0.00000000000E+00 0.  1.
         25    2    1    2    0    0  0.23471502564E+02  0.41373961294E+01  0.78037535274E+03  0.79069661585E+03  0.12508963854E+03 0.  0.
          5    1    3    3  502    0 -0.15780233293E+01  0.51087067377E+02  0.61008355934E+03  0.61223508588E+03  0.41800000000E+01 0.  1.
         -5    1    3    3    0  502  0.25049525893E+02 -0.46949671248E+02  0.17029179340E+03  0.17846152996E+03  0.41800000000E+01 0.  1.
        -11    1    1    2    0    0  0.31397394888E+02 -0.11691114365E+02  0.71906410691E+02  0.79328497146E+02  0.00000000000E+00 0.  1.
         11    1    1    2    0    0 -0.54868897452E+02  0.75537182356E+01  0.26982347044E+03  0.27544937787E+03  0.00000000000E+00 0. -1.
</event>
<event>
 7    1  0.2989693E-009  0.1027255E+03  0.7561462E-02  0.1274667E+00
         -1   -1    0    0    0  501 -0.00000000000E+00  0.00000000000E+00  0.59555930942E+02  0.59555930942E+02  0.00000000000E+00 0.  1.
          1   -1    0    0  501    0  0.00000000000E+00 -0.00000000000E+00 -0.33739754319E+03  0.33739754319E+03  0.00000000000E+00 0. -1.
         25    2    1    2    0    0  0.74289024225E+02 -0.52978762882E+02 -0.15808675092E+03  0.22127923011E+03  0.12508984141E+03 0.  0.
          5    1    3    3  502    0  0.83550719673E+02 -0.44247949335E+02 -0.17545151431E+03  0.19934720979E+03  0.41800000000E+01 0.  1.
         -5    1    3    3    0  502 -0.92616954477E+01 -0.87308135468E+01  0.17364763386E+02  0.21932020317E+02  0.41800000000E+01 0.  1.
        -11    1    1    2    0    0 -0.71863944097E+02  0.36204197769E+02 -0.32492210006E+02  0.86780839524E+02  0.00000000000E+00 0.  1.
         11    1    1    2    0    0 -0.24250801282E+01  0.16774565113E+02 -0.87262651320E+02  0.88893404500E+02  0.00000000000E+00 0. -1.
</event>
<event>
 7    1  0.2989693E-009  0.3466819E+03  0.7561462E-02  0.1063985E+00
          1   -1    0    0  501    0  0.00000000000E+00  0.00000000000E+00  0.81966663553E+03  0.81966663553E+03  0.00000000000E+00 0. -1.
         -1   -1    0    0    0  501 -0.00000000000E+00 -0.00000000000E+00 -0.16175013895E+03  0.16175013895E+03  0.00000000000E+00 0.  1.
         25    2    1    2    0    0 -0.24417091363E+03  0.23494378168E+03  0.43437959434E+03  0.56493439105E+03  0.12508884283E+03 0.  0.
          5    1    3    3  502    0 -0.14883872238E+03  0.80729001183E+02  0.14270072151E+03  0.22147484108E+03  0.41800000000E+01 0.  1.
         -5    1    3    3    0  502 -0.95332191257E+02  0.15421478050E+03  0.29167887283E+03  0.34345954997E+03  0.41800000000E+01 0. -1.
        -11    1    1    2    0    0  0.56861125803E+02 -0.87078245734E+02  0.27308132941E+02  0.10752461408E+03  0.00000000000E+00 0.  1.
         11    1    1    2    0    0  0.18730978783E+03 -0.14786553595E+03  0.19622876931E+03  0.30895776935E+03  0.00000000000E+00 0. -1.
</event>
<event>
 7    1  0.2989693E-009  0.1344589E+03  0.7561462E-02  0.1220986E+00
         -2   -1    0    0    0  501 -0.00000000000E+00  0.00000000000E+00  0.93451037641E+02  0.93451037641E+02  0.00000000000E+00 0.  1.
          2   -1    0    0  501    0  0.00000000000E+00 -0.00000000000E+00 -0.30162359476E+03  0.30162359476E+03  0.00000000000E+00 0. -1.
         25    2    1    2    0    0 -0.10110849424E+03  0.73085451393E+02 -0.13757899105E+03  0.22389975018E+03  0.12505482212E+03 0.  0.
          5    1    3    3  502    0 -0.96448874659E+02  0.39257657368E+02 -0.15386521547E+03  0.18583736442E+03  0.41800000000E+01 0. -1.
         -5    1    3    3    0  502 -0.46596195848E+01  0.33827794025E+02  0.16286224417E+02  0.38062385751E+02  0.41800000000E+01 0. -1.
        -11    1    1    2    0    0  0.64532580397E+02 -0.67350435929E+02 -0.20820635206E+01  0.93299893574E+02  0.00000000000E+00 0.  1.
         11    1    1    2    0    0  0.36575913847E+02 -0.57350154639E+01 -0.68511502548E+02  0.77874988651E+02  0.00000000000E+00 0. -1.
</event>
<event>
 7    1  0.2989693E-009  0.1249070E+03  0.7561462E-02  0.1235215E+00
          4   -1    0    0  501    0  0.00000000000E+00  0.00000000000E+00  0.84873785687E+02  0.84873785687E+02  0.00000000000E+00 0. -1.
         -4   -1    0    0    0  501 -0.00000000000E+00 -0.00000000000E+00 -0.29655925541E+03  0.29655925541E+03  0.00000000000E+00 0.  1.
         25    2    1    2    0    0 -0.33066485724E+02 -0.10334470706E+03 -0.67507627235E+02  0.17882385312E+03  0.12508864759E+03 0.  0.
          5    1    3    3  502    0 -0.24961772378E+02 -0.58382833160E+02  0.30533950530E+02  0.70579315830E+02  0.41800000000E+01 0. -1.
         -5    1    3    3    0  502 -0.81047133463E+01 -0.44961873902E+02 -0.98041577764E+02  0.10824453729E+03  0.41800000000E+01 0. -1.
        -11    1    1    2    0    0  0.51014186570E+02  0.19587475504E+02 -0.39909703686E+02  0.67667576255E+02  0.00000000000E+00 0. -1.
         11    1    1    2    0    0 -0.17947700846E+02  0.83757231558E+02 -0.10426813880E+03  0.13494161172E+03  0.00000000000E+00 0.  1.
</event>
<event>
 6    1  0.2989693E-009  0.1615426E+03  0.7561462E-02  0.1186966E+00
         -4   -1    0    0    0  501 -0.00000000000E+00  0.00000000000E+00  0.58621301040E+03  0.58621301040E+03  0.00000000000E+00 0.  1.
          4   -1    0    0  501    0  0.00000000000E+00 -0.00000000000E+00 -0.51807411643E+02  0.51807411643E+02  0.00000000000E+00 0. -1.
          5    1    1    2  502    0 -0.35118360683E+02  0.62150232287E+02  0.20103631005E+03  0.21337530548E+03  0.41800000000E+01 0. -1.
         -5    1    1    2    0  502  0.89286745557E+02  0.48046543967E+02  0.19524537291E+03  0.22004277167E+03  0.41800000000E+01 0. -1.
        -11    1    1    2    0    0 -0.63131578737E+02 -0.30885917571E+02  0.75517454358E+02  0.10316211539E+03  0.00000000000E+00 0.  1.
         11    1    1    2    0    0  0.89631938627E+01 -0.79310858683E+02  0.62606461437E+02  0.10144022951E+03  0.00000000000E+00 0. -1.
</event>
<event>
 7    1  0.2989693E-009  0.1191663E+03  0.7561462E-02  0.1244479E+00
         -2   -1    0    0    0  501 -0.00000000000E+00  0.00000000000E+00  0.45623566563E+02  0.45623566563E+02  0.00000000000E+00 0. -1.
          2   -1    0    0  501    0  0.00000000000E+00 -0.00000000000E+00 -0.39368631046E+03  0.39368631046E+03  0.00000000000E+00 0.  1.
         25    2    1    2    0    0 -0.29722223114E+02 -0.63919619632E+02 -0.13834924379E+03  0.19939740464E+03  0.12509869464E+03 0.  0.
          5    1    3    3  502    0 -0.26441535339E+02 -0.93181047597E+02 -0.56270499804E+02  0.11209685085E+03  0.41800000000E+01 0.  1.
         -5    1    3    3    0  502 -0.32806877750E+01  0.29261427965E+02 -0.82078743982E+02  0.87300553793E+02  0.41800000000E+01 0.  1.
        -11    1    1    2    0    0 -0.30789124489E+02  0.17845643275E+02 -0.37743503645E+02  0.51874938439E+02  0.00000000000E+00 0. -1.
         11    1    1    2    0    0  0.60511347603E+02  0.46073976357E+02 -0.17196999646E+03  0.18803753394E+03  0.00000000000E+00 0.  1.
</event>
<event>
 7    1  0.2989693E-009  0.1154218E+03  0.7561462E-02  0.1250847E+00
         -3   -1    0    0    0  501 -0.00000000000E+00  0.00000000000E+00  0.67630391574E+03  0.67630391574E+03  0.00000000000E+00 0.  1.
          3   -1    0    0  501    0  0.00000000000E+00 -0.00000000000E+00 -0.35600736358E+02  0.35600736358E+02  0.00000000000E+00 0. -1.
         25    2    1    2    0    0  0.28646595108E+02  0.96095144758E+02  0.44443707715E+03  0.47246843932E+03  0.12508879386E+03 0.  0.
          5    1    3    3  502    0 -0.22633720063E+02  0.46982818260E+02  0.35182916208E+03  0.35569776804E+03  0.41800000000E+01 0. -1.
         -5    1    3    3    0  502  0.51280315172E+02  0.49112326498E+02  0.92607915072E+02  0.11677067128E+03  0.41800000000E+01 0. -1.
        -11    1    1    2    0    0 -0.34759550000E+02 -0.49975151505E+02  0.18021981985E+03  0.19022335701E+03  0.00000000000E+00 0.  1.
         11    1    1    2    0    0  0.61129548917E+01 -0.46119993253E+02  0.16046282382E+02  0.49212855775E+02  0.00000000000E+00 0. -1.
</event>
<event>
 7    1  0.2989693E-009  0.8731181E+02  0.7561462E-02  0.1309495E+00
          1   -1    0    0  501    0  0.00000000000E+00  0.00000000000E+00  0.17561284203E+03  0.17561284203E+03  0.00000000000E+00 0. -1.
         -1   -1    0    0    0  501 -0.00000000000E+00 -0.00000000000E+00 -0.96476441354E+02  0.96476441354E+02  0.00000000000E+00 0.  1.
         25    2    1    2    0    0  0.44097732112E+02 -0.43417492315E+02  0.85040997305E+02  0.16342918960E+03  0.12508972850E+03 0.  0.
          5    1    3    3  502    0 -0.82927615675E+01 -0.20292696652E+02  0.10131846344E+03  0.10374712943E+03  0.41800000000E+01 0. -1.
         -5    1    3    3    0  502  0.52390493680E+02 -0.23124795662E+02 -0.16277466134E+02  0.59682060170E+02  0.41800000000E+01 0. -1.
        -11    1    1    2    0    0 -0.12281187618E+02  0.58430163694E+02 -0.29201262687E+02  0.66465219033E+02  0.00000000000E+00 0.  1.
         11    1    1    2    0    0 -0.31816544495E+02 -0.15012671379E+02  0.23296666059E+02  0.42194874748E+02  0.00000000000E+00 0. -1.
</event>
<event>
 7    1  0.2989693E-009  0.5532620E+02  0.7561462E-02  0.1418563E+00
         -2   -1    0    0    0  501 -0.00000000000E+00  0.00000000000E+00  0.87232830921E+02  0.87232830921E+02  0.00000000000E+00 0.  1.
          2   -1    0    0  501    0  0.00000000000E+00 -0.00000000000E+00 -0.14032161173E+03  0.14032161173E+03  0.00000000000E+00 0. -1.
         25    2    1    2    0    0 -0.43132163332E+01  0.19151660812E+02 -0.51247016403E+02  0.13659709618E+03  0.12508844890E+03 0.  0.
          5    1    3    3  502    0  0.11479571129E+02 -0.22062834574E+02 -0.79916062690E+02  0.83800946883E+02  0.41800000000E+01 0.  1.
         -5    1    3    3    0  502 -0.15792787463E+02  0.41214495386E+02  0.28669046286E+02  0.52796149298E+02  0.41800000000E+01 0.  1.
        -11    1    1    2    0    0 -0.75981290048E+01  0.82526280617E+01 -0.40541107228E+02  0.42064460172E+02  0.00000000000E+00 0. -1.
         11    1    1    2    0    0  0.11911345338E+02 -0.27404288874E+02  0.38699342818E+02  0.48892886302E+02  0.00000000000E+00 0.  1.
</event>
<event>
 6    1  0.2989693E-009  0.1420127E+03  0.7561462E-02  0.1210646E+00
          4   -1    0    0  501    0  0.00000000000E+00  0.00000000000E+00  0.14876376559E+03  0.14876376559E+03  0.00000000000E+00 0. -1.
         -4   -1    0    0    0  501 -0.00000000000E+00 -0.00000000000E+00 -0.15366819945E+03  0.15366819945E+03  0.00000000000E+00 0.  1.
          5    1    1    2  502    0 -0.30064528343E+02 -0.11537075201E+03  0.19427773990E+02  0.12086851156E+03  0.41800000000E+01 0.  1.
         -5    1    1    2    0  502 -0.17694300156E+02  0.33008673771E+02  0.18664208168E+02  0.42053369290E+02  0.41800000000E+01 0.  1.
        -11    1    1    2    0    0  0.23074061244E+02  0.96074280308E+02 -0.49531342196E+02  0.11052616658E+03  0.00000000000E+00 0.  1.
         11    1    1    2    0    0  0.24684767256E+02 -0.13712202070E+02  0.65349261871E+01  0.28983917616E+02  0.00000000000E+00 0. -1.
</event>
<event>
 7    1  0.2989693E-009  0.2175284E+03  0.7561462E-02  0.1135739E+00
          2   -1    0    0  501    0  0.00000000000E+00  0.00000000000E+00  0.77232300045E+03  0.77232300045E+03  0.00000000000E+00 0.  1.
         -2   -1    0    0    0  501 -0.00000000000E+00 -0.00000000000E+00 -0.72868917298E+02  0.72868917298E+02  0.00000000000E+00 0. -1.
         25    2    1    2    0    0  0.61566721850E+02  0.19048193908E+03  0.47858866100E+03  0.53362836118E+03  0.12505315295E+03 0.  0.
          5    1    3    3  502    0  0.41819739294E+02  0.24939922942E+02  0.36105289501E+02  0.60761457199E+02  0.41800000000E+01 0.  1.
         -5    1    3    3    0  502  0.19746982555E+02  0.16554201614E+03  0.44248337150E+03  0.47286690398E+03  0.41800000000E+01 0.  1.
        -11    1    1    2    0    0 -0.84780047987E+02 -0.16033104853E+03  0.17584925038E+03  0.25261959647E+03  0.00000000000E+00 0. -1.
         11    1    1    2    0    0  0.23213326138E+02 -0.30150890549E+02  0.45016171779E+02  0.58943960106E+02  0.00000000000E+00 0.  1.
</event>
<event>
 7    1  0.2989693E-009  0.6421303E+02  0.7561462E-02  0.1380956E+00
         -2   -1    0    0    0  501 -0.00000000000E+00  0.00000000000E+00  0.30723975652E+03  0.30723975652E+03  0.00000000000E+00 0.  1.
          2   -1    0    0  501    0  0.00000000000E+00 -0.00000000000E+00 -0.44031216520E+02  0.44031216520E+02  0.00000000000E+00 0. -1.
         25    2    1    2    0    0  0.50412390200E+01 -0.14014833485E+02  0.21325443691E+03  0.24767698390E+03  0.12507839080E+03 0.  0.
          5    1    3    3  502    0 -0.47233194793E+02 -0.18523248128E+02  0.34909227832E+02  0.61726914708E+02  0.41800000000E+01 0. -1.
         -5    1    3    3    0  502  0.52274433813E+02  0.45084146433E+01  0.17834520908E+03  0.18595006920E+03  0.41800000000E+01 0. -1.
        -11    1    1    2    0    0  0.56401180929E+01  0.12980218250E+02  0.75011703838E+02  0.76335134182E+02  0.00000000000E+00 0.  1.
         11    1    1    2    0    0 -0.10681357113E+02  0.10346152348E+01 -0.25057600745E+02  0.27258854957E+02  0.00000000000E+00 0. -1.
</event>
<event>
 7    1  0.2989693E-009  0.1225865E+03  0.7561462E-02  0.1238890E+00
         -1   -1    0    0    0  501 -0.00000000000E+00  0.00000000000E+00  0.18349770694E+02  0.18349770694E+02  0.00000000000E+00 0.  1.
          1   -1    0    0  501    0  0.00000000000E+00 -0.00000000000E+00 -0.12401419107E+04  0.12401419107E+04  0.00000000000E+00 0. -1.
         25    2    1    2    0    0  0.64507567359E+02  0.82307408439E+02 -0.66681677005E+03  0.68646066380E+03  0.12509157605E+03 0.  0.
          5    1    3    3  502    0  0.38586922838E+02  0.65910203498E+02 -0.64265853078E+03  0.64719437970E+03  0.41800000000E+01 0. -1.
         -5    1    3    3    0  502  0.25920644520E+02  0.16397204941E+02 -0.24158239273E+02  0.39266284100E+02  0.41800000000E+01 0. -1.
        -11    1    1    2    0    0 -0.23200016913E+02  0.17925131589E+02 -0.14716000604E+03  0.15005205265E+03  0.00000000000E+00 0.  1.
         11    1    1    2    0    0 -0.41307550446E+02 -0.10023254003E+03 -0.40781536388E+03  0.42197896490E+03  0.00000000000E+00 0. -1.
</event>
<event>
 7    1  0.2989693E-009  0.1685219E+03  0.7561462E-02  0.1179398E+00
          2   -1    0    0  501    0  0.00000000000E+00  0.00000000000E+00  0.94515455225E+03  0.94515455225E+03  0.00000000000E+00 0. -1.
         -2   -1    0    0    0  501 -0.00000000000E+00 -0.00000000000E+00 -0.48399159418E+02  0.48399159418E+02  0.00000000000E+00 0.  1.
         25    2    1    2    0    0 -0.32945715388E+02 -0.14156322889E+03  0.72713663433E+03  0.75199657290E+03  0.12508234384E+03 0.  0.
          5    1    3    3  502    0  0.37795921162E+02 -0.58637793277E+01  0.13294785010E+03  0.13840346387E+03  0.41800000000E+01 0. -1.
         -5    1    3    3    0  502 -0.70741636550E+02 -0.13569944956E+03  0.59418878422E+03  0.61359310903E+03  0.41800000000E+01 0. -1.
        -11    1    1    2    0    0  0.61284695952E+01  0.38465635267E+02 -0.26178757311E+01  0.39038654042E+02  0.00000000000E+00 0.  1.
         11    1    1    2    0    0  0.26817245792E+02  0.10309759362E+03  0.17223663424E+03  0.20251848473E+03  0.00000000000E+00 0. -1.
</event>
<event>
 7    1  0.2989693E-009  0.2655891E+03  0.7561462E-02  0.1103831E+00
         -1   -1    0    0    0  501 -0.00000000000E+00  0.00000000000E+00  0.10026574538E+03  0.10026574538E+03  0.00000000000E+00 0.  1.
          1   -1    0    0  501    0  0.00000000000E+00 -0.00000000000E+00 -0.92642120558E+03  0.92642120558E+03  0.00000000000E+00 0. -1.
         25    2    1    2    0    0  0.22582403214E+03 -0.10040729615E+03 -0.65183822076E+03  0.70825020358E+03  0.12508863343E+03 0.  0.
          5    1    3    3  502    0 -0.15788606461E+02 -0.54505573887E+01 -0.35396298575E+02  0.39361898108E+02  0.41800000000E+01 0.  1.
         -5    1    3    3    0  502  0.24161263860E+03 -0.94956738757E+02 -0.61644192219E+03  0.66888830547E+03  0.41800000000E+01 0.  1.
        -11    1    1    2    0    0 -0.85519881677E+02  0.70581819999E+02 -0.12419437194E+03  0.16649229862E+03  0.00000000000E+00 0. -1.
         11    1    1    2    0    0 -0.14030415046E+03  0.29825476146E+02 -0.50122867498E+02  0.15194444876E+03  0.00000000000E+00 0.  1.
</event>
<event>
 7    1  0.2989693E-009  0.9998161E+02  0.7561462E-02  0.1280335E+00
          3   -1    0    0  501    0  0.00000000000E+00  0.00000000000E+00  0.10641408563E+03  0.10641408563E+03  0.00000000000E+00 0. -1.
         -3   -1    0    0    0  501 -0.00000000000E+00 -0.00000000000E+00 -0.12650799577E+03  0.12650799577E+03  0.00000000000E+00 0.  1.
         25    2    1    2    0    0 -0.97288638436E+01 -0.34872154096E+02  0.18467973736E+01  0.13023578298E+03  0.12508889073E+03 0.  0.
          5    1    3    3  502    0 -0.36085458204E+02  0.27135398063E+02  0.32808989812E+02  0.55967779429E+02  0.41800000000E+01 0. -1.
         -5    1    3    3    0  502  0.26356594360E+02 -0.62007552159E+02 -0.30962192438E+02  0.74268003552E+02  0.41800000000E+01 0. -1.
        -11    1    1    2    0    0  0.29753973307E+02 -0.15036918198E+02 -0.33953723346E+02  0.47584274351E+02  0.00000000000E+00 0.  1.
         11    1    1    2    0    0 -0.20025109464E+02  0.49909072294E+02  0.12013015834E+02  0.55102024062E+02  0.00000000000E+00 0. -1.
</event>
<event>
 7    1  0.2989693E-009  0.1247986E+03  0.7561462E-02  0.1235384E+00
          2   -1    0    0  501    0  0.00000000000E+00  0.00000000000E+00  0.18453143987E+03  0.18453143987E+03  0.00000000000E+00 0. -1.
         -2   -1    0    0    0  501 -0.00000000000E+00 -0.00000000000E+00 -0.13539778200E+03  0.13539778200E+03  0.00000000000E+00 0.  1.
         25    2    1    2    0    0 -0.11775914174E+03  0.36812943356E+02 -0.10427592087E+02  0.17602499381E+03  0.12511456952E+03 0.  0.
          5    1    3    3  502    0 -0.85230009917E+02  0.26369672224E+02 -0.65724922459E+02  0.11089072114E+03  0.41800000000E+01 0. -1.
         -5    1    3    3    0  502 -0.32529131827E+02  0.10443271132E+02  0.55297330372E+02  0.65134272665E+02  0.41800000000E+01 0. -1.
        -11    1    1    2    0    0  0.76977612887E+02 -0.36232327192E+02  0.20681227153E+02  0.87555968249E+02  0.00000000000E+00 0.  1.
         11    1    1    2    0    0  0.40781528857E+02 -0.58061616364E+00  0.38880022805E+02  0.56348259817E+02  0.00000000000E+00 0. -1.
</event>
<event>
 7    1  0.2989693E-009  0.1627045E+03  0.7561462E-02  0.1185677E+00
          3   -1    0    0  501    0  0.00000000000E+00  0.00000000000E+00  0.11229484394E+03  0.11229484394E+03  0.00000000000E+00 0. -1.
         -3   -1    0    0    0  501 -0.00000000000E+00 -0.00000000000E+00 -0.29734934070E+03  0.29734934070E+03  0.00000000000E+00 0.  1.
         25    2    1    2    0    0 -0.13623574778E+03  0.51693063511E+02 -0.68704732872E+02  0.20392909763E+03  0.12503753338E+03 0.  0.
          5    1    3    3  502    0 -0.82381720751E+02  0.81120281544E+00  0.23308193703E+02  0.85721352401E+02  0.41800000000E+01 0. -1.
         -5    1    3    3    0  502 -0.53854027030E+02  0.50881860696E+02 -0.92012926575E+02  0.11820774523E+03  0.41800000000E+01 0. -1.
        -11    1    1    2    0    0  0.70426078663E+02 -0.71123665811E+02 -0.79536525473E+02  0.12784548204E+03  0.00000000000E+00 0.  1.
         11    1    1    2    0    0  0.65809669117E+02  0.19430602300E+02 -0.36813238418E+02  0.77869604968E+02  0.00000000000E+00 0. -1.
</event>
<event>
 7    1  0.2989693E-009  0.1189070E+03  0.7561462E-02  0.1244911E+00
          2   -1    0    0  501    0  0.00000000000E+00  0.00000000000E+00  0.21398261451E+03  0.21398261451E+03  0.00000000000E+00 0. -1.
         -2   -1    0    0    0  501 -0.00000000000E+00 -0.00000000000E+00 -0.11736988607E+03  0.11736988607E+03  0.00000000000E+00 0.  1.
         25    2    1    2    0    0 -0.50128954651E+02 -0.81746862222E+02  0.11871004879E+03  0.19731969266E+03  0.12509006296E+03 0.  0.
          5    1    3    3  502    0 -0.65149593559E+02 -0.84849440021E+02  0.35778330394E+02  0.11287806846E+03  0.41800000000E+01 0.  1.
         -5    1    3    3    0  502  0.15020638908E+02  0.31025777987E+01  0.82931718398E+02  0.84441624206E+02  0.41800000000E+01 0.  1.
        -11    1    1    2    0    0 -0.85235104092E+01  0.44657309441E+02  0.23320726853E+02  0.51095810172E+02  0.00000000000E+00 0. -1.
         11    1    1    2    0    0  0.58652465060E+02  0.37089552781E+02 -0.45418047210E+02  0.82936997748E+02  0.00000000000E+00 0.  1.
</event>
<event>
 7    1  0.2989693E-009  0.1026937E+03  0.7561462E-02  0.1274731E+00
         -2   -1    0    0    0  501 -0.00000000000E+00  0.00000000000E+00  0.21278390967E+03  0.21278390967E+03  0.00000000000E+00 0. -1.
          2   -1    0    0  501    0  0.00000000000E+00 -0.00000000000E+00 -0.60114442610E+02  0.60114442610E+02  0.00000000000E+00 0.  1.
         25    2    1    2    0    0  0.22258541569E+02 -0.11615136698E+02  0.11396981050E+03  0.17107078203E+03  0.12508293523E+03 0.  0.
          5    1    3    3  502    0 -0.43830543837E+02 -0.16162202876E+02  0.10376393728E+02  0.48036187626E+02  0.41800000000E+01 0. -1.
         -5    1    3    3    0  502  0.66089085406E+02  0.45470661778E+01  0.10359341678E+03  0.12303459440E+03  0.41800000000E+01 0. -1.
        -11    1    1    2    0    0  0.34556898692E+02  0.45618374303E+01  0.45180357992E+01  0.35148289510E+02  0.00000000000E+00 0.  1.
         11    1    1    2    0    0 -0.56815440262E+02  0.70532992681E+01  0.34181620761E+02  0.66679280744E+02  0.00000000000E+00 0. -1.
</event>
<event>
 7    1  0.2989693E-009  0.1266162E+03  0.7561462E-02  0.1232565E+00
          2   -1    0    0  501    0  0.00000000000E+00  0.00000000000E+00  0.57324604050E+02  0.57324604050E+02  0.00000000000E+00 0.  1.
         -2   -1    0    0    0  501 -0.00000000000E+00 -0.00000000000E+00 -0.12342200929E+04  0.12342200929E+04  0.00000000000E+00 0. -1.
         25    2    1    2    0    0 -0.28842593663E+02 -0.10324654111E+03 -0.11357749571E+04  0.11476600759E+04  0.12508858088E+03 0.  0.
          5    1    3    3  502    0  0.27371068709E+02 -0.13425705888E+02 -0.63671202301E+03  0.63745517303E+03  0.41800000000E+01 0. -1.
         -5    1    3    3    0  502 -0.56213662372E+02 -0.89820835225E+02 -0.49906293410E+03  0.51020490282E+03  0.41800000000E+01 0. -1.
        -11    1    1    2    0    0  0.33866531320E+02  0.37697390841E+02 -0.56982812098E+02  0.76256646231E+02  0.00000000000E+00 0. -1.
         11    1    1    2    0    0 -0.50239376569E+01  0.65549150272E+02  0.15862280324E+02  0.67627974892E+02  0.00000000000E+00 0.  1.
</event>
<event>
 7    1  0.2989693E-009  0.9081415E+02  0.7561462E-02  0.1300892E+00
         -2   -1    0    0    0  501 -0.00000000000E+00  0.00000000000E+00  0.19701075179E+02  0.19701075179E+02  0.00000000000E+00 0.  1.
          2   -1    0    0  501    0  0.00000000000E+00 -0.00000000000E+00 -0.86254792457E+03  0.86254792457E+03  0.00000000000E+00 0. -1.
         25    2    1    2    0    0 -0.39211191017E+02  0.44726747190E+02 -0.59424794992E+03  0.61017721562E+03  0.12509040353E+03 0.  0.
          5    1    3    3  502    0 -0.20280800311E+02  0.54109961179E+02 -0.58301406617E+03  0.58588571626E+03  0.41800000000E+01 0.  1.
         -5    1    3    3    0  502 -0.18930390706E+02 -0.93832139891E+01 -0.11233883754E+02  0.24291499362E+02  0.41800000000E+01 0.  1.
        -11    1    1    2    0    0 -0.19080374776E+02  0.10565073823E+02 -0.10760528550E+03  0.10979334658E+03  0.00000000000E+00 0. -1.
         11    1    1    2    0    0  0.58291565793E+02 -0.55291821013E+02 -0.14099361396E+03  0.16227843754E+03  0.00000000000E+00 0.  1.
</event>
<event>
 7    1  0.2989693E-009  0.1190147E+03  0.7561462E-02  0.1244731E+00
          1   -1    0    0  501    0  0.00000000000E+00  0.00000000000E+00  0.10086436161E+04  0.10086436161E+04  0.00000000000E+00 0. -1.
         -1   -1    0    0    0  501 -0.00000000000E+00 -0.00000000000E+00 -0.14706373717E+02  0.14706373717E+02  0.00000000000E+00 0.  1.
         25    2    1    2    0    0  0.42539554136E+02 -0.33346664899E+02  0.50214612536E+03  0.52030826582E+03  0.12509335131E+03 0.  0.
          5    1    3    3  502    0  0.35933259421E+01  0.44778214421E+02  0.23303131989E+03  0.23735852402E+03  0.41800000000E+01 0.  1.
         -5    1    3    3    0  502  0.38946228194E+02 -0.78124879320E+02  0.26911480548E+03  0.28294974180E+03  0.41800000000E+01 0.  1.
        -11    1    1    2    0    0  0.27631560791E+02  0.19948647031E+02  0.17626676620E+03  0.17953112415E+03  0.00000000000E+00 0.  1.
         11    1    1    2    0    0 -0.70171114927E+02  0.13398017868E+02  0.31552435079E+03  0.32351059982E+03  0.00000000000E+00 0. -1.
</event>
<event>
 7    1  0.2989693E-009  0.2852880E+03  0.7561462E-02  0.1092835E+00
         -2   -1    0    0    0  501 -0.00000000000E+00  0.00000000000E+00  0.85660488570E+02  0.85660488570E+02  0.00000000000E+00 0.  1.
          2   -1    0    0  501    0  0.00000000000E+00 -0.00000000000E+00 -0.10035016374E+04  0.10035016374E+04  0.00000000000E+00 0. -1.
         25    2    1    2    0    0 -0.13896367770E+03 -0.23183378810E+03 -0.52371146159E+03  0.60247739044E+03  0.12508997549E+03 0.  0.
          5    1    3    3  502    0 -0.49546411829E+01 -0.12758162783E+03 -0.23714024285E+03  0.26935958756E+03  0.41800000000E+01 0. -1.
         -5    1    3    3    0  502 -0.13400903652E+03 -0.10425216028E+03 -0.28657121873E+03  0.33311780288E+03  0.41800000000E+01 0. -1.
        -11    1    1    2    0    0  0.58520471868E+02  0.63068205352E+02 -0.19716313883E+03  0.21511752013E+03  0.00000000000E+00 0.  1.
         11    1    1    2    0    0  0.80443205834E+02  0.16876558275E+03 -0.19696654842E+03  0.27156721541E+03  0.00000000000E+00 0. -1.
</event>
<event>
 7    1  0.2989693E-009  0.2148428E+03  0.7561462E-02  0.1137787E+00
         -2   -1    0    0    0  501 -0.00000000000E+00  0.00000000000E+00  0.26028719074E+02  0.26028719074E+02  0.00000000000E+00 0.  1.
          2   -1    0    0  501    0  0.00000000000E+00 -0.00000000000E+00 -0.19701928914E+04  0.19701928914E+04  0.00000000000E+00 0. -1.
         25    2    1    2    0    0  0.15026521341E+03 -0.11978399381E+03 -0.12282971194E+04  0.12495161935E+04  0.12509622153E+03 0.  0.
          5    1    3    3  502    0  0.17038923268E+03 -0.10303062433E+03 -0.11420199851E+04  0.11592561921E+04  0.41800000000E+01 0.  1.
         -5    1    3    3    0  502 -0.20124019272E+02 -0.16753369484E+02 -0.86277134322E+02  0.90260001372E+02  0.41800000000E+01 0.  1.
        -11    1    1    2    0    0 -0.23166635274E+02  0.58471018282E+02 -0.13482158351E+03  0.14876966206E+03  0.00000000000E+00 0. -1.
         11    1    1    2    0    0 -0.12709857814E+03  0.61312975530E+02 -0.58104546938E+03  0.59793575493E+03  0.00000000000E+00 0.  1.
</event>
<event>
 7    1  0.2989693E-009  0.1124038E+03  0.7561462E-02  0.1256182E+00
         -1   -1    0    0    0  501 -0.00000000000E+00  0.00000000000E+00  0.32649455136E+02  0.32649455136E+02  0.00000000000E+00 0.  1.
          1   -1    0    0  501    0  0.00000000000E+00 -0.00000000000E+00 -0.48021024493E+03  0.48021024493E+03  0.00000000000E+00 0. -1.
         25    2    1    2    0    0  0.22387952138E+02  0.56508660374E+02 -0.26489269711E+03  0.29918227802E+03  0.12508974938E+03 0.  0.
          5    1    3    3  502    0 -0.50828404944E+02  0.36868576287E+02 -0.11164021950E+03  0.12815549023E+03  0.41800000000E+01 0.  1.
         -5    1    3    3    0  502  0.73216357082E+02  0.19640084087E+02 -0.15325247761E+03  0.17102678779E+03  0.41800000000E+01 0.  1.
        -11    1    1    2    0    0  0.10053366963E+02 -0.52283825754E+02 -0.38140207192E+02  0.65493083814E+02  0.00000000000E+00 0.  1.
         11    1    1    2    0    0 -0.32441319101E+02 -0.42248346199E+01 -0.14452788549E+03  0.14818433823E+03  0.00000000000E+00 0. -1.
</event>
<event>
 7    1  0.2989693E-009  0.1151619E+03  0.7561462E-02  0.1251299E+00
         -1   -1    0    0    0  501 -0.00000000000E+00  0.00000000000E+00  0.75823019940E+02  0.75823019940E+02  0.00000000000E+00 0.  1.
          1   -1    0    0  501    0  0.00000000000E+00 -0.00000000000E+00 -0.20261355199E+03  0.20261355199E+03  0.00000000000E+00 0. -1.
         25    2    1    2    0    0  0.56289930948E+02  0.75508186831E+01 -0.50717760327E+02  0.14642792962E+03  0.12507308332E+03 0.  0.
          5    1    3    3  502    0  0.62884030957E+02 -0.44793630508E+02 -0.67326135180E+01  0.77612313251E+02  0.41800000000E+01 0. -1.
         -5    1    3    3    0  502 -0.65941000086E+01  0.52344449191E+02 -0.43985146809E+02  0.68815616366E+02  0.41800000000E+01 0. -1.
        -11    1    1    2    0    0 -0.51970932385E+02  0.31513078191E+02 -0.69215158341E+02  0.92112920127E+02  0.00000000000E+00 0. -1.
         11    1    1    2    0    0 -0.43189985637E+01 -0.39063896875E+02 -0.68576133840E+01  0.39895722189E+02  0.00000000000E+00 0.  1.
</event>
<event>
 7    1  0.2989693E-009  0.1109955E+03  0.7561462E-02  0.1258737E+00
         -1   -1    0    0    0  501 -0.00000000000E+00  0.00000000000E+00  0.84093393157E+02  0.84093393157E+02  0.00000000000E+00 0.  1.
          1   -1    0    0  501    0  0.00000000000E+00 -0.00000000000E+00 -0.33417544074E+03  0.33417544074E+03  0.00000000000E+00 0. -1.
         25    2    1    2    0    0  0.20877626386E+02  0.35786902241E+02  0.17620492735E+02  0.13294023329E+03  0.12508415650E+03 0.  0.
          5    1    3    3  502    0  0.63476205657E+02  0.50059563249E+02 -0.75058414894E+01  0.81295747821E+02  0.41800000000E+01 0.  1.
         -5    1    3    3    0  502 -0.42598579271E+02 -0.14272661008E+02  0.25126334225E+02  0.51644485473E+02  0.41800000000E+01 0.  1.
        -11    1    1    2    0    0 -0.34436407768E+02  0.19104832208E+02 -0.14451797779E+03  0.14978753852E+03  0.00000000000E+00 0.  1.
         11    1    1    2    0    0  0.13558781383E+02 -0.54891734449E+02 -0.12318456254E+03  0.13554106208E+03  0.00000000000E+00 0. -1.
</event>
<event>
 7    1  0.2989693E-009  0.1972434E+03  0.7561462E-02  0.1152086E+00
          1   -1    0    0  501    0  0.00000000000E+00  0.00000000000E+00  0.14582284373E+03  0.14582284373E+03  0.00000000000E+00 0. -1.
         -1   -1    0    0    0  501 -0.00000000000E+00 -0.00000000000E+00 -0.46003136779E+03  0.46003136779E+03  0.00000000000E+00 0.  1.
         25    2    1    2    0    0 -0.15048607335E+03  0.87487180602E+02 -0.35712918359E+03  0.41652238708E+03  0.12509828185E+03 0.  0.
          5    1    3    3  502    0 -0.89624476008E+02 -0.18307797944E+02 -0.13697601266E+03  0.16476535622E+03  0.41800000000E+01 0.  1.
         -5    1    3    3    0  502 -0.60861597342E+02  0.10579497855E+03 -0.22015317094E+03  0.25175703087E+03  0.41800000000E+01 0.  1.
        -11    1    1    2    0    0  0.24439553959E+02 -0.38415310205E+02 -0.50628258827E+01  0.45811134692E+02  0.00000000000E+00 0.  1.
         11    1    1    2    0    0  0.12604651939E+03 -0.49071870397E+02  0.47983485414E+02  0.14352068975E+03  0.00000000000E+00 0. -1.
</event>
<event>
 7    1  0.2989693E-009  0.1456161E+03  0.7561462E-02  0.1205966E+00
          1   -1    0    0  501    0  0.00000000000E+00  0.00000000000E+00  0.85393006010E+03  0.85393006010E+03  0.00000000000E+00 0. -1.
         -1   -1    0    0    0  501 -0.00000000000E+00 -0.00000000000E+00 -0.27738065367E+02  0.27738065367E+02  0.00000000000E+00 0.  1.
         25    2    1    2    0    0 -0.58652229379E+02  0.79531466290E+02  0.31478288359E+03  0.35284912223E+03  0.12509556792E+03 0.  0.
          5    1    3    3  502    0 -0.88882714581E+02  0.18861658159E+02  0.16561192359E+03  0.18894623769E+03  0.41800000000E+01 0.  1.
         -5    1    3    3    0  502  0.30230485202E+02  0.60669808131E+02  0.14917096000E+03  0.16390288454E+03  0.41800000000E+01 0.  1.
        -11    1    1    2    0    0 -0.17820054636E+02  0.48644834763E+01  0.11106295590E+03  0.11258862163E+03  0.00000000000E+00 0. -1.
         11    1    1    2    0    0  0.76472284015E+02 -0.84395949767E+02  0.40034615524E+03  0.41623038161E+03  0.00000000000E+00 0.  1.
</event>
<event>
 7    1  0.2989693E-009  0.1239047E+03  0.7561462E-02  0.1236791E+00
          2   -1    0    0  501    0  0.00000000000E+00  0.00000000000E+00  0.13551384976E+03  0.13551384976E+03  0.00000000000E+00 0. -1.
         -2   -1    0    0    0  501 -0.00000000000E+00 -0.00000000000E+00 -0.15275639911E+03  0.15275639911E+03  0.00000000000E+00 0.  1.
         25    2    1    2    0    0  0.58223314301E+02 -0.15783839110E+02  0.63335864956E+02  0.15263585676E+03  0.12508872480E+03 0.  0.
          5    1    3    3  502    0  0.19913621690E+02  0.54754255231E+02  0.29276259912E+02  0.65338752583E+02  0.41800000000E+01 0.  1.
         -5    1    3    3    0  502  0.38309692611E+02 -0.70538094341E+02  0.34059605044E+02  0.87297104173E+02  0.41800000000E+01 0.  1.
        -11    1    1    2    0    0 -0.75845827394E+02 -0.11323041122E+02 -0.54187859970E+02  0.93899547185E+02  0.00000000000E+00 0.  1.
         11    1    1    2    0    0  0.17622513093E+02  0.27106880232E+02 -0.26390554333E+02  0.41734844934E+02  0.00000000000E+00 0. -1.
</event>
<event>
 7    1  0.2989693E-009  0.8807469E+02  0.7561462E-02  0.1307582E+00
          1   -1    0    0  501    0  0.00000000000E+00  0.00000000000E+00  0.27395658951E+03  0.27395658951E+03  0.00000000000E+00 0. -1.
         -1   -1    0    0    0  501 -0.00000000000E+00 -0.00000000000E+00 -0.52421976120E+02  0.52421976120E+02  0.00000000000E+00 0.  1.
         25    2    1    2    0    0  0.32391530110E+02 -0.22684555903E+02  0.15598965222E+03  0.20382487628E+03  0.12509199932E+03 0.  0.
          5    1    3    3  502    0  0.44489144783E+02  0.22749656735E+01 -0.59576826976E+00  0.44746919583E+02  0.41800000000E+01 0.  1.
         -5    1    3    3    0  502 -0.12097614673E+02 -0.24959521576E+02  0.15658542049E+03  0.15907795670E+03  0.41800000000E+01 0.  1.
        -11    1    1    2    0    0 -0.66477828514E+02  0.11382508545E+02  0.46329826225E+02  0.81824910527E+02  0.00000000000E+00 0. -1.
         11    1    1    2    0    0  0.34086298404E+02  0.11302047358E+02  0.19215134948E+02  0.40728778824E+02  0.00000000000E+00 0.  1.
</event>
<event>
 7    1  0.2989693E-009  0.5538311E+02  0.7561462E-02  0.1418296E+00
          1   -1    0    0  501    0  0.00000000000E+00  0.00000000000E+00  0.20708485254E+03  0.20708485254E+03  0.00000000000E+00 0. -1.
         -1   -1    0    0    0  501 -0.00000000000E+00 -0.00000000000E+00 -0.10291508910E+03  0.10291508910E+03  0.00000000000E+00 0.  1.
         25    2    1    2    0    0 -0.10214080947E+02  0.22675563737E+02 -0.44645981049E+02  0.13512690347E+03  0.12508999871E+03 0.  0.
          5    1    3    3  502    0 -0.15293793608E+02  0.17092304964E+02 -0.87941868025E+02  0.90979621695E+02  0.41800000000E+01 0. -1.
         -5    1    3    3    0  502  0.50797126611E+01  0.55832587723E+01  0.43295886976E+02  0.44147281777E+02  0.41800000000E+01 0. -1.
        -11    1    1    2    0    0  0.40020504374E+02  0.20853799059E+01  0.30464117154E+02  0.50339368428E+02  0.00000000000E+00 0.  1.
         11    1    1    2    0    0 -0.29806423427E+02 -0.24760943643E+02  0.11835162733E+03  0.12453366974E+03  0.00000000000E+00 0. -1.
</event>
<event>
 7    1  0.2989693E-009  0.8933740E+02  0.7561462E-02  0.1304464E+00
         -1   -1    0    0    0  501 -0.00000000000E+00  0.00000000000E+00  0.60517688447E+02  0.60517688447E+02  0.00000000000E+00 0.  1.
          1   -1    0    0  501    0  0.00000000000E+00 -0.00000000000E+00 -0.25551523191E+03  0.25551523191E+03  0.00000000000E+00 0. -1.
         25    2    1    2    0    0  0.42133035987E+02 -0.35684241436E+02 -0.14059787906E+03  0.19612069201E+03  0.12508798676E+03 0.  0.
          5    1    3    3  502    0  0.51832819037E+02 -0.29531460141E+02 -0.16132802009E+03  0.17205508052E+03  0.41800000000E+01 0.  1.
         -5    1    3    3    0  502 -0.96997830496E+01 -0.61527812954E+01  0.20730141036E+02  0.24065611487E+02  0.41800000000E+01 0.  1.
        -11    1    1    2    0    0 -0.50732739043E+02  0.61333896076E+02 -0.43840886284E+02  0.90871782908E+02  0.00000000000E+00 0. -1.
         11    1    1    2    0    0  0.85997030564E+01 -0.25649654640E+02 -0.10558778124E+02  0.29040445438E+02  0.00000000000E+00 0.  1.
</event>
<event>
 7    1  0.2989693E-009  0.1288893E+03  0.7561462E-02  0.1229113E+00
         -2   -1    0    0    0  501 -0.00000000000E+00  0.00000000000E+00  0.72364998950E+02  0.72364998950E+02  0.00000000000E+00 0.  1.
          2   -1    0    0  501    0  0.00000000000E+00 -0.00000000000E+00 -0.32714797657E+03  0.32714797657E+03  0.00000000000E+00 0. -1.
         25    2    1    2    0    0  0.10105065909E+03 -0.37280267159E+02 -0.13800179560E+03  0.21515388057E+03  0.12508254360E+03 0.  0.
          5    1    3    3  502    0  0.77723177500E+02 -0.91687991838E+01 -0.15572654190E+03  0.17433642033E+03  0.41800000000E+01 0.  1.
         -5    1    3    3    0  502  0.23327481590E+02 -0.28111467975E+02  0.17724746305E+02  0.40817460242E+02  0.41800000000E+01 0.  1.
        -11    1    1    2    0    0 -0.44817265941E+02 -0.30766353815E+02 -0.43078958758E+02  0.69361030421E+02  0.00000000000E+00 0.  1.
         11    1    1    2    0    0 -0.56233393150E+02  0.68046620974E+02 -0.73702223261E+02  0.11499806453E+03  0.00000000000E+00 0. -1.
</event>
<event>
 7    1  0.2989693E-009  0.8609513E+02  0.7561462E-02  0.1312593E+00
         -2   -1    0    0    0  501 -0.00000000000E+00  0.00000000000E+00  0.24124438720E+02  0.24124438720E+02  0.00000000000E+00 0. -1.
          2   -1    0    0  501    0  0.00000000000E+00 -0.00000000000E+00 -0.51660890012E+03  0.51660890012E+03  0.00000000000E+00 0.  1.
         25    2    1    2    0    0 -0.20804812193E+02 -0.18502517274E+01 -0.32927963846E+03  0.35287580284E+03  0.12513987487E+03 0.  0.
          5    1    3    3  502    0  0.35929258736E+02  0.45282200349E+01 -0.26206422365E+03  0.26458750183E+03  0.41800000000E+01 0. -1.
         -5    1    3    3    0  502 -0.56734070929E+02 -0.63784717623E+01 -0.67215414814E+02  0.88288301008E+02  0.41800000000E+01 0. -1.
        -11    1    1    2    0    0  0.41184690974E+02  0.24581302201E+02 -0.44979035578E+02  0.65753576557E+02  0.00000000000E+00 0. -1.
         11    1    1    2    0    0 -0.20379878781E+02 -0.22731050473E+02 -0.11822578735E+03  0.12210395944E+03  0.00000000000E+00 0.  1.
</event>
<event>
 7    1  0.2989693E-009  0.1670523E+03  0.7561462E-02  0.1180957E+00
         -1   -1    0    0    0  501 -0.00000000000E+00  0.00000000000E+00  0.21020169024E+03  0.21020169024E+03  0.00000000000E+00 0.  1.
          1   -1    0    0  501    0  0.00000000000E+00 -0.00000000000E+00 -0.18592385073E+03  0.18592385073E+03  0.00000000000E+00 0. -1.
         25    2    1    2    0    0  0.32164395327E+02 -0.13624667470E+03  0.99722114667E+02  0.21257917895E+03  0.12509077694E+03 0.  0.
          5    1    3    3  502    0  0.22881453101E+02 -0.15852646689E+03  0.98444017403E+02  0.18805025542E+03  0.41800000000E+01 0.  1.
         -5    1    3    3    0  502  0.92829422258E+01  0.22279792197E+02  0.12780972635E+01  0.24528923525E+02  0.41800000000E+01 0.  1.
        -11    1    1    2    0    0 -0.45776916847E+02  0.87211043616E+02 -0.76705639111E+01  0.98793369187E+02  0.00000000000E+00 0. -1.
         11    1    1    2    0    0  0.13612521520E+02  0.49035631082E+02 -0.67773711252E+02  0.84752992836E+02  0.00000000000E+00 0.  1.
</event>
<event>
 7    1  0.2989693E-009  0.9164603E+02  0.7561462E-02  0.1298914E+00
          1   -1    0    0  501    0  0.00000000000E+00  0.00000000000E+00  0.13131763495E+04  0.13131763495E+04  0.00000000000E+00 0. -1.
         -1   -1    0    0    0  501 -0.00000000000E+00 -0.00000000000E+00 -0.70717682987E+01  0.70717682987E+01  0.00000000000E+00 0.  1.
         25    2    1    2    0    0 -0.49297936346E+02 -0.82287820906E+01  0.10681544289E+04  0.10766146419E+04  0.12508878324E+03 0.  0.
          5    1    3    3  502    0 -0.14913598791E+02 -0.63734916004E+02  0.65979416698E+03  0.66304628053E+03  0.41800000000E+01 0.  1.
         -5    1    3    3    0  502 -0.34384337555E+02  0.55506133913E+02  0.40836026193E+03  0.41356836133E+03  0.41800000000E+01 0.  1.
        -11    1    1    2    0    0  0.25952730989E+02 -0.34339975116E+01  0.12398621139E+03  0.12671983743E+03  0.00000000000E+00 0. -1.
         11    1    1    2    0    0  0.23345205357E+02  0.11662779602E+02  0.11396394086E+03  0.11691363846E+03  0.00000000000E+00 0.  1.
</event>
<event>
 7    1  0.2989693E-009  0.1219921E+03  0.7561462E-02  0.1239846E+00
         -1   -1    0    0    0  501 -0.00000000000E+00  0.00000000000E+00  0.18286616991E+02  0.18286616991E+02  0.00000000000E+00 0.  1.
          1   -1    0    0  501    0  0.00000000000E+00 -0.00000000000E+00 -0.12222470376E+04  0.12222470376E+04  0.00000000000E+00 0. -1.
         25    2    1    2    0    0  0.99805626467E+02 -0.83437777010E+00 -0.72577467519E+03  0.74320674231E+03  0.12508206672E+03 0.  0.
          5    1    3    3  502    0  0.59092838215E+02 -0.31824089741E+02 -0.14134477865E+03  0.15652653151E+03  0.41800000000E+01 0. -1.
         -5    1    3    3    0  502  0.40712788251E+02  0.30989711971E+02 -0.58442989654E+03  0.58668021080E+03  0.41800000000E+01 0. -1.
        -11    1    1    2    0    0 -0.53660532449E+02  0.38328765982E+02 -0.34818391543E+03  0.35437351200E+03  0.00000000000E+00 0. -1.
         11    1    1    2    0    0 -0.46145094018E+02 -0.37494388212E+02 -0.13000182998E+03  0.14295340026E+03  0.00000000000E+00 0.  1.
</event>
<event>
 7    1  0.2989693E-009  0.1236611E+03  0.7561462E-02  0.1237177E+00
          1   -1    0    0  501    0  0.00000000000E+00  0.00000000000E+00  0.83247249615E+03  0.83247249615E+03  0.00000000000E+00 0. -1.
         -1   -1    0    0    0  501 -0.00000000000E+00 -0.00000000000E+00 -0.23414602690E+02  0.23414602690E+02  0.00000000000E+00 0.  1.
         25    2    1    2    0    0 -0.44838964652E+02  0.64342325657E+02  0.31330546304E+03  0.34635295795E+03  0.12509832408E+03 0.  0.
          5    1    3    3  502    0 -0.13814924844E+02 -0.37026510992E+02  0.62932260480E+02  0.74429540331E+02  0.41800000000E+01 0. -1.
         -5    1    3    3    0  502 -0.31024039808E+02  0.10136883665E+03  0.25037320256E+03  0.27192341762E+03  0.41800000000E+01 0. -1.
        -11    1    1    2    0    0  0.17437635442E+02  0.11473662243E+02  0.28212584446E+02  0.35095099033E+02  0.00000000000E+00 0.  1.
         11    1    1    2    0    0  0.27401329210E+02 -0.75815987900E+02  0.46753984597E+03  0.47443904185E+03  0.00000000000E+00 0. -1.
</event>
<event>
 7    1  0.2989693E-009  0.1043692E+03  0.7561462E-02  0.1271367E+00
          1   -1    0    0  501    0  0.00000000000E+00  0.00000000000E+00  0.59579148838E+03  0.59579148838E+03  0.00000000000E+00 0. -1.
         -1   -1    0    0    0  501 -0.00000000000E+00 -0.00000000000E+00 -0.22581199010E+02  0.22581199010E+02  0.00000000000E+00 0.  1.
         25    2    1    2    0    0 -0.34684065334E+01  0.35821295764E+02  0.38302607692E+03  0.40454039622E+03  0.12509500987E+03 0.  0.
          5    1    3    3  502    0  0.43643641296E+02  0.57134261391E+02  0.28100821268E+03  0.29008995026E+03  0.41800000000E+01 0.  1.
         -5    1    3    3    0  502 -0.47112047830E+02 -0.21312965627E+02  0.10201786425E+03  0.11445044596E+03  0.41800000000E+01 0.  1.
        -11    1    1    2    0    0 -0.10384178029E+02  0.22563124699E+02  0.15860093256E+02  0.29469786352E+02  0.00000000000E+00 0.  1.
         11    1    1    2    0    0  0.13852584563E+02 -0.58384420463E+02  0.17432411919E+03  0.18436250482E+03  0.00000000000E+00 0. -1.
</event>
<event>
 7    1  0.2989693E-009  0.1588395E+03  0.7561462E-02  0.1190013E+00
          2   -1    0    0  501    0  0.00000000000E+00  0.00000000000E+00  0.41074373170E+02  0.41074373170E+02  0.00000000000E+00 0. -1.
         -2   -1    0    0    0  501 -0.00000000000E+00 -0.00000000000E+00 -0.10796778157E+04  0.10796778157E+04  0.00000000000E+00 0.  1.
         25    2    1    2    0    0  0.13499432104E+03 -0.33963617587E+02 -0.83838792787E+03  0.85902162430E+03  0.12508732705E+03 0.  0.
          5    1    3    3  502    0  0.13672210425E+03 -0.61198374760E+02 -0.78211374502E+03  0.79634010160E+03  0.41800000000E+01 0. -1.
         -5    1    3    3    0  502 -0.17277832128E+01  0.27234757173E+02 -0.56274182848E+02  0.62681522703E+02  0.41800000000E+01 0. -1.
        -11    1    1    2    0    0 -0.78411810923E+02  0.11107066049E+02 -0.18129931486E+03  0.19784140259E+03  0.00000000000E+00 0.  1.
         11    1    1    2    0    0 -0.56582510118E+02  0.22856551537E+02 -0.18916199752E+02  0.63889161933E+02  0.00000000000E+00 0. -1.
</event>
<event>
 7    1  0.2989693E-009  0.1302707E+03  0.7561462E-02  0.1227055E+00
         -1   -1    0    0    0  501 -0.00000000000E+00  0.00000000000E+00  0.26170432114E+03  0.26170432114E+03  0.00000000000E+00 0.  1.
          1   -1    0    0  501    0  0.00000000000E+00 -0.00000000000E+00 -0.22521681982E+03  0.22521681982E+03  0.00000000000E+00 0. -1.
         25    2    1    2    0    0 -0.10378846703E+03 -0.97095107944E+01  0.20954530003E+03  0.26537405624E+03  0.12509131254E+03 0.  0.
          5    1    3    3  502    0 -0.97847643894E+02 -0.28575254898E+02  0.68491775955E+02  0.12287921867E+03  0.41800000000E+01 0.  1.
         -5    1    3    3    0  502 -0.59408231365E+01  0.18865744103E+02  0.14105352407E+03  0.14249483757E+03  0.41800000000E+01 0.  1.
        -11    1    1    2    0    0  0.11465361227E+03  0.27087630838E+02 -0.14876560309E+03  0.18976405142E+03  0.00000000000E+00 0. -1.
         11    1    1    2    0    0 -0.10865145237E+02 -0.17378120044E+02 -0.24292195615E+02  0.31783033289E+02  0.00000000000E+00 0.  1.
</event>
<event>
 7    1  0.2989693E-009  0.1358291E+03  0.7561462E-02  0.1219054E+00
         -1   -1    0    0    0  501 -0.00000000000E+00  0.00000000000E+00  0.21580207412E+03  0.21580207412E+03  0.00000000000E+00 0.  1.
          1   -1    0    0  501    0  0.00000000000E+00 -0.00000000000E+00 -0.15346451799E+03  0.15346451799E+03  0.00000000000E+00 0. -1.
         25    2    1    2    0    0  0.89734943335E+02 -0.68066869923E+02  0.12564852785E+03  0.21004922421E+03  0.12509062796E+03 0.  0.
          5    1    3    3  502    0  0.47197508895E+02 -0.89649382101E+02  0.12654375620E+03  0.16215859888E+03  0.41800000000E+01 0. -1.
         -5    1    3    3    0  502  0.42537434440E+02  0.21582512178E+02 -0.89522834799E+00  0.47890625329E+02  0.41800000000E+01 0. -1.
        -11    1    1    2    0    0 -0.49281795581E+01  0.28267668052E+02  0.19081045874E+02  0.34459168917E+02  0.00000000000E+00 0.  1.
         11    1    1    2    0    0 -0.84806763777E+02  0.39799201871E+02 -0.82392017594E+02  0.12475819899E+03  0.00000000000E+00 0. -1.
</event>
<event>
 7    1  0.2989693E-009  0.1198474E+03  0.7561462E-02  0.1243349E+00
         -2   -1    0    0    0  501 -0.00000000000E+00  0.00000000000E+00  0.15369575687E+03  0.15369575687E+03  0.00000000000E+00 0.  1.
          2   -1    0    0  501    0  0.00000000000E+00 -0.00000000000E+00 -0.33120358047E+03  0.33120358047E+03  0.00000000000E+00 0. -1.
         25    2    1    2    0    0 -0.61180615717E+02 -0.27014602714E+02  0.10639416070E+03  0.17733159653E+03  0.12511563131E+03 0.  0.
          5    1    3    3  502    0  0.15661065392E+02  0.25495596116E+02  0.71896049982E+02  0.77985952540E+02  0.41800000000E+01 0. -1.
         -5    1    3    3    0  502 -0.76841681109E+02 -0.52510198830E+02  0.34498110720E+02  0.99345643991E+02  0.41800000000E+01 0. -1.
        -11    1    1    2    0    0  0.77818652124E+02 -0.73237217476E+01 -0.16269627705E+03  0.18049780631E+03  0.00000000000E+00 0.  1.
         11    1    1    2    0    0 -0.16638036406E+02  0.34338324462E+02 -0.12120570726E+03  0.12706993450E+03  0.00000000000E+00 0. -1.
</event>
<event>
 7    1  0.2989693E-009  0.1087807E+03  0.7561462E-02  0.1262845E+00
         -1   -1    0    0    0  501 -0.00000000000E+00  0.00000000000E+00  0.54685349326E+03  0.54685349326E+03  0.00000000000E+00 0.  1.
          1   -1    0    0  501    0  0.00000000000E+00 -0.00000000000E+00 -0.22398411442E+02  0.22398411442E+02  0.00000000000E+00 0. -1.
         25    2    1    2    0    0  0.75993666175E+01  0.25580513712E+02  0.32101513935E+03  0.34555818572E+03  0.12509047513E+03 0.  0.
          5    1    3    3  502    0 -0.54455518325E+02 -0.64851052669E+01  0.17866837882E+03  0.18694202860E+03  0.41800000000E+01 0. -1.
         -5    1    3    3    0  502  0.62054884942E+02  0.32065618979E+02  0.14234676053E+03  0.15861615712E+03  0.41800000000E+01 0. -1.
        -11    1    1    2    0    0 -0.45903677476E+02 -0.28730571519E+02  0.12934825050E+03  0.14022682787E+03  0.00000000000E+00 0.  1.
         11    1    1    2    0    0  0.38304310859E+02  0.31500578064E+01  0.74091691967E+02  0.83466891119E+02  0.00000000000E+00 0. -1.
</event>
<event>
 7    1  0.2989693E-009  0.1017860E+03  0.7561462E-02  0.1276584E+00
         -4   -1    0    0    0  501 -0.00000000000E+00  0.00000000000E+00  0.57149673568E+03  0.57149673568E+03  0.00000000000E+00 0.  1.
          4   -1    0    0  501    0  0.00000000000E+00 -0.00000000000E+00 -0.20549656845E+02  0.20549656845E+02  0.00000000000E+00 0. -1.
         25    2    1    2    0    0  0.85945657447E+01 -0.42374980558E+01  0.34383646159E+03  0.36600898598E+03  0.12508893856E+03 0.  0.
          5    1    3    3  502    0  0.58339731272E+02 -0.21846377017E+02  0.25557126863E+03  0.26308731285E+03  0.41800000000E+01 0.  1.
         -5    1    3    3    0  502 -0.49745165527E+02  0.17608878962E+02  0.88265192956E+02  0.10292167313E+03  0.41800000000E+01 0.  1.
        -11    1    1    2    0    0 -0.27146374289E+02 -0.35297750550E+02  0.13005156796E+03  0.13746369397E+03  0.00000000000E+00 0.  1.
         11    1    1    2    0    0  0.18551808544E+02  0.39535248606E+02  0.77059049293E+02  0.88573712582E+02  0.00000000000E+00 0. -1.
</event>
<event>
 7    1  0.2989693E-009  0.1059332E+03  0.7561462E-02  0.1268292E+00
         -2   -1    0    0    0  501 -0.00000000000E+00  0.00000000000E+00  0.51936032994E+02  0.51936032994E+02  0.00000000000E+00 0.  1.
          2   -1    0    0  501    0  0.00000000000E+00 -0.00000000000E+00 -0.24823778866E+03  0.24823778866E+03  0.00000000000E+00 0. -1.
         25    2    1    2    0    0  0.26326656062E+02 -0.11533980436E+02 -0.12855170054E+03  0.18165371472E+03  0.12508559805E+03 0.  0.
          5    1    3    3  502    0  0.13661127519E+02  0.52827355817E+02 -0.90345953056E+02  0.10562774049E+03  0.41800000000E+01 0. -1.
         -5    1    3    3    0  502  0.12665528543E+02 -0.64361336253E+02 -0.38205747480E+02  0.76025974233E+02  0.41800000000E+01 0. -1.
        -11    1    1    2    0    0  0.58744986979E+01 -0.34631436428E+02 -0.72135632543E+01  0.35859191553E+02  0.00000000000E+00 0.  1.
         11    1    1    2    0    0 -0.32201154760E+02  0.46165416864E+02 -0.60536491875E+02  0.82660915375E+02  0.00000000000E+00 0. -1.
</event>
<event>
 7    1  0.2989693E-009  0.9566557E+02  0.7561462E-02  0.1289684E+00
         -2   -1    0    0    0  501 -0.00000000000E+00  0.00000000000E+00  0.24784464413E+02  0.24784464413E+02  0.00000000000E+00 0.  1.
          2   -1    0    0  501    0  0.00000000000E+00 -0.00000000000E+00 -0.85130321267E+03  0.85130321267E+03  0.00000000000E+00 0. -1.
         25    2    1    2    0    0  0.51188087770E+02 -0.12056837969E+02 -0.69741768356E+03  0.71049436213E+03  0.12508087624E+03 0.  0.
          5    1    3    3  502    0 -0.19961671118E+02 -0.22503445394E+02 -0.48970179625E+03  0.49064263473E+03  0.41800000000E+01 0.  1.
         -5    1    3    3    0  502  0.71149758888E+02  0.10446607425E+02 -0.20771588731E+03  0.21985172739E+03  0.41800000000E+01 0.  1.
        -11    1    1    2    0    0 -0.67592129347E+02  0.20291358806E+02 -0.55622960934E+02  0.89857381304E+02  0.00000000000E+00 0.  1.
         11    1    1    2    0    0  0.16404041577E+02 -0.82345208369E+01 -0.73478103761E+02  0.75735933650E+02  0.00000000000E+00 0. -1.
</event>
<event>
 7    1  0.2989693E-009  0.1155635E+03  0.7561462E-02  0.1250601E+00
         -2   -1    0    0    0  501 -0.00000000000E+00  0.00000000000E+00  0.22558548490E+03  0.22558548490E+03  0.00000000000E+00 0.  1.
          2   -1    0    0  501    0  0.00000000000E+00 -0.00000000000E+00 -0.60675587382E+02  0.60675587382E+02  0.00000000000E+00 0. -1.
         25    2    1    2    0    0 -0.33519175436E+02  0.19688731327E+02  0.73299143122E+02  0.15010499198E+03  0.12509021933E+03 0.  0.
          5    1    3    3  502    0 -0.70729986907E+02 -0.22171583912E+02  0.48707733643E+02  0.88793163575E+02  0.41800000000E+01 0.  1.
         -5    1    3    3    0  502  0.37210811471E+02  0.41860315239E+02  0.24591409480E+02  0.61311828406E+02  0.41800000000E+01 0.  1.
        -11    1    1    2    0    0  0.65571098667E+02 -0.20370679363E+02  0.63109962812E+02  0.93259857196E+02  0.00000000000E+00 0.  1.
         11    1    1    2    0    0 -0.32051923231E+02  0.68194803595E+00  0.28500791587E+02  0.42896223109E+02  0.00000000000E+00 0. -1.
</event>
<event>
 6    1  0.2989693E-009  0.1286360E+03  0.7561462E-02  0.1229494E+00
         -2   -1    0    0    0  501 -0.00000000000E+00  0.00000000000E+00  0.11243166409E+03  0.11243166409E+03  0.00000000000E+00 0.  1.
          2   -1    0    0  501    0  0.00000000000E+00 -0.00000000000E+00 -0.32558247537E+03  0.32558247537E+03  0.00000000000E+00 0. -1.
          5    1    1    2  502    0  0.37037267944E+02 -0.50497139988E+02  0.63841350242E+02  0.89526034004E+02  0.41800000000E+01 0.  1.
         -5    1    1    2    0  502  0.60921160992E+02  0.12083069995E+02 -0.42196612582E+02  0.75202492981E+02  0.41800000000E+01 0.  1.
        -11    1    1    2    0    0  0.25473744548E+01  0.31407678869E+02 -0.23862289821E+02  0.39526450436E+02  0.00000000000E+00 0.  1.
         11    1    1    2    0    0 -0.10050580339E+03  0.70063911249E+01 -0.21093325912E+03  0.23375916203E+03  0.00000000000E+00 0. -1.
</event>
<event>
 7    1  0.2989693E-009  0.9871601E+02  0.7561462E-02  0.1283019E+00
          1   -1    0    0  501    0  0.00000000000E+00  0.00000000000E+00  0.42199457669E+03  0.42199457669E+03  0.00000000000E+00 0. -1.
         -1   -1    0    0    0  501 -0.00000000000E+00 -0.00000000000E+00 -0.48077631578E+02  0.48077631578E+02  0.00000000000E+00 0.  1.
         25    2    1    2    0    0 -0.45482392997E+02  0.77835886746E+02  0.22973294015E+03  0.27667875246E+03  0.12508730924E+03 0.  0.
          5    1    3    3  502    0 -0.11719902596E+02  0.71058129511E+02  0.37429147276E+02  0.81271319371E+02  0.41800000000E+01 0.  1.
         -5    1    3    3    0  502 -0.33762490401E+02  0.67777572344E+01  0.19230379287E+03  0.19540743309E+03  0.41800000000E+01 0.  1.
        -11    1    1    2    0    0  0.34353970813E+02 -0.50378317203E+02  0.15112608065E+03  0.16296399114E+03  0.00000000000E+00 0. -1.
         11    1    1    2    0    0  0.11128422184E+02 -0.27457569543E+02 -0.69420756883E+01  0.30429464674E+02  0.00000000000E+00 0.  1.
</event>
<event>
 7    1  0.2989693E-009  0.1346442E+03  0.7561462E-02  0.1220723E+00
         -2   -1    0    0    0  501 -0.00000000000E+00  0.00000000000E+00  0.37031249883E+03  0.37031249883E+03  0.00000000000E+00 0.  1.
          2   -1    0    0  501    0  0.00000000000E+00 -0.00000000000E+00 -0.59293020400E+02  0.59293020400E+02  0.00000000000E+00 0. -1.
         25    2    1    2    0    0 -0.99885386440E+02  0.17200648826E+02  0.16091034440E+03  0.22762174170E+03  0.12508623272E+03 0.  0.
          5    1    3    3  502    0 -0.12008749476E+03 -0.15364472133E+02  0.10896901604E+03  0.16293800127E+03  0.41800000000E+01 0. -1.
         -5    1    3    3    0  502  0.20202108323E+02  0.32565120959E+02  0.51941328358E+02  0.64683740425E+02  0.41800000000E+01 0. -1.
        -11    1    1    2    0    0  0.64632349316E+02  0.95665985823E+01  0.14291175049E+03  0.15713888384E+03  0.00000000000E+00 0.  1.
         11    1    1    2    0    0  0.35253037124E+02 -0.26767247408E+02  0.71973835408E+01  0.44844893690E+02  0.00000000000E+00 0. -1.
</event>
<event>
 7    1  0.2989693E-009  0.1164785E+03  0.7561462E-02  0.1249022E+00
         -2   -1    0    0    0  501 -0.00000000000E+00  0.00000000000E+00  0.29337341731E+02  0.29337341731E+02  0.00000000000E+00 0. -1.
          2   -1    0    0  501    0  0.00000000000E+00 -0.00000000000E+00 -0.49815989092E+03  0.49815989092E+03  0.00000000000E+00 0.  1.
         25    2    1    2    0    0 -0.26716334222E+02  0.37463590447E+02 -0.32293724576E+03  0.34935764084E+03  0.12508002796E+03 0.  0.
          5    1    3    3  502    0 -0.21090976703E+02 -0.44382876303E+02 -0.94409547444E+02  0.10651433732E+03  0.41800000000E+01 0. -1.
         -5    1    3    3    0  502 -0.56253575186E+01  0.81846466751E+02 -0.22852769831E+03  0.24284330352E+03  0.41800000000E+01 0. -1.
        -11    1    1    2    0    0  0.68373756220E+01  0.30203422353E+02 -0.54763599065E+02  0.62913020988E+02  0.00000000000E+00 0.  1.
         11    1    1    2    0    0  0.19878958600E+02 -0.67667012800E+02 -0.91121704368E+02  0.11522657082E+03  0.00000000000E+00 0. -1.
</event>
<event>
 7    1  0.2989693E-009  0.1181122E+03  0.7561462E-02  0.1246244E+00
         -1   -1    0    0    0  501 -0.00000000000E+00  0.00000000000E+00  0.18730110328E+03  0.18730110328E+03  0.00000000000E+00 0.  1.
          1   -1    0    0  501    0  0.00000000000E+00 -0.00000000000E+00 -0.96603273889E+02  0.96603273889E+02  0.00000000000E+00 0. -1.
         25    2    1    2    0    0 -0.72380264892E+02 -0.36482241101E+01  0.85999191740E+02  0.16822018335E+03  0.12509978746E+03 0.  0.
          5    1    3    3  502    0  0.63101142751E+01  0.32962735720E+02 -0.13237547902E+02  0.36318928437E+02  0.41800000000E+01 0. -1.
         -5    1    3    3    0  502 -0.78690379167E+02 -0.36610959830E+02  0.99236739643E+02  0.13190125492E+03  0.41800000000E+01 0. -1.
        -11    1    1    2    0    0  0.31909734128E+02  0.46613056651E+02  0.20589459781E+00  0.56489384623E+02  0.00000000000E+00 0.  1.
         11    1    1    2    0    0  0.40470530765E+02 -0.42964832541E+02  0.44927430551E+01  0.59194809196E+02  0.00000000000E+00 0. -1.
</event>
<event>
 7    1  0.2989693E-009  0.1596139E+03  0.7561462E-02  0.1189133E+00
         -1   -1    0    0    0  501 -0.00000000000E+00  0.00000000000E+00  0.37299165431E+03  0.37299165431E+03  0.00000000000E+00 0.  1.
          1   -1    0    0  501    0  0.00000000000E+00 -0.00000000000E+00 -0.82334237882E+02  0.82334237882E+02  0.00000000000E+00 0. -1.
         25    2    1    2    0    0 -0.21361792110E+02  0.13317786325E+03  0.23537130132E+03  0.29873351963E+03  0.12509754931E+03 0.  0.
          5    1    3    3  502    0 -0.60113113427E+02  0.38107626047E+02  0.14631286797E+03  0.16275965502E+03  0.41800000000E+01 0. -1.
         -5    1    3    3    0  502  0.38751321316E+02  0.95070237204E+02  0.89058433350E+02  0.13597386461E+03  0.41800000000E+01 0. -1.
        -11    1    1    2    0    0  0.39289369942E+02 -0.81363025655E+02  0.24085164897E+02  0.93507709320E+02  0.00000000000E+00 0. -1.
         11    1    1    2    0    0 -0.17927577832E+02 -0.51814837596E+02  0.31200950205E+02  0.63084663237E+02  0.00000000000E+00 0.  1.
</event>
<event>
 7    1  0.2989693E-009  0.8983856E+02  0.7561462E-02  0.1303243E+00
          2   -1    0    0  501    0  0.00000000000E+00  0.00000000000E+00  0.42882106879E+03  0.42882106879E+03  0.00000000000E+00 0.  1.
         -2   -1    0    0    0  501 -0.00000000000E+00 -0.00000000000E+00 -0.28462225079E+02  0.28462225079E+02  0.00000000000E+00 0. -1.
         25    2    1    2    0    0 -0.10743158029E+02  0.92178160251E+01  0.25225043916E+03  0.28192775838E+03  0.12511032454E+03 0.  0.
          5    1    3    3  502    0  0.50920556208E+01  0.66140049789E+02  0.12524081569E+03  0.14178564642E+03  0.41800000000E+01 0.  1.
         -5    1    3    3    0  502 -0.15835213650E+02 -0.56922233763E+02  0.12700962347E+03  0.14014211195E+03  0.41800000000E+01 0.  1.
        -11    1    1    2    0    0 -0.18867581851E+02 -0.14632361041E+02 -0.34695413664E+00  0.23879112457E+02  0.00000000000E+00 0. -1.
         11    1    1    2    0    0  0.29610739881E+02  0.54145450158E+01  0.14845535868E+03  0.15147642303E+03  0.00000000000E+00 0.  1.
</event>
<event>
 7    1  0.2989693E-009  0.1005082E+03  0.7561462E-02  0.1279231E+00
         -4   -1    0    0    0  501 -0.00000000000E+00  0.00000000000E+00  0.21392293276E+03  0.21392293276E+03  0.00000000000E+00 0. -1.
          4   -1    0    0  501    0  0.00000000000E+00 -0.00000000000E+00 -0.75894892071E+02  0.75894892071E+02  0.00000000000E+00 0.  1.
         25    2    1    2    0    0  0.72497154923E+01  0.37045567935E+02  0.13770741517E+02  0.13138371658E+03  0.12508842945E+03 0.  0.
          5    1    3    3  502    0 -0.10019387552E+02 -0.32942607781E+02 -0.30918302882E+02  0.46465227724E+02  0.41800000000E+01 0.  1.
         -5    1    3    3    0  502  0.17269103045E+02  0.69988175715E+02  0.44689044399E+02  0.84918488854E+02  0.41800000000E+01 0.  1.
        -11    1    1    2    0    0  0.11665535139E+02 -0.61843574460E+02  0.10294876684E+03  0.12066134843E+03  0.00000000000E+00 0. -1.
         11    1    1    2    0    0 -0.18915250631E+02  0.24798006525E+02  0.21308532327E+02  0.37772759814E+02  0.00000000000E+00 0.  1.
</event>
<event>
 7    1  0.2989693E-009  0.8793550E+02  0.7561462E-02  0.1307930E+00
          2   -1    0    0  501    0  0.00000000000E+00  0.00000000000E+00  0.78937690931E+02  0.78937690931E+02  0.00000000000E+00 0.  1.
         -2   -1    0    0    0  501 -0.00000000000E+00 -0.00000000000E+00 -0.16337238185E+03  0.16337238185E+03  0.00000000000E+00 0. -1.
         25    2    1    2    0    0 -0.70630219462E+01 -0.29336970949E+02 -0.70043192114E+02  0.14650926667E+03  0.12509345432E+03 0.  0.
          5    1    3    3  502    0 -0.52854122309E+02 -0.38934305663E+02 -0.74431217889E+02  0.99332356254E+02  0.41800000000E+01 0.  1.
         -5    1    3    3    0  502  0.45791100363E+02  0.95973347139E+01  0.43880257752E+01  0.47176910415E+02  0.41800000000E+01 0.  1.
        -11    1    1    2    0    0 -0.17744471816E+02  0.33552991359E+02  0.27542558049E+02  0.46896289971E+02  0.00000000000E+00 0.  1.
         11    1    1    2    0    0  0.24807493762E+02 -0.42160204099E+01 -0.41934056856E+02  0.48904516143E+02  0.00000000000E+00 0. -1.
</event>
<event>
 7    1  0.2989693E-009  0.1127934E+03  0.7561462E-02  0.1255483E+00
          2   -1    0    0  501    0  0.00000000000E+00  0.00000000000E+00  0.36431547351E+03  0.36431547351E+03  0.00000000000E+00 0.  1.
         -2   -1    0    0    0  501 -0.00000000000E+00 -0.00000000000E+00 -0.37269663938E+02  0.37269663938E+02  0.00000000000E+00 0. -1.
         25    2    1    2    0    0  0.17811249057E+02  0.33168913266E+02  0.22662160830E+03  0.26157340299E+03  0.12508346974E+03 0.  0.
          5    1    3    3  502    0  0.69532915475E+02  0.36076094267E+02  0.12900044487E+03  0.15097979364E+03  0.41800000000E+01 0.  1.
         -5    1    3    3    0  502 -0.51721666418E+02 -0.29071810004E+01  0.97621163431E+02  0.11059360934E+03  0.41800000000E+01 0.  1.
        -11    1    1    2    0    0  0.18625611528E+02  0.22142570192E+02  0.17247610322E+02  0.33685113645E+02  0.00000000000E+00 0.  1.
         11    1    1    2    0    0 -0.36436860585E+02 -0.55311483458E+02  0.83176590947E+02  0.10632662081E+03  0.00000000000E+00 0. -1.
</event>
<event>
 7    1  0.2989693E-009  0.1215861E+03  0.7561462E-02  0.1240503E+00
         -1   -1    0    0    0  501 -0.00000000000E+00  0.00000000000E+00  0.52222601072E+02  0.52222601072E+02  0.00000000000E+00 0.  1.
          1   -1    0    0  501    0  0.00000000000E+00 -0.00000000000E+00 -0.45496485593E+03  0.45496485593E+03  0.00000000000E+00 0. -1.
         25    2    1    2    0    0 -0.11677499842E+02  0.70776256774E+02 -0.81768478062E+02  0.16576726408E+03  0.12508820611E+03 0.  0.
          5    1    3    3  502    0 -0.47869650055E+02  0.88294853028E+02 -0.73439832330E+02  0.12449243286E+03  0.41800000000E+01 0.  1.
         -5    1    3    3    0  502  0.36192150214E+02 -0.17518596254E+02 -0.83286457324E+01  0.41274831212E+02  0.41800000000E+01 0.  1.
        -11    1    1    2    0    0 -0.30510380112E+02 -0.38391095491E+02 -0.73922875513E+02  0.88709362706E+02  0.00000000000E+00 0.  1.
         11    1    1    2    0    0  0.42187879953E+02 -0.32385161283E+02 -0.24705090128E+03  0.25271083022E+03  0.00000000000E+00 0. -1.
</event>
<event>
 7    1  0.2989693E-009  0.1420338E+03  0.7561462E-02  0.1210618E+00
         -2   -1    0    0    0  501 -0.00000000000E+00  0.00000000000E+00  0.17200558091E+02  0.17200558091E+02  0.00000000000E+00 0.  1.
          2   -1    0    0  501    0  0.00000000000E+00 -0.00000000000E+00 -0.12375499229E+04  0.12375499229E+04  0.00000000000E+00 0. -1.
         25    2    1    2    0    0  0.55764279057E+02  0.75781263488E+02 -0.55331889483E+03  0.57503133176E+03  0.12508708333E+03 0.  0.
          5    1    3    3  502    0  0.45243383368E+02 -0.26285270309E+02 -0.22422304198E+03  0.23028531027E+03  0.41800000000E+01 0. -1.
         -5    1    3    3    0  502  0.10520895689E+02  0.10206653380E+03 -0.32909585285E+03  0.34474602149E+03  0.41800000000E+01 0. -1.
        -11    1    1    2    0    0 -0.17671121708E+02  0.19472546030E+02 -0.95476975255E+02  0.99031820114E+02  0.00000000000E+00 0. -1.
         11    1    1    2    0    0 -0.38093157349E+02 -0.95253809519E+02 -0.57155349472E+03  0.58068732911E+03  0.00000000000E+00 0.  1.
</event>
<event>
 7    1  0.2989693E-009  0.9005323E+02  0.7561462E-02  0.1302723E+00
          1   -1    0    0  501    0  0.00000000000E+00  0.00000000000E+00  0.16278746968E+03  0.16278746968E+03  0.00000000000E+00 0. -1.
         -1   -1    0    0    0  501 -0.00000000000E+00 -0.00000000000E+00 -0.79988319250E+02  0.79988319250E+02  0.00000000000E+00 0.  1.
         25    2    1    2    0    0 -0.26030336225E+02  0.11691360829E+02  0.22800589053E+02  0.13031234820E+03  0.12508866819E+03 0.  0.
          5    1    3    3  502    0  0.12864783678E+02  0.36485943228E+02 -0.37659081602E+02  0.54151690088E+02  0.41800000000E+01 0. -1.
         -5    1    3    3    0  502 -0.38895119902E+02 -0.24794582398E+02  0.60459670655E+02  0.76160658113E+02  0.41800000000E+01 0. -1.
        -11    1    1    2    0    0  0.23578615297E+02  0.38219655586E+02  0.32419299388E+02  0.55386858958E+02  0.00000000000E+00 0. -1.
         11    1    1    2    0    0  0.24517209279E+01 -0.49911016415E+02  0.27579261994E+02  0.57076581776E+02  0.00000000000E+00 0.  1.
</event>
<event>
 7    1  0.2989693E-009  0.1183416E+03  0.7561462E-02  0.1245858E+00
         -2   -1    0    0    0  501 -0.00000000000E+00  0.00000000000E+00  0.29587209112E+03  0.29587209112E+03  0.00000000000E+00 0.  1.
          2   -1    0    0  501    0  0.00000000000E+00 -0.00000000000E+00 -0.53646715622E+02  0.53646715622E+02  0.00000000000E+00 0. -1.
         25    2    1    2    0    0  0.53937366844E+02 -0.23579088597E+02  0.99259322926E+02  0.17019109551E+03  0.12508949933E+03 0.  0.
          5    1    3    3  502    0 -0.12687309494E+02  0.37935783722E+02  0.57748140865E+02  0.70373373389E+02  0.41800000000E+01 0. -1.
         -5    1    3    3    0  502  0.66624676337E+02 -0.61514872319E+02  0.41511182061E+02  0.99817722122E+02  0.41800000000E+01 0. -1.
        -11    1    1    2    0    0 -0.38549902801E+02 -0.30692950650E+02  0.47513734735E+02  0.68452225778E+02  0.00000000000E+00 0. -1.
         11    1    1    2    0    0 -0.15387464043E+02  0.54272039247E+02  0.95452317839E+02  0.11087548545E+03  0.00000000000E+00 0.  1.
</event>
<event>
 7    1  0.2989693E-009  0.1092564E+03  0.7561462E-02  0.1261953E+00
         -2   -1    0    0    0  501 -0.00000000000E+00  0.00000000000E+00  0.42305440326E+02  0.42305440326E+02  0.00000000000E+00 0.  1.
          2   -1    0    0  501    0  0.00000000000E+00 -0.00000000000E+00 -0.45571124033E+03  0.45571124033E+03  0.00000000000E+00 0. -1.
         25    2    1    2    0    0 -0.57914996851E+02 -0.37348168604E+02 -0.13266475320E+03  0.19491758754E+03  0.12507556368E+03 0.  0.
          5    1    3    3  502    0 -0.46997545036E+02  0.39549049845E+02 -0.37806202811E+02  0.72247338733E+02  0.41800000000E+01 0. -1.
         -5    1    3    3    0  502 -0.10917451815E+02 -0.76897218449E+02 -0.94858550394E+02  0.12267024881E+03  0.41800000000E+01 0. -1.
        -11    1    1    2    0    0  0.58230030657E+02  0.19636761788E+02 -0.27855217893E+03  0.28525016261E+03  0.00000000000E+00 0. -1.
         11    1    1    2    0    0 -0.31503380607E+00  0.17711406816E+02 -0.21888678720E+01  0.17848930508E+02  0.00000000000E+00 0.  1.
</event>
<event>
 7    1  0.2989693E-009  0.8155046E+02  0.7561462E-02  0.1324708E+00
         -2   -1    0    0    0  501 -0.00000000000E+00  0.00000000000E+00  0.29162501167E+02  0.29162501167E+02  0.00000000000E+00 0. -1.
          2   -1    0    0  501    0  0.00000000000E+00 -0.00000000000E+00 -0.82311758685E+03  0.82311758685E+03  0.00000000000E+00 0.  1.
         25    2    1    2    0    0  0.37514863697E+02 -0.16825097749E+02 -0.70978439733E+03  0.72189424788E+03  0.12508783124E+03 0.  0.
          5    1    3    3  502    0 -0.38426942092E+01 -0.24361163431E+02 -0.63880160368E+03  0.63929116515E+03  0.41800000000E+01 0. -1.
         -5    1    3    3    0  502  0.41357557906E+02  0.75360656822E+01 -0.70982793652E+02  0.82603082730E+02  0.41800000000E+01 0. -1.
        -11    1    1    2    0    0 -0.65933122146E+02  0.11977697379E+02 -0.41277784394E+02  0.78705128898E+02  0.00000000000E+00 0. -1.
         11    1    1    2    0    0  0.28418258449E+02  0.48474003706E+01 -0.42892903961E+02  0.51680711236E+02  0.00000000000E+00 0.  1.
</event>
<event>
 7    1  0.2989693E-009  0.8290448E+02  0.7561462E-02  0.1321005E+00
          1   -1    0    0  501    0  0.00000000000E+00  0.00000000000E+00  0.15341931175E+02  0.15341931175E+02  0.00000000000E+00 0. -1.
         -1   -1    0    0    0  501 -0.00000000000E+00 -0.00000000000E+00 -0.10277348337E+04  0.10277348337E+04  0.00000000000E+00 0.  1.
         25    2    1    2    0    0  0.53728741503E+02 -0.15454263359E+02 -0.67048481064E+03  0.68434138835E+03  0.12509053756E+03 0.  0.
          5    1    3    3  502    0  0.22239162441E+02 -0.12699818273E+01 -0.63222054166E+03  0.63262665048E+03  0.41800000000E+01 0.  1.
         -5    1    3    3    0  502  0.31489579063E+02 -0.14184281532E+02 -0.38264268975E+02  0.51714737864E+02  0.41800000000E+01 0.  1.
        -11    1    1    2    0    0 -0.82325811133E+01 -0.37585574022E+02 -0.13267404448E+03  0.13814069945E+03  0.00000000000E+00 0. -1.
         11    1    1    2    0    0 -0.45496160390E+02  0.53039837382E+02 -0.20923404739E+03  0.22059467706E+03  0.00000000000E+00 0.  1.
</event>
<event>
 7    1  0.2989693E-009  0.8323473E+02  0.7561462E-02  0.1320115E+00
         -1   -1    0    0    0  501 -0.00000000000E+00  0.00000000000E+00  0.80015759310E+02  0.80015759310E+02  0.00000000000E+00 0.  1.
          1   -1    0    0  501    0  0.00000000000E+00 -0.00000000000E+00 -0.17858494132E+03  0.17858494132E+03  0.00000000000E+00 0. -1.
         25    2    1    2    0    0 -0.37867694600E+01 -0.45586148143E+02 -0.75833430377E+02  0.15326074275E+03  0.12508281089E+03 0.  0.
          5    1    3    3  502    0 -0.16904711049E+02 -0.58863617023E+02 -0.10307836570E+03  0.11997214902E+03  0.41800000000E+01 0. -1.
         -5    1    3    3    0  502  0.13117941589E+02  0.13277468880E+02  0.27244935325E+02  0.33288593726E+02  0.41800000000E+01 0. -1.
        -11    1    1    2    0    0 -0.33003756235E+02  0.34002876135E+02  0.16637679332E+02  0.50222065714E+02  0.00000000000E+00 0.  1.
         11    1    1    2    0    0  0.36790525695E+02  0.11583272008E+02 -0.39373430966E+02  0.55117892171E+02  0.00000000000E+00 0. -1.
</event>
<event>
 7    1  0.2989693E-009  0.1096850E+03  0.7561462E-02  0.1261154E+00
          2   -1    0    0  501    0  0.00000000000E+00  0.00000000000E+00  0.30627738625E+03  0.30627738625E+03  0.00000000000E+00 0.  1.
         -2   -1    0    0    0  501 -0.00000000000E+00 -0.00000000000E+00 -0.59605270594E+02  0.59605270594E+02  0.00000000000E+00 0. -1.
         25    2    1    2    0    0 -0.20618152410E+02  0.71378791848E+02  0.99361988170E+02  0.17618102692E+03  0.12508760697E+03 0.  0.
          5    1    3    3  502    0 -0.45011974523E+02 -0.13355342849E+02  0.67505509110E+02  0.82334131400E+02  0.41800000000E+01 0.  1.
         -5    1    3    3    0  502  0.24393822113E+02  0.84734134697E+02  0.31856479059E+02  0.93846895517E+02  0.41800000000E+01 0.  1.
        -11    1    1    2    0    0  0.30748952705E+02 -0.36955473504E+02  0.11773800978E+02  0.49495732178E+02  0.00000000000E+00 0. -1.
         11    1    1    2    0    0 -0.10130800294E+02 -0.34423318344E+02  0.13553632651E+03  0.14020589775E+03  0.00000000000E+00 0.  1.
</event>
<event>
 7    1  0.2989693E-009  0.9624442E+02  0.7561462E-02  0.1288398E+00
          4   -1    0    0  501    0  0.00000000000E+00  0.00000000000E+00  0.31592539110E+03  0.31592539110E+03  0.00000000000E+00 0. -1.
         -4   -1    0    0    0  501 -0.00000000000E+00 -0.00000000000E+00 -0.39608611761E+02  0.39608611761E+02  0.00000000000E+00 0.  1.
         25    2    1    2    0    0  0.13583260115E+02  0.14706392282E+02  0.15853880149E+03  0.20294823482E+03  0.12511055715E+03 0.  0.
          5    1    3    3  502    0 -0.55671664335E+02  0.78459882166E+01  0.80818229423E+02  0.98539090456E+02  0.41800000000E+01 0.  1.
         -5    1    3    3    0  502  0.69254924450E+02  0.68604040657E+01  0.77720572065E+02  0.10440914436E+03  0.41800000000E+01 0.  1.
        -11    1    1    2    0    0 -0.10368185585E+02 -0.39782383039E+02  0.12034613283E+03  0.12717440371E+03  0.00000000000E+00 0. -1.
         11    1    1    2    0    0 -0.32150745295E+01  0.25075990757E+02 -0.25681549851E+01  0.25411364322E+02  0.00000000000E+00 0.  1.
</event>
<event>
 7    1  0.2989693E-009  0.2806607E+03  0.7561462E-02  0.1095329E+00
          2   -1    0    0  501    0  0.00000000000E+00  0.00000000000E+00  0.12502959608E+04  0.12502959608E+04  0.00000000000E+00 0. -1.
         -2   -1    0    0    0  501 -0.00000000000E+00 -0.00000000000E+00 -0.66064780426E+02  0.66064780426E+02  0.00000000000E+00 0.  1.
         25    2    1    2    0    0 -0.12936719590E+03  0.23415954032E+03  0.57021541387E+03  0.64215185499E+03  0.12508726939E+03 0.  0.
          5    1    3    3  502    0 -0.20722178998E+02  0.16170387320E+03  0.34924294299E+03  0.38544215770E+03  0.41800000000E+01 0.  1.
         -5    1    3    3    0  502 -0.10864501690E+03  0.72455667121E+02  0.22097247088E+03  0.25670969729E+03  0.41800000000E+01 0.  1.
        -11    1    1    2    0    0  0.60250243127E+01 -0.13732615806E+02  0.66322668568E+01  0.16397335713E+02  0.00000000000E+00 0. -1.
         11    1    1    2    0    0  0.12334217159E+03 -0.22042692452E+03  0.60738349962E+03  0.65781155048E+03  0.00000000000E+00 0.  1.
</event>
<event>
 7    1  0.2989693E-009  0.1145296E+03  0.7561462E-02  0.1252404E+00
         -3   -1    0    0    0  501 -0.00000000000E+00  0.00000000000E+00  0.10715008888E+03  0.10715008888E+03  0.00000000000E+00 0.  1.
          3   -1    0    0  501    0  0.00000000000E+00 -0.00000000000E+00 -0.19428248689E+03  0.19428248689E+03  0.00000000000E+00 0. -1.
         25    2    1    2    0    0 -0.91734976045E+02 -0.97480663384E+01 -0.25167193125E+02  0.15745310118E+03  0.12509101020E+03 0.  0.
          5    1    3    3  502    0 -0.39675329514E+02  0.39323777135E+02 -0.56207833335E+02  0.79355429231E+02  0.41800000000E+01 0. -1.
         -5    1    3    3    0  502 -0.52059646531E+02 -0.49071843474E+02  0.31040640209E+02  0.78097671946E+02  0.41800000000E+01 0. -1.
        -11    1    1    2    0    0  0.82787652704E+02 -0.62756161138E+01 -0.82081099375E+02  0.11674967097E+03  0.00000000000E+00 0. -1.
         11    1    1    2    0    0  0.89473233405E+01  0.16023682452E+02  0.20115894486E+02  0.27229803621E+02  0.00000000000E+00 0.  1.
</event>
<event>
 7    1  0.2989693E-009  0.1182347E+03  0.7561462E-02  0.1246038E+00
         -2   -1    0    0    0  501 -0.00000000000E+00  0.00000000000E+00  0.16473378483E+03  0.16473378483E+03  0.00000000000E+00 0.  1.
          2   -1    0    0  501    0  0.00000000000E+00 -0.00000000000E+00 -0.15647383027E+03  0.15647383027E+03  0.00000000000E+00 0. -1.
         25    2    1    2    0    0 -0.78340136686E+02 -0.66406284770E+02  0.64414134424E+02  0.17419423707E+03  0.12508988705E+03 0.  0.
          5    1    3    3  502    0 -0.40396880124E+02 -0.31358434750E+01 -0.32649739304E+02  0.52203633156E+02  0.41800000000E+01 0.  1.
         -5    1    3    3    0  502 -0.37943256561E+02 -0.63270441295E+02  0.97063873729E+02  0.12199060391E+03  0.41800000000E+01 0.  1.
        -11    1    1    2    0    0  0.40151276483E+02  0.72784083734E+02 -0.67045386727E+02  0.10679293858E+03  0.00000000000E+00 0. -1.
         11    1    1    2    0    0  0.38188860203E+02 -0.63777989638E+01  0.10891206853E+02  0.40220439455E+02  0.00000000000E+00 0.  1.
</event>
<event>
 7    1  0.2989693E-009  0.2761751E+03  0.7561462E-02  0.1097797E+00
         -1   -1    0    0    0  501 -0.00000000000E+00  0.00000000000E+00  0.57480359399E+02  0.57480359399E+02  0.00000000000E+00 0.  1.
          1   -1    0    0  501    0  0.00000000000E+00 -0.00000000000E+00 -0.17435494126E+04  0.17435494126E+04  0.00000000000E+00 0. -1.
         25    2    1    2    0    0  0.12203906608E+03  0.24088445204E+03 -0.50220939412E+03  0.58376374590E+03  0.12508789948E+03 0.  0.
          5    1    3    3  502    0  0.66951546530E+02  0.10372116238E+03 -0.11300812172E+03  0.16741832959E+03  0.41800000000E+01 0. -1.
         -5    1    3    3    0  502  0.55087519551E+02  0.13716328966E+03 -0.38920127240E+03  0.41634541630E+03  0.41800000000E+01 0. -1.
        -11    1    1    2    0    0 -0.84710387224E+02 -0.82552004550E+02 -0.42405147478E+03  0.44023895378E+03  0.00000000000E+00 0.  1.
         11    1    1    2    0    0 -0.37328678858E+02 -0.15833244749E+03 -0.75980818433E+03  0.77702707235E+03  0.00000000000E+00 0. -1.
</event>
<event>
 7    1  0.2989693E-009  0.2045354E+03  0.7561462E-02  0.1145968E+00
          2   -1    0    0  501    0  0.00000000000E+00  0.00000000000E+00  0.21979068661E+04  0.21979068661E+04  0.00000000000E+00 0. -1.
         -2   -1    0    0    0  501 -0.00000000000E+00 -0.00000000000E+00 -0.52413854983E+02  0.52413854983E+02  0.00000000000E+00 0.  1.
         25    2    1    2    0    0 -0.15461256559E+03  0.12717337927E+03  0.19047462644E+04  0.19193185986E+04  0.12508971755E+03 0.  0.
          5    1    3    3  502    0 -0.63186805138E+02  0.85922170625E+02  0.51463043526E+03  0.52558267574E+03  0.41800000000E+01 0.  1.
         -5    1    3    3    0  502 -0.91425760455E+02  0.41251208647E+02  0.13901158291E+04  0.13937359229E+04  0.41800000000E+01 0.  1.
        -11    1    1    2    0    0  0.10130012646E+03 -0.66496518616E+02  0.21398618298E+03  0.24591378390E+03  0.00000000000E+00 0. -1.
         11    1    1    2    0    0  0.53312439137E+02 -0.60676860656E+02  0.26760563729E+02  0.85088338548E+02  0.00000000000E+00 0.  1.
</event>
<event>
 7    1  0.2989693E-009  0.1060371E+03  0.7561462E-02  0.1268090E+00
         -1   -1    0    0    0  501 -0.00000000000E+00  0.00000000000E+00  0.54340363284E+02  0.54340363284E+02  0.00000000000E+00 0.  1.
          1   -1    0    0  501    0  0.00000000000E+00 -0.00000000000E+00 -0.36700033932E+03  0.36700033932E+03  0.00000000000E+00 0. -1.
         25    2    1    2    0    0 -0.76843532296E+02  0.21984840358E+02 -0.10952851498E+03  0.18447678852E+03  0.12508768224E+03 0.  0.
          5    1    3    3  502    0 -0.35350602677E+02 -0.11213478532E+02  0.21464775203E+02  0.43053643108E+02  0.41800000000E+01 0.  1.
         -5    1    3    3    0  502 -0.41492929619E+02  0.33198318890E+02 -0.13099329019E+03  0.14142314541E+03  0.41800000000E+01 0.  1.
        -11    1    1    2    0    0  0.82502347504E+02  0.15153414073E+02 -0.13142529391E+03  0.15591302442E+03  0.00000000000E+00 0.  1.
         11    1    1    2    0    0 -0.56588152083E+01 -0.37138254431E+02 -0.71706167135E+02  0.80950889662E+02  0.00000000000E+00 0. -1.
</event>
<event>
 7    1  0.2989693E-009  0.1693254E+03  0.7561462E-02  0.1178553E+00
          1   -1    0    0  501    0  0.00000000000E+00  0.00000000000E+00  0.29227564650E+03  0.29227564650E+03  0.00000000000E+00 0. -1.
         -1   -1    0    0    0  501 -0.00000000000E+00 -0.00000000000E+00 -0.98247792135E+02  0.98247792135E+02  0.00000000000E+00 0.  1.
         25    2    1    2    0    0  0.69162956653E+01  0.12998127558E+03  0.10129416244E+03  0.20700539270E+03  0.12509099934E+03 0.  0.
          5    1    3    3  502    0 -0.47868400270E+02  0.11041886314E+02  0.23306733218E+02  0.54534238888E+02  0.41800000000E+01 0. -1.
         -5    1    3    3    0  502  0.54784695935E+02  0.11893938927E+03  0.77987429218E+02  0.15247115381E+03  0.41800000000E+01 0. -1.
        -11    1    1    2    0    0 -0.36735910635E+02 -0.15228919726E+02  0.21661520265E+02  0.45284308390E+02  0.00000000000E+00 0.  1.
         11    1    1    2    0    0  0.29819614970E+02 -0.11475235586E+03  0.71072171669E+02  0.13823373755E+03  0.00000000000E+00 0. -1.
</event>
<event>
 7    1  0.2989693E-009  0.1300424E+03  0.7561462E-02  0.1227393E+00
          2   -1    0    0  501    0  0.00000000000E+00  0.00000000000E+00  0.30475409392E+02  0.30475409392E+02  0.00000000000E+00 0. -1.
         -2   -1    0    0    0  501 -0.00000000000E+00 -0.00000000000E+00 -0.81771505942E+03  0.81771505942E+03  0.00000000000E+00 0.  1.
         25    2    1    2    0    0  0.51510439782E+02  0.10049908134E+03 -0.45323157973E+03  0.48354988200E+03  0.12509289655E+03 0.  0.
          5    1    3    3  502    0  0.10198997699E+02  0.10236250056E+02  0.40670213253E+01  0.15582471939E+02  0.41800000000E+01 0.  1.
         -5    1    3    3    0  502  0.41311442083E+02  0.90262831289E+02 -0.45729860105E+03  0.46796741006E+03  0.41800000000E+01 0.  1.
        -11    1    1    2    0    0 -0.71836895265E+02 -0.40782663234E+02 -0.20561653875E+03  0.22158954432E+03  0.00000000000E+00 0.  1.
         11    1    1    2    0    0  0.20326455483E+02 -0.59716418111E+02 -0.12839153155E+03  0.14305104249E+03  0.00000000000E+00 0. -1.
</event>
<event>
 7    1  0.2989693E-009  0.1252373E+03  0.7561462E-02  0.1234699E+00
          1   -1    0    0  501    0  0.00000000000E+00  0.00000000000E+00  0.85801207210E+03  0.85801207210E+03  0.00000000000E+00 0. -1.
         -1   -1    0    0    0  501 -0.00000000000E+00 -0.00000000000E+00 -0.26887438445E+02  0.26887438445E+02  0.00000000000E+00 0.  1.
         25    2    1    2    0    0 -0.95440879668E+01 -0.10469531425E+03  0.48208129988E+03  0.50901998938E+03  0.12508705550E+03 0.  0.
          5    1    3    3  502    0 -0.68792004909E+00 -0.11714506767E+03  0.47867359586E+03  0.49281773901E+03  0.41800000000E+01 0.  1.
         -5    1    3    3    0  502 -0.88561679177E+01  0.12449753419E+02  0.34077040255E+01  0.16202250372E+02  0.41800000000E+01 0.  1.
        -11    1    1    2    0    0 -0.14247286663E+02  0.85953913391E+02  0.32703272629E+03  0.33843975013E+03  0.00000000000E+00 0. -1.
         11    1    1    2    0    0  0.23791374630E+02  0.18741400863E+02  0.22010607485E+02  0.37439771032E+02  0.00000000000E+00 0.  1.
</event>
<event>
 7    1  0.2989693E-009  0.1520249E+03  0.7561462E-02  0.1198007E+00
         -4   -1    0    0    0  501 -0.00000000000E+00  0.00000000000E+00  0.49847707882E+02  0.49847707882E+02  0.00000000000E+00 0.  1.
          4   -1    0    0  501    0  0.00000000000E+00 -0.00000000000E+00 -0.51218444429E+03  0.51218444429E+03  0.00000000000E+00 0. -1.
         25    2    1    2    0    0 -0.13927209137E+02 -0.11581173952E+03 -0.25828609525E+03  0.30977458597E+03  0.12506902472E+03 0.  0.
          5    1    3    3  502    0 -0.35279218496E+02  0.39506509439E+01 -0.12160482652E+03  0.12674950546E+03  0.41800000000E+01 0.  1.
         -5    1    3    3    0  502  0.21352009359E+02 -0.11976239046E+03 -0.13668126873E+03  0.18302508051E+03  0.41800000000E+01 0.  1.
        -11    1    1    2    0    0  0.28585737449E+02  0.12569396532E+03 -0.19035895688E+03  0.22989704167E+03  0.00000000000E+00 0.  1.
         11    1    1    2    0    0 -0.14658528312E+02 -0.98822258054E+01 -0.13691684270E+02  0.22360524531E+02  0.00000000000E+00 0. -1.
</event>
<event>
 7    1  0.2989693E-009  0.1285060E+03  0.7561462E-02  0.1229690E+00
         -1   -1    0    0    0  501 -0.00000000000E+00  0.00000000000E+00  0.15784228512E+02  0.15784228512E+02  0.00000000000E+00 0.  1.
          1   -1    0    0  501    0  0.00000000000E+00 -0.00000000000E+00 -0.11686514287E+04  0.11686514287E+04  0.00000000000E+00 0. -1.
         25    2    1    2    0    0 -0.71185512928E+02 -0.44266328619E+01 -0.82760735515E+03  0.84004040739E+03  0.12508788681E+03 0.  0.
          5    1    3    3  502    0 -0.21334541955E+02 -0.63166150044E+02 -0.37482035833E+03  0.38072680312E+03  0.41800000000E+01 0. -1.
         -5    1    3    3    0  502 -0.49850970973E+02  0.58739517182E+02 -0.45278699681E+03  0.45931360427E+03  0.41800000000E+01 0. -1.
        -11    1    1    2    0    0  0.90500932258E+02  0.13863625939E+02 -0.27000407481E+03  0.28510492678E+03  0.00000000000E+00 0. -1.
         11    1    1    2    0    0 -0.19315419330E+02 -0.94369930775E+01 -0.55255770283E+02  0.59290323087E+02  0.00000000000E+00 0.  1.
</event>
<event>
 7    1  0.2989693E-009  0.9875591E+02  0.7561462E-02  0.1282934E+00
         -2   -1    0    0    0  501 -0.00000000000E+00  0.00000000000E+00  0.67528191887E+02  0.67528191887E+02  0.00000000000E+00 0.  1.
          2   -1    0    0  501    0  0.00000000000E+00 -0.00000000000E+00 -0.23897021521E+03  0.23897021521E+03  0.00000000000E+00 0. -1.
         25    2    1    2    0    0  0.23769835136E+02  0.19739394523E+02 -0.24946942232E+02  0.13124236781E+03  0.12509020915E+03 0.  0.
          5    1    3    3  502    0  0.36602538638E+02 -0.34563383503E+02  0.24886839942E+02  0.56313413289E+02  0.41800000000E+01 0. -1.
         -5    1    3    3    0  502 -0.12832703503E+02  0.54302778026E+02 -0.49833782174E+02  0.74928954525E+02  0.41800000000E+01 0. -1.
        -11    1    1    2    0    0 -0.53394366610E+02 -0.27994418019E+02 -0.67595268840E+02  0.90574644329E+02  0.00000000000E+00 0.  1.
         11    1    1    2    0    0  0.29624531474E+02  0.82550234955E+01 -0.78899812254E+02  0.84681394956E+02  0.00000000000E+00 0. -1.
</event>
<event>
 7    1  0.2989693E-009  0.1613451E+03  0.7561462E-02  0.1187186E+00
         -1   -1    0    0    0  501 -0.00000000000E+00  0.00000000000E+00  0.88858892790E+02  0.88858892790E+02  0.00000000000E+00 0.  1.
          1   -1    0    0  501    0  0.00000000000E+00 -0.00000000000E+00 -0.39308303224E+03  0.39308303224E+03  0.00000000000E+00 0. -1.
         25    2    1    2    0    0  0.12602176995E+03  0.84250872513E+02 -0.14540227583E+03  0.24447655029E+03  0.12508903152E+03 0.  0.
          5    1    3    3  502    0  0.42887185382E+02  0.34073779604E+02  0.14981839775E+02  0.56940855715E+02  0.41800000000E+01 0.  1.
         -5    1    3    3    0  502  0.83134584570E+02  0.50177092909E+02 -0.16038411560E+03  0.18753569458E+03  0.41800000000E+01 0.  1.
        -11    1    1    2    0    0 -0.13479054973E+03 -0.65500256959E+02 -0.11466581858E+03  0.18869824034E+03  0.00000000000E+00 0.  1.
         11    1    1    2    0    0  0.87687797814E+01 -0.18750615555E+02 -0.44156045048E+02  0.48767134392E+02  0.00000000000E+00 0. -1.
</event>
<event>
 7    1  0.2989693E-009  0.1099835E+03  0.7561462E-02  0.1260601E+00
          3   -1    0    0  501    0  0.00000000000E+00  0.00000000000E+00  0.34258357915E+02  0.34258357915E+02  0.00000000000E+00 0. -1.
         -3   -1    0    0    0  501 -0.00000000000E+00 -0.00000000000E+00 -0.49283607937E+03  0.49283607937E+03  0.00000000000E+00 0.  1.
         25    2    1    2    0    0  0.60309561090E+02  0.13788603985E+02 -0.18351027800E+03  0.23053654136E+03  0.12507480168E+03 0.  0.
          5    1    3    3  502    0  0.47978444502E+02 -0.36063470973E+02 -0.16526629685E+03  0.17587758910E+03  0.41800000000E+01 0.  1.
         -5    1    3    3    0  502  0.12331116588E+02  0.49852074959E+02 -0.18243981153E+02  0.54658952261E+02  0.41800000000E+01 0.  1.
        -11    1    1    2    0    0 -0.77035969573E+02 -0.32117138218E+02 -0.23551099939E+03  0.24986292644E+03  0.00000000000E+00 0.  1.
         11    1    1    2    0    0  0.16726408483E+02  0.18328534233E+02 -0.39556444075E+02  0.46694969490E+02  0.00000000000E+00 0. -1.
</event>
<event>
 7    1  0.2989693E-009  0.1252598E+03  0.7561462E-02  0.1234664E+00
         -1   -1    0    0    0  501 -0.00000000000E+00  0.00000000000E+00  0.36876894252E+02  0.36876894252E+02  0.00000000000E+00 0.  1.
          1   -1    0    0  501    0  0.00000000000E+00 -0.00000000000E+00 -0.49568794072E+03  0.49568794072E+03  0.00000000000E+00 0. -1.
         25    2    1    2    0    0  0.54474816319E+02 -0.34673156762E+02 -0.34660205878E+03  0.37409761389E+03  0.12508518758E+03 0.  0.
          5    1    3    3  502    0 -0.40736228659E+02 -0.13604749825E+02 -0.10377254679E+03  0.11238658020E+03  0.41800000000E+01 0.  1.
         -5    1    3    3    0  502  0.95211044978E+02 -0.21068406937E+02 -0.24282951200E+03  0.26171103368E+03  0.41800000000E+01 0.  1.
        -11    1    1    2    0    0 -0.26946906373E+02  0.64061061445E+02 -0.85341316776E+02  0.11005950984E+03  0.00000000000E+00 0. -1.
         11    1    1    2    0    0 -0.27527909946E+02 -0.29387904683E+02 -0.26867670904E+02  0.48407711240E+02  0.00000000000E+00 0.  1.
</event>
<event>
 7    1  0.2989693E-009  0.1595149E+03  0.7561462E-02  0.1189246E+00
         -2   -1    0    0    0  501 -0.00000000000E+00  0.00000000000E+00  0.14150966330E+03  0.14150966330E+03  0.00000000000E+00 0.  1.
          2   -1    0    0  501    0  0.00000000000E+00 -0.00000000000E+00 -0.25819867637E+03  0.25819867637E+03  0.00000000000E+00 0. -1.
         25    2    1    2    0    0  0.48075756075E+02  0.13781910258E+03 -0.70591651564E+00  0.19223222632E+03  0.12508935669E+03 0.  0.
          5    1    3    3  502    0  0.13193649318E+02  0.21561237250E+02 -0.53872504370E+02  0.59654660012E+02  0.41800000000E+01 0. -1.
         -5    1    3    3    0  502  0.34882106757E+02  0.11625786533E+03  0.53166587854E+02  0.13257756631E+03  0.41800000000E+01 0. -1.
        -11    1    1    2    0    0 -0.72424641223E+02 -0.73509041009E+02 -0.66671155591E+02  0.12285744078E+03  0.00000000000E+00 0.  1.
         11    1    1    2    0    0  0.24348885147E+02 -0.64310061575E+02 -0.49311940961E+02  0.84618672579E+02  0.00000000000E+00 0. -1.
</event>
<event>
 7    1  0.2989693E-009  0.1224195E+03  0.7561462E-02  0.1239158E+00
         -2   -1    0    0    0  501 -0.00000000000E+00  0.00000000000E+00  0.10386721831E+03  0.10386721831E+03  0.00000000000E+00 0.  1.
          2   -1    0    0  501    0  0.00000000000E+00 -0.00000000000E+00 -0.17945057033E+03  0.17945057033E+03  0.00000000000E+00 0. -1.
         25    2    1    2    0    0 -0.35183015665E+02  0.66132600844E+02 -0.82974988450E+02  0.16776136741E+03  0.12509061596E+03 0.  0.
          5    1    3    3  502    0  0.40203338650E+02  0.28101726704E+02  0.10922776547E+00  0.49229054562E+02  0.41800000000E+01 0. -1.
         -5    1    3    3    0  502 -0.75386354316E+02  0.38030874140E+02 -0.83084216216E+02  0.11853231285E+03  0.41800000000E+01 0. -1.
        -11    1    1    2    0    0 -0.20348898990E+02 -0.48838247235E+02 -0.11989971204E+02  0.54249529883E+02  0.00000000000E+00 0.  1.
         11    1    1    2    0    0  0.55531914655E+02 -0.17294353610E+02  0.19381607642E+02  0.61306891348E+02  0.00000000000E+00 0. -1.
</event>
<event>
 7    1  0.2989693E-009  0.9841454E+02  0.7561462E-02  0.1283666E+00
          2   -1    0    0  501    0  0.00000000000E+00  0.00000000000E+00  0.90716650236E+02  0.90716650236E+02  0.00000000000E+00 0. -1.
         -2   -1    0    0    0  501 -0.00000000000E+00 -0.00000000000E+00 -0.13906412180E+03  0.13906412180E+03  0.00000000000E+00 0.  1.
         25    2    1    2    0    0 -0.10042819331E+02 -0.26389648893E+02 -0.45269880217E+02  0.13599383382E+03  0.12509072305E+03 0.  0.
          5    1    3    3  502    0  0.43475054568E+02  0.19272078423E+02 -0.44874229904E+02  0.65518411809E+02  0.41800000000E+01 0.  1.
         -5    1    3    3    0  502 -0.53517873899E+02 -0.45661727316E+02 -0.39565031322E+00  0.70475422009E+02  0.41800000000E+01 0.  1.
        -11    1    1    2    0    0  0.22368290114E+02 -0.20373583108E+02  0.23767880101E+02  0.38475127236E+02  0.00000000000E+00 0. -1.
         11    1    1    2    0    0 -0.12325470783E+02  0.46763232000E+02 -0.26845471451E+02  0.55311810986E+02  0.00000000000E+00 0.  1.
</event>
<event>
 7    1  0.2989693E-009  0.1793356E+03  0.7561462E-02  0.1168448E+00
          2   -1    0    0  501    0  0.00000000000E+00  0.00000000000E+00  0.48136656599E+03  0.48136656599E+03  0.00000000000E+00 0. -1.
         -2   -1    0    0    0  501 -0.00000000000E+00 -0.00000000000E+00 -0.72440960762E+02  0.72440960762E+02  0.00000000000E+00 0.  1.
         25    2    1    2    0    0 -0.13889742753E+03 -0.58331074236E+02  0.24274020036E+03  0.31187376496E+03  0.12508969104E+03 0.  0.
          5    1    3    3  502    0 -0.10151441076E+03 -0.88954119183E+02  0.12291022199E+03  0.18259903062E+03  0.41800000000E+01 0.  1.
         -5    1    3    3    0  502 -0.37383016762E+02  0.30623044947E+02  0.11982997837E+03  0.12927473434E+03  0.41800000000E+01 0.  1.
        -11    1    1    2    0    0  0.95864877086E+02  0.81879884837E+02  0.12902152709E+03  0.18039108806E+03  0.00000000000E+00 0. -1.
         11    1    1    2    0    0  0.43032550440E+02 -0.23548810601E+02  0.37163877777E+02  0.61542673727E+02  0.00000000000E+00 0.  1.
</event>
<event>
 7    1  0.2989693E-009  0.1154721E+03  0.7561462E-02  0.1250759E+00
         -1   -1    0    0    0  501 -0.00000000000E+00  0.00000000000E+00  0.32557802125E+03  0.32557802125E+03  0.00000000000E+00 0.  1.
          1   -1    0    0  501    0  0.00000000000E+00 -0.00000000000E+00 -0.55813137882E+02  0.55813137882E+02  0.00000000000E+00 0. -1.
         25    2    1    2    0    0 -0.49166964171E+02 -0.11662646253E+02  0.61421834647E+02  0.14823574893E+03  0.12509111801E+03 0.  0.
          5    1    3    3  502    0 -0.85433238591E+02 -0.25484518498E+02  0.20287693092E+02  0.91527929235E+02  0.41800000000E+01 0.  1.
         -5    1    3    3    0  502  0.36266274420E+02  0.13821872244E+02  0.41134141555E+02  0.56707819691E+02  0.41800000000E+01 0.  1.
        -11    1    1    2    0    0 -0.72734400096E+01 -0.31041441047E+02  0.45111755483E+02  0.55240786333E+02  0.00000000000E+00 0. -1.
         11    1    1    2    0    0  0.56440404180E+02  0.42704087301E+02  0.16323129324E+03  0.17791462388E+03  0.00000000000E+00 0.  1.
</event>
<event>
 7    1  0.2989693E-009  0.1995023E+03  0.7561462E-02  0.1150160E+00
          1   -1    0    0  501    0  0.00000000000E+00  0.00000000000E+00  0.56352343294E+03  0.56352343294E+03  0.00000000000E+00 0. -1.
         -1   -1    0    0    0  501 -0.00000000000E+00 -0.00000000000E+00 -0.86870288782E+02  0.86870288782E+02  0.00000000000E+00 0.  1.
         25    2    1    2    0    0  0.15627775884E+03 -0.10605773909E+03  0.30185477796E+03  0.37740481520E+03  0.12508839128E+03 0.  0.
          5    1    3    3  502    0  0.18866173146E+02 -0.29926949046E+02 -0.16154719986E+01  0.35660018482E+02  0.41800000000E+01 0.  1.
         -5    1    3    3    0  502  0.13741158569E+03 -0.76130790041E+02  0.30347024996E+03  0.34174479672E+03  0.41800000000E+01 0.  1.
        -11    1    1    2    0    0 -0.15573030940E+03  0.70965846373E+02  0.12439689576E+03  0.21157189864E+03  0.00000000000E+00 0.  1.
         11    1    1    2    0    0 -0.54744943436E+00  0.35091892714E+02  0.50401470437E+02  0.61417007883E+02  0.00000000000E+00 0. -1.
</event>
<event>
 7    1  0.2989693E-009  0.1302173E+03  0.7561462E-02  0.1227134E+00
          2   -1    0    0  501    0  0.00000000000E+00  0.00000000000E+00  0.72064261009E+03  0.72064261009E+03  0.00000000000E+00 0. -1.
         -2   -1    0    0    0  501 -0.00000000000E+00 -0.00000000000E+00 -0.45274235973E+02  0.45274235973E+02  0.00000000000E+00 0.  1.
         25    2    1    2    0    0 -0.84464305705E+02  0.56503049970E+02  0.57064490904E+03  0.59296676233E+03  0.12508859030E+03 0.  0.
          5    1    3    3  502    0 -0.63318244493E+02  0.73541782632E+02  0.21112001948E+03  0.23239347862E+03  0.41800000000E+01 0. -1.
         -5    1    3    3    0  502 -0.21146061211E+02 -0.17038732662E+02  0.35952488956E+03  0.36057328371E+03  0.41800000000E+01 0. -1.
        -11    1    1    2    0    0 -0.19487357273E+02 -0.72231750979E+01  0.27178608712E+02  0.34214150925E+02  0.00000000000E+00 0. -1.
         11    1    1    2    0    0  0.10395166298E+03 -0.49279874872E+02  0.77544856366E+02  0.13873593281E+03  0.00000000000E+00 0.  1.
</event>
<event>
 7    1  0.2989693E-009  0.2450551E+03  0.7561462E-02  0.1116470E+00
          1   -1    0    0  501    0  0.00000000000E+00  0.00000000000E+00  0.22966415596E+03  0.22966415596E+03  0.00000000000E+00 0. -1.
         -1   -1    0    0    0  501 -0.00000000000E+00 -0.00000000000E+00 -0.31003761437E+03  0.31003761437E+03  0.00000000000E+00 0.  1.
         25    2    1    2    0    0  0.22542129416E+03  0.75295600858E+02 -0.95122835184E+02  0.28492102760E+03  0.12508977107E+03 0.  0.
          5    1    3    3  502    0  0.14336089405E+03  0.14847892052E+02 -0.11063403281E+03  0.18174203547E+03  0.41800000000E+01 0.  1.
         -5    1    3    3    0  502  0.82060400114E+02  0.60447708807E+02  0.15511197622E+02  0.10317899214E+03  0.41800000000E+01 0.  1.
        -11    1    1    2    0    0 -0.10437125313E+03 -0.63786268508E+02  0.43514069098E+02  0.12982881321E+03  0.00000000000E+00 0. -1.
         11    1    1    2    0    0 -0.12105004103E+03 -0.11509332351E+02 -0.28764692329E+02  0.12495192952E+03  0.00000000000E+00 0.  1.
</event>
<event>
 7    1  0.2989693E-009  0.1072498E+03  0.7561462E-02  0.1265749E+00
          2   -1    0    0  501    0  0.00000000000E+00  0.00000000000E+00  0.40839016379E+03  0.40839016379E+03  0.00000000000E+00 0. -1.
         -2   -1    0    0    0  501 -0.00000000000E+00 -0.00000000000E+00 -0.43647572776E+02  0.43647572776E+02  0.00000000000E+00 0.  1.
         25    2    1    2    0    0  0.34110773960E+02  0.64493640403E+02  0.16204301391E+03  0.21732030454E+03  0.12508877590E+03 0.  0.
          5    1    3    3  502    0  0.30913259774E+02 -0.13160050824E+02 -0.38514091405E+01  0.34075244972E+02  0.41800000000E+01 0. -1.
         -5    1    3    3    0  502  0.31975141865E+01  0.77653691227E+02  0.16589442305E+03  0.18324505957E+03  0.41800000000E+01 0. -1.
        -11    1    1    2    0    0 -0.53679383431E+02 -0.26034518118E+02  0.56078518913E+02  0.81878401442E+02  0.00000000000E+00 0.  1.
         11    1    1    2    0    0  0.19568609470E+02 -0.38459122285E+02  0.14662105820E+03  0.15283903059E+03  0.00000000000E+00 0. -1.
</event>
<event>
 7    1  0.2989693E-009  0.1001147E+03  0.7561462E-02  0.1280055E+00
          2   -1    0    0  501    0  0.00000000000E+00  0.00000000000E+00  0.14082043778E+04  0.14082043778E+04  0.00000000000E+00 0. -1.
         -2   -1    0    0    0  501 -0.00000000000E+00 -0.00000000000E+00 -0.90704647100E+01  0.90704647100E+01  0.00000000000E+00 0.  1.
         25    2    1    2    0    0  0.89711692226E+01  0.30756016229E+02  0.90086566752E+03  0.91007301167E+03  0.12509005251E+03 0.  0.
          5    1    3    3  502    0 -0.22633014405E+02  0.59581791765E+02  0.25861531465E+03  0.26638617949E+03  0.41800000000E+01 0. -1.
         -5    1    3    3    0  502  0.31604183628E+02 -0.28825775536E+02  0.64225035287E+03  0.64368683218E+03  0.41800000000E+01 0. -1.
        -11    1    1    2    0    0 -0.25790104537E+02  0.24528040619E+02  0.14945574823E+03  0.15363520088E+03  0.00000000000E+00 0.  1.
         11    1    1    2    0    0  0.16818935314E+02 -0.55284056848E+02  0.34881249729E+03  0.35356662992E+03  0.00000000000E+00 0. -1.
</event>
<event>
 7    1  0.2989693E-009  0.1421006E+03  0.7561462E-02  0.1210530E+00
         -2   -1    0    0    0  501 -0.00000000000E+00  0.00000000000E+00  0.19924708930E+02  0.19924708930E+02  0.00000000000E+00 0.  1.
          2   -1    0    0  501    0  0.00000000000E+00 -0.00000000000E+00 -0.12001901664E+04  0.12001901664E+04  0.00000000000E+00 0. -1.
         25    2    1    2    0    0 -0.22367300737E+02 -0.10386251706E+03 -0.75191200950E+03  0.76961520344E+03  0.12509265666E+03 0.  0.
          5    1    3    3  502    0 -0.52629477914E+02 -0.11593773919E+03 -0.51942212541E+03  0.53481607874E+03  0.41800000000E+01 0. -1.
         -5    1    3    3    0  502  0.30262177177E+02  0.12075222133E+02 -0.23248988409E+03  0.23479912470E+03  0.41800000000E+01 0. -1.
        -11    1    1    2    0    0 -0.16761386229E+02  0.70724396332E+02 -0.34550471901E+03  0.35306712558E+03  0.00000000000E+00 0. -1.
         11    1    1    2    0    0  0.39128686965E+02  0.33138120728E+02 -0.82848728932E+02  0.97432546280E+02  0.00000000000E+00 0.  1.
</event>
<event>
 7    1  0.2989693E-009  0.1087674E+03  0.7561462E-02  0.1262870E+00
         -1   -1    0    0    0  501 -0.00000000000E+00  0.00000000000E+00  0.24764209216E+02  0.24764209216E+02  0.00000000000E+00 0.  1.
          1   -1    0    0  501    0  0.00000000000E+00 -0.00000000000E+00 -0.56784507532E+03  0.56784507532E+03  0.00000000000E+00 0. -1.
         25    2    1    2    0    0  0.21010073956E+02  0.39711155580E+02 -0.36587208809E+03  0.38926657057E+03  0.12509068323E+03 0.  0.
          5    1    3    3  502    0 -0.44630592543E+02  0.11116315171E+02 -0.63583040134E+02  0.78585861619E+02  0.41800000000E+01 0. -1.
         -5    1    3    3    0  502  0.65640666499E+02  0.28594840409E+02 -0.30228904796E+03  0.31068070895E+03  0.41800000000E+01 0. -1.
        -11    1    1    2    0    0  0.15342947885E+01 -0.65419475487E+02 -0.11211038898E+03  0.12981063574E+03  0.00000000000E+00 0.  1.
         11    1    1    2    0    0 -0.22544368744E+02  0.25708319907E+02 -0.65098389035E+02  0.73532078234E+02  0.00000000000E+00 0. -1.
</event>
<event>
 7    1  0.2989693E-009  0.2522801E+03  0.7561462E-02  0.1111872E+00
         -3   -1    0    0    0  501 -0.00000000000E+00  0.00000000000E+00  0.92550946483E+03  0.92550946483E+03  0.00000000000E+00 0.  1.
          3   -1    0    0  501    0  0.00000000000E+00 -0.00000000000E+00 -0.77634188155E+02  0.77634188155E+02  0.00000000000E+00 0. -1.
         25    2    1    2    0    0 -0.12496366299E+03 -0.20669369123E+03  0.35884213036E+03  0.45028015888E+03  0.12508536242E+03 0.  0.
          5    1    3    3  502    0 -0.11523049423E+02  0.97115460070E+01  0.70967690643E+02  0.72670353715E+02  0.41800000000E+01 0. -1.
         -5    1    3    3    0  502 -0.11344061357E+03 -0.21640523723E+03  0.28787443972E+03  0.37760980516E+03  0.41800000000E+01 0. -1.
        -11    1    1    2    0    0  0.15859417025E+02  0.57956948616E+02  0.20954835154E+03  0.21799321235E+03  0.00000000000E+00 0.  1.
         11    1    1    2    0    0  0.10910424597E+03  0.14873674261E+03  0.27948479478E+03  0.33487028176E+03  0.00000000000E+00 0. -1.
</event>
<event>
 7    1  0.2989693E-009  0.1074005E+03  0.7561462E-02  0.1265461E+00
         -2   -1    0    0    0  501 -0.00000000000E+00  0.00000000000E+00  0.61949286503E+03  0.61949286503E+03  0.00000000000E+00 0.  1.
          2   -1    0    0  501    0  0.00000000000E+00 -0.00000000000E+00 -0.21030188649E+02  0.21030188649E+02  0.00000000000E+00 0. -1.
         25    2    1    2    0    0 -0.15911981903E+02 -0.31680796088E+02  0.32331991498E+03  0.34848329502E+03  0.12509186814E+03 0.  0.
          5    1    3    3  502    0  0.47203098034E+02 -0.32790301062E+02  0.91065717154E+02  0.10776721927E+03  0.41800000000E+01 0.  1.
         -5    1    3    3    0  502 -0.63115079937E+02  0.11095049748E+01  0.23225419783E+03  0.24071607575E+03  0.41800000000E+01 0.  1.
        -11    1    1    2    0    0 -0.83401323849E+01 -0.28146168259E+02  0.12859809291E+03  0.13190615640E+03  0.00000000000E+00 0. -1.
         11    1    1    2    0    0  0.24252114288E+02  0.59826964347E+02  0.14654466849E+03  0.16013360226E+03  0.00000000000E+00 0.  1.
</event>
<event>
 7    1  0.2989693E-009  0.9821549E+02  0.7561462E-02  0.1284094E+00
          1   -1    0    0  501    0  0.00000000000E+00  0.00000000000E+00  0.24520135541E+03  0.24520135541E+03  0.00000000000E+00 0. -1.
         -1   -1    0    0    0  501 -0.00000000000E+00 -0.00000000000E+00 -0.66466516310E+02  0.66466516310E+02  0.00000000000E+00 0.  1.
         25    2    1    2    0    0  0.39269604538E+02  0.53199725612E+02  0.82084953427E+02  0.16358072860E+03  0.12509357516E+03 0.  0.
          5    1    3    3  502    0  0.34976453878E+02  0.72747889943E+02  0.19208038227E+01  0.80850291925E+02  0.41800000000E+01 0. -1.
         -5    1    3    3    0  502  0.42931506602E+01 -0.19548164331E+02  0.80164149605E+02  0.82730436679E+02  0.41800000000E+01 0. -1.
        -11    1    1    2    0    0 -0.48114735310E+02 -0.76040090290E+01  0.88373910632E+02  0.10090984485E+03  0.00000000000E+00 0. -1.
         11    1    1    2    0    0  0.88451307714E+01 -0.45595716583E+02  0.82759750424E+01  0.47177298269E+02  0.00000000000E+00 0.  1.
</event>
<event>
 7    1  0.2989693E-009  0.1608105E+03  0.7561462E-02  0.1187785E+00
         -2   -1    0    0    0  501 -0.00000000000E+00  0.00000000000E+00  0.11601788546E+03  0.11601788546E+03  0.00000000000E+00 0.  1.
          2   -1    0    0  501    0  0.00000000000E+00 -0.00000000000E+00 -0.40763161584E+03  0.40763161584E+03  0.00000000000E+00 0. -1.
         25    2    1    2    0    0 -0.12814906661E+03 -0.55259426886E+02 -0.30383686734E+03  0.35698725325E+03  0.12508904628E+03 0.  0.
          5    1    3    3  502    0 -0.48653254379E+02  0.27052161858E+02 -0.37983253140E+02  0.67521541318E+02  0.41800000000E+01 0. -1.
         -5    1    3    3    0  502 -0.79495812226E+02 -0.82311588744E+02 -0.26585361420E+03  0.28946571193E+03  0.41800000000E+01 0. -1.
        -11    1    1    2    0    0  0.22016666193E+02  0.37777162125E+02  0.35841350268E+02  0.56537155548E+02  0.00000000000E+00 0.  1.
         11    1    1    2    0    0  0.10613240041E+03  0.17482264762E+02 -0.23618213304E+02  0.11012509250E+03  0.00000000000E+00 0. -1.
</event>
<event>
 7    1  0.2989693E-009  0.1061052E+03  0.7561462E-02  0.1267957E+00
         -2   -1    0    0    0  501 -0.00000000000E+00  0.00000000000E+00  0.75848548239E+02  0.75848548239E+02  0.00000000000E+00 0.  1.
          2   -1    0    0  501    0  0.00000000000E+00 -0.00000000000E+00 -0.25409929332E+03  0.25409929332E+03  0.00000000000E+00 0. -1.
         25    2    1    2    0    0  0.67079412312E+02 -0.27515255101E+01 -0.31730608092E+02  0.14545470275E+03  0.12507206169E+03 0.  0.
          5    1    3    3  502    0 -0.16694774887E+02  0.85942353484E+01  0.33475012836E+02  0.38608616579E+02  0.41800000000E+01 0. -1.
         -5    1    3    3    0  502  0.83774187199E+02 -0.11345760859E+02 -0.65205620928E+02  0.10684608618E+03  0.41800000000E+01 0. -1.
        -11    1    1    2    0    0 -0.75943940431E+01  0.38292058461E+02 -0.77034804893E+02  0.86361552366E+02  0.00000000000E+00 0.  1.
         11    1    1    2    0    0 -0.59485018269E+02 -0.35540532951E+02 -0.69485332099E+02  0.98131586443E+02  0.00000000000E+00 0. -1.
</event>
<event>
 7    1  0.2989693E-009  0.1369973E+03  0.7561462E-02  0.1217427E+00
          1   -1    0    0  501    0  0.00000000000E+00  0.00000000000E+00  0.21731715542E+03  0.21731715542E+03  0.00000000000E+00 0. -1.
         -1   -1    0    0    0  501 -0.00000000000E+00 -0.00000000000E+00 -0.16619065658E+03  0.16619065658E+03  0.00000000000E+00 0.  1.
         25    2    1    2    0    0  0.11290943463E+03 -0.75575462342E+02 -0.52658304499E+02  0.19204289053E+03  0.12508950329E+03 0.  0.
          5    1    3    3  502    0  0.38443175433E+01 -0.65607898908E+01  0.34939572388E+02  0.36000956376E+02  0.41800000000E+01 0. -1.
         -5    1    3    3    0  502  0.10906511709E+03 -0.69014672452E+02 -0.87597876887E+02  0.15604193415E+03  0.41800000000E+01 0. -1.
        -11    1    1    2    0    0 -0.64648067308E+02  0.48737069057E+02  0.10924381697E+03  0.13597384326E+03  0.00000000000E+00 0. -1.
         11    1    1    2    0    0 -0.48261367325E+02  0.26838393285E+02 -0.54590136208E+01  0.55491078201E+02  0.00000000000E+00 0.  1.
</event>
<event>
 7    1  0.2989693E-009  0.1302886E+03  0.7561462E-02  0.1227028E+00
         -1   -1    0    0    0  501 -0.00000000000E+00  0.00000000000E+00  0.81890497082E+02  0.81890497082E+02  0.00000000000E+00 0.  1.
          1   -1    0    0  501    0  0.00000000000E+00 -0.00000000000E+00 -0.23990453123E+03  0.23990453123E+03  0.00000000000E+00 0. -1.
         25    2    1    2    0    0  0.59705954847E+02 -0.52858929645E+02 -0.47197226669E+02  0.15567127675E+03  0.12508837162E+03 0.  0.
          5    1    3    3  502    0  0.83242813810E+02 -0.77550156604E+02 -0.38991970685E+02  0.12033801984E+03  0.41800000000E+01 0.  1.
         -5    1    3    3    0  502 -0.23536858963E+02  0.24691226959E+02 -0.82052559839E+01  0.35333256917E+02  0.41800000000E+01 0.  1.
        -11    1    1    2    0    0 -0.11355583514E+01 -0.19352484308E+02  0.24972305105E+01  0.19545953594E+02  0.00000000000E+00 0. -1.
         11    1    1    2    0    0 -0.58570396496E+02  0.72211413953E+02 -0.11331403799E+03  0.14657779796E+03  0.00000000000E+00 0.  1.
</event>
<event>
 7    1  0.2989693E-009  0.1157451E+03  0.7561462E-02  0.1250286E+00
         -4   -1    0    0    0  501 -0.00000000000E+00  0.00000000000E+00  0.21790463773E+02  0.21790463773E+02  0.00000000000E+00 0.  1.
          4   -1    0    0  501    0  0.00000000000E+00 -0.00000000000E+00 -0.72816898235E+03  0.72816898235E+03  0.00000000000E+00 0. -1.
         25    2    1    2    0    0 -0.43997881031E+02 -0.12029456721E+02 -0.52923133127E+03  0.54572330597E+03  0.12509038059E+03 0.  0.
          5    1    3    3  502    0 -0.74848665452E+02  0.28586828399E+02 -0.27868878142E+03  0.29000765295E+03  0.41800000000E+01 0.  1.
         -5    1    3    3    0  502  0.30850784420E+02 -0.40616285120E+02 -0.25054254985E+03  0.25571565302E+03  0.41800000000E+01 0.  1.
        -11    1    1    2    0    0  0.70554942192E+02  0.18104794619E+02 -0.14362208720E+03  0.16103753410E+03  0.00000000000E+00 0.  1.
         11    1    1    2    0    0 -0.26557061161E+02 -0.60753378984E+01 -0.33525100102E+02  0.43198606053E+02  0.00000000000E+00 0. -1.
</event>
<event>
 7    1  0.2989693E-009  0.1847107E+03  0.7561462E-02  0.1163320E+00
          2   -1    0    0  501    0  0.00000000000E+00  0.00000000000E+00  0.75729672194E+02  0.75729672194E+02  0.00000000000E+00 0. -1.
         -2   -1    0    0    0  501 -0.00000000000E+00 -0.00000000000E+00 -0.47500715893E+03  0.47500715893E+03  0.00000000000E+00 0.  1.
         25    2    1    2    0    0  0.14104732678E+03  0.56734046250E+02 -0.16573771315E+03  0.25735033149E+03  0.12508838141E+03 0.  0.
          5    1    3    3  502    0  0.54640138149E+02 -0.39151818268E+02 -0.49275817999E+02  0.83450513540E+02  0.41800000000E+01 0.  1.
         -5    1    3    3    0  502  0.86407188634E+02  0.95885864517E+02 -0.11646189515E+03  0.17389981795E+03  0.41800000000E+01 0.  1.
        -11    1    1    2    0    0 -0.12135834488E+03 -0.94679378329E+01 -0.19253762757E+03  0.22778987631E+03  0.00000000000E+00 0. -1.
         11    1    1    2    0    0 -0.19688981905E+02 -0.47266108417E+02 -0.41002146015E+02  0.65596623321E+02  0.00000000000E+00 0.  1.
</event>
<event>
 7    1  0.2989693E-009  0.1345392E+03  0.7561462E-02  0.1220872E+00
          2   -1    0    0  501    0  0.00000000000E+00  0.00000000000E+00  0.60753640012E+02  0.60753640012E+02  0.00000000000E+00 0.  1.
         -2   -1    0    0    0  501 -0.00000000000E+00 -0.00000000000E+00 -0.36704165382E+03  0.36704165382E+03  0.00000000000E+00 0. -1.
         25    2    1    2    0    0 -0.59859909230E+02 -0.82522984619E+02 -0.17478528134E+03  0.23788807146E+03  0.12509032036E+03 0.  0.
          5    1    3    3  502    0 -0.67591406529E+01  0.22474763814E+02  0.36441397134E+01  0.24115413019E+02  0.41800000000E+01 0. -1.
         -5    1    3    3    0  502 -0.53100768577E+02 -0.10499774843E+03 -0.17842942105E+03  0.21377265844E+03  0.41800000000E+01 0. -1.
        -11    1    1    2    0    0  0.74122958303E+02  0.43472946185E+02 -0.52681159522E+02  0.10079392128E+03  0.00000000000E+00 0.  1.
         11    1    1    2    0    0 -0.14263049073E+02  0.39050038434E+02 -0.78821572948E+02  0.89113301098E+02  0.00000000000E+00 0. -1.
</event>
<event>
 7    1  0.2989693E-009  0.1198553E+03  0.7561462E-02  0.1243336E+00
         -2   -1    0    0    0  501 -0.00000000000E+00  0.00000000000E+00  0.19466992449E+02  0.19466992449E+02  0.00000000000E+00 0. -1.
          2   -1    0    0  501    0  0.00000000000E+00 -0.00000000000E+00 -0.94041394447E+03  0.94041394447E+03  0.00000000000E+00 0.  1.
         25    2    1    2    0    0 -0.22076484140E+02  0.74467894896E+02 -0.57945115986E+03  0.59786887631E+03  0.12510279004E+03 0.  0.
          5    1    3    3  502    0 -0.43784745931E+02 -0.34289862100E+01 -0.75425988500E+02  0.87380856393E+02  0.41800000000E+01 0.  1.
         -5    1    3    3    0  502  0.21708261791E+02  0.77896881106E+02 -0.50402517136E+03  0.51048801992E+03  0.41800000000E+01 0.  1.
        -11    1    1    2    0    0  0.33296741265E+02 -0.89712121252E+02 -0.31655280407E+03  0.33070018967E+03  0.00000000000E+00 0.  1.
         11    1    1    2    0    0 -0.11220257125E+02  0.15244226356E+02 -0.24942988091E+02  0.31311870945E+02  0.00000000000E+00 0. -1.
</event>
<event>
 7    1  0.2989693E-009  0.1166223E+03  0.7561462E-02  0.1248776E+00
          2   -1    0    0  501    0  0.00000000000E+00  0.00000000000E+00  0.30578859487E+02  0.30578859487E+02  0.00000000000E+00 0. -1.
         -2   -1    0    0    0  501 -0.00000000000E+00 -0.00000000000E+00 -0.53808590150E+03  0.53808590150E+03  0.00000000000E+00 0.  1.
         25    2    1    2    0    0  0.50975618794E+01 -0.44119895866E+02 -0.40006682312E+03  0.42151437540E+03  0.12509338655E+03 0.  0.
          5    1    3    3  502    0 -0.28880852262E+02 -0.78761298070E+02 -0.24780547743E+03  0.26165334461E+03  0.41800000000E+01 0. -1.
         -5    1    3    3    0  502  0.33978414141E+02  0.34641402204E+02 -0.15226134569E+03  0.15986103079E+03  0.41800000000E+01 0. -1.
        -11    1    1    2    0    0 -0.46781378215E+02  0.13077930512E+02 -0.51775922601E+02  0.70994899643E+02  0.00000000000E+00 0.  1.
         11    1    1    2    0    0  0.41683816335E+02  0.31041965354E+02 -0.55664296290E+02  0.76155485940E+02  0.00000000000E+00 0. -1.
</event>
<event>
 7    1  0.2989693E-009  0.1016369E+03  0.7561462E-02  0.1276891E+00
         -2   -1    0    0    0  501 -0.00000000000E+00  0.00000000000E+00  0.28628141744E+02  0.28628141744E+02  0.00000000000E+00 0.  1.
          2   -1    0    0  501    0  0.00000000000E+00 -0.00000000000E+00 -0.65860985307E+03  0.65860985307E+03  0.00000000000E+00 0. -1.
         25    2    1    2    0    0 -0.50422531101E+02  0.69209042055E+02 -0.40443929921E+03  0.43191572880E+03  0.12509087456E+03 0.  0.
          5    1    3    3  502    0  0.16805748997E+02  0.24815623243E+02 -0.29181653683E+03  0.29338134215E+03  0.41800000000E+01 0. -1.
         -5    1    3    3    0  502 -0.67228280098E+02  0.44393418812E+02 -0.11262276238E+03  0.13853438665E+03  0.41800000000E+01 0. -1.
        -11    1    1    2    0    0  0.38395974458E+02 -0.23365469425E+02 -0.19217141637E+03  0.19735766843E+03  0.00000000000E+00 0. -1.
         11    1    1    2    0    0  0.12026556643E+02 -0.45843572630E+02 -0.33370995747E+02  0.57964597586E+02  0.00000000000E+00 0.  1.
</event>
<event>
 7    1  0.4600339E-009  0.1942000E+03  0.7561462E-02  0.1154727E+00
         -1   -1    0    0    0  501 -0.00000000000E+00  0.00000000000E+00  0.19309287294E+02  0.19309287294E+02  0.00000000000E+00 0.  1.
          1   -1    0    0  501    0  0.00000000000E+00 -0.00000000000E+00 -0.25388276126E+04  0.25388276126E+04  0.00000000000E+00 0. -1.
         25    2    1    2    0    0  0.60983107522E+02  0.17193827787E+03 -0.16635415849E+04  0.16781834476E+04  0.12508944103E+03 0.  0.
          5    1    3    3  502    0  0.83704942435E+02  0.10688557095E+03 -0.13661133815E+04  0.13728489670E+04  0.41800000000E+01 0.  1.
         -5    1    3    3    0  502 -0.22721834913E+02  0.65052706919E+02 -0.29742820340E+03  0.30533448059E+03  0.41800000000E+01 0.  1.
        -11    1    1    2    0    0 -0.77616892916E+01 -0.48517222939E+02 -0.92536294382E+02  0.10477180212E+03  0.00000000000E+00 0. -1.
         11    1    1    2    0    0 -0.53221418230E+02 -0.12342105493E+03 -0.76344044599E+03  0.77518165015E+03  0.00000000000E+00 0.  1.
</event>
<event>
 7    1  0.2989693E-009  0.4650328E+02  0.7561462E-02  0.1465169E+00
         -1   -1    0    0    0  501 -0.00000000000E+00  0.00000000000E+00  0.75965222358E+03  0.75965222358E+03  0.00000000000E+00 0.  1.
          1   -1    0    0  501    0  0.00000000000E+00 -0.00000000000E+00 -0.18640050492E+02  0.18640050492E+02  0.00000000000E+00 0. -1.
         25    2    1    2    0    0 -0.11355850315E+02  0.88813862548E+01  0.57367377948E+03  0.58732967686E+03  0.12508680864E+03 0.  0.
          5    1    3    3  502    0 -0.34849226973E+01 -0.99553806516E+01 -0.17922554649E+01  0.11486464633E+02  0.41800000000E+01 0. -1.
         -5    1    3    3    0  502 -0.78709276177E+01  0.18836766906E+02  0.57546603495E+03  0.57584321223E+03  0.41800000000E+01 0. -1.
        -11    1    1    2    0    0  0.26260235058E+02  0.16767802801E+02  0.12935106983E+02  0.33735384224E+02  0.00000000000E+00 0. -1.
         11    1    1    2    0    0 -0.14904384743E+02 -0.25649189056E+02  0.15440328662E+03  0.15722721298E+03  0.00000000000E+00 0.  1.
</event>
<event>
 7    1  0.2989693E-009  0.9987204E+02  0.7561462E-02  0.1280565E+00
          1   -1    0    0  501    0  0.00000000000E+00  0.00000000000E+00  0.37033309463E+03  0.37033309463E+03  0.00000000000E+00 0. -1.
         -1   -1    0    0    0  501 -0.00000000000E+00 -0.00000000000E+00 -0.50337907259E+02  0.50337907259E+02  0.00000000000E+00 0.  1.
         25    2    1    2    0    0 -0.59085387277E+01 -0.58642947066E+02  0.26368317743E+03  0.29774268550E+03  0.12509189679E+03 0.  0.
          5    1    3    3  502    0  0.93590726211E+01 -0.83975732853E+02  0.98335639805E+02  0.12971848906E+03  0.41800000000E+01 0.  1.
         -5    1    3    3    0  502 -0.15267611349E+02  0.25332785787E+02  0.16534753762E+03  0.16802419644E+03  0.41800000000E+01 0.  1.
        -11    1    1    2    0    0  0.63060396807E+01 -0.12567977301E+02  0.49422390817E+02  0.51383780554E+02  0.00000000000E+00 0. -1.
         11    1    1    2    0    0 -0.39750095299E+00  0.71210924368E+02  0.68896191309E+01  0.71544535837E+02  0.00000000000E+00 0.  1.
</event>
<event>
 7    1  0.2989693E-009  0.1368425E+03  0.7561462E-02  0.1217642E+00
         -3   -1    0    0    0  501 -0.00000000000E+00  0.00000000000E+00  0.16726078990E+03  0.16726078990E+03  0.00000000000E+00 0.  1.
          3   -1    0    0  501    0  0.00000000000E+00 -0.00000000000E+00 -0.16474190415E+03  0.16474190415E+03  0.00000000000E+00 0. -1.
         25    2    1    2    0    0  0.27078902305E+02  0.11242977408E+03 -0.42378805385E+02  0.17554668992E+03  0.12508779376E+03 0.  0.
          5    1    3    3  502    0  0.98052348332E+01  0.11776818381E+03 -0.73559280795E+02  0.13926208364E+03  0.41800000000E+01 0.  1.
         -5    1    3    3    0  502  0.17273667472E+02 -0.53384097292E+01  0.31180475410E+02  0.36284606284E+02  0.41800000000E+01 0.  1.
        -11    1    1    2    0    0 -0.11180141798E+02 -0.11911004624E+03  0.59724603126E+02  0.13371322636E+03  0.00000000000E+00 0.  1.
         11    1    1    2    0    0 -0.15898760507E+02  0.66802721553E+01 -0.14826911992E+02  0.22742777776E+02  0.00000000000E+00 0. -1.
</event>
<event>
 7    1  0.2989693E-009  0.9041658E+02  0.7561462E-02  0.1301846E+00
         -1   -1    0    0    0  501 -0.00000000000E+00  0.00000000000E+00  0.10944417561E+03  0.10944417561E+03  0.00000000000E+00 0.  1.
          1   -1    0    0  501    0  0.00000000000E+00 -0.00000000000E+00 -0.11380359500E+03  0.11380359500E+03  0.00000000000E+00 0. -1.
         25    2    1    2    0    0  0.19595066584E+02  0.89296119847E+01 -0.12993298197E+02  0.12759433027E+03  0.12509109766E+03 0.  0.
          5    1    3    3  502    0  0.72548178629E+02 -0.18506385667E+01 -0.58933723277E+01  0.72930565080E+02  0.41800000000E+01 0.  1.
         -5    1    3    3    0  502 -0.52953112045E+02  0.10780250551E+02 -0.70999258691E+01  0.54663765188E+02  0.41800000000E+01 0.  1.
        -11    1    1    2    0    0 -0.15314422619E+02  0.19722566607E+02  0.43600711786E+02  0.50244733475E+02  0.00000000000E+00 0.  1.
         11    1    1    2    0    0 -0.42806439647E+01 -0.28652178592E+02 -0.34966832981E+02  0.45408706869E+02  0.00000000000E+00 0. -1.
</event>
<event>
 7    1  0.2989693E-009  0.1923441E+03  0.7561462E-02  0.1156364E+00
         -2   -1    0    0    0  501 -0.00000000000E+00  0.00000000000E+00  0.11749488541E+04  0.11749488541E+04  0.00000000000E+00 0. -1.
          2   -1    0    0  501    0  0.00000000000E+00 -0.00000000000E+00 -0.32618971454E+02  0.32618971454E+02  0.00000000000E+00 0.  1.
         25    2    1    2    0    0  0.15408646129E+03 -0.51399008147E+02  0.58313341881E+03  0.61812311564E+03  0.12508839419E+03 0.  0.
          5    1    3    3  502    0 -0.14590648877E+02 -0.29740807246E+02  0.12648672136E+03  0.13081959230E+03  0.41800000000E+01 0. -1.
         -5    1    3    3    0  502  0.16867711017E+03 -0.21658200901E+02  0.45664669745E+03  0.48730352333E+03  0.41800000000E+01 0. -1.
        -11    1    1    2    0    0 -0.31305823280E+02  0.49284100180E+02  0.25063250848E+03  0.25734341144E+03  0.00000000000E+00 0. -1.
         11    1    1    2    0    0 -0.12278063801E+03  0.21149079671E+01  0.30856395533E+03  0.33210129846E+03  0.00000000000E+00 0.  1.
</event>
<event>
 7    1  0.2989693E-009  0.9545194E+02  0.7561462E-02  0.1290161E+00
         -3   -1    0    0    0  501 -0.00000000000E+00  0.00000000000E+00  0.62488002312E+02  0.62488002312E+02  0.00000000000E+00 0.  1.
          3   -1    0    0  501    0  0.00000000000E+00 -0.00000000000E+00 -0.16092056263E+03  0.16092056263E+03  0.00000000000E+00 0. -1.
         25    2    1    2    0    0  0.36712858034E+02  0.36724679560E+02 -0.52922141930E+02  0.14539886088E+03  0.12507413643E+03 0.  0.
          5    1    3    3  502    0 -0.43788524669E+02  0.10249090432E+02  0.43828068140E+00  0.45167944799E+02  0.41800000000E+01 0.  1.
         -5    1    3    3    0  502  0.80501382703E+02  0.26475589128E+02 -0.53360422611E+02  0.10023091608E+03  0.41800000000E+01 0.  1.
        -11    1    1    2    0    0 -0.12893704279E+02 -0.34663130018E+02 -0.16722350144E+02  0.40588387342E+02  0.00000000000E+00 0.  1.
         11    1    1    2    0    0 -0.23819153755E+02 -0.20615495428E+01 -0.28788068245E+02  0.37421316724E+02  0.00000000000E+00 0. -1.
</event>
<event>
 7    1  0.2989693E-009  0.1024408E+03  0.7561462E-02  0.1275245E+00
         -1   -1    0    0    0  501 -0.00000000000E+00  0.00000000000E+00  0.13730387336E+02  0.13730387336E+02  0.00000000000E+00 0.  1.
          1   -1    0    0  501    0  0.00000000000E+00 -0.00000000000E+00 -0.12409220071E+04  0.12409220071E+04  0.00000000000E+00 0. -1.
         25    2    1    2    0    0 -0.82314608780E+01 -0.43018589448E+02 -0.96849954714E+03  0.97752611662E+03  0.12509028686E+03 0.  0.
          5    1    3    3  502    0  0.55015634139E+02 -0.41491975900E+02 -0.48598712806E+03  0.49086583208E+03  0.41800000000E+01 0. -1.
         -5    1    3    3    0  502 -0.63247095017E+02 -0.15266135475E+01 -0.48251241908E+03  0.48666028454E+03  0.41800000000E+01 0. -1.
        -11    1    1    2    0    0  0.30965743493E+02  0.10363276021E+02 -0.27960923159E+02  0.42989393854E+02  0.00000000000E+00 0.  1.
         11    1    1    2    0    0 -0.22734282615E+02  0.32655313426E+02 -0.23073114947E+03  0.23413688397E+03  0.00000000000E+00 0. -1.
</event>
<event>
 7    1  0.2989693E-009  0.4878546E+02  0.7561462E-02  0.1452005E+00
         -1   -1    0    0    0  501 -0.00000000000E+00  0.00000000000E+00  0.21473592018E+03  0.21473592018E+03  0.00000000000E+00 0.  1.
          1   -1    0    0  501    0  0.00000000000E+00 -0.00000000000E+00 -0.76466717189E+02  0.76466717189E+02  0.00000000000E+00 0. -1.
         25    2    1    2    0    0  0.35249331998E+02 -0.93982074698E+01  0.14239195775E+03  0.19301163886E+03  0.12508869411E+03 0.  0.
          5    1    3    3  502    0  0.25894413979E+02  0.14194497793E+02 -0.15102945980E+02  0.33430163329E+02  0.41800000000E+01 0. -1.
         -5    1    3    3    0  502  0.93549180196E+01 -0.23592705263E+02  0.15749490373E+03  0.15958147553E+03  0.41800000000E+01 0. -1.
        -11    1    1    2    0    0 -0.48694454829E+01  0.10554139337E+02  0.41650167319E+02  0.43241621087E+02  0.00000000000E+00 0.  1.
         11    1    1    2    0    0 -0.30379886515E+02 -0.11559318676E+01 -0.45772922079E+02  0.54949377420E+02  0.00000000000E+00 0. -1.
</event>
<event>
 7    1  0.2989693E-009  0.1750814E+03  0.7561462E-02  0.1172650E+00
          1   -1    0    0  501    0  0.00000000000E+00  0.00000000000E+00  0.22812675060E+03  0.22812675060E+03  0.00000000000E+00 0. -1.
         -1   -1    0    0    0  501 -0.00000000000E+00 -0.00000000000E+00 -0.21293341207E+03  0.21293341207E+03  0.00000000000E+00 0.  1.
         25    2    1    2    0    0 -0.70265661727E+02 -0.14152498937E+03 -0.10019565098E+03  0.22505927590E+03  0.12508366542E+03 0.  0.
          5    1    3    3  502    0 -0.70305842215E+02 -0.73967280957E+02  0.23814163715E+01  0.10216268226E+03  0.41800000000E+01 0. -1.
         -5    1    3    3    0  502  0.40180488722E-01 -0.67557708418E+02 -0.10257706736E+03  0.12289659364E+03  0.41800000000E+01 0. -1.
        -11    1    1    2    0    0 -0.19627159014E+02  0.41189141235E+02  0.15118968559E+02  0.48066141274E+02  0.00000000000E+00 0.  1.
         11    1    1    2    0    0  0.89892820740E+02  0.10033584814E+03  0.10027002095E+03  0.16793474550E+03  0.00000000000E+00 0. -1.
</event>
<event>
 7    1  0.2989693E-009  0.1132508E+03  0.7561462E-02  0.1254666E+00
         -2   -1    0    0    0  501 -0.00000000000E+00  0.00000000000E+00  0.51158681595E+02  0.51158681595E+02  0.00000000000E+00 0.  1.
          2   -1    0    0  501    0  0.00000000000E+00 -0.00000000000E+00 -0.35025853818E+03  0.35025853818E+03  0.00000000000E+00 0. -1.
         25    2    1    2    0    0  0.45914569945E+02  0.47475979777E+02 -0.10234291144E+03  0.17459419816E+03  0.12508775367E+03 0.  0.
          5    1    3    3  502    0  0.41147291653E+02  0.81212651605E+02 -0.10632177479E+03  0.14003709003E+03  0.41800000000E+01 0.  1.
         -5    1    3    3    0  502  0.47672782923E+01 -0.33736671828E+02  0.39788633487E+01  0.34557108124E+02  0.41800000000E+01 0.  1.
        -11    1    1    2    0    0 -0.19403800160E+00  0.19742148917E+02 -0.79958848091E+01  0.21300804410E+02  0.00000000000E+00 0.  1.
         11    1    1    2    0    0 -0.45720531944E+02 -0.67218128694E+02 -0.18876106034E+03  0.20552221721E+03  0.00000000000E+00 0. -1.
</event>
<event>
 7    1  0.2989693E-009  0.2701007E+03  0.7561462E-02  0.1101222E+00
          1   -1    0    0  501    0  0.00000000000E+00  0.00000000000E+00  0.72697788366E+03  0.72697788366E+03  0.00000000000E+00 0. -1.
         -1   -1    0    0    0  501 -0.00000000000E+00 -0.00000000000E+00 -0.15755520034E+03  0.15755520034E+03  0.00000000000E+00 0.  1.
         25    2    1    2    0    0 -0.43711763962E+02 -0.25083867431E+03  0.34399219773E+02  0.28576553891E+03  0.12509147882E+03 0.  0.
          5    1    3    3  502    0  0.35299540367E+02 -0.14860769124E+03  0.33790265035E+02  0.15649139866E+03  0.41800000000E+01 0.  1.
         -5    1    3    3    0  502 -0.79011304329E+02 -0.10223098307E+03  0.60895473754E+00  0.12927414025E+03  0.41800000000E+01 0.  1.
        -11    1    1    2    0    0  0.44161248241E+02  0.13012608108E+03  0.36695611668E+03  0.39184155521E+03  0.00000000000E+00 0. -1.
         11    1    1    2    0    0 -0.44948427906E+00  0.12071259323E+03  0.16806734687E+03  0.20692598987E+03  0.00000000000E+00 0.  1.
</event>
<event>
 7    1  0.2989693E-009  0.9995824E+02  0.7561462E-02  0.1280384E+00
          2   -1    0    0  501    0  0.00000000000E+00  0.00000000000E+00  0.37747689873E+03  0.37747689873E+03  0.00000000000E+00 0. -1.
         -2   -1    0    0    0  501 -0.00000000000E+00 -0.00000000000E+00 -0.42242590113E+02  0.42242590113E+02  0.00000000000E+00 0.  1.
         25    2    1    2    0    0 -0.24354210657E+02  0.33315292468E+02  0.10627577694E+03  0.16924252595E+03  0.12508179539E+03 0.  0.
          5    1    3    3  502    0 -0.55699606399E+02 -0.26247355550E+02  0.67465310881E+02  0.91435279836E+02  0.41800000000E+01 0.  1.
         -5    1    3    3    0  502  0.31345395742E+02  0.59562648018E+02  0.38810466056E+02  0.77807246119E+02  0.41800000000E+01 0.  1.
        -11    1    1    2    0    0  0.31769159807E+02  0.46265858728E+01  0.19676848646E+02  0.37654524088E+02  0.00000000000E+00 0.  1.
         11    1    1    2    0    0 -0.74149491495E+01 -0.37941878341E+02  0.20928168304E+03  0.21282243880E+03  0.00000000000E+00 0. -1.
</event>
<event>
 7    1  0.2989693E-009  0.1211116E+03  0.7561462E-02  0.1241275E+00
         -1   -1    0    0    0  501 -0.00000000000E+00  0.00000000000E+00  0.10110499052E+03  0.10110499052E+03  0.00000000000E+00 0.  1.
          1   -1    0    0  501    0  0.00000000000E+00 -0.00000000000E+00 -0.18888176083E+03  0.18888176083E+03  0.00000000000E+00 0. -1.
         25    2    1    2    0    0  0.71175731379E+02 -0.45312098059E+02 -0.51202745889E+02  0.15933719096E+03  0.12508976085E+03 0.  0.
          5    1    3    3  502    0  0.22295078506E+02  0.43562096473E+02 -0.12371904189E+02  0.50648427300E+02  0.41800000000E+01 0. -1.
         -5    1    3    3    0  502  0.48880652873E+02 -0.88874194532E+02 -0.38830841700E+02  0.10868876366E+03  0.41800000000E+01 0. -1.
        -11    1    1    2    0    0 -0.44185847389E+02  0.47052955743E+02  0.20306610578E+02  0.67666300230E+02  0.00000000000E+00 0.  1.
         11    1    1    2    0    0 -0.26989883989E+02 -0.17408576835E+01 -0.56880634995E+02  0.62983260162E+02  0.00000000000E+00 0. -1.
</event>
<event>
 7    1  0.2989693E-009  0.8507447E+02  0.7561462E-02  0.1315238E+00
         -2   -1    0    0    0  501 -0.00000000000E+00  0.00000000000E+00  0.20676632607E+02  0.20676632607E+02  0.00000000000E+00 0.  1.
          2   -1    0    0  501    0  0.00000000000E+00 -0.00000000000E+00 -0.63060203193E+03  0.63060203193E+03  0.00000000000E+00 0. -1.
         25    2    1    2    0    0 -0.23592446223E+02  0.29289634163E+02 -0.39236071069E+03  0.41353296196E+03  0.12509235449E+03 0.  0.
          5    1    3    3  502    0  0.20198591065E+02  0.31591680549E+02 -0.35127780802E+03  0.35329815761E+03  0.41800000000E+01 0.  1.
         -5    1    3    3    0  502 -0.43791037288E+02 -0.23020463866E+01 -0.41082902663E+02  0.60234804354E+02  0.41800000000E+01 0.  1.
        -11    1    1    2    0    0  0.35427932203E+02  0.17917676530E+02 -0.53544274844E+02  0.66657114256E+02  0.00000000000E+00 0. -1.
         11    1    1    2    0    0 -0.11835485979E+02 -0.47207310693E+02 -0.16402041379E+03  0.17108858831E+03  0.00000000000E+00 0.  1.
</event>
<event>
 7    1  0.2989693E-009  0.1839760E+03  0.7561462E-02  0.1164010E+00
         -1   -1    0    0    0  501 -0.00000000000E+00  0.00000000000E+00  0.22620391078E+03  0.22620391078E+03  0.00000000000E+00 0.  1.
          1   -1    0    0  501    0  0.00000000000E+00 -0.00000000000E+00 -0.16253838848E+03  0.16253838848E+03  0.00000000000E+00 0. -1.
         25    2    1    2    0    0  0.11017554454E+03 -0.11181934364E+03  0.54159848559E+02  0.20790306929E+03  0.12509268884E+03 0.  0.
          5    1    3    3  502    0  0.58291456019E+02 -0.12167395012E+03  0.41418780340E+01  0.13504470199E+03  0.41800000000E+01 0. -1.
         -5    1    3    3    0  502  0.51884088518E+02  0.98546064836E+01  0.50017970525E+02  0.72858367300E+02  0.41800000000E+01 0. -1.
        -11    1    1    2    0    0  0.19920607799E+01  0.53563522402E+02  0.95561025497E+01  0.54445737521E+02  0.00000000000E+00 0. -1.
         11    1    1    2    0    0 -0.11216760532E+03  0.58255821236E+02 -0.50428811842E-01  0.12639349245E+03  0.00000000000E+00 0.  1.
</event>
<event>
 7    1  0.2989693E-009  0.9994042E+02  0.7561462E-02  0.1280421E+00
          1   -1    0    0  501    0  0.00000000000E+00  0.00000000000E+00  0.54883867220E+03  0.54883867220E+03  0.00000000000E+00 0. -1.
         -1   -1    0    0    0  501 -0.00000000000E+00 -0.00000000000E+00 -0.32536641178E+02  0.32536641178E+02  0.00000000000E+00 0.  1.
         25    2    1    2    0    0 -0.73557649871E+02  0.27245682567E+02  0.29647548503E+03  0.33121333739E+03  0.12510598136E+03 0.  0.
          5    1    3    3  502    0 -0.94743612490E+02  0.15600086985E+02  0.29046590513E+03  0.30595363908E+03  0.41800000000E+01 0. -1.
         -5    1    3    3    0  502  0.21185962619E+02  0.11645595582E+02  0.60095798969E+01  0.25259698317E+02  0.41800000000E+01 0. -1.
        -11    1    1    2    0    0  0.33836344683E+02 -0.18499547775E+02  0.15067480624E+02  0.41402420964E+02  0.00000000000E+00 0.  1.
         11    1    1    2    0    0  0.39721305188E+02 -0.87461347920E+01  0.20475906537E+03  0.20875955502E+03  0.00000000000E+00 0. -1.
</event>
<event>
 7    1  0.2989693E-009  0.9395626E+02  0.7561462E-02  0.1293544E+00
         -2   -1    0    0    0  501 -0.00000000000E+00  0.00000000000E+00  0.96441458439E+03  0.96441458439E+03  0.00000000000E+00 0.  1.
          2   -1    0    0  501    0  0.00000000000E+00 -0.00000000000E+00 -0.16858132039E+02  0.16858132039E+02  0.00000000000E+00 0. -1.
         25    2    1    2    0    0  0.12642894337E+02 -0.29912699962E+02  0.75094139504E+03  0.76198128371E+03  0.12509150868E+03 0.  0.
          5    1    3    3  502    0  0.12300148034E+02  0.44975892563E+02  0.17411439993E+03  0.18029814535E+03  0.41800000000E+01 0.  1.
         -5    1    3    3    0  502  0.34274630255E+00 -0.74888592525E+02  0.57682699511E+03  0.58168313836E+03  0.41800000000E+01 0.  1.
        -11    1    1    2    0    0  0.94975873226E+01  0.40465622061E+02  0.18913632761E+03  0.19364973834E+03  0.00000000000E+00 0.  1.
         11    1    1    2    0    0 -0.22140481659E+02 -0.10552922099E+02  0.74787296950E+01  0.25641694382E+02  0.00000000000E+00 0. -1.
</event>
<event>
 7    1  0.2989693E-009  0.1619207E+03  0.7561462E-02  0.1186545E+00
         -4   -1    0    0    0  501 -0.00000000000E+00  0.00000000000E+00  0.10792014946E+03  0.10792014946E+03  0.00000000000E+00 0.  1.
          4   -1    0    0  501    0  0.00000000000E+00 -0.00000000000E+00 -0.24969264827E+03  0.24969264827E+03  0.00000000000E+00 0. -1.
         25    2    1    2    0    0 -0.92201313252E+01  0.12189417517E+03 -0.89550787212E+02  0.19649582099E+03  0.12509221963E+03 0.  0.
          5    1    3    3  502    0 -0.64151421205E+02  0.48067430818E+02 -0.58357471463E+02  0.99241874346E+02  0.41800000000E+01 0. -1.
         -5    1    3    3    0  502  0.54931289880E+02  0.73826744356E+02 -0.31193315749E+02  0.97253946642E+02  0.41800000000E+01 0. -1.
        -11    1    1    2    0    0 -0.37352508193E+01 -0.13380468382E+03 -0.40051444180E+02  0.13972030522E+03  0.00000000000E+00 0. -1.
         11    1    1    2    0    0  0.12955382144E+02  0.11910508647E+02 -0.12170267422E+02  0.21396671513E+02  0.00000000000E+00 0.  1.
</event>
<event>
 7    1  0.2989693E-009  0.1205804E+03  0.7561462E-02  0.1242143E+00
          4   -1    0    0  501    0  0.00000000000E+00  0.00000000000E+00  0.34564220567E+03  0.34564220567E+03  0.00000000000E+00 0. -1.
         -4   -1    0    0    0  501 -0.00000000000E+00 -0.00000000000E+00 -0.46229687954E+02  0.46229687954E+02  0.00000000000E+00 0.  1.
         25    2    1    2    0    0 -0.51499459716E+02 -0.33738512525E+02  0.15360594346E+03  0.20744739221E+03  0.12509657504E+03 0.  0.
          5    1    3    3  502    0 -0.56372219190E+02 -0.75510035989E+02  0.85576007385E+02  0.12735901252E+03  0.41800000000E+01 0.  1.
         -5    1    3    3    0  502  0.48727594739E+01  0.41771523463E+02  0.68029936076E+02  0.80088379680E+02  0.41800000000E+01 0.  1.
        -11    1    1    2    0    0  0.34843843898E+02  0.62374609611E+02  0.63069844224E+02  0.95302101929E+02  0.00000000000E+00 0.  1.
         11    1    1    2    0    0  0.16655615817E+02 -0.28636097086E+02  0.82736730032E+02  0.89122399490E+02  0.00000000000E+00 0. -1.
</event>
<event>
 7    1  0.2989693E-009  0.1092029E+03  0.7561462E-02  0.1262053E+00
         -1   -1    0    0    0  501 -0.00000000000E+00  0.00000000000E+00  0.80734077238E+02  0.80734077238E+02  0.00000000000E+00 0.  1.
          1   -1    0    0  501    0  0.00000000000E+00 -0.00000000000E+00 -0.24405159873E+03  0.24405159873E+03  0.00000000000E+00 0. -1.
         25    2    1    2    0    0 -0.50622320199E+02 -0.24606473024E+02 -0.16935571635E+03  0.21794003498E+03  0.12509357446E+03 0.  0.
          5    1    3    3  502    0 -0.46395971893E+02  0.42445047154E+02 -0.11611832443E+03  0.13211777285E+03  0.41800000000E+01 0.  1.
         -5    1    3    3    0  502 -0.42263483065E+01 -0.67051520178E+02 -0.53237391927E+02  0.85822262131E+02  0.41800000000E+01 0.  1.
        -11    1    1    2    0    0 -0.14530200553E+02 -0.64464172487E+01  0.27312208305E+02  0.31601261778E+02  0.00000000000E+00 0.  1.
         11    1    1    2    0    0  0.65152520752E+02  0.31052890273E+02 -0.21274013448E+02  0.75244379211E+02  0.00000000000E+00 0. -1.
</event>
<event>
 7    1  0.2989693E-009  0.1063637E+03  0.7561462E-02  0.1267456E+00
         -2   -1    0    0    0  501 -0.00000000000E+00  0.00000000000E+00  0.73803096858E+03  0.73803096858E+03  0.00000000000E+00 0.  1.
          2   -1    0    0  501    0  0.00000000000E+00 -0.00000000000E+00 -0.19535522874E+02  0.19535522874E+02  0.00000000000E+00 0. -1.
         25    2    1    2    0    0 -0.38037773313E+02 -0.32514981602E+02  0.36318284103E+03  0.38736690347E+03  0.12508895100E+03 0.  0.
          5    1    3    3  502    0 -0.15053369145E+02 -0.77905008793E+02  0.26570427381E+03  0.27733017838E+03  0.41800000000E+01 0.  1.
         -5    1    3    3    0  502 -0.22984404168E+02  0.45390027191E+02  0.97478567218E+02  0.11003672510E+03  0.41800000000E+01 0.  1.
        -11    1    1    2    0    0  0.53384458030E+02  0.89931075225E+01  0.32248353044E+03  0.32699603017E+03  0.00000000000E+00 0.  1.
         11    1    1    2    0    0 -0.15346684718E+02  0.23521874080E+02  0.32829074235E+02  0.43203557807E+02  0.00000000000E+00 0. -1.
</event>
<event>
 7    1  0.2989693E-009  0.8635742E+02  0.7561462E-02  0.1311920E+00
         -2   -1    0    0    0  501 -0.00000000000E+00  0.00000000000E+00  0.21380657346E+02  0.21380657346E+02  0.00000000000E+00 0.  1.
          2   -1    0    0  501    0  0.00000000000E+00 -0.00000000000E+00 -0.12375876787E+04  0.12375876787E+04  0.00000000000E+00 0. -1.
         25    2    1    2    0    0 -0.25960187329E+02 -0.58309958003E+02 -0.10513321590E+04  0.10606697854E+04  0.12508837911E+03 0.  0.
          5    1    3    3  502    0 -0.44008452425E+02 -0.47579494965E+02 -0.10234872990E+04  0.10255458428E+04  0.41800000000E+01 0. -1.
         -5    1    3    3    0  502  0.18048265096E+02 -0.10730463038E+02 -0.27844859989E+02  0.35123942515E+02  0.41800000000E+01 0. -1.
        -11    1    1    2    0    0  0.24214966687E+02  0.70242798585E+02 -0.16974403654E+03  0.18529288520E+03  0.00000000000E+00 0. -1.
         11    1    1    2    0    0  0.17452206418E+01 -0.11932840582E+02  0.48691741004E+01  0.13005665530E+02  0.00000000000E+00 0.  1.
</event>
<event>
 7    1  0.2989693E-009  0.1177302E+03  0.7561462E-02  0.1246889E+00
          1   -1    0    0  501    0  0.00000000000E+00  0.00000000000E+00  0.85147822970E+03  0.85147822970E+03  0.00000000000E+00 0. -1.
         -1   -1    0    0    0  501 -0.00000000000E+00 -0.00000000000E+00 -0.17098368219E+02  0.17098368219E+02  0.00000000000E+00 0.  1.
         25    2    1    2    0    0  0.23800145562E+02  0.45523133604E+02  0.40274553770E+03  0.42484121546E+03  0.12508911861E+03 0.  0.
          5    1    3    3  502    0 -0.47141501925E+02  0.43270178323E+02  0.19091756641E+03  0.20139915367E+03  0.41800000000E+01 0. -1.
         -5    1    3    3    0  502  0.70941647487E+02  0.22529552810E+01  0.21182797129E+03  0.22344206179E+03  0.41800000000E+01 0. -1.
        -11    1    1    2    0    0 -0.23595573627E+02  0.22267271419E+02  0.19094032534E+03  0.19367702578E+03  0.00000000000E+00 0. -1.
         11    1    1    2    0    0 -0.20457193532E+00 -0.67790405023E+02  0.24069399843E+03  0.25005835668E+03  0.00000000000E+00 0.  1.
</event>
<event>
 7    1  0.2989693E-009  0.1697606E+03  0.7561462E-02  0.1178098E+00
          2   -1    0    0  501    0  0.00000000000E+00  0.00000000000E+00  0.18207966503E+03  0.18207966503E+03  0.00000000000E+00 0. -1.
         -2   -1    0    0    0  501 -0.00000000000E+00 -0.00000000000E+00 -0.20630629505E+03  0.20630629505E+03  0.00000000000E+00 0.  1.
         25    2    1    2    0    0 -0.44340388356E+02  0.12792994795E+03  0.72867884556E+02  0.19821070097E+03  0.12508241986E+03 0.  0.
          5    1    3    3  502    0  0.12635066903E+02  0.12026065233E+03  0.71523949632E+02  0.14055396538E+03  0.41800000000E+01 0.  1.
         -5    1    3    3    0  502 -0.56975455259E+02  0.76692956188E+01  0.13439349235E+01  0.57656735585E+02  0.41800000000E+01 0.  1.
        -11    1    1    2    0    0  0.53879509618E+02 -0.13731259641E+03 -0.97452844430E+02  0.17679029266E+03  0.00000000000E+00 0.  1.
         11    1    1    2    0    0 -0.95391212615E+01  0.93826484658E+01  0.35832985563E+00  0.13384966453E+02  0.00000000000E+00 0. -1.
</event>
<event>
 7    1  0.2989693E-009  0.1168622E+03  0.7561462E-02  0.1248365E+00
         -1   -1    0    0    0  501 -0.00000000000E+00  0.00000000000E+00  0.70165865764E+03  0.70165865764E+03  0.00000000000E+00 0.  1.
          1   -1    0    0  501    0  0.00000000000E+00 -0.00000000000E+00 -0.39195574530E+02  0.39195574530E+02  0.00000000000E+00 0. -1.
         25    2    1    2    0    0 -0.90443871524E+02  0.52158540235E+02  0.51167549803E+03  0.53699132632E+03  0.12508901647E+03 0.  0.
          5    1    3    3  502    0 -0.10035084827E+03  0.38719751123E+02  0.22114427391E+03  0.24595075556E+03  0.41800000000E+01 0. -1.
         -5    1    3    3    0  502  0.99069767458E+01  0.13438789112E+02  0.29053122411E+03  0.29104057076E+03  0.41800000000E+01 0. -1.
        -11    1    1    2    0    0  0.84035295355E+02 -0.35877508607E+02  0.15987687819E+03  0.18414598195E+03  0.00000000000E+00 0.  1.
         11    1    1    2    0    0  0.64085761689E+01 -0.16281031628E+02 -0.90892931002E+01  0.19716923909E+02  0.00000000000E+00 0. -1.
</event>
<event>
 7    1  0.2989693E-009  0.1359798E+03  0.7561462E-02  0.1218843E+00
         -2   -1    0    0    0  501 -0.00000000000E+00  0.00000000000E+00  0.19900433972E+03  0.19900433972E+03  0.00000000000E+00 0.  1.
          2   -1    0    0  501    0  0.00000000000E+00 -0.00000000000E+00 -0.17080246930E+03  0.17080246930E+03  0.00000000000E+00 0. -1.
         25    2    1    2    0    0  0.63319562335E+01  0.11845244461E+03 -0.76400677036E+02  0.18855269844E+03  0.12507590229E+03 0.  0.
          5    1    3    3  502    0  0.60799476250E+01  0.13331339754E+03 -0.26242437996E+02  0.13607191363E+03  0.41800000000E+01 0. -1.
         -5    1    3    3    0  502  0.25200860850E+00 -0.14860952933E+02 -0.50158239039E+02  0.52480784807E+02  0.41800000000E+01 0. -1.
        -11    1    1    2    0    0  0.11760368156E+02 -0.75267285006E+02  0.11033840140E+03  0.13408218851E+03  0.00000000000E+00 0.  1.
         11    1    1    2    0    0 -0.18092324390E+02 -0.43185159604E+02 -0.57358539461E+01  0.47171922076E+02  0.00000000000E+00 0. -1.
</event>
<event>
 6    1  0.2989693E-009  0.1081598E+03  0.7561462E-02  0.1264016E+00
          1   -1    0    0  501    0  0.00000000000E+00  0.00000000000E+00  0.84681371212E+02  0.84681371212E+02  0.00000000000E+00 0. -1.
         -1   -1    0    0    0  501 -0.00000000000E+00 -0.00000000000E+00 -0.21570922767E+03  0.21570922767E+03  0.00000000000E+00 0.  1.
          5    1    1    2  502    0  0.23669908439E+02 -0.77323441107E+02 -0.46600787639E+02  0.93425290574E+02  0.41800000000E+01 0.  1.
         -5    1    1    2    0  502 -0.44830620744E+02  0.12843284641E+02  0.20849770427E+02  0.51253486160E+02  0.41800000000E+01 0.  1.
        -11    1    1    2    0    0 -0.18927516851E+02  0.30876462476E+02 -0.95976406982E+02  0.10258205265E+03  0.00000000000E+00 0.  1.
         11    1    1    2    0    0  0.40088229156E+02  0.33603693990E+02 -0.93004322656E+01  0.53129769499E+02  0.00000000000E+00 0. -1.
</event>
<event>
 7    1  0.2989693E-009  0.1646638E+03  0.7561462E-02  0.1183530E+00
         -2   -1    0    0    0  501 -0.00000000000E+00  0.00000000000E+00  0.40922475439E+03  0.40922475439E+03  0.00000000000E+00 0. -1.
          2   -1    0    0  501    0  0.00000000000E+00 -0.00000000000E+00 -0.86644926180E+02  0.86644926180E+02  0.00000000000E+00 0.  1.
         25    2    1    2    0    0 -0.21244200989E+02  0.12893181135E+03  0.63389024098E+02  0.19166926158E+03  0.12507681402E+03 0.  0.
          5    1    3    3  502    0  0.37228589084E+02  0.11367556139E+01  0.94080101643E-01  0.37479878730E+02  0.41800000000E+01 0. -1.
         -5    1    3    3    0  502 -0.58472790074E+02  0.12779505573E+03  0.63294943996E+02  0.15418938285E+03  0.41800000000E+01 0. -1.
        -11    1    1    2    0    0 -0.16776640125E+02  0.53119649682E-01  0.65672830839E+01  0.18016317123E+02  0.00000000000E+00 0.  1.
         11    1    1    2    0    0  0.38020841114E+02 -0.12898493100E+03  0.25262352103E+03  0.28618410187E+03  0.00000000000E+00 0. -1.
</event>
<event>
 7    1  0.2989693E-009  0.1060697E+03  0.7561462E-02  0.1268026E+00
         -1   -1    0    0    0  501 -0.00000000000E+00  0.00000000000E+00  0.35606267258E+03  0.35606267258E+03  0.00000000000E+00 0.  1.
          1   -1    0    0  501    0  0.00000000000E+00 -0.00000000000E+00 -0.42683046629E+02  0.42683046629E+02  0.00000000000E+00 0. -1.
         25    2    1    2    0    0 -0.10589915084E+02 -0.27657185297E+02  0.96503450515E+02  0.16074084331E+03  0.12509051342E+03 0.  0.
          5    1    3    3  502    0  0.19371776312E+02  0.40178901928E+02  0.85303327319E+01  0.45605359927E+02  0.41800000000E+01 0.  1.
         -5    1    3    3    0  502 -0.29961691396E+02 -0.67836087225E+02  0.87973117783E+02  0.11513548338E+03  0.41800000000E+01 0.  1.
        -11    1    1    2    0    0 -0.28616053403E+02 -0.17278639094E+02  0.44862372202E+02  0.55946959890E+02  0.00000000000E+00 0. -1.
         11    1    1    2    0    0  0.39205968487E+02  0.44935824391E+02  0.17201380324E+03  0.18205791601E+03  0.00000000000E+00 0.  1.
</event>
<event>
 7    1  0.2989693E-009  0.1208842E+03  0.7561462E-02  0.1241646E+00
          4   -1    0    0  501    0  0.00000000000E+00  0.00000000000E+00  0.69668626066E+02  0.69668626066E+02  0.00000000000E+00 0. -1.
         -4   -1    0    0    0  501 -0.00000000000E+00 -0.00000000000E+00 -0.36421960559E+03  0.36421960559E+03  0.00000000000E+00 0.  1.
         25    2    1    2    0    0 -0.49162102386E+02 -0.98261385964E+02 -0.10093194106E+03  0.19469692625E+03  0.12508966417E+03 0.  0.
          5    1    3    3  502    0 -0.65913266769E+02 -0.61240285150E+02 -0.11965169541E+03  0.14976291890E+03  0.41800000000E+01 0.  1.
         -5    1    3    3    0  502  0.16751164383E+02 -0.37021100814E+02  0.18719754356E+02  0.44934007353E+02  0.41800000000E+01 0.  1.
        -11    1    1    2    0    0  0.36087341729E+02  0.56067494894E+02 -0.18153816292E+03  0.19339587590E+03  0.00000000000E+00 0.  1.
         11    1    1    2    0    0  0.13074760657E+02  0.42193891070E+02 -0.12080875543E+02  0.45795429507E+02  0.00000000000E+00 0. -1.
</event>
<event>
 7    1  0.2989693E-009  0.9232245E+02  0.7561462E-02  0.1297323E+00
          1   -1    0    0  501    0  0.00000000000E+00  0.00000000000E+00  0.95067387361E+03  0.95067387361E+03  0.00000000000E+00 0. -1.
         -1   -1    0    0    0  501 -0.00000000000E+00 -0.00000000000E+00 -0.13884363789E+02  0.13884363789E+02  0.00000000000E+00 0.  1.
         25    2    1    2    0    0  0.85898583601E+01 -0.17898112994E+02  0.53290845962E+03  0.54775338099E+03  0.12509281330E+03 0.  0.
          5    1    3    3  502    0  0.12047018340E+02  0.31804981307E+02  0.41546345798E+02  0.53854050321E+02  0.41800000000E+01 0. -1.
         -5    1    3    3    0  502 -0.34571599801E+01 -0.49703094300E+02  0.49136211382E+03  0.49389933067E+03  0.41800000000E+01 0. -1.
        -11    1    1    2    0    0 -0.30522332295E+02 -0.33004205217E+02  0.13557689071E+03  0.14283551248E+03  0.00000000000E+00 0.  1.
         11    1    1    2    0    0  0.21932473935E+02  0.50902318211E+02  0.26830415949E+03  0.27396934393E+03  0.00000000000E+00 0. -1.
</event>
<event>
 7    1  0.2989693E-009  0.8355113E+02  0.7561462E-02  0.1319266E+00
          1   -1    0    0  501    0  0.00000000000E+00  0.00000000000E+00  0.85017902283E+02  0.85017902283E+02  0.00000000000E+00 0. -1.
         -1   -1    0    0    0  501 -0.00000000000E+00 -0.00000000000E+00 -0.17899161761E+03  0.17899161761E+03  0.00000000000E+00 0.  1.
         25    2    1    2    0    0 -0.51008837691E+02  0.29490837732E+02 -0.76933450348E+02  0.15823519181E+03  0.12509200260E+03 0.  0.
          5    1    3    3  502    0 -0.15375682027E+02 -0.95093792806E+00 -0.10314636643E+03  0.10437414042E+03  0.41800000000E+01 0. -1.
         -5    1    3    3    0  502 -0.35633155664E+02  0.30441775660E+02  0.26212916081E+02  0.53861051395E+02  0.41800000000E+01 0. -1.
        -11    1    1    2    0    0  0.64494969288E+02 -0.48559909452E+02 -0.98165847694E+01  0.81326694301E+02  0.00000000000E+00 0. -1.
         11    1    1    2    0    0 -0.13486131597E+02  0.19069071720E+02 -0.72236802151E+01  0.24447633782E+02  0.00000000000E+00 0.  1.
</event>
<event>
 7    1  0.2989693E-009  0.1132460E+03  0.7561462E-02  0.1254674E+00
         -1   -1    0    0    0  501 -0.00000000000E+00  0.00000000000E+00  0.25122054349E+02  0.25122054349E+02  0.00000000000E+00 0.  1.
          1   -1    0    0  501    0  0.00000000000E+00 -0.00000000000E+00 -0.56380445171E+03  0.56380445171E+03  0.00000000000E+00 0. -1.
         25    2    1    2    0    0  0.41008510201E+02  0.94762825095E+01 -0.25138351861E+03  0.28392930141E+03  0.12510266555E+03 0.  0.
          5    1    3    3  502    0  0.80314502910E+02  0.29980256286E+02 -0.18568665407E+03  0.20456353792E+03  0.41800000000E+01 0. -1.
         -5    1    3    3    0  502 -0.39305992709E+02 -0.20503973777E+02 -0.65696864541E+02  0.79365763488E+02  0.41800000000E+01 0. -1.
        -11    1    1    2    0    0  0.86268429475E+00  0.35022002458E+02 -0.58566109689E+02  0.68244223818E+02  0.00000000000E+00 0.  1.
         11    1    1    2    0    0 -0.41871194496E+02 -0.44498284968E+02 -0.22873276906E+03  0.23675298084E+03  0.00000000000E+00 0. -1.
</event>
<event>
 7    1  0.2989693E-009  0.2313524E+03  0.7561462E-02  0.1125691E+00
          2   -1    0    0  501    0  0.00000000000E+00  0.00000000000E+00  0.10807991145E+04  0.10807991145E+04  0.00000000000E+00 0. -1.
         -2   -1    0    0    0  501 -0.00000000000E+00 -0.00000000000E+00 -0.54213897187E+02  0.54213897187E+02  0.00000000000E+00 0.  1.
         25    2    1    2    0    0 -0.89896984375E+02 -0.19043910245E+03  0.63708201410E+03  0.68254512638E+03  0.12508332151E+03 0.  0.
          5    1    3    3  502    0  0.24200660340E+02 -0.45785994447E+02  0.76711282830E+02  0.92650539998E+02  0.41800000000E+01 0.  1.
         -5    1    3    3    0  502 -0.11409764472E+03 -0.14465310800E+03  0.56037073127E+03  0.58989458638E+03  0.41800000000E+01 0.  1.
        -11    1    1    2    0    0  0.83865907795E+02  0.80135024309E+02  0.24018309027E+03  0.26672650686E+03  0.00000000000E+00 0. -1.
         11    1    1    2    0    0  0.60310765804E+01  0.11030407814E+03  0.14932011297E+03  0.18574137847E+03  0.00000000000E+00 0.  1.
</event>
<event>
 7    1  0.2989693E-009  0.1607262E+03  0.7561462E-02  0.1187879E+00
          1   -1    0    0  501    0  0.00000000000E+00  0.00000000000E+00  0.73626724335E+02  0.73626724335E+02  0.00000000000E+00 0. -1.
         -1   -1    0    0    0  501 -0.00000000000E+00 -0.00000000000E+00 -0.47736351899E+03  0.47736351899E+03  0.00000000000E+00 0.  1.
         25    2    1    2    0    0 -0.42582043986E+02  0.13914321474E+03 -0.14625630114E+03  0.24127295247E+03  0.12509063632E+03 0.  0.
          5    1    3    3  502    0 -0.48244239967E+02  0.86978003517E+02 -0.15855630193E+03  0.18721712814E+03  0.41800000000E+01 0. -1.
         -5    1    3    3    0  502  0.56621959809E+01  0.52165211219E+02  0.12300000794E+02  0.54055824334E+02  0.41800000000E+01 0. -1.
        -11    1    1    2    0    0  0.42841148877E+02 -0.15405518626E+02 -0.96280992442E+02  0.10650222320E+03  0.00000000000E+00 0.  1.
         11    1    1    2    0    0 -0.25910489115E+00 -0.12373769611E+03 -0.16119950108E+03  0.20321506765E+03  0.00000000000E+00 0. -1.
</event>
<event>
 7    1  0.2989693E-009  0.1528641E+03  0.7561462E-02  0.1196997E+00
         -2   -1    0    0    0  501 -0.00000000000E+00  0.00000000000E+00  0.75359506069E+03  0.75359506069E+03  0.00000000000E+00 0.  1.
          2   -1    0    0  501    0  0.00000000000E+00 -0.00000000000E+00 -0.42262558398E+02  0.42262558398E+02  0.00000000000E+00 0. -1.
         25    2    1    2    0    0  0.69132003229E+01 -0.12383467017E+03  0.22568188057E+03  0.28629070186E+03  0.12508891589E+03 0.  0.
          5    1    3    3  502    0 -0.51400488213E+02 -0.10008059306E+03  0.13450353844E+03  0.17540470219E+03  0.41800000000E+01 0.  1.
         -5    1    3    3    0  502  0.58313688536E+02 -0.23754077109E+02  0.91178342130E+02  0.11088599967E+03  0.41800000000E+01 0.  1.
        -11    1    1    2    0    0  0.16002093023E+02  0.63848105835E+02  0.38205382369E+03  0.38768256576E+03  0.00000000000E+00 0.  1.
         11    1    1    2    0    0 -0.22915293346E+02  0.59986564335E+02  0.10359679803E+03  0.12188435146E+03  0.00000000000E+00 0. -1.
</event>
<event>
 7    1  0.2989693E-009  0.1568897E+03  0.7561462E-02  0.1192254E+00
         -2   -1    0    0    0  501 -0.00000000000E+00  0.00000000000E+00  0.31847273118E+02  0.31847273118E+02  0.00000000000E+00 0. -1.
          2   -1    0    0  501    0  0.00000000000E+00 -0.00000000000E+00 -0.97359245550E+03  0.97359245550E+03  0.00000000000E+00 0.  1.
         25    2    1    2    0    0  0.70982470228E+02  0.10952454566E+03 -0.64474736135E+03  0.66961203795E+03  0.12508790597E+03 0.  0.
          5    1    3    3  502    0  0.15041734581E+02 -0.21433542544E+02 -0.22036276725E+03  0.22195240957E+03  0.41800000000E+01 0.  1.
         -5    1    3    3    0  502  0.55940735647E+02  0.13095808820E+03 -0.42438459410E+03  0.44765962838E+03  0.41800000000E+01 0.  1.
        -11    1    1    2    0    0 -0.82846183805E+02 -0.95541029253E+02 -0.28968763726E+03  0.31608623131E+03  0.00000000000E+00 0.  1.
         11    1    1    2    0    0  0.11863713577E+02 -0.13983516405E+02 -0.73101837759E+01  0.19741459361E+02  0.00000000000E+00 0. -1.
</event>
<event>
 7    1  0.2989693E-009  0.1724656E+03  0.7561462E-02  0.1175301E+00
          1   -1    0    0  501    0  0.00000000000E+00  0.00000000000E+00  0.79048014154E+02  0.79048014154E+02  0.00000000000E+00 0. -1.
         -1   -1    0    0    0  501 -0.00000000000E+00 -0.00000000000E+00 -0.62934394346E+03  0.62934394346E+03  0.00000000000E+00 0.  1.
         25    2    1    2    0    0 -0.12136188190E+03 -0.93974144640E+02 -0.96261985928E+02  0.22016733528E+03  0.12508972521E+03 0.  0.
          5    1    3    3  502    0 -0.55441884122E+02 -0.82598633938E+02 -0.11347771450E+03  0.15096688687E+03  0.41800000000E+01 0. -1.
         -5    1    3    3    0  502 -0.65919997777E+02 -0.11375510703E+02  0.17215728568E+02  0.69200448415E+02  0.41800000000E+01 0. -1.
        -11    1    1    2    0    0  0.11422044500E+03  0.35759624887E+02 -0.27776213533E+03  0.30245142527E+03  0.00000000000E+00 0. -1.
         11    1    1    2    0    0  0.71414368955E+01  0.58214519753E+02 -0.17627180805E+03  0.18577319705E+03  0.00000000000E+00 0.  1.
</event>
<event>
 7    1  0.2989693E-009  0.1259918E+03  0.7561462E-02  0.1233527E+00
          4   -1    0    0  501    0  0.00000000000E+00  0.00000000000E+00  0.40603582950E+03  0.40603582950E+03  0.00000000000E+00 0. -1.
         -4   -1    0    0    0  501 -0.00000000000E+00 -0.00000000000E+00 -0.72862142910E+02  0.72862142910E+02  0.00000000000E+00 0.  1.
         25    2    1    2    0    0  0.11127994085E+03  0.55820762886E+02  0.11358399392E+03  0.20987773447E+03  0.12509259349E+03 0.  0.
          5    1    3    3  502    0  0.81089567087E+02  0.51728756036E+02  0.43233147838E+01  0.96371912620E+02  0.41800000000E+01 0.  1.
         -5    1    3    3    0  502  0.30190373763E+02  0.40920068502E+01  0.10926067914E+03  0.11350582185E+03  0.41800000000E+01 0.  1.
        -11    1    1    2    0    0 -0.36507428185E+02 -0.24032938022E+02  0.16607653107E+03  0.17173173438E+03  0.00000000000E+00 0. -1.
         11    1    1    2    0    0 -0.74772512665E+02 -0.31787824864E+02  0.53513161601E+02  0.97288503557E+02  0.00000000000E+00 0.  1.
</event>
<event>
 7    1  0.2989693E-009  0.1045480E+03  0.7561462E-02  0.1271013E+00
          1   -1    0    0  501    0  0.00000000000E+00  0.00000000000E+00  0.30930238276E+03  0.30930238276E+03  0.00000000000E+00 0. -1.
         -1   -1    0    0    0  501 -0.00000000000E+00 -0.00000000000E+00 -0.54927851864E+02  0.54927851864E+02  0.00000000000E+00 0.  1.
         25    2    1    2    0    0  0.27298160580E+02  0.49898495552E+02  0.76611371448E+02  0.15732879508E+03  0.12509195857E+03 0.  0.
          5    1    3    3  502    0  0.59296598550E+02  0.14092976940E+02  0.88635891103E+02  0.10764985922E+03  0.41800000000E+01 0.  1.
         -5    1    3    3    0  502 -0.31998437970E+02  0.35805518612E+02 -0.12024519655E+02  0.49678935863E+02  0.41800000000E+01 0.  1.
        -11    1    1    2    0    0  0.28821088987E+02 -0.25967841013E+02  0.37550827114E+02  0.53991189598E+02  0.00000000000E+00 0.  1.
         11    1    1    2    0    0 -0.56119249567E+02 -0.23930654539E+02  0.14021233233E+03  0.15291024994E+03  0.00000000000E+00 0. -1.
</event>
<event>
 7    1  0.3178633E-009  0.1645605E+03  0.7561462E-02  0.1183642E+00
         -1   -1    0    0    0  501 -0.00000000000E+00  0.00000000000E+00  0.48298324110E+03  0.48298324110E+03  0.00000000000E+00 0.  1.
          1   -1    0    0  501    0  0.00000000000E+00 -0.00000000000E+00 -0.75855011157E+02  0.75855011157E+02  0.00000000000E+00 0. -1.
         25    2    1    2    0    0  0.82655670185E+01  0.13775351151E+03  0.32359676558E+03  0.37337166354E+03  0.12508870016E+03 0.  0.
          5    1    3    3  502    0  0.62315868340E+02  0.54309499427E+02  0.18580920969E+03  0.20340925245E+03  0.41800000000E+01 0. -1.
         -5    1    3    3    0  502 -0.54050301322E+02  0.83444012083E+02  0.13778755588E+03  0.16996241109E+03  0.41800000000E+01 0. -1.
        -11    1    1    2    0    0  0.19913541146E+02 -0.81915713465E+02  0.41472902263E+01  0.84403395961E+02  0.00000000000E+00 0. -1.
         11    1    1    2    0    0 -0.28179108164E+02 -0.55837798045E+02  0.79384174139E+02  0.10106319276E+03  0.00000000000E+00 0.  1.
</event>
<event>
 7    1  0.2989693E-009  0.1107036E+03  0.7561462E-02  0.1259272E+00
         -1   -1    0    0    0  501 -0.00000000000E+00  0.00000000000E+00  0.15468578877E+02  0.15468578877E+02  0.00000000000E+00 0.  1.
          1   -1    0    0  501    0  0.00000000000E+00 -0.00000000000E+00 -0.84575704662E+03  0.84575704662E+03  0.00000000000E+00 0. -1.
         25    2    1    2    0    0  0.36617753497E+02 -0.79501303821E+01 -0.50299492899E+03  0.51967371680E+03  0.12511118616E+03 0.  0.
          5    1    3    3  502    0  0.78584044374E+02 -0.18329231094E+02 -0.24315370842E+03  0.25622765476E+03  0.41800000000E+01 0. -1.
         -5    1    3    3    0  502 -0.41966290877E+02  0.10379100711E+02 -0.25984122057E+03  0.26344606205E+03  0.41800000000E+01 0. -1.
        -11    1    1    2    0    0  0.27326033906E+02 -0.12485666300E+02 -0.86121938253E+02  0.91211798801E+02  0.00000000000E+00 0.  1.
         11    1    1    2    0    0 -0.63943787402E+02  0.20435796683E+02 -0.24117160050E+03  0.25034010989E+03  0.00000000000E+00 0. -1.
</event>
<event>
 7    1  0.2989693E-009  0.1351603E+03  0.7561462E-02  0.1219994E+00
         -2   -1    0    0    0  501 -0.00000000000E+00  0.00000000000E+00  0.16099990060E+03  0.16099990060E+03  0.00000000000E+00 0.  1.
          2   -1    0    0  501    0  0.00000000000E+00 -0.00000000000E+00 -0.15972614734E+03  0.15972614734E+03  0.00000000000E+00 0. -1.
         25    2    1    2    0    0 -0.56962442096E+02  0.95251903717E+02  0.42932123092E+02  0.17264997444E+03  0.12508877451E+03 0.  0.
          5    1    3    3  502    0  0.27067497627E+02  0.58669909863E+02 -0.11810241740E+02  0.65816122350E+02  0.41800000000E+01 0. -1.
         -5    1    3    3    0  502 -0.84029939723E+02  0.36581993854E+02  0.54742364832E+02  0.10683385209E+03  0.41800000000E+01 0. -1.
        -11    1    1    2    0    0  0.42026531741E+02 -0.45747355991E+02 -0.66248710451E+02  0.90818178724E+02  0.00000000000E+00 0. -1.
         11    1    1    2    0    0  0.14935910354E+02 -0.49504547726E+02  0.24590340620E+02  0.57257894787E+02  0.00000000000E+00 0.  1.
</event>
<event>
 7    1  0.2989693E-009  0.1024755E+03  0.7561462E-02  0.1275175E+00
          1   -1    0    0  501    0  0.00000000000E+00  0.00000000000E+00  0.11760540123E+03  0.11760540123E+03  0.00000000000E+00 0. -1.
         -1   -1    0    0    0  501 -0.00000000000E+00 -0.00000000000E+00 -0.10156407872E+03  0.10156407872E+03  0.00000000000E+00 0.  1.
         25    2    1    2    0    0  0.19362127944E+02  0.33976630777E+01  0.18007398422E+02  0.12790022682E+03  0.12509102889E+03 0.  0.
          5    1    3    3  502    0  0.12465746969E+02 -0.55786063871E+02  0.33242597100E+02  0.66257244371E+02  0.41800000000E+01 0.  1.
         -5    1    3    3    0  502  0.68963809753E+01  0.59183726948E+02 -0.15235198678E+02  0.61642982446E+02  0.41800000000E+01 0.  1.
        -11    1    1    2    0    0  0.33636748155E+02 -0.84048160338E+01  0.11191561812E+02  0.36432441790E+02  0.00000000000E+00 0. -1.
         11    1    1    2    0    0 -0.52998876099E+02  0.50071529561E+01 -0.13157637721E+02  0.54836811349E+02  0.00000000000E+00 0.  1.
</event>
<event>
 7    1  0.2989693E-009  0.1158317E+03  0.7561462E-02  0.1250136E+00
          2   -1    0    0  501    0  0.00000000000E+00  0.00000000000E+00  0.39358907336E+03  0.39358907336E+03  0.00000000000E+00 0. -1.
         -2   -1    0    0    0  501 -0.00000000000E+00 -0.00000000000E+00 -0.46166056031E+02  0.46166056031E+02  0.00000000000E+00 0.  1.
         25    2    1    2    0    0 -0.68978256096E+02  0.36376955889E+02  0.16050654057E+03  0.21792374151E+03  0.12508846795E+03 0.  0.
          5    1    3    3  502    0 -0.68777941636E+02 -0.21625759327E+02  0.36411793738E+02  0.80878735434E+02  0.41800000000E+01 0. -1.
         -5    1    3    3    0  502 -0.20031445948E+00  0.58002715216E+02  0.12409474684E+03  0.13704500608E+03  0.41800000000E+01 0. -1.
        -11    1    1    2    0    0 -0.41272833390E+01 -0.27316180031E+02  0.86572377268E+01  0.28950922685E+02  0.00000000000E+00 0.  1.
         11    1    1    2    0    0  0.73105539435E+02 -0.90607758576E+01  0.17825923903E+03  0.19288046520E+03  0.00000000000E+00 0. -1.
</event>
<event>
 7    1  0.2989693E-009  0.1536354E+03  0.7561462E-02  0.1196076E+00
          2   -1    0    0  501    0  0.00000000000E+00  0.00000000000E+00  0.16675669541E+03  0.16675669541E+03  0.00000000000E+00 0. -1.
         -2   -1    0    0    0  501 -0.00000000000E+00 -0.00000000000E+00 -0.21179726087E+03  0.21179726087E+03  0.00000000000E+00 0.  1.
         25    2    1    2    0    0  0.92844579816E+02 -0.99920141432E+02  0.46143578827E+02  0.19073578344E+03  0.12508700393E+03 0.  0.
          5    1    3    3  502    0 -0.74985665360E+01 -0.12454421156E+02 -0.32657452735E+02  0.35990592181E+02  0.41800000000E+01 0.  1.
         -5    1    3    3    0  502  0.10034314635E+03 -0.87465720276E+02  0.78801031561E+02  0.15474519126E+03  0.41800000000E+01 0.  1.
        -11    1    1    2    0    0 -0.78218626132E+02  0.24244476543E+02 -0.23378037769E+02  0.85161498147E+02  0.00000000000E+00 0. -1.
         11    1    1    2    0    0 -0.14625953684E+02  0.75675664889E+02 -0.67806106516E+02  0.10265667469E+03  0.00000000000E+00 0.  1.
</event>
<event>
 7    1  0.2989693E-009  0.1012026E+03  0.7561462E-02  0.1277787E+00
          2   -1    0    0  501    0  0.00000000000E+00  0.00000000000E+00  0.11519202160E+04  0.11519202160E+04  0.00000000000E+00 0. -1.
         -2   -1    0    0    0  501 -0.00000000000E+00 -0.00000000000E+00 -0.15085155128E+02  0.15085155128E+02  0.00000000000E+00 0.  1.
         25    2    1    2    0    0  0.26657725560E+02 -0.36915085806E+02  0.89110235980E+03  0.90098942447E+03  0.12508065188E+03 0.  0.
          5    1    3    3  502    0  0.56101167113E+02  0.13287657387E+02  0.22393412172E+03  0.23127443884E+03  0.41800000000E+01 0.  1.
         -5    1    3    3    0  502 -0.29443441554E+02 -0.50202743194E+02  0.66716823808E+03  0.66971498563E+03  0.41800000000E+01 0.  1.
        -11    1    1    2    0    0 -0.29599138470E+02 -0.15732904168E+02  0.33728396803E+02  0.47552476514E+02  0.00000000000E+00 0.  1.
         11    1    1    2    0    0  0.29414129106E+01  0.52647989974E+02  0.21200430422E+03  0.21846347010E+03  0.00000000000E+00 0. -1.
</event>
<event>
 7    1  0.2989693E-009  0.1404175E+03  0.7561462E-02  0.1212768E+00
         -1   -1    0    0    0  501 -0.00000000000E+00  0.00000000000E+00  0.46852815257E+03  0.46852815257E+03  0.00000000000E+00 0. -1.
          1   -1    0    0  501    0  0.00000000000E+00 -0.00000000000E+00 -0.64078144664E+02  0.64078144664E+02  0.00000000000E+00 0.  1.
         25    2    1    2    0    0  0.15205302864E+02 -0.12258237933E+03  0.29948173374E+03  0.34726697953E+03  0.12508958898E+03 0.  0.
          5    1    3    3  502    0 -0.83928049663E+01 -0.73998971080E+02  0.27989256997E+03  0.28966119868E+03  0.41800000000E+01 0. -1.
         -5    1    3    3    0  502  0.23598107830E+02 -0.48583408253E+02  0.19589163775E+02  0.57605780856E+02  0.41800000000E+01 0. -1.
        -11    1    1    2    0    0  0.32315568318E+02  0.86695638236E+02  0.55250262869E+02  0.10776372855E+03  0.00000000000E+00 0.  1.
         11    1    1    2    0    0 -0.47520871182E+02  0.35886741097E+02  0.49718011295E+02  0.77575589148E+02  0.00000000000E+00 0. -1.
</event>
<event>
 7    1  0.3886565E-009  0.7914375E+02  0.7561462E-02  0.1331499E+00
          3   -1    0    0  501    0  0.00000000000E+00  0.00000000000E+00  0.28427285413E+03  0.28427285413E+03  0.00000000000E+00 0. -1.
         -3   -1    0    0    0  501 -0.00000000000E+00 -0.00000000000E+00 -0.82657698539E+02  0.82657698539E+02  0.00000000000E+00 0.  1.
         25    2    1    2    0    0  0.36561293496E+02 -0.40411871760E+02  0.22009112301E+03  0.25895400806E+03  0.12508888161E+03 0.  0.
          5    1    3    3  502    0  0.45796745527E+02 -0.29270122625E+02  0.23289173049E+03  0.23918635519E+03  0.41800000000E+01 0.  1.
         -5    1    3    3    0  502 -0.92354520308E+01 -0.11141749135E+02 -0.12800607481E+02  0.19767652867E+02  0.41800000000E+01 0.  1.
        -11    1    1    2    0    0 -0.40930999427E+02  0.57776675311E+02 -0.38921551941E+02  0.80798379499E+02  0.00000000000E+00 0.  1.
         11    1    1    2    0    0  0.43697059304E+01 -0.17364803552E+02  0.20445584521E+02  0.27178165109E+02  0.00000000000E+00 0. -1.
</event>
<event>
 7    1  0.2989693E-009  0.1175347E+03  0.7561462E-02  0.1247220E+00
          4   -1    0    0  501    0  0.00000000000E+00  0.00000000000E+00  0.11238397398E+04  0.11238397398E+04  0.00000000000E+00 0. -1.
         -4   -1    0    0    0  501 -0.00000000000E+00 -0.00000000000E+00 -0.23209836000E+02  0.23209836000E+02  0.00000000000E+00 0.  1.
         25    2    1    2    0    0 -0.27279547446E+02  0.63479648792E+02  0.93918261556E+03  0.94999230149E+03  0.12509015949E+03 0.  0.
          5    1    3    3  502    0  0.36120872205E+02  0.67218202214E+02  0.60446500954E+03  0.60927696844E+03  0.41800000000E+01 0.  1.
         -5    1    3    3    0  502 -0.63400419650E+02 -0.37385534221E+01  0.33471760603E+03  0.34071533305E+03  0.41800000000E+01 0.  1.
        -11    1    1    2    0    0  0.18896616335E+02 -0.76893079506E+02  0.16294919619E+03  0.18116861849E+03  0.00000000000E+00 0. -1.
         11    1    1    2    0    0  0.83829311108E+01  0.13413430713E+02 -0.15019079178E+01  0.15888655856E+02  0.00000000000E+00 0.  1.
</event>
<event>
 7    1  0.2989693E-009  0.1197691E+03  0.7561462E-02  0.1243478E+00
         -1   -1    0    0    0  501 -0.00000000000E+00  0.00000000000E+00  0.47932198838E+02  0.47932198838E+02  0.00000000000E+00 0.  1.
          1   -1    0    0  501    0  0.00000000000E+00 -0.00000000000E+00 -0.58245648816E+03  0.58245648816E+03  0.00000000000E+00 0. -1.
         25    2    1    2    0    0  0.18404443059E+02  0.99472443425E+02 -0.42583166100E+03  0.45520702575E+03  0.12508933712E+03 0.  0.
          5    1    3    3  502    0  0.15385313163E+02  0.48655414908E+02 -0.37336107266E+02  0.63368087921E+02  0.41800000000E+01 0.  1.
         -5    1    3    3    0  502  0.30191298957E+01  0.50817028517E+02 -0.38849555373E+03  0.39183893783E+03  0.41800000000E+01 0.  1.
        -11    1    1    2    0    0  0.36409607775E+02 -0.58175649302E+02 -0.58085044547E+02  0.89910722998E+02  0.00000000000E+00 0. -1.
         11    1    1    2    0    0 -0.54814050834E+02 -0.41296794123E+02 -0.50607583778E+02  0.85270938247E+02  0.00000000000E+00 0.  1.
</event>
<event>
 7    1  0.3493459E-009  0.9673765E+02  0.7561462E-02  0.1287310E+00
         -2   -1    0    0    0  501 -0.00000000000E+00  0.00000000000E+00  0.14169271788E+02  0.14169271788E+02  0.00000000000E+00 0.  1.
          2   -1    0    0  501    0  0.00000000000E+00 -0.00000000000E+00 -0.10889892900E+04  0.10889892900E+04  0.00000000000E+00 0. -1.
         25    2    1    2    0    0 -0.36607059568E+02 -0.13735407725E+02 -0.80806491038E+03  0.81861822294E+03  0.12505261815E+03 0.  0.
          5    1    3    3  502    0 -0.14866406073E+02 -0.54872845167E+02 -0.67846516766E+03  0.68085570813E+03  0.41800000000E+01 0.  1.
         -5    1    3    3    0  502 -0.21740653495E+02  0.41137437441E+02 -0.12959974272E+03  0.13776251481E+03  0.41800000000E+01 0.  1.
        -11    1    1    2    0    0  0.62589490002E+02  0.11870478171E+02 -0.12377904967E+03  0.13921065207E+03  0.00000000000E+00 0.  1.
         11    1    1    2    0    0 -0.25982430433E+02  0.18649295545E+01 -0.14297605819E+03  0.14532968681E+03  0.00000000000E+00 0. -1.
</event>
<event>
 7    1  0.2989693E-009  0.1356620E+03  0.7561462E-02  0.1219288E+00
          2   -1    0    0  501    0  0.00000000000E+00  0.00000000000E+00  0.25908361784E+03  0.25908361784E+03  0.00000000000E+00 0. -1.
         -2   -1    0    0    0  501 -0.00000000000E+00 -0.00000000000E+00 -0.81123654469E+02  0.81123654469E+02  0.00000000000E+00 0.  1.
         25    2    1    2    0    0 -0.42422942602E+01 -0.93534777355E+02  0.71454844630E+02  0.17181316342E+03  0.12508883510E+03 0.  0.
          5    1    3    3  502    0 -0.60067971086E+02 -0.53683128971E+02  0.13233679933E+02  0.81747429140E+02  0.41800000000E+01 0. -1.
         -5    1    3    3    0  502  0.55825676826E+02 -0.39851648384E+02  0.58221164697E+02  0.90065734276E+02  0.41800000000E+01 0. -1.
        -11    1    1    2    0    0 -0.34363486021E+02  0.22454186632E+02  0.95824916093E+01  0.42152862468E+02  0.00000000000E+00 0.  1.
         11    1    1    2    0    0  0.38605780281E+02  0.71080590723E+02  0.96922627134E+02  0.12624124643E+03  0.00000000000E+00 0. -1.
</event>
<event>
 7    1  0.2989693E-009  0.1221615E+03  0.7561462E-02  0.1239573E+00
         -1   -1    0    0    0  501 -0.00000000000E+00  0.00000000000E+00  0.26630826905E+03  0.26630826905E+03  0.00000000000E+00 0.  1.
          1   -1    0    0  501    0  0.00000000000E+00 -0.00000000000E+00 -0.24245933410E+03  0.24245933410E+03  0.00000000000E+00 0. -1.
         25    2    1    2    0    0 -0.89969706821E+02 -0.75437801696E+02  0.21005714388E+03  0.27121153850E+03  0.12508511043E+03 0.  0.
          5    1    3    3  502    0 -0.28044276078E+02 -0.83216945623E+01  0.16801135612E+03  0.17059021135E+03  0.41800000000E+01 0. -1.
         -5    1    3    3    0  502 -0.61925430744E+02 -0.67116107133E+02  0.42045787751E+02  0.10062132715E+03  0.41800000000E+01 0. -1.
        -11    1    1    2    0    0  0.28905903117E+01  0.19825494009E+02  0.46116506207E+01  0.20559013753E+02  0.00000000000E+00 0.  1.
         11    1    1    2    0    0  0.87079116510E+02  0.55612307687E+02 -0.19081985955E+03  0.21699705089E+03  0.00000000000E+00 0. -1.
</event>
<event>
 7    1  0.2989693E-009  0.1058219E+03  0.7561462E-02  0.1268509E+00
          3   -1    0    0  501    0  0.00000000000E+00  0.00000000000E+00  0.46281085197E+03  0.46281085197E+03  0.00000000000E+00 0. -1.
         -3   -1    0    0    0  501 -0.00000000000E+00 -0.00000000000E+00 -0.27727275496E+02  0.27727275496E+02  0.00000000000E+00 0.  1.
         25    2    1    2    0    0  0.30761225307E+02 -0.99573177761E+01  0.25102092949E+03  0.28232250364E+03  0.12509631433E+03 0.  0.
          5    1    3    3  502    0  0.33204284897E+01  0.55592034416E+02  0.85252891423E+02  0.10191676718E+03  0.41800000000E+01 0.  1.
         -5    1    3    3    0  502  0.27440796817E+02 -0.65549352192E+02  0.16576803807E+03  0.18040573646E+03  0.41800000000E+01 0.  1.
        -11    1    1    2    0    0  0.25976756020E+02 -0.37383850375E+01  0.11421334236E+03  0.11718982443E+03  0.00000000000E+00 0.  1.
         11    1    1    2    0    0 -0.56737981327E+02  0.13695702814E+02  0.69849304624E+02  0.91025799404E+02  0.00000000000E+00 0. -1.
</event>
<event>
 7    1  0.2989693E-009  0.1204633E+03  0.7561462E-02  0.1242335E+00
         -1   -1    0    0    0  501 -0.00000000000E+00  0.00000000000E+00  0.51013161564E+02  0.51013161564E+02  0.00000000000E+00 0.  1.
          1   -1    0    0  501    0  0.00000000000E+00 -0.00000000000E+00 -0.32787092244E+03  0.32787092244E+03  0.00000000000E+00 0. -1.
         25    2    1    2    0    0 -0.59773218535E+02 -0.13727219693E+02 -0.20424323161E+03  0.24723341245E+03  0.12509112022E+03 0.  0.
          5    1    3    3  502    0  0.12383257384E+02  0.41634844606E+02 -0.98260519912E+02  0.10751468515E+03  0.41800000000E+01 0.  1.
         -5    1    3    3    0  502 -0.72156475919E+02 -0.55362064299E+02 -0.10598271169E+03  0.13971872730E+03  0.41800000000E+01 0.  1.
        -11    1    1    2    0    0  0.59949778738E+02 -0.26835230675E+02 -0.60546326688E+02  0.89330640049E+02  0.00000000000E+00 0.  1.
         11    1    1    2    0    0 -0.17656020305E+00  0.40562450368E+02 -0.12068202582E+02  0.42320031509E+02  0.00000000000E+00 0. -1.
</event>
<event>
 7    1  0.2989693E-009  0.2256231E+03  0.7561462E-02  0.1129759E+00
          1   -1    0    0  501    0  0.00000000000E+00  0.00000000000E+00  0.34964916143E+03  0.34964916143E+03  0.00000000000E+00 0. -1.
         -1   -1    0    0    0  501 -0.00000000000E+00 -0.00000000000E+00 -0.21825255613E+03  0.21825255613E+03  0.00000000000E+00 0.  1.
         25    2    1    2    0    0  0.20618727764E+03  0.94331733624E+01  0.22865026522E+03  0.33246442745E+03  0.12509785575E+03 0.  0.
          5    1    3    3  502    0  0.34091980526E+02 -0.48470176137E+02  0.49083362923E+02  0.77060171469E+02  0.41800000000E+01 0.  1.
         -5    1    3    3    0  502  0.17209529712E+03  0.57903349499E+02  0.17956690230E+03  0.25540425598E+03  0.41800000000E+01 0.  1.
        -11    1    1    2    0    0 -0.65089109117E+02 -0.21637966880E+02 -0.10600196535E+02  0.69405748342E+02  0.00000000000E+00 0.  1.
         11    1    1    2    0    0 -0.14109816852E+03  0.12204793518E+02 -0.86653463389E+02  0.16603154177E+03  0.00000000000E+00 0. -1.
</event>
<event>
 7    1  0.4523353E-009  0.1036039E+03  0.7561462E-02  0.1272895E+00
         -2   -1    0    0    0  501 -0.00000000000E+00  0.00000000000E+00  0.15667836705E+03  0.15667836705E+03  0.00000000000E+00 0.  1.
          2   -1    0    0  501    0  0.00000000000E+00 -0.00000000000E+00 -0.31944256824E+03  0.31944256824E+03  0.00000000000E+00 0. -1.
         25    2    1    2    0    0  0.61184461858E+02  0.64349218525E+02 -0.26932147245E+03  0.30994491944E+03  0.12508971688E+03 0.  0.
          5    1    3    3  502    0  0.57730827606E+02  0.90892673682E+01 -0.33118852935E+02  0.67303744748E+02  0.41800000000E+01 0. -1.
         -5    1    3    3    0  502  0.34536342524E+01  0.55259951156E+02 -0.23620261952E+03  0.24264117469E+03  0.41800000000E+01 0. -1.
        -11    1    1    2    0    0 -0.61003890296E+02 -0.50371716869E+02  0.12196241596E+03  0.14537405339E+03  0.00000000000E+00 0.  1.
         11    1    1    2    0    0 -0.18057156253E+00 -0.13977501656E+02 -0.15405144699E+02  0.20801962451E+02  0.00000000000E+00 0. -1.
</event>
<event>
 7    1  0.2989693E-009  0.1123862E+03  0.7561462E-02  0.1256214E+00
          1   -1    0    0  501    0  0.00000000000E+00  0.00000000000E+00  0.59603934387E+03  0.59603934387E+03  0.00000000000E+00 0. -1.
         -1   -1    0    0    0  501 -0.00000000000E+00 -0.00000000000E+00 -0.45900813345E+02  0.45900813345E+02  0.00000000000E+00 0.  1.
         25    2    1    2    0    0  0.53487307475E+02 -0.51715296999E+02  0.31721510519E+03  0.34901054108E+03  0.12509025070E+03 0.  0.
          5    1    3    3  502    0  0.72032672597E+01 -0.60623789912E+02  0.54113380238E+02  0.81687583409E+02  0.41800000000E+01 0.  1.
         -5    1    3    3    0  502  0.46284040216E+02  0.89084929127E+01  0.26310172495E+03  0.26732295767E+03  0.41800000000E+01 0.  1.
        -11    1    1    2    0    0  0.10811676720E+02  0.50817952652E+02  0.22163234116E+03  0.22764061877E+03  0.00000000000E+00 0. -1.
         11    1    1    2    0    0 -0.64298984195E+02  0.89734434775E+00  0.11291084175E+02  0.65288997367E+02  0.00000000000E+00 0.  1.
</event>
<event>
 7    1  0.2989693E-009  0.1210283E+03  0.7561462E-02  0.1241410E+00
          2   -1    0    0  501    0  0.00000000000E+00  0.00000000000E+00  0.58376621329E+03  0.58376621329E+03  0.00000000000E+00 0. -1.
         -2   -1    0    0    0  501 -0.00000000000E+00 -0.00000000000E+00 -0.29592957952E+02  0.29592957952E+02  0.00000000000E+00 0.  1.
         25    2    1    2    0    0 -0.48228627144E+02 -0.45025318814E+02  0.23443903030E+03  0.27378687817E+03  0.12507723981E+03 0.  0.
          5    1    3    3  502    0  0.33686452556E+02 -0.48584888187E+02  0.10173211115E+03  0.11773768846E+03  0.41800000000E+01 0. -1.
         -5    1    3    3    0  502 -0.81915079700E+02  0.35595693732E+01  0.13270691915E+03  0.15604918970E+03  0.41800000000E+01 0. -1.
        -11    1    1    2    0    0  0.17130450283E+02  0.62646113072E+02  0.27364953136E+03  0.28125087346E+03  0.00000000000E+00 0. -1.
         11    1    1    2    0    0  0.31098176861E+02 -0.17620794258E+02  0.46084693680E+02  0.58321419616E+02  0.00000000000E+00 0.  1.
</event>
<event>
 7    1  0.2989693E-009  0.6855946E+02  0.7561462E-02  0.1365061E+00
          2   -1    0    0  501    0  0.00000000000E+00  0.00000000000E+00  0.19527062836E+03  0.19527062836E+03  0.00000000000E+00 0. -1.
         -2   -1    0    0    0  501 -0.00000000000E+00 -0.00000000000E+00 -0.77268110587E+02  0.77268110587E+02  0.00000000000E+00 0.  1.
         25    2    1    2    0    0  0.43603508522E+01  0.11325458794E+02  0.13177741245E+03  0.18210053951E+03  0.12509213158E+03 0.  0.
          5    1    3    3  502    0 -0.48141901314E+02  0.14315205861E+02  0.12869509114E+02  0.52016001824E+02  0.41800000000E+01 0.  1.
         -5    1    3    3    0  502  0.52502252166E+02 -0.29897470670E+01  0.11890790333E+03  0.13008453768E+03  0.41800000000E+01 0.  1.
        -11    1    1    2    0    0  0.13212982894E+02 -0.29040670146E+00 -0.48344711205E+02  0.50118642784E+02  0.00000000000E+00 0.  1.
         11    1    1    2    0    0 -0.17573333747E+02 -0.11035052092E+02  0.34569816536E+02  0.40319556657E+02  0.00000000000E+00 0. -1.
</event>
<event>
 7    1  0.2989693E-009  0.1209123E+03  0.7561462E-02  0.1241600E+00
         -2   -1    0    0    0  501 -0.00000000000E+00  0.00000000000E+00  0.27289286865E+02  0.27289286865E+02  0.00000000000E+00 0.  1.
          2   -1    0    0  501    0  0.00000000000E+00 -0.00000000000E+00 -0.73621200803E+03  0.73621200803E+03  0.00000000000E+00 0. -1.
         25    2    1    2    0    0  0.79678023609E+02 -0.18739104689E+02 -0.47759592217E+03  0.50044533662E+03  0.12509168070E+03 0.  0.
          5    1    3    3  502    0  0.10593065368E+03  0.51692585765E+01 -0.27602990880E+03  0.29573300048E+03  0.41800000000E+01 0.  1.
         -5    1    3    3    0  502 -0.26252630072E+02 -0.23908363265E+02 -0.20156601337E+03  0.20471233614E+03  0.41800000000E+01 0.  1.
        -11    1    1    2    0    0 -0.41961800693E+02  0.38853935563E+02 -0.47549817583E+02  0.74373423871E+02  0.00000000000E+00 0.  1.
         11    1    1    2    0    0 -0.37716222916E+02 -0.20114830874E+02 -0.18377698141E+03  0.18868253440E+03  0.00000000000E+00 0. -1.
</event>
<event>
 7    1  0.2989693E-009  0.1649671E+03  0.7561462E-02  0.1183200E+00
         -2   -1    0    0    0  501 -0.00000000000E+00  0.00000000000E+00  0.39205794124E+03  0.39205794124E+03  0.00000000000E+00 0.  1.
          2   -1    0    0  501    0  0.00000000000E+00 -0.00000000000E+00 -0.80496996196E+02  0.80496996196E+02  0.00000000000E+00 0. -1.
         25    2    1    2    0    0 -0.76761933562E+02 -0.11495665727E+03  0.13049930236E+03  0.22756262308E+03  0.12508897638E+03 0.  0.
          5    1    3    3  502    0 -0.92972526632E+02 -0.13217659542E+03  0.12013125530E+03  0.20140390757E+03  0.41800000000E+01 0.  1.
         -5    1    3    3    0  502  0.16210593070E+02  0.17219938144E+02  0.10368047063E+02  0.26158715513E+02  0.41800000000E+01 0.  1.
        -11    1    1    2    0    0  0.53997678000E+02  0.10751698560E+03  0.18503924015E+03  0.22071513726E+03  0.00000000000E+00 0.  1.
         11    1    1    2    0    0  0.22764255562E+02  0.74396716740E+01 -0.39775974703E+01  0.24277177092E+02  0.00000000000E+00 0. -1.
</event>
<event>
 7    1  0.2989693E-009  0.1109035E+03  0.7561462E-02  0.1258906E+00
         -1   -1    0    0    0  501 -0.00000000000E+00  0.00000000000E+00  0.16517843945E+03  0.16517843945E+03  0.00000000000E+00 0.  1.
          1   -1    0    0  501    0  0.00000000000E+00 -0.00000000000E+00 -0.11311287427E+03  0.11311287427E+03  0.00000000000E+00 0. -1.
         25    2    1    2    0    0  0.19184648865E+02  0.65835671057E+02 -0.15718848678E+02  0.14351349037E+03  0.12508658353E+03 0.  0.
          5    1    3    3  502    0 -0.33175963591E+02  0.53582901761E+02 -0.49171700656E+02  0.80044365615E+02  0.41800000000E+01 0. -1.
         -5    1    3    3    0  502  0.52360612456E+02  0.12252769296E+02  0.33452851978E+02  0.63469124759E+02  0.41800000000E+01 0. -1.
        -11    1    1    2    0    0  0.29548960760E+02 -0.39455122078E+02  0.61783345955E+02  0.79038152671E+02  0.00000000000E+00 0.  1.
         11    1    1    2    0    0 -0.48733609625E+02 -0.26380548979E+02  0.60010679043E+01  0.55739670680E+02  0.00000000000E+00 0. -1.
</event>
<event>
 7    1  0.2989693E-009  0.1247436E+03  0.7561462E-02  0.1235471E+00
         -2   -1    0    0    0  501 -0.00000000000E+00  0.00000000000E+00  0.43743943200E+02  0.43743943200E+02  0.00000000000E+00 0.  1.
          2   -1    0    0  501    0  0.00000000000E+00 -0.00000000000E+00 -0.49514124490E+03  0.49514124490E+03  0.00000000000E+00 0. -1.
         25    2    1    2    0    0 -0.93417102147E+02  0.19790869018E+02 -0.31917221065E+03  0.35586093186E+03  0.12509064433E+03 0.  0.
          5    1    3    3  502    0 -0.88091544305E+02  0.54490032909E+02 -0.14565979157E+03  0.17878347560E+03  0.41800000000E+01 0.  1.
         -5    1    3    3    0  502 -0.53255578418E+01 -0.34699163892E+02 -0.17351241908E+03  0.17707745626E+03  0.41800000000E+01 0.  1.
        -11    1    1    2    0    0  0.40869640329E+02 -0.37044182437E+02 -0.11068943191E+03  0.12367194220E+03  0.00000000000E+00 0. -1.
         11    1    1    2    0    0  0.52547461818E+02  0.17253313419E+02 -0.21535659146E+02  0.59352314043E+02  0.00000000000E+00 0.  1.
</event>
<event>
 7    1  0.2989693E-009  0.1053564E+03  0.7561462E-02  0.1269419E+00
         -3   -1    0    0    0  501 -0.00000000000E+00  0.00000000000E+00  0.24008586737E+02  0.24008586737E+02  0.00000000000E+00 0.  1.
          3   -1    0    0  501    0  0.00000000000E+00 -0.00000000000E+00 -0.75463886706E+03  0.75463886706E+03  0.00000000000E+00 0. -1.
         25    2    1    2    0    0 -0.26244589474E+02  0.30883987932E+02 -0.49599627083E+03  0.51313006452E+03  0.12509022045E+03 0.  0.
          5    1    3    3  502    0 -0.73006618619E+02  0.35504825107E+02 -0.25799896995E+03  0.27050231028E+03  0.41800000000E+01 0. -1.
         -5    1    3    3    0  502  0.46762029145E+02 -0.46208371748E+01 -0.23799730087E+03  0.24262775424E+03  0.41800000000E+01 0. -1.
        -11    1    1    2    0    0 -0.12165571210E+02 -0.40802611610E+02 -0.19631075744E+02  0.46885321497E+02  0.00000000000E+00 0.  1.
         11    1    1    2    0    0  0.38410160684E+02  0.99186236776E+01 -0.21500293376E+03  0.21863206778E+03  0.00000000000E+00 0. -1.
</event>
<event>
 7    1  0.2989693E-009  0.1336002E+03  0.7561462E-02  0.1222209E+00
          3   -1    0    0  501    0  0.00000000000E+00  0.00000000000E+00  0.10691913036E+03  0.10691913036E+03  0.00000000000E+00 0. -1.
         -3   -1    0    0    0  501 -0.00000000000E+00 -0.00000000000E+00 -0.24112788570E+03  0.24112788570E+03  0.00000000000E+00 0.  1.
         25    2    1    2    0    0 -0.75125785221E+01 -0.80098621788E+02 -0.83094553044E+02  0.17035126979E+03  0.12507046944E+03 0.  0.
          5    1    3    3  502    0 -0.25595344570E+02 -0.90517073071E+02 -0.10415613642E+03  0.14040810281E+03  0.41800000000E+01 0. -1.
         -5    1    3    3    0  502  0.18082766048E+02  0.10418451282E+02  0.21061583372E+02  0.29943166986E+02  0.41800000000E+01 0. -1.
        -11    1    1    2    0    0  0.45777842619E+02 -0.15862552557E+02 -0.56275933436E+02  0.74257741230E+02  0.00000000000E+00 0.  1.
         11    1    1    2    0    0 -0.38265264097E+02  0.95961174346E+02  0.51617311326E+01  0.10343800504E+03  0.00000000000E+00 0. -1.
</event>
<event>
 7    1  0.2989693E-009  0.1429699E+03  0.7561462E-02  0.1209388E+00
          2   -1    0    0  501    0  0.00000000000E+00  0.00000000000E+00  0.68451173324E+03  0.68451173324E+03  0.00000000000E+00 0. -1.
         -2   -1    0    0    0  501 -0.00000000000E+00 -0.00000000000E+00 -0.44709363833E+02  0.44709363833E+02  0.00000000000E+00 0.  1.
         25    2    1    2    0    0  0.10681345473E+03 -0.56528796801E+02  0.47350756070E+03  0.50444253058E+03  0.12509291602E+03 0.  0.
          5    1    3    3  502    0  0.53946865577E+02 -0.61561452196E+02  0.42356675701E+03  0.43142362794E+03  0.41800000000E+01 0. -1.
         -5    1    3    3    0  502  0.52866589154E+02  0.50326553954E+01  0.49940803686E+02  0.73018902634E+02  0.41800000000E+01 0. -1.
        -11    1    1    2    0    0 -0.85622692543E+02 -0.48654719954E+01  0.85293578177E+02  0.12095417634E+03  0.00000000000E+00 0.  1.
         11    1    1    2    0    0 -0.21190762188E+02  0.61394268796E+02  0.81001230530E+02  0.10382439015E+03  0.00000000000E+00 0. -1.
</event>
<event>
 7    1  0.2989693E-009  0.1077357E+03  0.7561462E-02  0.1264821E+00
         -4   -1    0    0    0  501 -0.00000000000E+00  0.00000000000E+00  0.22112284087E+03  0.22112284087E+03  0.00000000000E+00 0. -1.
          4   -1    0    0  501    0  0.00000000000E+00 -0.00000000000E+00 -0.94415914389E+02  0.94415914389E+02  0.00000000000E+00 0.  1.
         25    2    1    2    0    0  0.70444955431E+02  0.14522985858E+02  0.52578705148E+00  0.14429589315E+03  0.12509044513E+03 0.  0.
          5    1    3    3  502    0 -0.29304558400E+02  0.27521691219E+02 -0.13566378646E+02  0.42634723644E+02  0.41800000000E+01 0. -1.
         -5    1    3    3    0  502  0.99749513831E+02 -0.12998705362E+02  0.14092165698E+02  0.10166116950E+03  0.41800000000E+01 0. -1.
        -11    1    1    2    0    0 -0.19456698944E+02 -0.12927190643E+02 -0.10307364476E+02  0.25532668371E+02  0.00000000000E+00 0.  1.
         11    1    1    2    0    0 -0.50988256487E+02 -0.15957952151E+01  0.13648850390E+03  0.14571019374E+03  0.00000000000E+00 0. -1.
</event>
<event>
 7    1  0.2989693E-009  0.1109636E+03  0.7561462E-02  0.1258796E+00
         -2   -1    0    0    0  501 -0.00000000000E+00  0.00000000000E+00  0.14535119189E+03  0.14535119189E+03  0.00000000000E+00 0.  1.
          2   -1    0    0  501    0  0.00000000000E+00 -0.00000000000E+00 -0.17113196581E+03  0.17113196581E+03  0.00000000000E+00 0. -1.
         25    2    1    2    0    0  0.53506375995E+02  0.78927411064E+02 -0.76557179697E+02  0.17493127127E+03  0.12508988535E+03 0.  0.
          5    1    3    3  502    0  0.33209697748E+02  0.92376887028E+02 -0.10048503614E+03  0.14053856470E+03  0.41800000000E+01 0. -1.
         -5    1    3    3    0  502  0.20296678246E+02 -0.13449475964E+02  0.23927856439E+02  0.34392706571E+02  0.41800000000E+01 0. -1.
        -11    1    1    2    0    0 -0.32800238606E+02 -0.68134383561E+02  0.75978297046E+02  0.10719538935E+03  0.00000000000E+00 0.  1.
         11    1    1    2    0    0 -0.20706137389E+02 -0.10793027503E+02 -0.25201891268E+02  0.34356497082E+02  0.00000000000E+00 0. -1.
</event>
<event>
 7    1  0.2989693E-009  0.9434474E+02  0.7561462E-02  0.1292659E+00
         -1   -1    0    0    0  501 -0.00000000000E+00  0.00000000000E+00  0.74959605623E+02  0.74959605623E+02  0.00000000000E+00 0.  1.
          1   -1    0    0  501    0  0.00000000000E+00 -0.00000000000E+00 -0.20424346721E+03  0.20424346721E+03  0.00000000000E+00 0. -1.
         25    2    1    2    0    0  0.42350532232E+02 -0.16934805445E+02 -0.28996425851E+02  0.13626563996E+03  0.12508867537E+03 0.  0.
          5    1    3    3  502    0 -0.28293108244E+02 -0.13331541804E+02  0.30391813323E+02  0.43810554642E+02  0.41800000000E+01 0. -1.
         -5    1    3    3    0  502  0.70643640477E+02 -0.36032636414E+01 -0.59388239173E+02  0.92455085316E+02  0.41800000000E+01 0. -1.
        -11    1    1    2    0    0 -0.43652580241E+02  0.42354330776E+02 -0.10051345293E+03  0.11748357893E+03  0.00000000000E+00 0. -1.
         11    1    1    2    0    0  0.13020480092E+01 -0.25419525331E+02  0.22601719572E+00  0.25453853949E+02  0.00000000000E+00 0.  1.
</event>
<event>
 7    1  0.2989693E-009  0.1494417E+03  0.7561462E-02  0.1201161E+00
          2   -1    0    0  501    0  0.00000000000E+00  0.00000000000E+00  0.20769946241E+03  0.20769946241E+03  0.00000000000E+00 0. -1.
         -2   -1    0    0    0  501 -0.00000000000E+00 -0.00000000000E+00 -0.21935341434E+03  0.21935341434E+03  0.00000000000E+00 0.  1.
         25    2    1    2    0    0  0.10321511795E+03 -0.92132945156E+02  0.11463979934E+03  0.21893336612E+03  0.12509074726E+03 0.  0.
          5    1    3    3  502    0  0.58832943644E+02 -0.57201367891E+02 -0.92795759673E+01  0.82685516728E+02  0.41800000000E+01 0.  1.
         -5    1    3    3    0  502  0.44382174304E+02 -0.34931577265E+02  0.12391937531E+03  0.13624784939E+03  0.41800000000E+01 0.  1.
        -11    1    1    2    0    0  0.11282865663E+02  0.24826883977E+02 -0.44338534613E+02  0.52053653831E+02  0.00000000000E+00 0.  1.
         11    1    1    2    0    0 -0.11449798361E+03  0.67306061179E+02 -0.81955216664E+02  0.15606585681E+03  0.00000000000E+00 0. -1.
</event>
<event>
 7    1  0.2989693E-009  0.1206654E+03  0.7561462E-02  0.1242003E+00
         -2   -1    0    0    0  501 -0.00000000000E+00  0.00000000000E+00  0.51568684906E+02  0.51568684906E+02  0.00000000000E+00 0.  1.
          2   -1    0    0  501    0  0.00000000000E+00 -0.00000000000E+00 -0.46391974796E+03  0.46391974796E+03  0.00000000000E+00 0. -1.
         25    2    1    2    0    0 -0.62530187913E+02 -0.60207993242E+02 -0.11123446200E+03  0.18856565257E+03  0.12509545532E+03 0.  0.
          5    1    3    3  502    0 -0.47276658674E+01 -0.87570310029E+02 -0.70805663206E+02  0.11279106509E+03  0.41800000000E+01 0. -1.
         -5    1    3    3    0  502 -0.57802522046E+02  0.27362316787E+02 -0.40428798792E+02  0.75774587472E+02  0.41800000000E+01 0. -1.
        -11    1    1    2    0    0  0.25442113883E+02  0.39451928355E+02 -0.27049756140E+03  0.27454086496E+03  0.00000000000E+00 0. -1.
         11    1    1    2    0    0  0.37088074030E+02  0.20756064887E+02 -0.30619039649E+02  0.52381915332E+02  0.00000000000E+00 0.  1.
</event>
<event>
 7    1  0.2989693E-009  0.1169572E+03  0.7561462E-02  0.1248203E+00
          1   -1    0    0  501    0  0.00000000000E+00  0.00000000000E+00  0.20528903425E+03  0.20528903425E+03  0.00000000000E+00 0. -1.
         -1   -1    0    0    0  501 -0.00000000000E+00 -0.00000000000E+00 -0.11330797109E+03  0.11330797109E+03  0.00000000000E+00 0.  1.
         25    2    1    2    0    0  0.97260388235E+02  0.88669506055E+00  0.17471553433E+01  0.15846501520E+03  0.12509092351E+03 0.  0.
          5    1    3    3  502    0  0.96377492479E+02 -0.10518270868E+02 -0.47281992005E+02  0.10794588573E+03  0.41800000000E+01 0. -1.
         -5    1    3    3    0  502  0.88289575679E+00  0.11404965929E+02  0.49029147349E+02  0.50519129471E+02  0.41800000000E+01 0. -1.
        -11    1    1    2    0    0 -0.27121675375E+02 -0.36944611102E+02  0.60384764625E+02  0.75807713087E+02  0.00000000000E+00 0. -1.
         11    1    1    2    0    0 -0.70138712860E+02  0.36057916042E+02  0.29849143196E+02  0.84324277053E+02  0.00000000000E+00 0.  1.
</event>
<event>
 7    1  0.2989693E-009  0.1072283E+03  0.7561462E-02  0.1265791E+00
          1   -1    0    0  501    0  0.00000000000E+00  0.00000000000E+00  0.59542721385E+03  0.59542721385E+03  0.00000000000E+00 0. -1.
         -1   -1    0    0    0  501 -0.00000000000E+00 -0.00000000000E+00 -0.37713402254E+02  0.37713402254E+02  0.00000000000E+00 0.  1.
         25    2    1    2    0    0 -0.79891771652E+00  0.54213276978E+02  0.48660510313E+03  0.50534395604E+03  0.12509304474E+03 0.  0.
          5    1    3    3  502    0 -0.16694968115E+02 -0.38485343825E+02  0.15584786185E+03  0.16144928644E+03  0.41800000000E+01 0.  1.
         -5    1    3    3    0  502  0.15896050399E+02  0.92698620803E+02  0.33075724128E+03  0.34389466959E+03  0.41800000000E+01 0.  1.
        -11    1    1    2    0    0  0.19110996757E+02 -0.56551122230E+02  0.85578781334E+02  0.10434072761E+03  0.00000000000E+00 0.  1.
         11    1    1    2    0    0 -0.18312079041E+02  0.23378452525E+01 -0.14470072862E+02  0.23455932466E+02  0.00000000000E+00 0. -1.
</event>
<event>
 7    1  0.2989693E-009  0.1506200E+03  0.7561462E-02  0.1199713E+00
          1   -1    0    0  501    0  0.00000000000E+00  0.00000000000E+00  0.57216427948E+03  0.57216427948E+03  0.00000000000E+00 0. -1.
         -1   -1    0    0    0  501 -0.00000000000E+00 -0.00000000000E+00 -0.52266905672E+02  0.52266905672E+02  0.00000000000E+00 0.  1.
         25    2    1    2    0    0 -0.52677863768E+02  0.12070136291E+03  0.23320970108E+03  0.29559751212E+03  0.12508936068E+03 0.  0.
          5    1    3    3  502    0 -0.21911843930E+02  0.10342887811E+03  0.66110307300E+02  0.12476260202E+03  0.41800000000E+01 0.  1.
         -5    1    3    3    0  502 -0.30766019837E+02  0.17272484796E+02  0.16709939378E+03  0.17083491010E+03  0.41800000000E+01 0.  1.
        -11    1    1    2    0    0 -0.24128376088E+02 -0.49968466346E+02  0.11889170789E+03  0.13120314160E+03  0.00000000000E+00 0.  1.
         11    1    1    2    0    0  0.76806239855E+02 -0.70732896561E+02  0.16779596485E+03  0.19763053144E+03  0.00000000000E+00 0. -1.
</event>
<event>
 7    1  0.2989693E-009  0.3014815E+03  0.7561462E-02  0.1084502E+00
          2   -1    0    0  501    0  0.00000000000E+00  0.00000000000E+00  0.53522360325E+03  0.53522360325E+03  0.00000000000E+00 0. -1.
         -2   -1    0    0    0  501 -0.00000000000E+00 -0.00000000000E+00 -0.18414627938E+03  0.18414627938E+03  0.00000000000E+00 0.  1.
         25    2    1    2    0    0  0.11166601570E+03  0.26810121674E+03  0.12357389234E+03  0.33950779102E+03  0.12508985495E+03 0.  0.
          5    1    3    3  502    0  0.66992064571E+02  0.67781712504E+02 -0.79208332369E+01  0.95720996989E+02  0.41800000000E+01 0.  1.
         -5    1    3    3    0  502  0.44673951130E+02  0.20031950424E+03  0.13149472558E+03  0.24378679403E+03  0.41800000000E+01 0.  1.
        -11    1    1    2    0    0 -0.44143514972E+02 -0.26631951063E+02  0.55811658769E+02  0.75979286559E+02  0.00000000000E+00 0.  1.
         11    1    1    2    0    0 -0.67522500729E+02 -0.24146926568E+03  0.17169177276E+03  0.30388280505E+03  0.00000000000E+00 0. -1.
</event>
<event>
 7    1  0.2989693E-009  0.3551767E+03  0.7561462E-02  0.1060510E+00
         -1   -1    0    0    0  501 -0.00000000000E+00  0.00000000000E+00  0.19875673218E+03  0.19875673218E+03  0.00000000000E+00 0.  1.
          1   -1    0    0  501    0  0.00000000000E+00 -0.00000000000E+00 -0.11244475519E+04  0.11244475519E+04  0.00000000000E+00 0. -1.
         25    2    1    2    0    0 -0.33562590073E+03 -0.56674446345E+02 -0.89836759364E+03  0.96879742671E+03  0.12508949828E+03 0.  0.
          5    1    3    3  502    0 -0.15078877161E+03 -0.88650663752E+02 -0.44052461279E+03  0.47399957880E+03  0.41800000000E+01 0.  1.
         -5    1    3    3    0  502 -0.18483712911E+03  0.31976217407E+02 -0.45784298085E+03  0.49479784791E+03  0.41800000000E+01 0.  1.
        -11    1    1    2    0    0  0.25999123167E+03  0.73688033920E+02 -0.47322196019E+02  0.27434423107E+03  0.00000000000E+00 0.  1.
         11    1    1    2    0    0  0.75634669060E+02 -0.17013587575E+02  0.19998969963E+02  0.80062626272E+02  0.00000000000E+00 0. -1.
</event>
<event>
 7    1  0.2989693E-009  0.1155923E+03  0.7561462E-02  0.1250551E+00
          1   -1    0    0  501    0  0.00000000000E+00  0.00000000000E+00  0.24848316913E+03  0.24848316913E+03  0.00000000000E+00 0. -1.
         -1   -1    0    0    0  501 -0.00000000000E+00 -0.00000000000E+00 -0.67207158291E+02  0.67207158291E+02  0.00000000000E+00 0.  1.
         25    2    1    2    0    0 -0.13071985034E+02 -0.50712652992E+02  0.15687557273E+03  0.20733874484E+03  0.12504703045E+03 0.  0.
          5    1    3    3  502    0 -0.25151309415E+02  0.36524241119E+02  0.73782375104E+02  0.86185380608E+02  0.41800000000E+01 0. -1.
         -5    1    3    3    0  502  0.12079324381E+02 -0.87236894112E+02  0.83093197627E+02  0.12115336423E+03  0.41800000000E+01 0. -1.
        -11    1    1    2    0    0  0.29953080579E+02  0.68003693437E+02  0.42279543403E+00  0.74309273400E+02  0.00000000000E+00 0.  1.
         11    1    1    2    0    0 -0.16881095545E+02 -0.17291040445E+02  0.23977642678E+02  0.34042309188E+02  0.00000000000E+00 0. -1.
</event>
<event>
 7    1  0.2989693E-009  0.6412859E+02  0.7561462E-02  0.1381280E+00
          2   -1    0    0  501    0  0.00000000000E+00  0.00000000000E+00  0.63996758286E+02  0.63996758286E+02  0.00000000000E+00 0. -1.
         -2   -1    0    0    0  501 -0.00000000000E+00 -0.00000000000E+00 -0.26249983286E+03  0.26249983286E+03  0.00000000000E+00 0.  1.
         25    2    1    2    0    0 -0.23656218442E+02 -0.10249728435E+02 -0.19327731283E+03  0.23166359709E+03  0.12508888423E+03 0.  0.
          5    1    3    3  502    0 -0.26016886322E+02 -0.48246799237E+01  0.97495216119E+01  0.28507568854E+02  0.41800000000E+01 0. -1.
         -5    1    3    3    0  502  0.23606678803E+01 -0.54250485117E+01 -0.20302683444E+03  0.20315602824E+03  0.41800000000E+01 0. -1.
        -11    1    1    2    0    0 -0.25701227666E+02 -0.23181135506E+02 -0.64500379923E+01  0.35206833669E+02  0.00000000000E+00 0.  1.
         11    1    1    2    0    0  0.49357446108E+02  0.33430863942E+02  0.12242762512E+01  0.59626160387E+02  0.00000000000E+00 0. -1.
</event>
<event>
 7    1  0.2989693E-009  0.1013110E+03  0.7561462E-02  0.1277563E+00
          2   -1    0    0  501    0  0.00000000000E+00  0.00000000000E+00  0.64654119884E+03  0.64654119884E+03  0.00000000000E+00 0. -1.
         -2   -1    0    0    0  501 -0.00000000000E+00 -0.00000000000E+00 -0.21834159924E+02  0.21834159924E+02  0.00000000000E+00 0.  1.
         25    2    1    2    0    0  0.17334725606E+02  0.36106084933E+02  0.27915868794E+03  0.30851580214E+03  0.12509310547E+03 0.  0.
          5    1    3    3  502    0  0.54698240078E+02 -0.19196120742E+02  0.17803294155E+03  0.18727944147E+03  0.41800000000E+01 0.  1.
         -5    1    3    3    0  502 -0.37363514472E+02  0.55302205675E+02  0.10112574639E+03  0.12123636067E+03  0.41800000000E+01 0.  1.
        -11    1    1    2    0    0  0.21406663644E+02  0.41013537913E+01  0.20076871651E+02  0.29633547316E+02  0.00000000000E+00 0.  1.
         11    1    1    2    0    0 -0.38741389250E+02 -0.40207438724E+02  0.32547147932E+03  0.33022600930E+03  0.00000000000E+00 0. -1.
</event>
<event>
 7    1  0.2989693E-009  0.8837610E+02  0.7561462E-02  0.1306833E+00
          2   -1    0    0  501    0  0.00000000000E+00  0.00000000000E+00  0.90556293658E+02  0.90556293658E+02  0.00000000000E+00 0. -1.
         -2   -1    0    0    0  501 -0.00000000000E+00 -0.00000000000E+00 -0.42483377153E+03  0.42483377153E+03  0.00000000000E+00 0.  1.
         25    2    1    2    0    0  0.17374945996E+02 -0.83845946292E+01 -0.38778265448E+03  0.40791662179E+03  0.12509353719E+03 0.  0.
          5    1    3    3  502    0  0.20025487885E+02 -0.48542665628E+02 -0.70197403969E+02  0.87764220928E+02  0.41800000000E+01 0. -1.
         -5    1    3    3    0  502 -0.26505418890E+01  0.40158070998E+02 -0.31758525051E+03  0.32015240086E+03  0.41800000000E+01 0. -1.
        -11    1    1    2    0    0 -0.38638153381E+02 -0.23548362160E+02  0.52207033735E+02  0.69086949770E+02  0.00000000000E+00 0. -1.
         11    1    1    2    0    0  0.21263207386E+02  0.31932956789E+02  0.12981428736E+01  0.38386493621E+02  0.00000000000E+00 0.  1.
</event>
<event>
 7    1  0.2989693E-009  0.1151961E+03  0.7561462E-02  0.1251239E+00
         -1   -1    0    0    0  501 -0.00000000000E+00  0.00000000000E+00  0.42920215838E+02  0.42920215838E+02  0.00000000000E+00 0.  1.
          1   -1    0    0  501    0  0.00000000000E+00 -0.00000000000E+00 -0.34150359027E+03  0.34150359027E+03  0.00000000000E+00 0. -1.
         25    2    1    2    0    0 -0.12307447254E+02 -0.46654060971E+02 -0.19832359510E+03  0.23938935037E+03  0.12508772136E+03 0.  0.
          5    1    3    3  502    0  0.32294459419E+02  0.30008775322E+02 -0.52744906031E+02  0.68869123834E+02  0.41800000000E+01 0. -1.
         -5    1    3    3    0  502 -0.44601906672E+02 -0.76662836293E+02 -0.14557868907E+03  0.17052022654E+03  0.41800000000E+01 0. -1.
        -11    1    1    2    0    0 -0.28199999477E+02  0.49223397434E+02 -0.30711962859E+02  0.64508972152E+02  0.00000000000E+00 0.  1.
         11    1    1    2    0    0  0.40507446730E+02 -0.25693364630E+01 -0.69547816479E+02  0.80525483591E+02  0.00000000000E+00 0. -1.
</event>
<event>
 7    1  0.2989693E-009  0.1068315E+03  0.7561462E-02  0.1266553E+00
         -2   -1    0    0    0  501 -0.00000000000E+00  0.00000000000E+00  0.10076749323E+04  0.10076749323E+04  0.00000000000E+00 0.  1.
          2   -1    0    0  501    0  0.00000000000E+00 -0.00000000000E+00 -0.20046022621E+02  0.20046022621E+02  0.00000000000E+00 0. -1.
         25    2    1    2    0    0 -0.44153803469E+02 -0.31900081247E+02  0.80296279443E+03  0.81447150119E+03  0.12508958177E+03 0.  0.
          5    1    3    3  502    0 -0.33919244828E+02  0.35886718582E+02  0.15152213513E+03  0.15942020441E+03  0.41800000000E+01 0.  1.
         -5    1    3    3    0  502 -0.10234558641E+02 -0.67786799829E+02  0.65144065930E+03  0.65505129678E+03  0.41800000000E+01 0.  1.
        -11    1    1    2    0    0  0.41968823762E+02 -0.17863669679E+02  0.41503820561E+02  0.61668954779E+02  0.00000000000E+00 0.  1.
         11    1    1    2    0    0  0.21849797072E+01  0.49763750927E+02  0.14316229470E+03  0.15158049896E+03  0.00000000000E+00 0. -1.
</event>
<event>
 7    1  0.2989693E-009  0.1583533E+03  0.7561462E-02  0.1190569E+00
          2   -1    0    0  501    0  0.00000000000E+00  0.00000000000E+00  0.91752228964E+03  0.91752228964E+03  0.00000000000E+00 0. -1.
         -2   -1    0    0    0  501 -0.00000000000E+00 -0.00000000000E+00 -0.33048775244E+02  0.33048775244E+02  0.00000000000E+00 0.  1.
         25    2    1    2    0    0  0.40956234272E+02  0.12866802079E+03  0.45775071082E+03  0.49337263132E+03  0.12509183580E+03 0.  0.
          5    1    3    3  502    0  0.80615440465E+02  0.10774438814E+03  0.38446667220E+03  0.40735708764E+03  0.41800000000E+01 0.  1.
         -5    1    3    3    0  502 -0.39659206193E+02  0.20923632657E+02  0.73284038619E+02  0.86015543687E+02  0.41800000000E+01 0.  1.
        -11    1    1    2    0    0 -0.25346274782E+02 -0.42601483801E+02  0.49826707080E+02  0.70285281573E+02  0.00000000000E+00 0.  1.
         11    1    1    2    0    0 -0.15609959490E+02 -0.86066536994E+02  0.37689609650E+03  0.38691315199E+03  0.00000000000E+00 0. -1.
</event>
<event>
 7    1  0.4137398E-009  0.1840413E+03  0.7561462E-02  0.1163948E+00
          1   -1    0    0  501    0  0.00000000000E+00  0.00000000000E+00  0.86864917690E+03  0.86864917690E+03  0.00000000000E+00 0. -1.
         -1   -1    0    0    0  501 -0.00000000000E+00 -0.00000000000E+00 -0.45393221332E+02  0.45393221332E+02  0.00000000000E+00 0.  1.
         25    2    1    2    0    0 -0.15107270585E+03 -0.22348904645E+02  0.58088539891E+03  0.61350643094E+03  0.12505941849E+03 0.  0.
          5    1    3    3  502    0 -0.10912483519E+03 -0.73096844152E+02  0.38475354911E+03  0.40657612354E+03  0.41800000000E+01 0.  1.
         -5    1    3    3    0  502 -0.41947870660E+02  0.50747939507E+02  0.19613184980E+03  0.20693030740E+03  0.41800000000E+01 0.  1.
        -11    1    1    2    0    0  0.37131688352E+02  0.40917820503E+02  0.42451841256E+02  0.69679187284E+02  0.00000000000E+00 0.  1.
         11    1    1    2    0    0  0.11394101750E+03 -0.18568915858E+02  0.19991871541E+03  0.23085678001E+03  0.00000000000E+00 0. -1.
</event>
<event>
 7    1  0.2989693E-009  0.1477697E+03  0.7561462E-02  0.1203241E+00
         -2   -1    0    0    0  501 -0.00000000000E+00  0.00000000000E+00  0.59594545888E+02  0.59594545888E+02  0.00000000000E+00 0. -1.
          2   -1    0    0  501    0  0.00000000000E+00 -0.00000000000E+00 -0.57595980815E+03  0.57595980815E+03  0.00000000000E+00 0.  1.
         25    2    1    2    0    0  0.12342992180E+03 -0.54522624261E+02 -0.38196114125E+03  0.42396903599E+03  0.12509103845E+03 0.  0.
          5    1    3    3  502    0  0.41882289144E+02 -0.35216957865E+02 -0.30569310866E+03  0.31058027842E+03  0.41800000000E+01 0. -1.
         -5    1    3    3    0  502  0.81547632654E+02 -0.19305666396E+02 -0.76268032595E+02  0.11338875757E+03  0.41800000000E+01 0. -1.
        -11    1    1    2    0    0  0.92088760112E+01  0.16292680961E+02  0.29352243931E+00  0.18717398476E+02  0.00000000000E+00 0. -1.
         11    1    1    2    0    0 -0.13263879781E+03  0.38229943299E+02 -0.13469764345E+03  0.19286791957E+03  0.00000000000E+00 0.  1.
</event>
<event>
 7    1  0.2989693E-009  0.1079608E+03  0.7561462E-02  0.1264393E+00
          2   -1    0    0  501    0  0.00000000000E+00  0.00000000000E+00  0.82276204381E+02  0.82276204381E+02  0.00000000000E+00 0. -1.
         -2   -1    0    0    0  501 -0.00000000000E+00 -0.00000000000E+00 -0.19517757492E+03  0.19517757492E+03  0.00000000000E+00 0.  1.
         25    2    1    2    0    0  0.60218567031E+02  0.48910388238E+01 -0.36775882540E+02  0.14370172424E+03  0.12509005531E+03 0.  0.
          5    1    3    3  502    0 -0.88924661046E+01 -0.45055055127E+02 -0.35707741103E+02  0.58322801035E+02  0.41800000000E+01 0. -1.
         -5    1    3    3    0  502  0.69111033136E+02  0.49946093950E+02 -0.10681414373E+01  0.85378923208E+02  0.41800000000E+01 0. -1.
        -11    1    1    2    0    0 -0.96803452558E+01  0.24240618613E+02  0.11469781237E+02  0.28510919954E+02  0.00000000000E+00 0. -1.
         11    1    1    2    0    0 -0.50538221775E+02 -0.29131657437E+02 -0.87595269232E+02  0.10524113510E+03  0.00000000000E+00 0.  1.
</event>
<event>
 7    1  0.2989693E-009  0.2607626E+03  0.7561462E-02  0.1106686E+00
          1   -1    0    0  501    0  0.00000000000E+00  0.00000000000E+00  0.17973770056E+03  0.17973770056E+03  0.00000000000E+00 0. -1.
         -1   -1    0    0    0  501 -0.00000000000E+00 -0.00000000000E+00 -0.55018268648E+03  0.55018268648E+03  0.00000000000E+00 0.  1.
         25    2    1    2    0    0  0.14791961502E+03  0.20059159942E+03 -0.37448077335E+03  0.46690177803E+03  0.12507685018E+03 0.  0.
          5    1    3    3  502    0  0.16245611077E+03  0.16619528802E+03 -0.35564733851E+03  0.42487099627E+03  0.41800000000E+01 0.  1.
         -5    1    3    3    0  502 -0.14536495756E+02  0.34396311398E+02 -0.18833434846E+02  0.42030781753E+02  0.41800000000E+01 0.  1.
        -11    1    1    2    0    0 -0.11858118940E+03 -0.13520256453E+03  0.37844206514E+02  0.18377544967E+03  0.00000000000E+00 0. -1.
         11    1    1    2    0    0 -0.29338425620E+02 -0.65389034887E+02 -0.33808419081E+02  0.79243159339E+02  0.00000000000E+00 0.  1.
</event>
<event>
 7    1  0.2989693E-009  0.1369589E+03  0.7561462E-02  0.1217481E+00
         -1   -1    0    0    0  501 -0.00000000000E+00  0.00000000000E+00  0.56139418830E+02  0.56139418830E+02  0.00000000000E+00 0.  1.
          1   -1    0    0  501    0  0.00000000000E+00 -0.00000000000E+00 -0.45011862024E+03  0.45011862024E+03  0.00000000000E+00 0. -1.
         25    2    1    2    0    0  0.94329867512E+02 -0.62115509605E+02 -0.17067306057E+03  0.23986374201E+03  0.12509540635E+03 0.  0.
          5    1    3    3  502    0  0.97387798880E+02 -0.32638011422E+02 -0.18104108366E+03  0.20818974406E+03  0.41800000000E+01 0. -1.
         -5    1    3    3    0  502 -0.30579313680E+01 -0.29477498182E+02  0.10368023089E+02  0.31673997950E+02  0.41800000000E+01 0. -1.
        -11    1    1    2    0    0 -0.59279868184E+02  0.81778119455E+02 -0.12866674076E+03  0.16357534585E+03  0.00000000000E+00 0.  1.
         11    1    1    2    0    0 -0.35049999328E+02 -0.19662609850E+02 -0.94639400081E+02  0.10281895120E+03  0.00000000000E+00 0. -1.
</event>
<event>
 7    1  0.2989693E-009  0.1159834E+03  0.7561462E-02  0.1249874E+00
          2   -1    0    0  501    0  0.00000000000E+00  0.00000000000E+00  0.23293070395E+03  0.23293070395E+03  0.00000000000E+00 0. -1.
         -2   -1    0    0    0  501 -0.00000000000E+00 -0.00000000000E+00 -0.74482386172E+02  0.74482386172E+02  0.00000000000E+00 0.  1.
         25    2    1    2    0    0 -0.58804031605E+02 -0.13964618016E+02  0.34250035802E+02  0.14307483153E+03  0.12507764699E+03 0.  0.
          5    1    3    3  502    0 -0.23717013076E+02 -0.63979627820E+02 -0.77767091691E+01  0.68802900308E+02  0.41800000000E+01 0.  1.
         -5    1    3    3    0  502 -0.35087018528E+02  0.50015009804E+02  0.42026744971E+02  0.74271931224E+02  0.41800000000E+01 0.  1.
        -11    1    1    2    0    0  0.79776694397E+02  0.62524187842E+01  0.11516240756E+03  0.14023478108E+03  0.00000000000E+00 0. -1.
         11    1    1    2    0    0 -0.20972662792E+02  0.77121992323E+01  0.90358744152E+01  0.24103477509E+02  0.00000000000E+00 0.  1.
</event>
<event>
 7    1  0.2989693E-009  0.9225591E+02  0.7561462E-02  0.1297479E+00
          1   -1    0    0  501    0  0.00000000000E+00  0.00000000000E+00  0.45106215774E+02  0.45106215774E+02  0.00000000000E+00 0. -1.
         -1   -1    0    0    0  501 -0.00000000000E+00 -0.00000000000E+00 -0.28837016338E+03  0.28837016338E+03  0.00000000000E+00 0.  1.
         25    2    1    2    0    0 -0.10708783560E+02 -0.33093867441E+02 -0.16914967365E+03  0.21323442002E+03  0.12508966255E+03 0.  0.
          5    1    3    3  502    0  0.44620675466E+02  0.16537697909E+02 -0.10343913831E+03  0.11393694689E+03  0.41800000000E+01 0.  1.
         -5    1    3    3    0  502 -0.55329459026E+02 -0.49631565350E+02 -0.65710535338E+02  0.99297473128E+02  0.41800000000E+01 0.  1.
        -11    1    1    2    0    0 -0.10435474118E+02 -0.99001229987E+01  0.13918281488E+02  0.20015746677E+02  0.00000000000E+00 0. -1.
         11    1    1    2    0    0  0.21144257678E+02  0.42993990440E+02 -0.88032555447E+02  0.10022621247E+03  0.00000000000E+00 0.  1.
</event>
<event>
 7    1  0.2989693E-009  0.1886933E+03  0.7561462E-02  0.1159645E+00
          3   -1    0    0  501    0  0.00000000000E+00  0.00000000000E+00  0.77263324390E+02  0.77263324390E+02  0.00000000000E+00 0. -1.
         -3   -1    0    0    0  501 -0.00000000000E+00 -0.00000000000E+00 -0.60102835092E+03  0.60102835092E+03  0.00000000000E+00 0.  1.
         25    2    1    2    0    0  0.58788841940E+01  0.17503835611E+03 -0.17121035926E+03  0.27501583461E+03  0.12509090605E+03 0.  0.
          5    1    3    3  502    0  0.24151639073E+02  0.14397433887E+02  0.11804225785E+02  0.30779862229E+02  0.41800000000E+01 0. -1.
         -5    1    3    3    0  502 -0.18272754879E+02  0.16064092222E+03 -0.18301458505E+03  0.24423597238E+03  0.41800000000E+01 0. -1.
        -11    1    1    2    0    0  0.20625636787E+02 -0.16287479794E+02 -0.17515785935E+02  0.31583249481E+02  0.00000000000E+00 0. -1.
         11    1    1    2    0    0 -0.26504520980E+02 -0.15875087632E+03 -0.33503888133E+03  0.37169259122E+03  0.00000000000E+00 0.  1.
</event>
<event>
 7    1  0.2989693E-009  0.1273597E+03  0.7561462E-02  0.1231427E+00
         -1   -1    0    0    0  501 -0.00000000000E+00  0.00000000000E+00  0.84609911498E+02  0.84609911498E+02  0.00000000000E+00 0.  1.
          1   -1    0    0  501    0  0.00000000000E+00 -0.00000000000E+00 -0.24561377246E+03  0.24561377246E+03  0.00000000000E+00 0. -1.
         25    2    1    2    0    0 -0.25142186001E+02  0.82639909027E+02 -0.43487740037E+02  0.15811558712E+03  0.12509145166E+03 0.  0.
          5    1    3    3  502    0 -0.37610578770E+02  0.11247312520E+03 -0.40442243306E+02  0.12537067827E+03  0.41800000000E+01 0. -1.
         -5    1    3    3    0  502  0.12468392769E+02 -0.29833216170E+02 -0.30454967313E+01  0.32744908851E+02  0.41800000000E+01 0. -1.
        -11    1    1    2    0    0  0.38465108312E+02 -0.81445158435E+02 -0.12700914804E+03  0.15570549790E+03  0.00000000000E+00 0. -1.
         11    1    1    2    0    0 -0.13322922311E+02 -0.11947505919E+01  0.94930271183E+01  0.16402598933E+02  0.00000000000E+00 0.  1.
</event>
<event>
 7    1  0.2989693E-009  0.1136385E+03  0.7561462E-02  0.1253976E+00
          3   -1    0    0  501    0  0.00000000000E+00  0.00000000000E+00  0.11094089289E+03  0.11094089289E+03  0.00000000000E+00 0. -1.
         -3   -1    0    0    0  501 -0.00000000000E+00 -0.00000000000E+00 -0.11881398555E+03  0.11881398555E+03  0.00000000000E+00 0.  1.
         25    2    1    2    0    0 -0.13588239314E+02 -0.35059993399E+02  0.49495743248E+01  0.13071333933E+03  0.12509050886E+03 0.  0.
          5    1    3    3  502    0  0.12695219032E+02  0.44357376757E+02 -0.38889755986E+01  0.46490235429E+02  0.41800000000E+01 0.  1.
         -5    1    3    3    0  502 -0.26283458346E+02 -0.79417370156E+02  0.88385499234E+01  0.84223103896E+02  0.41800000000E+01 0.  1.
        -11    1    1    2    0    0 -0.34017019783E+02 -0.57362814372E+01 -0.11395922818E+02  0.36330835616E+02  0.00000000000E+00 0.  1.
         11    1    1    2    0    0  0.47605259097E+02  0.40796274836E+02 -0.14267441619E+01  0.62710703497E+02  0.00000000000E+00 0. -1.
</event>
<event>
 7    1  0.2989693E-009  0.1173252E+03  0.7561462E-02  0.1247576E+00
          3   -1    0    0  501    0  0.00000000000E+00  0.00000000000E+00  0.61321581006E+02  0.61321581006E+02  0.00000000000E+00 0. -1.
         -3   -1    0    0    0  501 -0.00000000000E+00 -0.00000000000E+00 -0.30271085988E+03  0.30271085988E+03  0.00000000000E+00 0.  1.
         25    2    1    2    0    0 -0.56119684806E+02  0.11988964592E+02 -0.20835337826E+03  0.24970273991E+03  0.12508866372E+03 0.  0.
          5    1    3    3  502    0  0.10247438259E+02  0.50008914058E+02 -0.40845329096E+02  0.65511180611E+02  0.41800000000E+01 0.  1.
         -5    1    3    3    0  502 -0.66367123065E+02 -0.38019949466E+02 -0.16750804917E+03  0.18419155930E+03  0.41800000000E+01 0.  1.
        -11    1    1    2    0    0  0.65630167785E+02  0.23790799494E+02 -0.94824427770E+01  0.70450250426E+02  0.00000000000E+00 0. -1.
         11    1    1    2    0    0 -0.95104829785E+01 -0.35779764086E+02 -0.23553457830E+02  0.43879450547E+02  0.00000000000E+00 0.  1.
</event>
<event>
 7    1  0.2989693E-009  0.9687616E+02  0.7561462E-02  0.1287006E+00
         -1   -1    0    0    0  501 -0.00000000000E+00  0.00000000000E+00  0.16281829096E+02  0.16281829096E+02  0.00000000000E+00 0.  1.
          1   -1    0    0  501    0  0.00000000000E+00 -0.00000000000E+00 -0.64108901362E+03  0.64108901362E+03  0.00000000000E+00 0. -1.
         25    2    1    2    0    0 -0.31407491901E+02  0.13736823852E+01 -0.49310178922E+03  0.50969057398E+03  0.12508712615E+03 0.  0.
          5    1    3    3  502    0 -0.10776813937E+01  0.61410835454E+02 -0.23073744062E+03  0.23880890062E+03  0.41800000000E+01 0.  1.
         -5    1    3    3    0  502 -0.30329810507E+02 -0.60037153069E+02 -0.26236434859E+03  0.27088167337E+03  0.41800000000E+01 0.  1.
        -11    1    1    2    0    0 -0.16302234675E+02  0.39990543096E+01 -0.51890760619E+02  0.54538118123E+02  0.00000000000E+00 0.  1.
         11    1    1    2    0    0  0.47709726575E+02 -0.53727366948E+01 -0.79814634689E+02  0.93142150609E+02  0.00000000000E+00 0. -1.
</event>
<event>
 7    1  0.2989693E-009  0.1063575E+03  0.7561462E-02  0.1267468E+00
         -1   -1    0    0    0  501 -0.00000000000E+00  0.00000000000E+00  0.31862490494E+02  0.31862490494E+02  0.00000000000E+00 0.  1.
          1   -1    0    0  501    0  0.00000000000E+00 -0.00000000000E+00 -0.54197929839E+03  0.54197929839E+03  0.00000000000E+00 0. -1.
         25    2    1    2    0    0  0.28790921680E+02 -0.47310258036E+02 -0.38965987945E+03  0.41297763802E+03  0.12509408525E+03 0.  0.
          5    1    3    3  502    0 -0.23910228439E+01 -0.68349569957E+02 -0.10224068659E+03  0.12307725662E+03  0.41800000000E+01 0.  1.
         -5    1    3    3    0  502  0.31181944524E+02  0.21039311921E+02 -0.28741919285E+03  0.28990038139E+03  0.41800000000E+01 0.  1.
        -11    1    1    2    0    0  0.88635851835E+01 -0.24067386135E+02 -0.34101940096E+02  0.42670183219E+02  0.00000000000E+00 0.  1.
         11    1    1    2    0    0 -0.37654506864E+02  0.71377644171E+02 -0.86354988351E+02  0.11819396765E+03  0.00000000000E+00 0. -1.
</event>
<event>
 7    1  0.2989693E-009  0.1688599E+03  0.7561462E-02  0.1179042E+00
          2   -1    0    0  501    0  0.00000000000E+00  0.00000000000E+00  0.92181323179E+03  0.92181323179E+03  0.00000000000E+00 0. -1.
         -2   -1    0    0    0  501 -0.00000000000E+00 -0.00000000000E+00 -0.45277012507E+02  0.45277012507E+02  0.00000000000E+00 0.  1.
         25    2    1    2    0    0 -0.12320156291E+03 -0.56000884430E+02  0.20362221146E+03  0.27463905586E+03  0.12509948779E+03 0.  0.
          5    1    3    3  502    0 -0.41636280670E+02 -0.83254608343E+02  0.73819590116E+02  0.11887688574E+03  0.41800000000E+01 0. -1.
         -5    1    3    3    0  502 -0.81565282244E+02  0.27253723913E+02  0.12980262134E+03  0.15576217012E+03  0.41800000000E+01 0. -1.
        -11    1    1    2    0    0  0.11693837108E+03  0.16088288248E+02  0.56555373251E+03  0.57774080695E+03  0.00000000000E+00 0. -1.
         11    1    1    2    0    0  0.62631918379E+01  0.39912596182E+02  0.10736027531E+03  0.11471038149E+03  0.00000000000E+00 0.  1.
</event>
<event>
 7    1  0.2989693E-009  0.1051795E+03  0.7561462E-02  0.1269766E+00
          1   -1    0    0  501    0  0.00000000000E+00  0.00000000000E+00  0.31125981129E+03  0.31125981129E+03  0.00000000000E+00 0. -1.
         -1   -1    0    0    0  501 -0.00000000000E+00 -0.00000000000E+00 -0.65061840797E+02  0.65061840797E+02  0.00000000000E+00 0.  1.
         25    2    1    2    0    0 -0.15468386468E+02 -0.22360822022E+02  0.24975665811E+03  0.28065070988E+03  0.12508858998E+03 0.  0.
          5    1    3    3  502    0  0.46504750632E+02  0.21943956821E+02  0.10681077240E+03  0.11861805332E+03  0.41800000000E+01 0.  1.
         -5    1    3    3    0  502 -0.61973137100E+02 -0.44304778843E+02  0.14294588571E+03  0.16203265656E+03  0.41800000000E+01 0.  1.
        -11    1    1    2    0    0 -0.12980349659E+02  0.44543719422E+02 -0.26000470850E+02  0.53185119175E+02  0.00000000000E+00 0.  1.
         11    1    1    2    0    0  0.28448736127E+02 -0.22182897400E+02  0.22441783233E+02  0.42485823035E+02  0.00000000000E+00 0. -1.
</event>
<event>
 7    1  0.2989693E-009  0.1396853E+03  0.7561462E-02  0.1213753E+00
          1   -1    0    0  501    0  0.00000000000E+00  0.00000000000E+00  0.49410674280E+03  0.49410674280E+03  0.00000000000E+00 0. -1.
         -1   -1    0    0    0  501 -0.00000000000E+00 -0.00000000000E+00 -0.41339081405E+02  0.41339081405E+02  0.00000000000E+00 0.  1.
         25    2    1    2    0    0  0.83600592284E+02  0.40519750745E+02  0.21819297877E+03  0.26811763302E+03  0.12509188592E+03 0.  0.
          5    1    3    3  502    0  0.68236000694E+02 -0.34888180942E+02  0.87495078496E+02  0.11638813565E+03  0.41800000000E+01 0. -1.
         -5    1    3    3    0  502  0.15364591589E+02  0.75407931686E+02  0.13069790027E+03  0.15172949737E+03  0.41800000000E+01 0. -1.
        -11    1    1    2    0    0 -0.78600519902E+02  0.59357643823E+01  0.17229731303E+03  0.18947200085E+03  0.00000000000E+00 0.  1.
         11    1    1    2    0    0 -0.50000723818E+01 -0.46455515127E+02  0.62277369595E+02  0.77856190333E+02  0.00000000000E+00 0. -1.
</event>
<event>
 7    1  0.2989693E-009  0.9367787E+02  0.7561462E-02  0.1294182E+00
          2   -1    0    0  501    0  0.00000000000E+00  0.00000000000E+00  0.18748052399E+03  0.18748052399E+03  0.00000000000E+00 0. -1.
         -2   -1    0    0    0  501 -0.00000000000E+00 -0.00000000000E+00 -0.15528349603E+03  0.15528349603E+03  0.00000000000E+00 0.  1.
         25    2    1    2    0    0  0.13607377768E+02 -0.48488668256E+02 -0.10413563634E+03  0.17037500629E+03  0.12508837010E+03 0.  0.
          5    1    3    3  502    0 -0.30430309318E+02  0.12213440973E+02 -0.87373489027E+02  0.93417187126E+02  0.41800000000E+01 0. -1.
         -5    1    3    3    0  502  0.44037687087E+02 -0.60702109229E+02 -0.16762147310E+02  0.76957819169E+02  0.41800000000E+01 0. -1.
        -11    1    1    2    0    0 -0.37850970698E+02  0.34417573371E+02  0.23812112893E+02  0.56429443201E+02  0.00000000000E+00 0.  1.
         11    1    1    2    0    0  0.24243592930E+02  0.14071094885E+02  0.11252055140E+03  0.11595957053E+03  0.00000000000E+00 0. -1.
</event>
<event>
 7    1  0.2989693E-009  0.1822907E+03  0.7561462E-02  0.1165604E+00
         -2   -1    0    0    0  501 -0.00000000000E+00  0.00000000000E+00  0.50080569082E+02  0.50080569082E+02  0.00000000000E+00 0.  1.
          2   -1    0    0  501    0  0.00000000000E+00 -0.00000000000E+00 -0.11051045159E+04  0.11051045159E+04  0.00000000000E+00 0. -1.
         25    2    1    2    0    0  0.16067404466E+03 -0.14045531633E+02 -0.22017626620E+03  0.30023015442E+03  0.12508849603E+03 0.  0.
          5    1    3    3  502    0  0.73075209191E+02  0.34290296487E+02 -0.16997409809E+03  0.18821391302E+03  0.41800000000E+01 0. -1.
         -5    1    3    3    0  502  0.87598835468E+02 -0.48335828120E+02 -0.50202168108E+02  0.11201624140E+03  0.41800000000E+01 0. -1.
        -11    1    1    2    0    0 -0.40705758522E+01 -0.22450038755E+02 -0.81248461852E+02  0.84391269579E+02  0.00000000000E+00 0.  1.
         11    1    1    2    0    0 -0.15660346881E+03  0.36495570388E+02 -0.75359921879E+03  0.77056366101E+03  0.00000000000E+00 0. -1.
</event>
<event>
 7    1  0.2989693E-009  0.1091202E+03  0.7561462E-02  0.1262208E+00
          1   -1    0    0  501    0  0.00000000000E+00  0.00000000000E+00  0.38582593497E+03  0.38582593497E+03  0.00000000000E+00 0. -1.
         -1   -1    0    0    0  501 -0.00000000000E+00 -0.00000000000E+00 -0.54157476228E+02  0.54157476228E+02  0.00000000000E+00 0.  1.
         25    2    1    2    0    0 -0.84117727174E+02 -0.21991835179E+02  0.24469677100E+03  0.28824225334E+03  0.12509058330E+03 0.  0.
          5    1    3    3  502    0 -0.26148585120E+02  0.22412909953E+02  0.19847767679E+01  0.34749083084E+02  0.41800000000E+01 0. -1.
         -5    1    3    3    0  502 -0.57969142055E+02 -0.44404745132E+02  0.24271199423E+03  0.25349317026E+03  0.41800000000E+01 0. -1.
        -11    1    1    2    0    0  0.94614701091E+02  0.27529532336E+02  0.45373447907E+02  0.10848302442E+03  0.00000000000E+00 0. -1.
         11    1    1    2    0    0 -0.10496973916E+02 -0.55376971570E+01  0.41598239829E+02  0.43258133433E+02  0.00000000000E+00 0.  1.
</event>
<event>
 7    1  0.2989693E-009  0.2432753E+03  0.7561462E-02  0.1117630E+00
          1   -1    0    0  501    0  0.00000000000E+00  0.00000000000E+00  0.12927189400E+04  0.12927189400E+04  0.00000000000E+00 0. -1.
         -1   -1    0    0    0  501 -0.00000000000E+00 -0.00000000000E+00 -0.48049301977E+02  0.48049301977E+02  0.00000000000E+00 0.  1.
         25    2    1    2    0    0 -0.15225281235E+03 -0.15423238124E+03  0.76267264089E+03  0.80267143437E+03  0.12507329089E+03 0.  0.
          5    1    3    3  502    0 -0.56811130384E+02  0.12257537501E+02  0.17585754611E+03  0.18525954951E+03  0.41800000000E+01 0. -1.
         -5    1    3    3    0  502 -0.95441681971E+02 -0.16648991874E+03  0.58681509478E+03  0.61741188486E+03  0.41800000000E+01 0. -1.
        -11    1    1    2    0    0  0.83394046949E+02  0.14443026537E+03  0.37586691968E+03  0.41120628634E+03  0.00000000000E+00 0.  1.
         11    1    1    2    0    0  0.68858765406E+02  0.98021158744E+01  0.10613007751E+03  0.12689052132E+03  0.00000000000E+00 0. -1.
</event>
<event>
 7    1  0.2989693E-009  0.9243702E+02  0.7561462E-02  0.1297055E+00
          3   -1    0    0  501    0  0.00000000000E+00  0.00000000000E+00  0.23425644815E+03  0.23425644815E+03  0.00000000000E+00 0. -1.
         -3   -1    0    0    0  501 -0.00000000000E+00 -0.00000000000E+00 -0.53274862213E+02  0.53274862213E+02  0.00000000000E+00 0.  1.
         25    2    1    2    0    0 -0.14575977250E+02  0.25571422271E+02  0.98915235113E+02  0.16217045584E+03  0.12509466919E+03 0.  0.
          5    1    3    3  502    0  0.23421139879E+02  0.42768226950E+02 -0.58904971654E+01  0.49293421331E+02  0.41800000000E+01 0. -1.
         -5    1    3    3    0  502 -0.37997117130E+02 -0.17196804679E+02  0.10480573228E+03  0.11287703451E+03  0.41800000000E+01 0. -1.
        -11    1    1    2    0    0 -0.45596407276E+01 -0.57021407022E+02  0.42117214057E+02  0.71035842377E+02  0.00000000000E+00 0.  1.
         11    1    1    2    0    0  0.19135617978E+02  0.31449984750E+02  0.39949136770E+02  0.54325012148E+02  0.00000000000E+00 0. -1.
</event>
<event>
 7    1  0.2989693E-009  0.1084251E+03  0.7561462E-02  0.1263514E+00
          2   -1    0    0  501    0  0.00000000000E+00  0.00000000000E+00  0.20358680530E+03  0.20358680530E+03  0.00000000000E+00 0.  1.
         -2   -1    0    0    0  501 -0.00000000000E+00 -0.00000000000E+00 -0.87447852612E+02  0.87447852612E+02  0.00000000000E+00 0. -1.
         25    2    1    2    0    0 -0.27123333153E+02 -0.63383915968E+02  0.49024991542E+02  0.15101318133E+03  0.12509330571E+03 0.  0.
          5    1    3    3  502    0 -0.24294259643E+02 -0.77187078617E+02 -0.17489779817E+02  0.82894034496E+02  0.41800000000E+01 0.  1.
         -5    1    3    3    0  502 -0.28290735105E+01  0.13803162649E+02  0.66514771359E+02  0.68119146831E+02  0.41800000000E+01 0.  1.
        -11    1    1    2    0    0 -0.26758266662E+02 -0.11289074547E+02  0.64439571115E+01  0.29748489409E+02  0.00000000000E+00 0. -1.
         11    1    1    2    0    0  0.53881599815E+02  0.74672990515E+02  0.60670004036E+02  0.11027298718E+03  0.00000000000E+00 0.  1.
</event>
<event>
 7    1  0.2989693E-009  0.1117270E+03  0.7561462E-02  0.1257405E+00
         -1   -1    0    0    0  501 -0.00000000000E+00  0.00000000000E+00  0.23682502336E+02  0.23682502336E+02  0.00000000000E+00 0.  1.
          1   -1    0    0  501    0  0.00000000000E+00 -0.00000000000E+00 -0.77872359200E+03  0.77872359200E+03  0.00000000000E+00 0. -1.
         25    2    1    2    0    0 -0.71105998435E+02 -0.37908820999E+02 -0.41939545806E+03  0.44500281836E+03  0.12506724746E+03 0.  0.
          5    1    3    3  502    0 -0.31587116648E+02 -0.50396268162E+02 -0.38873347651E+03  0.39327944002E+03  0.41800000000E+01 0. -1.
         -5    1    3    3    0  502 -0.39518881787E+02  0.12487447163E+02 -0.30661981542E+02  0.51723378335E+02  0.41800000000E+01 0. -1.
        -11    1    1    2    0    0  0.63688552170E+02 -0.17677256230E+02 -0.19934744789E+03  0.21001933732E+03  0.00000000000E+00 0.  1.
         11    1    1    2    0    0  0.74174462646E+01  0.55586077229E+02 -0.13629818371E+03  0.14738393865E+03  0.00000000000E+00 0. -1.
</event>
<event>
 7    1  0.2989693E-009  0.7567664E+02  0.7561462E-02  0.1341788E+00
          2   -1    0    0  501    0  0.00000000000E+00  0.00000000000E+00  0.47961490646E+02  0.47961490646E+02  0.00000000000E+00 0. -1.
         -2   -1    0    0    0  501 -0.00000000000E+00 -0.00000000000E+00 -0.28433837150E+03  0.28433837150E+03  0.00000000000E+00 0.  1.
         25    2    1    2    0    0 -0.63035717054E+01 -0.39044704555E+02 -0.10899293702E+03  0.17056117691E+03  0.12508969094E+03 0.  0.
          5    1    3    3  502    0 -0.43491612364E+02 -0.31096388252E+01 -0.11028262831E+03  0.11866305536E+03  0.41800000000E+01 0. -1.
         -5    1    3    3    0  502  0.37188040658E+02 -0.35935065730E+02  0.12896912927E+01  0.51898121552E+02  0.41800000000E+01 0. -1.
        -11    1    1    2    0    0 -0.16480485849E+02  0.20420123891E+02  0.44890512949E+01  0.26622160977E+02  0.00000000000E+00 0. -1.
         11    1    1    2    0    0  0.22784057555E+02  0.18624580664E+02 -0.13187299512E+03  0.13511652425E+03  0.00000000000E+00 0.  1.
</event>
<event>
 7    1  0.2989693E-009  0.2346086E+03  0.7561462E-02  0.1123437E+00
          2   -1    0    0  501    0  0.00000000000E+00  0.00000000000E+00  0.13622806768E+04  0.13622806768E+04  0.00000000000E+00 0. -1.
         -2   -1    0    0    0  501 -0.00000000000E+00 -0.00000000000E+00 -0.52831550252E+02  0.52831550252E+02  0.00000000000E+00 0.  1.
         25    2    1    2    0    0 -0.97529030853E+02 -0.19817482488E+03  0.39126670401E+03  0.46639232267E+03  0.12508793668E+03 0.  0.
          5    1    3    3  502    0 -0.46445385188E+02 -0.31449173136E+02  0.19899280200E+03  0.20678934195E+03  0.41800000000E+01 0. -1.
         -5    1    3    3    0  502 -0.51083645664E+02 -0.16672565175E+03  0.19227390201E+03  0.25960298072E+03  0.41800000000E+01 0. -1.
        -11    1    1    2    0    0  0.34708420854E+02  0.16277894873E+03  0.65918530444E+03  0.67987272795E+03  0.00000000000E+00 0. -1.
         11    1    1    2    0    0  0.62820609999E+02  0.35395876149E+02  0.25899711809E+03  0.26884717642E+03  0.00000000000E+00 0.  1.
</event>
<event>
 7    1  0.2989693E-009  0.1326564E+03  0.7561462E-02  0.1223567E+00
         -1   -1    0    0    0  501 -0.00000000000E+00  0.00000000000E+00  0.52259028602E+02  0.52259028602E+02  0.00000000000E+00 0.  1.
          1   -1    0    0  501    0  0.00000000000E+00 -0.00000000000E+00 -0.41342334892E+03  0.41342334892E+03  0.00000000000E+00 0. -1.
         25    2    1    2    0    0 -0.68168735755E+02  0.58979116286E+02 -0.25642067948E+03  0.29920798792E+03  0.12509333507E+03 0.  0.
          5    1    3    3  502    0 -0.96314376869E+02  0.11028264096E+02 -0.18157511929E+03  0.20587636616E+03  0.41800000000E+01 0.  1.
         -5    1    3    3    0  502  0.28145641113E+02  0.47950852190E+02 -0.74845560189E+02  0.93331621755E+02  0.41800000000E+01 0.  1.
        -11    1    1    2    0    0  0.34117866033E+02  0.10035802749E+02 -0.76739664854E+02  0.84579680074E+02  0.00000000000E+00 0. -1.
         11    1    1    2    0    0  0.34050869722E+02 -0.69014919035E+02 -0.28003975993E+02  0.81894709534E+02  0.00000000000E+00 0.  1.
</event>
<event>
 7    1  0.2989693E-009  0.6467303E+02  0.7561462E-02  0.1379206E+00
         -2   -1    0    0    0  501 -0.00000000000E+00  0.00000000000E+00  0.35546092323E+02  0.35546092323E+02  0.00000000000E+00 0.  1.
          2   -1    0    0  501    0  0.00000000000E+00 -0.00000000000E+00 -0.33895723928E+03  0.33895723928E+03  0.00000000000E+00 0. -1.
         25    2    1    2    0    0 -0.27336493599E+02 -0.19317811999E+02 -0.16473406048E+03  0.20953763474E+03  0.12509295722E+03 0.  0.
          5    1    3    3  502    0 -0.23688903195E+02 -0.48761045188E+01  0.15246039190E+02  0.28893851264E+02  0.41800000000E+01 0.  1.
         -5    1    3    3    0  502 -0.36475904042E+01 -0.14441707480E+02 -0.17998009967E+03  0.18064378347E+03  0.41800000000E+01 0.  1.
        -11    1    1    2    0    0 -0.21035340570E+02 -0.18435463225E+02 -0.44716283728E+02  0.52743699981E+02  0.00000000000E+00 0.  1.
         11    1    1    2    0    0  0.48371834169E+02  0.37753275224E+02 -0.93960802747E+02  0.11222199688E+03  0.00000000000E+00 0. -1.
</event>
<event>
 7    1  0.2989693E-009  0.1217504E+03  0.7561462E-02  0.1240237E+00
         -2   -1    0    0    0  501 -0.00000000000E+00  0.00000000000E+00  0.44965080902E+02  0.44965080902E+02  0.00000000000E+00 0.  1.
          2   -1    0    0  501    0  0.00000000000E+00 -0.00000000000E+00 -0.40336034293E+03  0.40336034293E+03  0.00000000000E+00 0. -1.
         25    2    1    2    0    0  0.71282974416E+02 -0.32958651282E+02 -0.16270016012E+03  0.21974199634E+03  0.12509063800E+03 0.  0.
          5    1    3    3  502    0  0.96363568460E+02 -0.55429975837E+02 -0.14042390292E+03  0.17915011710E+03  0.41800000000E+01 0. -1.
         -5    1    3    3    0  502 -0.25080594045E+02  0.22471324555E+02 -0.22276257201E+02  0.40591879234E+02  0.41800000000E+01 0. -1.
        -11    1    1    2    0    0 -0.29153873192E+02 -0.16381762618E+02 -0.15108368593E+02  0.36695684626E+02  0.00000000000E+00 0.  1.
         11    1    1    2    0    0 -0.42129101223E+02  0.49340413900E+02 -0.18058673332E+03  0.19188774287E+03  0.00000000000E+00 0. -1.
</event>
<event>
 7    1  0.2989693E-009  0.8964947E+02  0.7561462E-02  0.1303703E+00
          3   -1    0    0  501    0  0.00000000000E+00  0.00000000000E+00  0.53547683416E+02  0.53547683416E+02  0.00000000000E+00 0. -1.
         -3   -1    0    0    0  501 -0.00000000000E+00 -0.00000000000E+00 -0.30968781303E+03  0.30968781303E+03  0.00000000000E+00 0.  1.
         25    2    1    2    0    0  0.13000633749E+02 -0.65836817728E+02 -0.17138637978E+03  0.22254281653E+03  0.12509400853E+03 0.  0.
          5    1    3    3  502    0  0.37068616373E+02  0.19212658031E+01 -0.78653663785E+00  0.37361271686E+02  0.41800000000E+01 0.  1.
         -5    1    3    3    0  502 -0.24067982624E+02 -0.67758083531E+02 -0.17059984314E+03  0.18518154485E+03  0.41800000000E+01 0.  1.
        -11    1    1    2    0    0 -0.46209692557E+01  0.58786427639E+02 -0.10342068722E+03  0.11905056059E+03  0.00000000000E+00 0.  1.
         11    1    1    2    0    0 -0.83796644931E+01  0.70503900892E+01  0.18666937388E+02  0.21642119325E+02  0.00000000000E+00 0. -1.
</event>
<event>
 7    1  0.2989693E-009  0.1661241E+03  0.7561462E-02  0.1181951E+00
         -2   -1    0    0    0  501 -0.00000000000E+00  0.00000000000E+00  0.53936580334E+02  0.53936580334E+02  0.00000000000E+00 0.  1.
          2   -1    0    0  501    0  0.00000000000E+00 -0.00000000000E+00 -0.58685162216E+03  0.58685162216E+03  0.00000000000E+00 0. -1.
         25    2    1    2    0    0 -0.12122969597E+03  0.34241033991E+02 -0.39472695863E+03  0.43281180660E+03  0.12509036921E+03 0.  0.
          5    1    3    3  502    0 -0.10150099664E+03  0.78419724920E+02 -0.30202426509E+03  0.32815885585E+03  0.41800000000E+01 0.  1.
         -5    1    3    3    0  502 -0.19728699334E+02 -0.44178690929E+02 -0.92702693539E+02  0.10465295074E+03  0.41800000000E+01 0.  1.
        -11    1    1    2    0    0  0.97677867430E+02 -0.64465570702E+02 -0.10121494966E+03  0.15472957580E+03  0.00000000000E+00 0. -1.
         11    1    1    2    0    0  0.23551828543E+02  0.30224536711E+02 -0.36973133544E+02  0.53246820103E+02  0.00000000000E+00 0.  1.
</event>
<event>
 7    1  0.2989693E-009  0.7075900E+02  0.7561462E-02  0.1357531E+00
          1   -1    0    0  501    0  0.00000000000E+00  0.00000000000E+00  0.35018192227E+03  0.35018192227E+03  0.00000000000E+00 0. -1.
         -1   -1    0    0    0  501 -0.00000000000E+00 -0.00000000000E+00 -0.35412931535E+02  0.35412931535E+02  0.00000000000E+00 0.  1.
         25    2    1    2    0    0 -0.40082874731E+01 -0.18620728113E+02  0.15365771073E+03  0.19904848430E+03  0.12508720618E+03 0.  0.
          5    1    3    3  502    0 -0.31553587509E+02 -0.19041101855E+02 -0.54775355996E+01  0.37492242408E+02  0.41800000000E+01 0.  1.
         -5    1    3    3    0  502  0.27545300036E+02  0.42037374205E+00  0.15913524633E+03  0.16155624189E+03  0.41800000000E+01 0.  1.
        -11    1    1    2    0    0  0.60504672110E+01  0.47363801631E+02  0.40717854007E+02  0.62752541728E+02  0.00000000000E+00 0.  1.
         11    1    1    2    0    0 -0.20421797379E+01 -0.28743073517E+02  0.12039342600E+03  0.12379382778E+03  0.00000000000E+00 0. -1.
</event>
<event>
 7    1  0.2989693E-009  0.9368127E+02  0.7561462E-02  0.1294174E+00
          1   -1    0    0  501    0  0.00000000000E+00  0.00000000000E+00  0.62919568852E+03  0.62919568852E+03  0.00000000000E+00 0. -1.
         -1   -1    0    0    0  501 -0.00000000000E+00 -0.00000000000E+00 -0.23428310430E+02  0.23428310430E+02  0.00000000000E+00 0.  1.
         25    2    1    2    0    0 -0.88623179882E+01  0.52713200810E+02  0.34803334343E+03  0.37367853495E+03  0.12510482453E+03 0.  0.
          5    1    3    3  502    0  0.37011191804E+02  0.44966226358E+02  0.67355617164E+02  0.89140570983E+02  0.41800000000E+01 0.  1.
         -5    1    3    3    0  502 -0.45873509792E+02  0.77469744515E+01  0.28067772627E+03  0.28453796396E+03  0.41800000000E+01 0.  1.
        -11    1    1    2    0    0  0.71328993387E+01  0.13902240139E+02  0.33530557025E+01  0.15981036149E+02  0.00000000000E+00 0.  1.
         11    1    1    2    0    0  0.17294186495E+01 -0.66615440949E+02  0.25438097896E+03  0.26296442785E+03  0.00000000000E+00 0. -1.
</event>
<event>
 7    1  0.2989693E-009  0.1339542E+03  0.7561462E-02  0.1221704E+00
         -2   -1    0    0    0  501 -0.00000000000E+00  0.00000000000E+00  0.35860429842E+02  0.35860429842E+02  0.00000000000E+00 0. -1.
          2   -1    0    0  501    0  0.00000000000E+00 -0.00000000000E+00 -0.72889776638E+03  0.72889776638E+03  0.00000000000E+00 0.  1.
         25    2    1    2    0    0  0.10832503322E+03 -0.81419142062E+01 -0.46543193006E+03  0.49403955358E+03  0.12509034892E+03 0.  0.
          5    1    3    3  502    0  0.58365446368E+02  0.28003514507E+02 -0.39518426689E+03  0.40047321927E+03  0.41800000000E+01 0.  1.
         -5    1    3    3    0  502  0.49959586853E+02 -0.36145428714E+02 -0.70247663171E+02  0.93566334311E+02  0.41800000000E+01 0.  1.
        -11    1    1    2    0    0 -0.58706360457E+02  0.49381171435E+02 -0.15901411338E+03  0.17655148004E+03  0.00000000000E+00 0.  1.
         11    1    1    2    0    0 -0.49618672764E+02 -0.41239257229E+02 -0.68591293101E+02  0.94167162605E+02  0.00000000000E+00 0. -1.
</event>
<event>
 6    1  0.2989693E-009  0.1294706E+03  0.7561462E-02  0.1228243E+00
         -2   -1    0    0    0  501 -0.00000000000E+00  0.00000000000E+00  0.40833597743E+02  0.40833597743E+02  0.00000000000E+00 0.  1.
          2   -1    0    0  501    0  0.00000000000E+00 -0.00000000000E+00 -0.48003812102E+03  0.48003812102E+03  0.00000000000E+00 0. -1.
          5    1    1    2  502    0  0.10772629139E+03 -0.26590021696E+02 -0.25944250690E+03  0.28220536830E+03  0.41800000000E+01 0. -1.
         -5    1    1    2    0  502 -0.26170667370E+02  0.18692668706E+02 -0.33260353278E+02  0.46454743505E+02  0.41800000000E+01 0. -1.
        -11    1    1    2    0    0 -0.50428377388E+02  0.44617883257E+02 -0.11911277174E+03  0.13682700444E+03  0.00000000000E+00 0. -1.
         11    1    1    2    0    0 -0.31127246631E+02 -0.36720530268E+02 -0.27388891357E+02  0.55384602515E+02  0.00000000000E+00 0.  1.
</event>
<event>
 7    1  0.2989693E-009  0.6367383E+02  0.7561462E-02  0.1383031E+00
         -2   -1    0    0    0  501 -0.00000000000E+00  0.00000000000E+00  0.31527058541E+02  0.31527058541E+02  0.00000000000E+00 0.  1.
          2   -1    0    0  501    0  0.00000000000E+00 -0.00000000000E+00 -0.40004785861E+03  0.40004785861E+03  0.00000000000E+00 0. -1.
         25    2    1    2    0    0 -0.16976541679E+02  0.14456836544E+02 -0.19654577697E+03  0.23404089519E+03  0.12509074741E+03 0.  0.
          5    1    3    3  502    0  0.17491780239E+00  0.24286826651E+02  0.99365260362E+01  0.26572306913E+02  0.41800000000E+01 0.  1.
         -5    1    3    3    0  502 -0.17151459482E+02 -0.98299901070E+01 -0.20648230300E+03  0.20746858827E+03  0.41800000000E+01 0.  1.
        -11    1    1    2    0    0 -0.20015910949E+02 -0.34899652406E+02 -0.13665293651E+03  0.14245226388E+03  0.00000000000E+00 0.  1.
         11    1    1    2    0    0  0.36992452629E+02  0.20442815862E+02 -0.35322086598E+02  0.55081758083E+02  0.00000000000E+00 0. -1.
</event>
<event>
 7    1  0.2989693E-009  0.1150104E+03  0.7561462E-02  0.1251563E+00
          2   -1    0    0  501    0  0.00000000000E+00  0.00000000000E+00  0.11875549674E+03  0.11875549674E+03  0.00000000000E+00 0. -1.
         -2   -1    0    0    0  501 -0.00000000000E+00 -0.00000000000E+00 -0.16998568165E+03  0.16998568165E+03  0.00000000000E+00 0.  1.
         25    2    1    2    0    0 -0.84696473523E+02  0.12882206089E+01 -0.62250083769E+02  0.16339439208E+03  0.12508997680E+03 0.  0.
          5    1    3    3  502    0 -0.66925522958E+02  0.53861629691E+02 -0.64793142026E+02  0.10768344548E+03  0.41800000000E+01 0.  1.
         -5    1    3    3    0  502 -0.17770950565E+02 -0.52573409082E+02  0.25430582574E+01  0.55710946607E+02  0.41800000000E+01 0.  1.
        -11    1    1    2    0    0  0.85115626304E+01 -0.82534701451E+01  0.41376324154E+02  0.43041452907E+02  0.00000000000E+00 0. -1.
         11    1    1    2    0    0  0.76184910892E+02  0.69652495362E+01 -0.30356425299E+02  0.82305333398E+02  0.00000000000E+00 0.  1.
</event>
<event>
 7    1  0.2989693E-009  0.1368022E+03  0.7561462E-02  0.1217698E+00
         -2   -1    0    0    0  501 -0.00000000000E+00  0.00000000000E+00  0.12223852027E+03  0.12223852027E+03  0.00000000000E+00 0. -1.
          2   -1    0    0  501    0  0.00000000000E+00 -0.00000000000E+00 -0.21573915775E+03  0.21573915775E+03  0.00000000000E+00 0.  1.
         25    2    1    2    0    0  0.10740649076E+03 -0.38504129129E+02 -0.91183297535E+02  0.19230214297E+03  0.12508796196E+03 0.  0.
          5    1    3    3  502    0  0.45451209147E+00 -0.19239124494E+02  0.25877847477E+02  0.32519008020E+02  0.41800000000E+01 0. -1.
         -5    1    3    3    0  502  0.10695197867E+03 -0.19265004635E+02 -0.11706114501E+03  0.15978313495E+03  0.41800000000E+01 0. -1.
        -11    1    1    2    0    0 -0.10451221904E+03 -0.20185255750E+01 -0.70812736815E+01  0.10477128811E+03  0.00000000000E+00 0.  1.
         11    1    1    2    0    0 -0.28942717145E+01  0.40522654704E+02  0.47639337289E+01  0.40904246938E+02  0.00000000000E+00 0. -1.
</event>
<event>
 7    1  0.2989693E-009  0.1510313E+03  0.7561462E-02  0.1199212E+00
          2   -1    0    0  501    0  0.00000000000E+00  0.00000000000E+00  0.16038082050E+03  0.16038082050E+03  0.00000000000E+00 0. -1.
         -2   -1    0    0    0  501 -0.00000000000E+00 -0.00000000000E+00 -0.14527594271E+03  0.14527594271E+03  0.00000000000E+00 0.  1.
         25    2    1    2    0    0  0.10606756591E+03 -0.60319951286E+01 -0.34071626971E+01  0.16415117426E+03  0.12508911124E+03 0.  0.
          5    1    3    3  502    0 -0.72490480441E+01 -0.43305151380E+02 -0.73959836211E+01  0.44722005851E+02  0.41800000000E+01 0.  1.
         -5    1    3    3    0  502  0.11331661395E+03  0.37273156252E+02  0.39888209241E+01  0.11942916841E+03  0.41800000000E+01 0.  1.
        -11    1    1    2    0    0  0.13884063511E+02 -0.10635820421E+02  0.98962633653E+01  0.20095370716E+02  0.00000000000E+00 0. -1.
         11    1    1    2    0    0 -0.11995162942E+03  0.16667815550E+02  0.86157771169E+01  0.12141021823E+03  0.00000000000E+00 0.  1.
</event>
<event>
 7    1  0.2989693E-009  0.3291692E+03  0.7561462E-02  0.1071505E+00
          1   -1    0    0  501    0  0.00000000000E+00  0.00000000000E+00  0.44144980846E+03  0.44144980846E+03  0.00000000000E+00 0. -1.
         -1   -1    0    0    0  501 -0.00000000000E+00 -0.00000000000E+00 -0.42878969532E+03  0.42878969532E+03  0.00000000000E+00 0.  1.
         25    2    1    2    0    0 -0.26475097892E+03 -0.17835937315E+03 -0.26776723654E+03  0.43503024109E+03  0.12508745290E+03 0.  0.
          5    1    3    3  502    0 -0.16444769129E+03 -0.51964842398E+02 -0.18740929838E+03  0.25472162361E+03  0.41800000000E+01 0. -1.
         -5    1    3    3    0  502 -0.10030328763E+03 -0.12639453075E+03 -0.80357938155E+02  0.18030861748E+03  0.41800000000E+01 0. -1.
        -11    1    1    2    0    0  0.15598829226E+03  0.13842220733E+03  0.13160484909E+03  0.24660269891E+03  0.00000000000E+00 0. -1.
         11    1    1    2    0    0  0.10876268666E+03  0.39937165822E+02  0.14882250058E+03  0.18860656378E+03  0.00000000000E+00 0.  1.
</event>
<event>
 7    1  0.2989693E-009  0.1689260E+03  0.7561462E-02  0.1178973E+00
          1   -1    0    0  501    0  0.00000000000E+00  0.00000000000E+00  0.38923736259E+03  0.38923736259E+03  0.00000000000E+00 0. -1.
         -1   -1    0    0    0  501 -0.00000000000E+00 -0.00000000000E+00 -0.88897032033E+02  0.88897032033E+02  0.00000000000E+00 0.  1.
         25    2    1    2    0    0  0.10439787459E+03 -0.90640520269E+02  0.80439288075E+02  0.20305746237E+03  0.12508890368E+03 0.  0.
          5    1    3    3  502    0 -0.35344506914E+01 -0.61575739532E+02 -0.54100785157E+01  0.62054857909E+02  0.41800000000E+01 0.  1.
         -5    1    3    3    0  502  0.10793232528E+03 -0.29064780737E+02  0.85849366591E+02  0.14100260446E+03  0.41800000000E+01 0.  1.
        -11    1    1    2    0    0 -0.10160910072E+03  0.33528492037E+02  0.15785950896E+03  0.19070446690E+03  0.00000000000E+00 0. -1.
         11    1    1    2    0    0 -0.27887738666E+01  0.57112028232E+02  0.62041533522E+02  0.84372465356E+02  0.00000000000E+00 0.  1.
</event>
<event>
 7    1  0.2989693E-009  0.1089276E+03  0.7561462E-02  0.1262569E+00
          2   -1    0    0  501    0  0.00000000000E+00  0.00000000000E+00  0.25700549225E+03  0.25700549225E+03  0.00000000000E+00 0. -1.
         -2   -1    0    0    0  501 -0.00000000000E+00 -0.00000000000E+00 -0.66606446381E+02  0.66606446381E+02  0.00000000000E+00 0.  1.
         25    2    1    2    0    0 -0.16374363800E+02 -0.27539871649E+02  0.22734059700E+02  0.13115361504E+03  0.12513140672E+03 0.  0.
          5    1    3    3  502    0 -0.16052126945E+02 -0.77204319215E+02  0.91496194188E+01  0.79494437670E+02  0.41800000000E+01 0.  1.
         -5    1    3    3    0  502 -0.32223685415E+00  0.49664447566E+02  0.13584440282E+02  0.51659177368E+02  0.41800000000E+01 0.  1.
        -11    1    1    2    0    0  0.37951725850E+02  0.46710422606E+02  0.79649778137E+02  0.99831278827E+02  0.00000000000E+00 0.  1.
         11    1    1    2    0    0 -0.21577362051E+02 -0.19170550957E+02  0.88015208036E+02  0.92627044770E+02  0.00000000000E+00 0. -1.
</event>
<event>
 7    1  0.2989693E-009  0.1120311E+03  0.7561462E-02  0.1256854E+00
         -1   -1    0    0    0  501 -0.00000000000E+00  0.00000000000E+00  0.31055472384E+03  0.31055472384E+03  0.00000000000E+00 0.  1.
          1   -1    0    0  501    0  0.00000000000E+00 -0.00000000000E+00 -0.68014271698E+02  0.68014271698E+02  0.00000000000E+00 0. -1.
         25    2    1    2    0    0  0.71972345580E+02 -0.16437486104E+02  0.21099401475E+03  0.25615711599E+03  0.12509110414E+03 0.  0.
          5    1    3    3  502    0  0.28325961677E+02 -0.46174766373E+02  0.19910379000E+02  0.57865056351E+02  0.41800000000E+01 0.  1.
         -5    1    3    3    0  502  0.43646383903E+02  0.29737280268E+02  0.19108363575E+03  0.19829205964E+03  0.41800000000E+01 0.  1.
        -11    1    1    2    0    0 -0.55926542107E+02 -0.32889215856E+02  0.27225673078E+02  0.70361323937E+02  0.00000000000E+00 0.  1.
         11    1    1    2    0    0 -0.16045803473E+02  0.49326701960E+02  0.43207643182E+01  0.52050555614E+02  0.00000000000E+00 0. -1.
</event>
<event>
 7    1  0.2989693E-009  0.9995821E+02  0.7561462E-02  0.1280384E+00
          2   -1    0    0  501    0  0.00000000000E+00  0.00000000000E+00  0.25688080180E+03  0.25688080180E+03  0.00000000000E+00 0. -1.
         -2   -1    0    0    0  501 -0.00000000000E+00 -0.00000000000E+00 -0.55438787722E+02  0.55438787722E+02  0.00000000000E+00 0.  1.
         25    2    1    2    0    0  0.43767414423E+01  0.50524300028E+02  0.12812918662E+03  0.18610774513E+03  0.12508854294E+03 0.  0.
          5    1    3    3  502    0  0.53705346161E+02  0.11385178835E+02  0.10561349428E+03  0.11910318668E+03  0.41800000000E+01 0. -1.
         -5    1    3    3    0  502 -0.49328604718E+02  0.39139121193E+02  0.22515692339E+02  0.67004558447E+02  0.41800000000E+01 0. -1.
        -11    1    1    2    0    0  0.29644435665E+02 -0.17986038232E+02  0.71075567008E+02  0.79082402358E+02  0.00000000000E+00 0. -1.
         11    1    1    2    0    0 -0.34021177107E+02 -0.32538261796E+02  0.22372604514E+01  0.47129442037E+02  0.00000000000E+00 0.  1.
</event>
<event>
 7    1  0.5008988E-009  0.1098352E+03  0.7561462E-02  0.1260875E+00
          2   -1    0    0  501    0  0.00000000000E+00  0.00000000000E+00  0.17418269777E+03  0.17418269777E+03  0.00000000000E+00 0. -1.
         -2   -1    0    0    0  501 -0.00000000000E+00 -0.00000000000E+00 -0.98794893189E+02  0.98794893189E+02  0.00000000000E+00 0.  1.
         25    2    1    2    0    0 -0.34263425493E+02  0.61835308234E+02  0.23023060170E+02  0.14551832147E+03  0.12509169802E+03 0.  0.
          5    1    3    3  502    0 -0.55521049790E+02 -0.19811406655E+02  0.12351505506E+02  0.60374753761E+02  0.41800000000E+01 0. -1.
         -5    1    3    3    0  502  0.21257624297E+02  0.81646714889E+02  0.10671554664E+02  0.85143567707E+02  0.41800000000E+01 0. -1.
        -11    1    1    2    0    0 -0.26973984713E+00 -0.27163869650E+02 -0.24339908004E+02  0.36474370393E+02  0.00000000000E+00 0.  1.
         11    1    1    2    0    0  0.34533165340E+02 -0.34671438584E+02  0.76704652416E+02  0.90984899100E+02  0.00000000000E+00 0. -1.
</event>
<event>
 7    1  0.2989693E-009  0.1102033E+03  0.7561462E-02  0.1260194E+00
          1   -1    0    0  501    0  0.00000000000E+00  0.00000000000E+00  0.27824009432E+02  0.27824009432E+02  0.00000000000E+00 0. -1.
         -1   -1    0    0    0  501 -0.00000000000E+00 -0.00000000000E+00 -0.63913966782E+03  0.63913966782E+03  0.00000000000E+00 0.  1.
         25    2    1    2    0    0  0.20409525575E+02  0.46297349640E+02 -0.48428491020E+03  0.50273305473E+03  0.12509459122E+03 0.  0.
          5    1    3    3  502    0  0.59202470771E+02  0.51876453698E+02 -0.41995485479E+03  0.42728872142E+03  0.41800000000E+01 0. -1.
         -5    1    3    3    0  502 -0.38792945196E+02 -0.55791040583E+01 -0.64330055412E+02  0.75444333309E+02  0.41800000000E+01 0. -1.
        -11    1    1    2    0    0 -0.10244120095E+02 -0.72936914271E+02 -0.76386483519E+02  0.10611140525E+03  0.00000000000E+00 0.  1.
         11    1    1    2    0    0 -0.10165405480E+02  0.26639564631E+02 -0.50644264664E+02  0.58119217266E+02  0.00000000000E+00 0. -1.
</event>
<event>
 7    1  0.2989693E-009  0.8821396E+02  0.7561462E-02  0.1307235E+00
          1   -1    0    0  501    0  0.00000000000E+00  0.00000000000E+00  0.67149062914E+02  0.67149062914E+02  0.00000000000E+00 0. -1.
         -1   -1    0    0    0  501 -0.00000000000E+00 -0.00000000000E+00 -0.30207054020E+03  0.30207054020E+03  0.00000000000E+00 0.  1.
         25    2    1    2    0    0  0.45720500442E+02  0.47315012768E+02 -0.19995165183E+03  0.24486087640E+03  0.12508841324E+03 0.  0.
          5    1    3    3  502    0  0.52260363769E+02 -0.31484800966E+01 -0.18403145791E+03  0.19137948806E+03  0.41800000000E+01 0.  1.
         -5    1    3    3    0  502 -0.65398633270E+01  0.50463492865E+02 -0.15920193920E+02  0.53481388341E+02  0.41800000000E+01 0.  1.
        -11    1    1    2    0    0 -0.18637680918E+02 -0.35704538358E+00 -0.61316186466E+02  0.64087169965E+02  0.00000000000E+00 0.  1.
         11    1    1    2    0    0 -0.27082819524E+02 -0.46957967385E+02  0.26346361013E+02  0.60271556749E+02  0.00000000000E+00 0. -1.
</event>
<event>
 7    1  0.2989693E-009  0.1487241E+03  0.7561462E-02  0.1202050E+00
         -2   -1    0    0    0  501 -0.00000000000E+00  0.00000000000E+00  0.90022575008E+02  0.90022575008E+02  0.00000000000E+00 0.  1.
          2   -1    0    0  501    0  0.00000000000E+00 -0.00000000000E+00 -0.32647798738E+03  0.32647798738E+03  0.00000000000E+00 0. -1.
         25    2    1    2    0    0 -0.93870070756E+02 -0.77429438727E+02 -0.64966627038E+02  0.18621240092E+03  0.12508991750E+03 0.  0.
          5    1    3    3  502    0 -0.21835688376E+01 -0.48624692901E+02  0.24668951358E+02  0.54728039374E+02  0.41800000000E+01 0.  1.
         -5    1    3    3    0  502 -0.91686501919E+02 -0.28804745826E+02 -0.89635578395E+02  0.13148436154E+03  0.41800000000E+01 0.  1.
        -11    1    1    2    0    0  0.14295973888E+02  0.71156864242E+02 -0.66799087739E+02  0.98639709655E+02  0.00000000000E+00 0.  1.
         11    1    1    2    0    0  0.79574096869E+02  0.62725744854E+01 -0.10468969760E+03  0.13164845182E+03  0.00000000000E+00 0. -1.
</event>
<event>
 7    1  0.2989693E-009  0.1577778E+03  0.7561462E-02  0.1191229E+00
         -1   -1    0    0    0  501 -0.00000000000E+00  0.00000000000E+00  0.52944763245E+02  0.52944763245E+02  0.00000000000E+00 0.  1.
          1   -1    0    0  501    0  0.00000000000E+00 -0.00000000000E+00 -0.64622685303E+03  0.64622685303E+03  0.00000000000E+00 0. -1.
         25    2    1    2    0    0 -0.12362707809E+03  0.37139843222E+02 -0.45363129961E+03  0.48794355979E+03  0.12507813225E+03 0.  0.
          5    1    3    3  502    0 -0.10782865939E+03 -0.17487448338E+02 -0.37634259382E+03  0.39189801092E+03  0.41800000000E+01 0. -1.
         -5    1    3    3    0  502 -0.15798418693E+02  0.54627291560E+02 -0.77288705790E+02  0.96045548877E+02  0.41800000000E+01 0. -1.
        -11    1    1    2    0    0  0.86166751271E+02 -0.60306267530E+02 -0.12800232773E+03  0.16566879861E+03  0.00000000000E+00 0. -1.
         11    1    1    2    0    0  0.37460326814E+02  0.23166424308E+02 -0.11648462436E+02  0.45559257867E+02  0.00000000000E+00 0.  1.
</event>
<event>
 7    1  0.2989693E-009  0.1942386E+03  0.7561462E-02  0.1154693E+00
         -1   -1    0    0    0  501 -0.00000000000E+00  0.00000000000E+00  0.59697445096E+02  0.59697445096E+02  0.00000000000E+00 0.  1.
          1   -1    0    0  501    0  0.00000000000E+00 -0.00000000000E+00 -0.71642497481E+03  0.71642497481E+03  0.00000000000E+00 0. -1.
         25    2    1    2    0    0 -0.16308461100E+03  0.34076516311E+02 -0.23507090504E+03  0.31410584234E+03  0.12508537279E+03 0.  0.
          5    1    3    3  502    0 -0.59716218520E+02  0.68261423070E+02 -0.63247554341E+02  0.11064978158E+03  0.41800000000E+01 0. -1.
         -5    1    3    3    0  502 -0.10336839248E+03 -0.34184906759E+02 -0.17182335070E+03  0.20345606076E+03  0.41800000000E+01 0. -1.
        -11    1    1    2    0    0  0.11970029164E+03 -0.64280518778E+02 -0.31085559030E+03  0.33925115023E+03  0.00000000000E+00 0.  1.
         11    1    1    2    0    0  0.43384319353E+02  0.30204002467E+02 -0.11080103438E+03  0.12276542734E+03  0.00000000000E+00 0. -1.
</event>
<event>
 7    1  0.2989693E-009  0.8922522E+02  0.7561462E-02  0.1304739E+00
         -4   -1    0    0    0  501 -0.00000000000E+00  0.00000000000E+00  0.34990528096E+02  0.34990528096E+02  0.00000000000E+00 0.  1.
          4   -1    0    0  501    0  0.00000000000E+00 -0.00000000000E+00 -0.35048157841E+03  0.35048157841E+03  0.00000000000E+00 0. -1.
         25    2    1    2    0    0 -0.16684790329E+02  0.12475839302E+02 -0.14184588447E+03  0.19026825313E+03  0.12509086463E+03 0.  0.
          5    1    3    3  502    0 -0.94341833710E+01  0.68847171822E+02 -0.72547462317E+02  0.10054622605E+03  0.41800000000E+01 0.  1.
         -5    1    3    3    0  502 -0.72506069583E+01 -0.56371332520E+02 -0.69298422153E+02  0.89722027085E+02  0.41800000000E+01 0.  1.
        -11    1    1    2    0    0 -0.16039672885E+02  0.18037122369E+01  0.17280540043E+01  0.16233011265E+02  0.00000000000E+00 0.  1.
         11    1    1    2    0    0  0.32724463214E+02 -0.14279551539E+02 -0.17537321985E+03  0.17897084211E+03  0.00000000000E+00 0. -1.
</event>
<event>
 7    1  0.2989693E-009  0.8993118E+02  0.7561462E-02  0.1303018E+00
          1   -1    0    0  501    0  0.00000000000E+00  0.00000000000E+00  0.34052978447E+03  0.34052978447E+03  0.00000000000E+00 0. -1.
         -1   -1    0    0    0  501 -0.00000000000E+00 -0.00000000000E+00 -0.36489666313E+02  0.36489666313E+02  0.00000000000E+00 0.  1.
         25    2    1    2    0    0  0.73433712740E+01  0.19466638948E+02  0.18993084693E+03  0.22837304603E+03  0.12509055283E+03 0.  0.
          5    1    3    3  502    0 -0.22513832580E+02 -0.23305772699E+02  0.13871954085E+01  0.32702116287E+02  0.41800000000E+01 0.  1.
         -5    1    3    3    0  502  0.29857203854E+02  0.42772411647E+02  0.18854365152E+03  0.19567092975E+03  0.41800000000E+01 0.  1.
        -11    1    1    2    0    0 -0.35188783749E+01 -0.57011888375E+02  0.75291232681E+02  0.94506653944E+02  0.00000000000E+00 0. -1.
         11    1    1    2    0    0 -0.38244928991E+01  0.37545249427E+02  0.38818038547E+02  0.54139750804E+02  0.00000000000E+00 0.  1.
</event>
<event>
 7    1  0.2989693E-009  0.8470434E+02  0.7561462E-02  0.1316208E+00
         -2   -1    0    0    0  501 -0.00000000000E+00  0.00000000000E+00  0.42411736774E+03  0.42411736774E+03  0.00000000000E+00 0.  1.
          2   -1    0    0  501    0  0.00000000000E+00 -0.00000000000E+00 -0.26666134424E+02  0.26666134424E+02  0.00000000000E+00 0. -1.
         25    2    1    2    0    0  0.10015606273E+01 -0.30135554637E+01  0.22841363496E+03  0.26044204195E+03  0.12508870429E+03 0.  0.
          5    1    3    3  502    0  0.61260033351E+01  0.54249025493E+02  0.16905348525E+03  0.17769929082E+03  0.41800000000E+01 0. -1.
         -5    1    3    3    0  502 -0.51244427078E+01 -0.57262580957E+02  0.59360149710E+02  0.82742751130E+02  0.41800000000E+01 0. -1.
        -11    1    1    2    0    0 -0.17906238543E+02 -0.21029907092E+02  0.15558497491E+03  0.15801764075E+03  0.00000000000E+00 0.  1.
         11    1    1    2    0    0  0.16904677916E+02  0.24043462556E+02  0.13452623451E+02  0.32323819465E+02  0.00000000000E+00 0. -1.
</event>
<event>
 7    1  0.2989693E-009  0.9527408E+02  0.7561462E-02  0.1290560E+00
          2   -1    0    0  501    0  0.00000000000E+00  0.00000000000E+00  0.48308624314E+02  0.48308624314E+02  0.00000000000E+00 0. -1.
         -2   -1    0    0    0  501 -0.00000000000E+00 -0.00000000000E+00 -0.26505758945E+03  0.26505758945E+03  0.00000000000E+00 0.  1.
         25    2    1    2    0    0  0.69479711438E+01  0.18392748352E+01 -0.75779873492E+02  0.14643022718E+03  0.12509022732E+03 0.  0.
          5    1    3    3  502    0 -0.56110710760E+02  0.19347118842E+02 -0.31727422424E+02  0.67430146101E+02  0.41800000000E+01 0. -1.
         -5    1    3    3    0  502  0.63058681904E+02 -0.17507844006E+02 -0.44052451068E+02  0.79000081078E+02  0.41800000000E+01 0. -1.
        -11    1    1    2    0    0  0.14996395186E+02  0.26004897586E+02 -0.10604940515E+02  0.31837263236E+02  0.00000000000E+00 0. -1.
         11    1    1    2    0    0 -0.21944366329E+02 -0.27844172421E+02 -0.13036415113E+03  0.13509872335E+03  0.00000000000E+00 0.  1.
</event>
<event>
 7    1  0.2989693E-009  0.2918895E+03  0.7561462E-02  0.1089367E+00
          1   -1    0    0  501    0  0.00000000000E+00  0.00000000000E+00  0.34792020578E+03  0.34792020578E+03  0.00000000000E+00 0. -1.
         -1   -1    0    0    0  501 -0.00000000000E+00 -0.00000000000E+00 -0.27496369195E+03  0.27496369195E+03  0.00000000000E+00 0.  1.
         25    2    1    2    0    0 -0.12185175553E+03 -0.24931646614E+03  0.12047828972E+03  0.32735688595E+03  0.12506383117E+03 0.  0.
          5    1    3    3  502    0 -0.62380495448E+02 -0.17367768712E+02  0.26426316008E+02  0.70062744594E+02  0.41800000000E+01 0.  1.
         -5    1    3    3    0  502 -0.59471260087E+02 -0.23194869743E+03  0.94051973712E+02  0.25729414135E+03  0.41800000000E+01 0.  1.
        -11    1    1    2    0    0  0.30467987263E+02  0.98061864805E+02  0.23047020356E+02  0.10524064198E+03  0.00000000000E+00 0. -1.
         11    1    1    2    0    0  0.91383768272E+02  0.15125460134E+03 -0.70568796247E+02  0.19028636980E+03  0.00000000000E+00 0.  1.
</event>
<event>
 7    1  0.2989693E-009  0.1046034E+03  0.7561462E-02  0.1270903E+00
         -1   -1    0    0    0  501 -0.00000000000E+00  0.00000000000E+00  0.13341487994E+03  0.13341487994E+03  0.00000000000E+00 0.  1.
          1   -1    0    0  501    0  0.00000000000E+00 -0.00000000000E+00 -0.93105132670E+02  0.93105132670E+02  0.00000000000E+00 0. -1.
         25    2    1    2    0    0 -0.13857648866E+02 -0.12651921082E+02  0.39189960441E+02  0.13242009725E+03  0.12508846316E+03 0.  0.
          5    1    3    3  502    0  0.44288691247E+02 -0.33152641907E+02  0.43461429413E+02  0.70476620836E+02  0.41800000000E+01 0.  1.
         -5    1    3    3    0  502 -0.58146340113E+02  0.20500720825E+02 -0.42714689725E+01  0.61943476412E+02  0.41800000000E+01 0.  1.
        -11    1    1    2    0    0  0.49860924275E+02 -0.78869059584E+01 -0.93708749013E+01  0.51343240564E+02  0.00000000000E+00 0. -1.
         11    1    1    2    0    0 -0.36003275409E+02  0.20538827040E+02  0.10490661733E+02  0.42756674800E+02  0.00000000000E+00 0.  1.
</event>
<event>
 7    1  0.2989693E-009  0.1247336E+03  0.7561462E-02  0.1235486E+00
          1   -1    0    0  501    0  0.00000000000E+00  0.00000000000E+00  0.22246244346E+03  0.22246244346E+03  0.00000000000E+00 0. -1.
         -1   -1    0    0    0  501 -0.00000000000E+00 -0.00000000000E+00 -0.93735187821E+02  0.93735187821E+02  0.00000000000E+00 0.  1.
         25    2    1    2    0    0  0.87743975540E+02  0.18209155500E+02  0.10663151655E+03  0.18720798561E+03  0.12508385573E+03 0.  0.
          5    1    3    3  502    0  0.75125685573E+02 -0.40904027087E+02  0.90306798153E+02  0.12445801805E+03  0.41800000000E+01 0. -1.
         -5    1    3    3    0  502  0.12618289968E+02  0.59113182587E+02  0.16324718400E+02  0.62749967554E+02  0.41800000000E+01 0. -1.
        -11    1    1    2    0    0 -0.38081171873E+02 -0.34075013166E+02 -0.26635171300E+02  0.57625641200E+02  0.00000000000E+00 0.  1.
         11    1    1    2    0    0 -0.49662803667E+02  0.15865857666E+02  0.48730910385E+02  0.71364004474E+02  0.00000000000E+00 0. -1.
</event>
<event>
 7    1  0.4271054E-009  0.6880657E+02  0.7561462E-02  0.1364199E+00
          2   -1    0    0  501    0  0.00000000000E+00  0.00000000000E+00  0.70711694281E+02  0.70711694281E+02  0.00000000000E+00 0. -1.
         -2   -1    0    0    0  501 -0.00000000000E+00 -0.00000000000E+00 -0.23264194668E+03  0.23264194668E+03  0.00000000000E+00 0.  1.
         25    2    1    2    0    0 -0.43927235840E+02  0.39440162251E+02 -0.49236437658E+02  0.14682036532E+03  0.12508742716E+03 0.  0.
          5    1    3    3  502    0 -0.35447880906E+02 -0.11355524626E+01 -0.84819415688E+02  0.92030687370E+02  0.41800000000E+01 0.  1.
         -5    1    3    3    0  502 -0.84793549332E+01  0.40575714714E+02  0.35582978030E+02  0.54789677952E+02  0.41800000000E+01 0.  1.
        -11    1    1    2    0    0  0.20223075153E+02 -0.26169989713E+02 -0.12308262319E+03  0.12744870836E+03  0.00000000000E+00 0.  1.
         11    1    1    2    0    0  0.23704160686E+02 -0.13270172538E+02  0.10388808449E+02  0.29084567283E+02  0.00000000000E+00 0. -1.
</event>
<event>
 7    1  0.2989693E-009  0.9959226E+02  0.7561462E-02  0.1281156E+00
         -3   -1    0    0    0  501 -0.00000000000E+00  0.00000000000E+00  0.44159307921E+03  0.44159307921E+03  0.00000000000E+00 0.  1.
          3   -1    0    0  501    0  0.00000000000E+00 -0.00000000000E+00 -0.40031032511E+02  0.40031032511E+02  0.00000000000E+00 0. -1.
         25    2    1    2    0    0  0.22665657208E+02 -0.46518333865E+02  0.11863319937E+03  0.17999662409E+03  0.12508901346E+03 0.  0.
          5    1    3    3  502    0 -0.29821079112E+02 -0.55785037153E+01 -0.12341193120E+02  0.33018084601E+02  0.41800000000E+01 0. -1.
         -5    1    3    3    0  502  0.52486736320E+02 -0.40939830150E+02  0.13097439249E+03  0.14697853949E+03  0.41800000000E+01 0. -1.
        -11    1    1    2    0    0 -0.45133647383E+02  0.60439545287E+02  0.23606485314E+03  0.24782372697E+03  0.00000000000E+00 0.  1.
         11    1    1    2    0    0  0.22467990175E+02 -0.13921211422E+02  0.46863994189E+02  0.53803760662E+02  0.00000000000E+00 0. -1.
</event>
<event>
 7    1  0.2989693E-009  0.1069463E+03  0.7561462E-02  0.1266332E+00
         -2   -1    0    0    0  501 -0.00000000000E+00  0.00000000000E+00  0.18366232050E+02  0.18366232050E+02  0.00000000000E+00 0.  1.
          2   -1    0    0  501    0  0.00000000000E+00 -0.00000000000E+00 -0.65796303257E+03  0.65796303257E+03  0.00000000000E+00 0. -1.
         25    2    1    2    0    0 -0.12091324943E+01 -0.17656089163E+02 -0.39221027002E+03  0.41205338167E+03  0.12508354790E+03 0.  0.
          5    1    3    3  502    0 -0.20844244522E+02  0.50757027070E+02 -0.16963885542E+03  0.17834116742E+03  0.41800000000E+01 0. -1.
         -5    1    3    3    0  502  0.19635112028E+02 -0.68413116233E+02 -0.22257141459E+03  0.23371221425E+03  0.41800000000E+01 0. -1.
        -11    1    1    2    0    0  0.30086351276E+02 -0.22878160954E+02 -0.15267890034E+03  0.15728777890E+03  0.00000000000E+00 0. -1.
         11    1    1    2    0    0 -0.28877218782E+02  0.40534250116E+02 -0.94707630155E+02  0.10698810404E+03  0.00000000000E+00 0.  1.
</event>
<event>
 7    1  0.2989693E-009  0.9598947E+02  0.7561462E-02  0.1288963E+00
         -2   -1    0    0    0  501 -0.00000000000E+00  0.00000000000E+00  0.32588452322E+03  0.32588452322E+03  0.00000000000E+00 0.  1.
          2   -1    0    0  501    0  0.00000000000E+00 -0.00000000000E+00 -0.57106323332E+02  0.57106323332E+02  0.00000000000E+00 0. -1.
         25    2    1    2    0    0 -0.70907969434E+02 -0.27852632212E+02  0.18951600393E+03  0.23951959955E+03  0.12509841554E+03 0.  0.
          5    1    3    3  502    0 -0.48111810154E+02  0.88344354003E+01  0.18987946621E+03  0.19612362839E+03  0.41800000000E+01 0.  1.
         -5    1    3    3    0  502 -0.22796159280E+02 -0.36687067612E+02 -0.36346227842E+00  0.43395971158E+02  0.41800000000E+01 0.  1.
        -11    1    1    2    0    0 -0.16020695731E+00 -0.15987093950E+02 -0.11836810018E+02  0.19892785391E+02  0.00000000000E+00 0. -1.
         11    1    1    2    0    0  0.71068176391E+02  0.43839726162E+02  0.91099005980E+02  0.12357846162E+03  0.00000000000E+00 0.  1.
</event>
<event>
 7    1  0.2989693E-009  0.2085290E+03  0.7561462E-02  0.1142736E+00
          3   -1    0    0  501    0  0.00000000000E+00  0.00000000000E+00  0.66858563043E+02  0.66858563043E+02  0.00000000000E+00 0. -1.
         -3   -1    0    0    0  501 -0.00000000000E+00 -0.00000000000E+00 -0.69526809928E+03  0.69526809928E+03  0.00000000000E+00 0.  1.
         25    2    1    2    0    0 -0.15195627919E+03 -0.10172163456E+03 -0.26568806869E+03  0.34594193928E+03  0.12509066226E+03 0.  0.
          5    1    3    3  502    0 -0.88675460121E+02  0.13565626788E+02 -0.10117658753E+03  0.13528317605E+03  0.41800000000E+01 0.  1.
         -5    1    3    3    0  502 -0.63280819065E+02 -0.11528726135E+03 -0.16451148116E+03  0.21065876323E+03  0.41800000000E+01 0.  1.
        -11    1    1    2    0    0  0.75488290016E+02  0.91352664802E+02 -0.15875345264E+03  0.19810716802E+03  0.00000000000E+00 0.  1.
         11    1    1    2    0    0  0.76467989169E+02  0.10368969759E+02 -0.20396801490E+03  0.21807755502E+03  0.00000000000E+00 0. -1.
</event>
<event>
 7    1  0.2989693E-009  0.1850156E+03  0.7561462E-02  0.1163035E+00
         -1   -1    0    0    0  501 -0.00000000000E+00  0.00000000000E+00  0.54539335354E+02  0.54539335354E+02  0.00000000000E+00 0.  1.
          1   -1    0    0  501    0  0.00000000000E+00 -0.00000000000E+00 -0.75609472857E+03  0.75609472857E+03  0.00000000000E+00 0. -1.
         25    2    1    2    0    0  0.14593741729E+03 -0.62181866236E+02 -0.51645679386E+03  0.55456189190E+03  0.12508780027E+03 0.  0.
          5    1    3    3  502    0  0.16593056812E+03 -0.43470290567E+02 -0.40772500067E+03  0.44235705959E+03  0.41800000000E+01 0. -1.
         -5    1    3    3    0  502 -0.19993150832E+02 -0.18711575669E+02 -0.10873179319E+03  0.11220483231E+03  0.41800000000E+01 0. -1.
        -11    1    1    2    0    0 -0.13143646284E+03  0.75057045493E+02 -0.13676888120E+03  0.20399713406E+03  0.00000000000E+00 0.  1.
         11    1    1    2    0    0 -0.14500954448E+02 -0.12875179257E+02 -0.48329718162E+02  0.52075037959E+02  0.00000000000E+00 0. -1.
</event>
<event>
 7    1  0.2989693E-009  0.1018180E+03  0.7561462E-02  0.1276519E+00
         -2   -1    0    0    0  501 -0.00000000000E+00  0.00000000000E+00  0.13629777768E+02  0.13629777768E+02  0.00000000000E+00 0.  1.
          2   -1    0    0  501    0  0.00000000000E+00 -0.00000000000E+00 -0.10273239856E+04  0.10273239856E+04  0.00000000000E+00 0. -1.
         25    2    1    2    0    0  0.44920669448E+02 -0.16573388865E+02 -0.61669505968E+03  0.63107358179E+03  0.12509406556E+03 0.  0.
          5    1    3    3  502    0  0.72910012170E+02 -0.96863234303E+01 -0.57782409496E+03  0.58250137498E+03  0.41800000000E+01 0.  1.
         -5    1    3    3    0  502 -0.27989342722E+02 -0.68870654345E+01 -0.38870964719E+02  0.48572206811E+02  0.41800000000E+01 0.  1.
        -11    1    1    2    0    0 -0.71898717981E+02  0.71019213550E+01 -0.25535707873E+03  0.26538104792E+03  0.00000000000E+00 0. -1.
         11    1    1    2    0    0  0.26978048532E+02  0.94714675097E+01 -0.14164206944E+03  0.14449913368E+03  0.00000000000E+00 0.  1.
</event>
<event>
 7    1  0.2989693E-009  0.9957957E+02  0.7561462E-02  0.1281183E+00
          2   -1    0    0  501    0  0.00000000000E+00  0.00000000000E+00  0.24139196169E+03  0.24139196169E+03  0.00000000000E+00 0. -1.
         -2   -1    0    0    0  501 -0.00000000000E+00 -0.00000000000E+00 -0.47838994503E+02  0.47838994503E+02  0.00000000000E+00 0.  1.
         25    2    1    2    0    0 -0.15037737917E+02 -0.10521136137E+01  0.82557442201E+02  0.15062780193E+03  0.12508302422E+03 0.  0.
          5    1    3    3  502    0  0.37857853379E+02  0.42610145577E+02  0.40779874894E+02  0.70209060419E+02  0.41800000000E+01 0. -1.
         -5    1    3    3    0  502 -0.52895591296E+02 -0.43662259191E+02  0.41777567306E+02  0.80418741511E+02  0.41800000000E+01 0. -1.
        -11    1    1    2    0    0  0.29483711730E+02  0.29298779525E+02  0.93615179522E+02  0.10242807025E+03  0.00000000000E+00 0. -1.
         11    1    1    2    0    0 -0.14445973813E+02 -0.28246665911E+02  0.17380345462E+02  0.36175084007E+02  0.00000000000E+00 0.  1.
</event>
<event>
 7    1  0.2989693E-009  0.9402822E+02  0.7561462E-02  0.1293380E+00
         -1   -1    0    0    0  501 -0.00000000000E+00  0.00000000000E+00  0.29163930947E+03  0.29163930947E+03  0.00000000000E+00 0.  1.
          1   -1    0    0  501    0  0.00000000000E+00 -0.00000000000E+00 -0.52091203737E+02  0.52091203737E+02  0.00000000000E+00 0. -1.
         25    2    1    2    0    0  0.55471156492E+02 -0.17446581541E+02  0.11924128220E+03  0.18233964505E+03  0.12509128814E+03 0.  0.
          5    1    3    3  502    0  0.82375594550E+01 -0.59857210484E+02  0.18745514664E+02  0.63400392370E+02  0.41800000000E+01 0.  1.
         -5    1    3    3    0  502  0.47233597037E+02  0.42410628943E+02  0.10049576754E+03  0.11893925268E+03  0.41800000000E+01 0.  1.
        -11    1    1    2    0    0 -0.14520043689E+02  0.17735708948E+02  0.11818133237E+03  0.12038361334E+03  0.00000000000E+00 0.  1.
         11    1    1    2    0    0 -0.40951112803E+02 -0.28912740677E+00  0.21254911649E+01  0.41007254811E+02  0.00000000000E+00 0. -1.
</event>
<event>
 7    1  0.2989693E-009  0.9046277E+02  0.7561462E-02  0.1301735E+00
          1   -1    0    0  501    0  0.00000000000E+00  0.00000000000E+00  0.53339689860E+02  0.53339689860E+02  0.00000000000E+00 0. -1.
         -1   -1    0    0    0  501 -0.00000000000E+00 -0.00000000000E+00 -0.24954551432E+03  0.24954551432E+03  0.00000000000E+00 0.  1.
         25    2    1    2    0    0  0.16204904512E+02  0.31502108034E+02 -0.12864600243E+03  0.18289890160E+03  0.12508889849E+03 0.  0.
          5    1    3    3  502    0  0.38737766302E+02 -0.25847382500E+02 -0.80995070614E+01  0.47452883314E+02  0.41800000000E+01 0. -1.
         -5    1    3    3    0  502 -0.22532861790E+02  0.57349490534E+02 -0.12054649537E+03  0.13544601829E+03  0.41800000000E+01 0. -1.
        -11    1    1    2    0    0  0.24262213862E+02 -0.16063530679E+02  0.10319190493E+02  0.30873576596E+02  0.00000000000E+00 0. -1.
         11    1    1    2    0    0 -0.40467118374E+02 -0.15438577355E+02 -0.77879012529E+02  0.89112725986E+02  0.00000000000E+00 0.  1.
</event>
<event>
 7    1  0.2989693E-009  0.1261949E+03  0.7561462E-02  0.1233214E+00
         -2   -1    0    0    0  501 -0.00000000000E+00  0.00000000000E+00  0.20324767005E+02  0.20324767005E+02  0.00000000000E+00 0.  1.
          2   -1    0    0  501    0  0.00000000000E+00 -0.00000000000E+00 -0.82686905111E+03  0.82686905111E+03  0.00000000000E+00 0. -1.
         25    2    1    2    0    0 -0.64386451428E+02  0.25903769820E+02 -0.42462056030E+03  0.44807058970E+03  0.12509201695E+03 0.  0.
          5    1    3    3  502    0 -0.50826533126E+02 -0.42868559127E+02 -0.27248053336E+03  0.28050697548E+03  0.41800000000E+01 0.  1.
         -5    1    3    3    0  502 -0.13559918302E+02  0.68772328947E+02 -0.15214002694E+03  0.16756361422E+03  0.41800000000E+01 0.  1.
        -11    1    1    2    0    0  0.31505019732E+02  0.34532487562E+02 -0.13937173385E+03  0.14700183387E+03  0.00000000000E+00 0.  1.
         11    1    1    2    0    0  0.32881431695E+02 -0.60436257382E+02 -0.24255198996E+03  0.25212139455E+03  0.00000000000E+00 0. -1.
</event>
<event>
 7    1  0.2989693E-009  0.6667657E+02  0.7561462E-02  0.1371774E+00
          3   -1    0    0  501    0  0.00000000000E+00  0.00000000000E+00  0.81758565750E+02  0.81758565750E+02  0.00000000000E+00 0. -1.
         -3   -1    0    0    0  501 -0.00000000000E+00 -0.00000000000E+00 -0.14564005126E+03  0.14564005126E+03  0.00000000000E+00 0.  1.
         25    2    1    2    0    0 -0.10798971247E+02  0.10796650346E+01 -0.30290964703E+02  0.12916057067E+03  0.12508847676E+03 0.  0.
          5    1    3    3  502    0  0.26935444616E+02 -0.10985449934E+02 -0.68142161859E+02  0.74209331689E+02  0.41800000000E+01 0. -1.
         -5    1    3    3    0  502 -0.37734415863E+02  0.12065114968E+02  0.37851197156E+02  0.54951238984E+02  0.41800000000E+01 0. -1.
        -11    1    1    2    0    0  0.28266388273E+02 -0.22757570233E+02 -0.53048061357E+02  0.64272797688E+02  0.00000000000E+00 0.  1.
         11    1    1    2    0    0 -0.17467417026E+02  0.21677905198E+02  0.19457540551E+02  0.33965248647E+02  0.00000000000E+00 0. -1.
</event>
<event>
 7    1  0.2989693E-009  0.1157556E+03  0.7561462E-02  0.1250268E+00
         -2   -1    0    0    0  501 -0.00000000000E+00  0.00000000000E+00  0.38499169241E+03  0.38499169241E+03  0.00000000000E+00 0.  1.
          2   -1    0    0  501    0  0.00000000000E+00 -0.00000000000E+00 -0.43960874408E+02  0.43960874408E+02  0.00000000000E+00 0. -1.
         25    2    1    2    0    0 -0.34563062059E+02 -0.56100147804E+02  0.14555891049E+03  0.20292362111E+03  0.12509503483E+03 0.  0.
          5    1    3    3  502    0 -0.49473958593E+02  0.22693328392E+02  0.90049011322E+02  0.10530411470E+03  0.41800000000E+01 0.  1.
         -5    1    3    3    0  502  0.14910896535E+02 -0.78793476196E+02  0.55509899171E+02  0.97619506414E+02  0.41800000000E+01 0.  1.
        -11    1    1    2    0    0  0.43435846390E+02  0.68657738850E+02  0.19430800853E+03  0.21060902173E+03  0.00000000000E+00 0.  1.
         11    1    1    2    0    0 -0.88727843319E+01 -0.12557591046E+02  0.11638989841E+01  0.15419923979E+02  0.00000000000E+00 0. -1.
</event>
<event>
 7    1  0.2989693E-009  0.9607775E+02  0.7561462E-02  0.1288767E+00
         -2   -1    0    0    0  501 -0.00000000000E+00  0.00000000000E+00  0.14968735981E+02  0.14968735981E+02  0.00000000000E+00 0.  1.
          2   -1    0    0  501    0  0.00000000000E+00 -0.00000000000E+00 -0.10231893838E+04  0.10231893838E+04  0.00000000000E+00 0. -1.
         25    2    1    2    0    0 -0.28781467803E+02  0.44101638896E+02 -0.68085154367E+03  0.69424646312E+03  0.12508397017E+03 0.  0.
          5    1    3    3  502    0 -0.44944722974E+02 -0.12022290483E+02 -0.99121704776E+02  0.10957713424E+03  0.41800000000E+01 0. -1.
         -5    1    3    3    0  502  0.16163255170E+02  0.56123929379E+02 -0.58172983889E+03  0.58466932887E+03  0.41800000000E+01 0. -1.
        -11    1    1    2    0    0  0.47232891191E+02 -0.10245741661E+02 -0.27307693199E+03  0.27732099094E+03  0.00000000000E+00 0. -1.
         11    1    1    2    0    0 -0.18451423388E+02 -0.33855897235E+02 -0.54292172135E+02  0.66590665696E+02  0.00000000000E+00 0.  1.
</event>
<event>
 7    1  0.2989693E-009  0.1114236E+03  0.7561462E-02  0.1257956E+00
          2   -1    0    0  501    0  0.00000000000E+00  0.00000000000E+00  0.13697439370E+03  0.13697439370E+03  0.00000000000E+00 0. -1.
         -2   -1    0    0    0  501 -0.00000000000E+00 -0.00000000000E+00 -0.10059854115E+03  0.10059854115E+03  0.00000000000E+00 0.  1.
         25    2    1    2    0    0  0.26879300052E+02  0.31162316658E+02  0.53611537861E+02  0.14217897605E+03  0.12508827878E+03 0.  0.
          5    1    3    3  502    0 -0.38146827082E+02 -0.23223459370E+02  0.71552835944E+01  0.45422240861E+02  0.41800000000E+01 0. -1.
         -5    1    3    3    0  502  0.65026127135E+02  0.54385776029E+02  0.46456254267E+02  0.96756735191E+02  0.41800000000E+01 0. -1.
        -11    1    1    2    0    0 -0.51456768056E+02 -0.41840529784E+02 -0.69225982974E+01  0.66680966389E+02  0.00000000000E+00 0. -1.
         11    1    1    2    0    0  0.24577468004E+02  0.10678213126E+02 -0.10313087016E+02  0.28712992405E+02  0.00000000000E+00 0.  1.
</event>
<event>
 7    1  0.2989693E-009  0.2491644E+03  0.7561462E-02  0.1113834E+00
         -2   -1    0    0    0  501 -0.00000000000E+00  0.00000000000E+00  0.55414951200E+02  0.55414951200E+02  0.00000000000E+00 0.  1.
          2   -1    0    0  501    0  0.00000000000E+00 -0.00000000000E+00 -0.11797565415E+04  0.11797565415E+04  0.00000000000E+00 0. -1.
         25    2    1    2    0    0 -0.26818402293E+02  0.22519356779E+03 -0.46654684073E+03  0.53361415755E+03  0.12508694924E+03 0.  0.
          5    1    3    3  502    0 -0.74076270817E+02  0.15101907748E+03 -0.26833450666E+03  0.31672533136E+03  0.41800000000E+01 0.  1.
         -5    1    3    3    0  502  0.47257868524E+02  0.74174490318E+02 -0.19821233407E+03  0.21688882620E+03  0.41800000000E+01 0.  1.
        -11    1    1    2    0    0  0.22574489836E+02 -0.67884041205E+01 -0.41978852197E+02  0.48144719894E+02  0.00000000000E+00 0.  1.
         11    1    1    2    0    0  0.42439124564E+01 -0.21840516367E+03 -0.61581589737E+03  0.65341261525E+03  0.00000000000E+00 0. -1.
</event>
<event>
 7    1  0.2989693E-009  0.1459925E+03  0.7561462E-02  0.1205486E+00
         -2   -1    0    0    0  501 -0.00000000000E+00  0.00000000000E+00  0.98744143547E+02  0.98744143547E+02  0.00000000000E+00 0.  1.
          2   -1    0    0  501    0  0.00000000000E+00 -0.00000000000E+00 -0.31074952430E+03  0.31074952430E+03  0.00000000000E+00 0. -1.
         25    2    1    2    0    0 -0.10290246247E+02 -0.12294319403E+03 -0.42267069580E+02  0.18070005587E+03  0.12508032177E+03 0.  0.
          5    1    3    3  502    0  0.33064171663E+02 -0.10187948888E+03 -0.66954036771E+02  0.12638427569E+03  0.41800000000E+01 0. -1.
         -5    1    3    3    0  502 -0.43354417910E+02 -0.21063705150E+02  0.24686967191E+02  0.54315780176E+02  0.41800000000E+01 0. -1.
        -11    1    1    2    0    0 -0.73255856027E+01  0.11784561084E+03 -0.17370114943E+03  0.21003176310E+03  0.00000000000E+00 0. -1.
         11    1    1    2    0    0  0.17615831850E+02  0.50975831897E+01  0.39628382571E+01  0.18761848875E+02  0.00000000000E+00 0.  1.
</event>
<event>
 7    1  0.3151144E-009  0.1949773E+03  0.7561462E-02  0.1154047E+00
         -2   -1    0    0    0  501 -0.00000000000E+00  0.00000000000E+00  0.20444735489E+03  0.20444735489E+03  0.00000000000E+00 0.  1.
          2   -1    0    0  501    0  0.00000000000E+00 -0.00000000000E+00 -0.22450088657E+03  0.22450088657E+03  0.00000000000E+00 0. -1.
         25    2    1    2    0    0 -0.13879809981E+03  0.12076529278E+03  0.48629652485E+01  0.22253146084E+03  0.12508970453E+03 0.  0.
          5    1    3    3  502    0 -0.75314063676E+02  0.47728681282E+02  0.63281226584E+02  0.10941764594E+03  0.41800000000E+01 0.  1.
         -5    1    3    3    0  502 -0.63484036134E+02  0.73036611502E+02 -0.58418261335E+02  0.11311381490E+03  0.41800000000E+01 0.  1.
        -11    1    1    2    0    0  0.35266450336E+02 -0.88691279101E+02 -0.11350571075E+01  0.95452364363E+02  0.00000000000E+00 0.  1.
         11    1    1    2    0    0  0.10353164947E+03 -0.32074013683E+02 -0.23781439828E+02  0.11096441626E+03  0.00000000000E+00 0. -1.
</event>
<event>
 7    1  0.2989693E-009  0.1116741E+03  0.7561462E-02  0.1257501E+00
         -2   -1    0    0    0  501 -0.00000000000E+00  0.00000000000E+00  0.20855974253E+02  0.20855974253E+02  0.00000000000E+00 0.  1.
          2   -1    0    0  501    0  0.00000000000E+00 -0.00000000000E+00 -0.67470834334E+03  0.67470834334E+03  0.00000000000E+00 0. -1.
         25    2    1    2    0    0  0.25352503588E+02  0.23421132051E+02 -0.29650150229E+03  0.32365556028E+03  0.12509389263E+03 0.  0.
          5    1    3    3  502    0 -0.39258092998E+02  0.45463444502E+02 -0.11743735221E+03  0.13197396238E+03  0.41800000000E+01 0.  1.
         -5    1    3    3    0  502  0.64610596587E+02 -0.22042312452E+02 -0.17906415008E+03  0.19168159790E+03  0.41800000000E+01 0.  1.
        -11    1    1    2    0    0  0.25049175667E+02 -0.34985960905E+02 -0.91987501827E+02  0.10155382393E+03  0.00000000000E+00 0.  1.
         11    1    1    2    0    0 -0.50401679255E+02  0.11564828855E+02 -0.26536336497E+03  0.27035493339E+03  0.00000000000E+00 0. -1.
</event>
<event>
 7    1  0.2989693E-009  0.1227503E+03  0.7561462E-02  0.1238628E+00
          1   -1    0    0  501    0  0.00000000000E+00  0.00000000000E+00  0.20853630792E+03  0.20853630792E+03  0.00000000000E+00 0. -1.
         -1   -1    0    0    0  501 -0.00000000000E+00 -0.00000000000E+00 -0.10554079443E+03  0.10554079443E+03  0.00000000000E+00 0.  1.
         25    2    1    2    0    0 -0.19863561314E+02  0.60848541637E+02  0.13880566603E+03  0.19750970582E+03  0.12508383143E+03 0.  0.
          5    1    3    3  502    0 -0.19527616199E+01  0.97118660885E+02  0.79460944645E+02  0.12556815557E+03  0.41800000000E+01 0.  1.
         -5    1    3    3    0  502 -0.17910799695E+02 -0.36270119247E+02  0.59344721387E+02  0.71941550250E+02  0.41800000000E+01 0.  1.
        -11    1    1    2    0    0  0.50187282089E+02 -0.14538237760E+02 -0.32615986903E+01  0.52352284255E+02  0.00000000000E+00 0. -1.
         11    1    1    2    0    0 -0.30323720775E+02 -0.46310303877E+02 -0.32548553847E+02  0.64215112274E+02  0.00000000000E+00 0.  1.
</event>
<event>
 7    1  0.2989693E-009  0.8705812E+02  0.7561462E-02  0.1310136E+00
         -1   -1    0    0    0  501 -0.00000000000E+00  0.00000000000E+00  0.22363429669E+03  0.22363429669E+03  0.00000000000E+00 0.  1.
          1   -1    0    0  501    0  0.00000000000E+00 -0.00000000000E+00 -0.64008886571E+02  0.64008886571E+02  0.00000000000E+00 0. -1.
         25    2    1    2    0    0  0.16992207447E+02  0.48240539597E+02  0.10718394216E+03  0.17248701835E+03  0.12508992472E+03 0.  0.
          5    1    3    3  502    0 -0.10958648811E+02 -0.38740425625E+01 -0.24851949566E+02  0.27752332997E+02  0.41800000000E+01 0. -1.
         -5    1    3    3    0  502  0.27950856258E+02  0.52114582159E+02  0.13203589173E+03  0.14473468535E+03  0.41800000000E+01 0. -1.
        -11    1    1    2    0    0  0.20062045769E+02  0.17756898280E+02  0.12260599695E+02  0.29463798496E+02  0.00000000000E+00 0.  1.
         11    1    1    2    0    0 -0.37054253216E+02 -0.65997437877E+02  0.40180868262E+02  0.85692366416E+02  0.00000000000E+00 0. -1.
</event>
<event>
 7    1  0.2989693E-009  0.1228493E+03  0.7561462E-02  0.1238469E+00
          3   -1    0    0  501    0  0.00000000000E+00  0.00000000000E+00  0.19856541897E+03  0.19856541897E+03  0.00000000000E+00 0. -1.
         -3   -1    0    0    0  501 -0.00000000000E+00 -0.00000000000E+00 -0.99292601067E+02  0.99292601067E+02  0.00000000000E+00 0.  1.
         25    2    1    2    0    0  0.60541915386E+02 -0.25482054393E+02  0.11835562432E+03  0.18430978944E+03  0.12508951219E+03 0.  0.
          5    1    3    3  502    0  0.41850965929E+02  0.44495277879E+02  0.25139996586E+02  0.66187800470E+02  0.41800000000E+01 0.  1.
         -5    1    3    3    0  502  0.18690949458E+02 -0.69977332273E+02  0.93215627732E+02  0.11812198897E+03  0.41800000000E+01 0.  1.
        -11    1    1    2    0    0 -0.35182412117E+02  0.59720215104E+02 -0.10973212967E+02  0.70176332316E+02  0.00000000000E+00 0. -1.
         11    1    1    2    0    0 -0.25359503269E+02 -0.34238160710E+02 -0.81095934497E+01  0.43371898284E+02  0.00000000000E+00 0.  1.
</event>
<event>
 7    1  0.2989693E-009  0.9967627E+02  0.7561462E-02  0.1280978E+00
          3   -1    0    0  501    0  0.00000000000E+00  0.00000000000E+00  0.22663939805E+02  0.22663939805E+02  0.00000000000E+00 0. -1.
         -3   -1    0    0    0  501 -0.00000000000E+00 -0.00000000000E+00 -0.85748279575E+03  0.85748279575E+03  0.00000000000E+00 0.  1.
         25    2    1    2    0    0  0.11861361953E+02 -0.83619371554E+02 -0.53506790065E+03  0.55594862775E+03  0.12509327392E+03 0.  0.
          5    1    3    3  502    0 -0.18707672859E+02 -0.80547013833E+02 -0.16523732237E+03  0.18482057127E+03  0.41800000000E+01 0. -1.
         -5    1    3    3    0  502  0.30569034812E+02 -0.30723577211E+01 -0.36983057828E+03  0.37112805647E+03  0.41800000000E+01 0. -1.
        -11    1    1    2    0    0 -0.12152250526E+02  0.37301612421E+02 -0.27197019304E+02  0.47736415252E+02  0.00000000000E+00 0. -1.
         11    1    1    2    0    0  0.29088857297E+00  0.46317759133E+02 -0.27255393599E+03  0.27646169255E+03  0.00000000000E+00 0.  1.
</event>
<event>
 7    1  0.2989693E-009  0.3341564E+03  0.7561462E-02  0.1069312E+00
          2   -1    0    0  501    0  0.00000000000E+00  0.00000000000E+00  0.10162430636E+03  0.10162430636E+03  0.00000000000E+00 0. -1.
         -2   -1    0    0    0  501 -0.00000000000E+00 -0.00000000000E+00 -0.11788589465E+04  0.11788589465E+04  0.00000000000E+00 0.  1.
         25    2    1    2    0    0  0.22674144052E+03  0.23672572512E+03 -0.51767093971E+03  0.62536439717E+03  0.12508668055E+03 0.  0.
          5    1    3    3  502    0  0.84815779111E+02  0.14075138758E+03 -0.16320637410E+03  0.23164296328E+03  0.41800000000E+01 0. -1.
         -5    1    3    3    0  502  0.14192566141E+03  0.95974337538E+02 -0.35446456561E+03  0.39372143389E+03  0.41800000000E+01 0. -1.
        -11    1    1    2    0    0 -0.14696452722E+03 -0.18960829571E+03 -0.46200265976E+03  0.52057308391E+03  0.00000000000E+00 0.  1.
         11    1    1    2    0    0 -0.79776913295E+02 -0.47117429408E+02 -0.97561040672E+02  0.13454577179E+03  0.00000000000E+00 0. -1.
</event>
<event>
 7    1  0.2989693E-009  0.1541604E+03  0.7561462E-02  0.1195452E+00
         -2   -1    0    0    0  501 -0.00000000000E+00  0.00000000000E+00  0.56386284172E+02  0.56386284172E+02  0.00000000000E+00 0.  1.
          2   -1    0    0  501    0  0.00000000000E+00 -0.00000000000E+00 -0.49369715270E+03  0.49369715270E+03  0.00000000000E+00 0. -1.
         25    2    1    2    0    0 -0.10928940998E+03  0.54354453640E+02 -0.18152601950E+03  0.25198710630E+03  0.12508886531E+03 0.  0.
          5    1    3    3  502    0 -0.90094612560E+02 -0.23793835906E+02 -0.11017597363E+03  0.14435859311E+03  0.41800000000E+01 0.  1.
         -5    1    3    3    0  502 -0.19194797420E+02  0.78148289546E+02 -0.71350045865E+02  0.10762851319E+03  0.41800000000E+01 0.  1.
        -11    1    1    2    0    0  0.57724317569E+02 -0.59184073599E+02 -0.22033632545E+03  0.23533581903E+03  0.00000000000E+00 0. -1.
         11    1    1    2    0    0  0.51565092412E+02  0.48296199596E+01 -0.35448523584E+02  0.62760511540E+02  0.00000000000E+00 0.  1.
</event>
<event>
 7    1  0.2989693E-009  0.1039163E+03  0.7561462E-02  0.1272270E+00
         -2   -1    0    0    0  501 -0.00000000000E+00  0.00000000000E+00  0.35787961649E+02  0.35787961649E+02  0.00000000000E+00 0.  1.
          2   -1    0    0  501    0  0.00000000000E+00 -0.00000000000E+00 -0.35435664878E+03  0.35435664878E+03  0.00000000000E+00 0. -1.
         25    2    1    2    0    0  0.11840393693E+02  0.12830561296E+02 -0.21193009005E+03  0.24671146003E+03  0.12508942087E+03 0.  0.
          5    1    3    3  502    0 -0.49450234945E+02 -0.23492922772E+02 -0.89609715099E+02  0.10509337085E+03  0.41800000000E+01 0.  1.
         -5    1    3    3    0  502  0.61290628638E+02  0.36323484068E+02 -0.12232037496E+03  0.14161808918E+03  0.41800000000E+01 0.  1.
        -11    1    1    2    0    0 -0.59119051217E+01 -0.46751015140E+02 -0.21896746478E+02  0.51962251155E+02  0.00000000000E+00 0.  1.
         11    1    1    2    0    0 -0.59284885717E+01  0.33920453844E+02 -0.84741850600E+02  0.91470899246E+02  0.00000000000E+00 0. -1.
</event>
<event>
 7    1  0.2989693E-009  0.1273395E+03  0.7561462E-02  0.1231458E+00
         -1   -1    0    0    0  501 -0.00000000000E+00  0.00000000000E+00  0.17857012257E+02  0.17857012257E+02  0.00000000000E+00 0.  1.
          1   -1    0    0  501    0  0.00000000000E+00 -0.00000000000E+00 -0.13670294320E+04  0.13670294320E+04  0.00000000000E+00 0. -1.
         25    2    1    2    0    0 -0.14919710115E+01  0.10905496401E+03 -0.85979962013E+03  0.87567006441E+03  0.12508982282E+03 0.  0.
          5    1    3    3  502    0  0.20634308078E+02  0.42909103955E+01 -0.20968530828E+02  0.30022296164E+02  0.41800000000E+01 0.  1.
         -5    1    3    3    0  502 -0.22126279090E+02  0.10476405362E+03 -0.83883108930E+03  0.84564776824E+03  0.41800000000E+01 0.  1.
        -11    1    1    2    0    0 -0.28748415210E+02 -0.75896896838E+02 -0.41071632037E+03  0.41865822116E+03  0.00000000000E+00 0. -1.
         11    1    1    2    0    0  0.30240386221E+02 -0.33158067173E+02 -0.78656479209E+02  0.90558158655E+02  0.00000000000E+00 0.  1.
</event>
<event>
 7    1  0.2989693E-009  0.1089810E+03  0.7561462E-02  0.1262469E+00
          1   -1    0    0  501    0  0.00000000000E+00  0.00000000000E+00  0.16666893071E+03  0.16666893071E+03  0.00000000000E+00 0. -1.
         -1   -1    0    0    0  501 -0.00000000000E+00 -0.00000000000E+00 -0.84388079065E+02  0.84388079065E+02  0.00000000000E+00 0.  1.
         25    2    1    2    0    0  0.24176017912E+02  0.41270935212E+02  0.53580257923E+02  0.14424166965E+03  0.12508815007E+03 0.  0.
          5    1    3    3  502    0 -0.40997919381E-01 -0.44318146378E+02  0.12930351912E+02  0.46354785942E+02  0.41800000000E+01 0.  1.
         -5    1    3    3    0  502  0.24217015831E+02  0.85589081590E+02  0.40649906011E+02  0.97886883707E+02  0.41800000000E+01 0.  1.
        -11    1    1    2    0    0 -0.44715087419E+02 -0.81862181334E+01  0.45579102861E+02  0.64373191841E+02  0.00000000000E+00 0. -1.
         11    1    1    2    0    0  0.20539069507E+02 -0.33084717079E+02 -0.16878509138E+02  0.42442148286E+02  0.00000000000E+00 0.  1.
</event>
<event>
 7    1  0.2989693E-009  0.9739293E+02  0.7561462E-02  0.1285876E+00
         -1   -1    0    0    0  501 -0.00000000000E+00  0.00000000000E+00  0.42580748102E+02  0.42580748102E+02  0.00000000000E+00 0.  1.
          1   -1    0    0  501    0  0.00000000000E+00 -0.00000000000E+00 -0.30588718907E+03  0.30588718907E+03  0.00000000000E+00 0. -1.
         25    2    1    2    0    0 -0.30359136289E+02 -0.14945344102E+02 -0.12016337774E+03  0.17672373013E+03  0.12508796495E+03 0.  0.
          5    1    3    3  502    0 -0.61458849463E+02  0.74889010480E+01 -0.13784325070E+02  0.63566924056E+02  0.41800000000E+01 0. -1.
         -5    1    3    3    0  502  0.31099713175E+02 -0.22434245150E+02 -0.10637905267E+03  0.11315680608E+03  0.41800000000E+01 0. -1.
        -11    1    1    2    0    0  0.59746636557E+02 -0.28276058890E+01 -0.80296772018E+02  0.10012605820E+03  0.00000000000E+00 0.  1.
         11    1    1    2    0    0 -0.29387500269E+02  0.17772949991E+02 -0.62846291206E+02  0.71618148830E+02  0.00000000000E+00 0. -1.
</event>
<event>
 7    1  0.2989693E-009  0.1562642E+03  0.7561462E-02  0.1192980E+00
          1   -1    0    0  501    0  0.00000000000E+00  0.00000000000E+00  0.55609717868E+03  0.55609717868E+03  0.00000000000E+00 0. -1.
         -1   -1    0    0    0  501 -0.00000000000E+00 -0.00000000000E+00 -0.50360710981E+02  0.50360710981E+02  0.00000000000E+00 0.  1.
         25    2    1    2    0    0 -0.70055579978E+02  0.10179461247E+03  0.33524121275E+03  0.37855518202E+03  0.12508967858E+03 0.  0.
          5    1    3    3  502    0 -0.55804022320E+02  0.12363650703E+03  0.32108597914E+03  0.34858822869E+03  0.41800000000E+01 0. -1.
         -5    1    3    3    0  502 -0.14251557658E+02 -0.21841894552E+02  0.14155233611E+02  0.29966953330E+02  0.41800000000E+01 0. -1.
        -11    1    1    2    0    0 -0.10786186651E+02 -0.56939605695E+02  0.54316725307E+02  0.79427748094E+02  0.00000000000E+00 0.  1.
         11    1    1    2    0    0  0.80841766629E+02 -0.44855006778E+02  0.11617852964E+03  0.14847495955E+03  0.00000000000E+00 0. -1.
</event>
<event>
 7    1  0.2989693E-009  0.2224982E+03  0.7561462E-02  0.1132034E+00
         -2   -1    0    0    0  501 -0.00000000000E+00  0.00000000000E+00  0.83232123511E+02  0.83232123511E+02  0.00000000000E+00 0.  1.
          2   -1    0    0  501    0  0.00000000000E+00 -0.00000000000E+00 -0.77252636133E+03  0.77252636133E+03  0.00000000000E+00 0. -1.
         25    2    1    2    0    0 -0.85175616860E+02 -0.17915128395E+03 -0.16277005033E+03  0.28547028483E+03  0.12509646674E+03 0.  0.
          5    1    3    3  502    0 -0.11470342983E+03 -0.11067818920E+03 -0.11836954581E+03  0.19858338337E+03  0.41800000000E+01 0. -1.
         -5    1    3    3    0  502  0.29527812966E+02 -0.68473094750E+02 -0.44400504527E+02  0.86886901461E+02  0.41800000000E+01 0. -1.
        -11    1    1    2    0    0  0.86640482294E+02  0.10256475993E+03 -0.40463215074E+03  0.42632532245E+03  0.00000000000E+00 0. -1.
         11    1    1    2    0    0 -0.14648654347E+01  0.76586524021E+02 -0.12189203675E+03  0.14396287756E+03  0.00000000000E+00 0.  1.
</event>
<event>
 7    1  0.2989693E-009  0.1431053E+03  0.7561462E-02  0.1209211E+00
          2   -1    0    0  501    0  0.00000000000E+00  0.00000000000E+00  0.46954354575E+03  0.46954354575E+03  0.00000000000E+00 0. -1.
         -2   -1    0    0    0  501 -0.00000000000E+00 -0.00000000000E+00 -0.48064704474E+02  0.48064704474E+02  0.00000000000E+00 0.  1.
         25    2    1    2    0    0  0.68547361461E+02  0.63759979077E+02  0.15231570128E+03  0.21819634312E+03  0.12508195554E+03 0.  0.
          5    1    3    3  502    0  0.30962435470E+02 -0.37030764202E+02  0.51501987916E+02  0.70709808845E+02  0.41800000000E+01 0.  1.
         -5    1    3    3    0  502  0.37584925991E+02  0.10079074328E+03  0.10081371336E+03  0.14748653428E+03  0.41800000000E+01 0.  1.
        -11    1    1    2    0    0 -0.90526716950E+02 -0.44444963446E+02  0.19173948188E+03  0.21664364789E+03  0.00000000000E+00 0. -1.
         11    1    1    2    0    0  0.21979355489E+02 -0.19315015632E+02  0.77423658122E+02  0.82768259216E+02  0.00000000000E+00 0.  1.
</event>
<event>
 7    1  0.2989693E-009  0.8432695E+02  0.7561462E-02  0.1317202E+00
          1   -1    0    0  501    0  0.00000000000E+00  0.00000000000E+00  0.34601541101E+02  0.34601541101E+02  0.00000000000E+00 0. -1.
         -1   -1    0    0    0  501 -0.00000000000E+00 -0.00000000000E+00 -0.44592056913E+03  0.44592056913E+03  0.00000000000E+00 0.  1.
         25    2    1    2    0    0  0.40130057693E+02  0.25998832994E+02 -0.15903182734E+03  0.20790681822E+03  0.12509101530E+03 0.  0.
          5    1    3    3  502    0  0.64325143777E+02  0.27425595985E+02 -0.16776824389E+03  0.18180633513E+03  0.41800000000E+01 0. -1.
         -5    1    3    3    0  502 -0.24195086084E+02 -0.14267629917E+01  0.87364165489E+01  0.26100483087E+02  0.41800000000E+01 0. -1.
        -11    1    1    2    0    0 -0.48962991502E+02 -0.35917896738E+02 -0.25212262059E+03  0.25933238451E+03  0.00000000000E+00 0.  1.
         11    1    1    2    0    0  0.88329338086E+01  0.99190637441E+01 -0.16458010668E+00  0.13282907507E+02  0.00000000000E+00 0. -1.
</event>
<event>
 7    1  0.2989693E-009  0.1069415E+03  0.7561462E-02  0.1266341E+00
          1   -1    0    0  501    0  0.00000000000E+00  0.00000000000E+00  0.43412287532E+03  0.43412287532E+03  0.00000000000E+00 0. -1.
         -1   -1    0    0    0  501 -0.00000000000E+00 -0.00000000000E+00 -0.39536347193E+02  0.39536347193E+02  0.00000000000E+00 0.  1.
         25    2    1    2    0    0  0.25001316506E+02 -0.64491848469E+02  0.27598256861E+03  0.31080183533E+03  0.12508852194E+03 0.  0.
          5    1    3    3  502    0 -0.46555048116E+02 -0.32268166257E+01  0.69629548908E+02  0.83925748920E+02  0.41800000000E+01 0.  1.
         -5    1    3    3    0  502  0.71556364622E+02 -0.61265031844E+02  0.20635301970E+03  0.22687608641E+03  0.41800000000E+01 0.  1.
        -11    1    1    2    0    0 -0.20590148876E+02  0.22444834717E+02 -0.62033104369E+01  0.31083852667E+02  0.00000000000E+00 0.  1.
         11    1    1    2    0    0 -0.44111676293E+01  0.42047013752E+02  0.12480726996E+03  0.13177353452E+03  0.00000000000E+00 0. -1.
</event>
<event>
 7    1  0.2989693E-009  0.9291437E+02  0.7561462E-02  0.1295944E+00
         -1   -1    0    0    0  501 -0.00000000000E+00  0.00000000000E+00  0.69735557669E+02  0.69735557669E+02  0.00000000000E+00 0.  1.
          1   -1    0    0  501    0  0.00000000000E+00 -0.00000000000E+00 -0.24118021393E+03  0.24118021393E+03  0.00000000000E+00 0. -1.
         25    2    1    2    0    0 -0.82040565608E+00  0.71463024772E+02 -0.75406221433E+02  0.16261368149E+03  0.12509785850E+03 0.  0.
          5    1    3    3  502    0 -0.11901476782E+02  0.14679235244E+02  0.33805201283E+02  0.38953679296E+02  0.41800000000E+01 0.  1.
         -5    1    3    3    0  502  0.11081071126E+02  0.56783789528E+02 -0.10921142272E+03  0.12366000219E+03  0.41800000000E+01 0.  1.
        -11    1    1    2    0    0  0.39083864962E+02 -0.53349879221E+02 -0.37394328888E+02  0.75974297932E+02  0.00000000000E+00 0.  1.
         11    1    1    2    0    0 -0.38263459306E+02 -0.18113145551E+02 -0.58644105939E+02  0.72327792177E+02  0.00000000000E+00 0. -1.
</event>
<event>
 7    1  0.2989693E-009  0.9915937E+02  0.7561462E-02  0.1282074E+00
         -3   -1    0    0    0  501 -0.00000000000E+00  0.00000000000E+00  0.27319081050E+03  0.27319081050E+03  0.00000000000E+00 0.  1.
          3   -1    0    0  501    0  0.00000000000E+00 -0.00000000000E+00 -0.67013819946E+02  0.67013819946E+02  0.00000000000E+00 0. -1.
         25    2    1    2    0    0  0.10652751648E+02  0.45418071139E+02  0.19551192915E+03  0.23674627794E+03  0.12509038083E+03 0.  0.
          5    1    3    3  502    0 -0.36297181470E+02  0.60865557287E+02  0.61767335799E+02  0.94099827940E+02  0.41800000000E+01 0. -1.
         -5    1    3    3    0  502  0.46949933118E+02 -0.15447486148E+02  0.13374459335E+03  0.14264645001E+03  0.41800000000E+01 0. -1.
        -11    1    1    2    0    0 -0.17198567826E+02 -0.59640068765E+02  0.37406838544E+02  0.72470684469E+02  0.00000000000E+00 0.  1.
         11    1    1    2    0    0  0.65458161774E+01  0.14221997626E+02 -0.26741777137E+02  0.30987668037E+02  0.00000000000E+00 0. -1.
</event>
<event>
 7    1  0.2989693E-009  0.1274240E+03  0.7561462E-02  0.1231329E+00
         -2   -1    0    0    0  501 -0.00000000000E+00  0.00000000000E+00  0.17836749942E+02  0.17836749942E+02  0.00000000000E+00 0.  1.
          2   -1    0    0  501    0  0.00000000000E+00 -0.00000000000E+00 -0.10336663760E+04  0.10336663760E+04  0.00000000000E+00 0. -1.
         25    2    1    2    0    0 -0.12710758964E+02 -0.83500658384E+02 -0.60738335861E+03  0.62585509916E+03  0.12508452137E+03 0.  0.
          5    1    3    3  502    0 -0.14241337157E+02  0.24815323658E+02 -0.47781204025E+02  0.55849188270E+02  0.41800000000E+01 0. -1.
         -5    1    3    3    0  502  0.15305781935E+01 -0.10831598204E+03 -0.55960215459E+03  0.57000591089E+03  0.41800000000E+01 0. -1.
        -11    1    1    2    0    0 -0.17019224993E+02  0.86021289806E+02 -0.26499121695E+03  0.27912302195E+03  0.00000000000E+00 0. -1.
         11    1    1    2    0    0  0.29729983957E+02 -0.25206314228E+01 -0.14345505054E+03  0.14652500488E+03  0.00000000000E+00 0.  1.
</event>
<event>
 7    1  0.2989693E-009  0.1066323E+03  0.7561462E-02  0.1266936E+00
          1   -1    0    0  501    0  0.00000000000E+00  0.00000000000E+00  0.25822772383E+03  0.25822772383E+03  0.00000000000E+00 0. -1.
         -1   -1    0    0    0  501 -0.00000000000E+00 -0.00000000000E+00 -0.71647437252E+02  0.71647437252E+02  0.00000000000E+00 0.  1.
         25    2    1    2    0    0  0.75777983282E+02 -0.28751676299E+02  0.11571819666E+03  0.18869901509E+03  0.12509058964E+03 0.  0.
          5    1    3    3  502    0 -0.84405871057E+01 -0.35453016764E+01 -0.22608995141E+02  0.24747762241E+02  0.41800000000E+01 0. -1.
         -5    1    3    3    0  502  0.84218570388E+02 -0.25206374623E+02  0.13832719180E+03  0.16395125285E+03  0.41800000000E+01 0. -1.
        -11    1    1    2    0    0 -0.88725112228E+00  0.39520567676E+02  0.31763725822E+01  0.39657935231E+02  0.00000000000E+00 0.  1.
         11    1    1    2    0    0 -0.74890732160E+02 -0.10768891377E+02  0.67685717344E+02  0.10151821077E+03  0.00000000000E+00 0. -1.
</event>
<event>
 7    1  0.2989693E-009  0.1333297E+03  0.7561462E-02  0.1222597E+00
         -1   -1    0    0    0  501 -0.00000000000E+00  0.00000000000E+00  0.14864479583E+03  0.14864479583E+03  0.00000000000E+00 0.  1.
          1   -1    0    0  501    0  0.00000000000E+00 -0.00000000000E+00 -0.15572186324E+03  0.15572186324E+03  0.00000000000E+00 0. -1.
         25    2    1    2    0    0 -0.79043188939E+02  0.69891038740E+02 -0.16628371707E+02  0.16448225773E+03  0.12508128296E+03 0.  0.
          5    1    3    3  502    0 -0.27295983355E+02  0.70949457177E+02  0.41359605920E+02  0.86642862273E+02  0.41800000000E+01 0. -1.
         -5    1    3    3    0  502 -0.51747205584E+02 -0.10584184367E+01 -0.57987977628E+02  0.77839395454E+02  0.41800000000E+01 0. -1.
        -11    1    1    2    0    0  0.56326821301E+02 -0.91369421145E+02  0.14223251023E+02  0.10827457129E+03  0.00000000000E+00 0.  1.
         11    1    1    2    0    0  0.22716367638E+02  0.21478382405E+02 -0.46719467234E+01  0.31609830047E+02  0.00000000000E+00 0. -1.
</event>
<event>
 7    1  0.2989693E-009  0.1527101E+03  0.7561462E-02  0.1197182E+00
         -1   -1    0    0    0  501 -0.00000000000E+00  0.00000000000E+00  0.42535287112E+02  0.42535287112E+02  0.00000000000E+00 0.  1.
          1   -1    0    0  501    0  0.00000000000E+00 -0.00000000000E+00 -0.61607173294E+03  0.61607173294E+03  0.00000000000E+00 0. -1.
         25    2    1    2    0    0  0.38037413351E+02 -0.11076025187E+03 -0.25191549863E+03  0.30466933318E+03  0.12508919186E+03 0.  0.
          5    1    3    3  502    0 -0.10148594372E+02 -0.11083820764E+03 -0.22038813070E+03  0.24693420742E+03  0.41800000000E+01 0. -1.
         -5    1    3    3    0  502  0.48186007723E+02  0.77955772733E-01 -0.31527367922E+02  0.57735125751E+02  0.41800000000E+01 0. -1.
        -11    1    1    2    0    0 -0.50524128730E+02  0.20454004446E+02 -0.92789592585E+02  0.10761487989E+03  0.00000000000E+00 0.  1.
         11    1    1    2    0    0  0.12486715379E+02  0.90306247425E+02 -0.22883135462E+03  0.24632280699E+03  0.00000000000E+00 0. -1.
</event>
<event>
 7    1  0.2989693E-009  0.1009754E+03  0.7561462E-02  0.1278258E+00
         -2   -1    0    0    0  501 -0.00000000000E+00  0.00000000000E+00  0.56238265677E+02  0.56238265677E+02  0.00000000000E+00 0. -1.
          2   -1    0    0  501    0  0.00000000000E+00 -0.00000000000E+00 -0.33703440359E+03  0.33703440359E+03  0.00000000000E+00 0.  1.
         25    2    1    2    0    0  0.76888597457E+02  0.31619108070E+02 -0.16683342796E+03  0.22448391052E+03  0.12509200208E+03 0.  0.
          5    1    3    3  502    0  0.48738955611E+00 -0.12069660235E+02 -0.12725121216E+03  0.12789158551E+03  0.41800000000E+01 0.  1.
         -5    1    3    3    0  502  0.76401207901E+02  0.43688768305E+02 -0.39582215800E+02  0.96592325018E+02  0.41800000000E+01 0.  1.
        -11    1    1    2    0    0 -0.49670334798E+02  0.10635914868E+02 -0.10647556715E+03  0.11797165441E+03  0.00000000000E+00 0.  1.
         11    1    1    2    0    0 -0.27218262659E+02 -0.42255022938E+02 -0.74871428031E+01  0.50817104335E+02  0.00000000000E+00 0. -1.
</event>
<event>
 6    1  0.2989693E-009  0.1070370E+03  0.7561462E-02  0.1266157E+00
          1   -1    0    0  501    0  0.00000000000E+00  0.00000000000E+00  0.84441156283E+03  0.84441156283E+03  0.00000000000E+00 0. -1.
         -1   -1    0    0    0  501 -0.00000000000E+00 -0.00000000000E+00 -0.42314365524E+02  0.42314365524E+02  0.00000000000E+00 0.  1.
          5    1    1    2  502    0 -0.42472632992E+02 -0.37913468025E+02  0.28320069323E+03  0.28889697240E+03  0.41800000000E+01 0.  1.
         -5    1    1    2    0  502  0.51454168988E+02  0.39870112668E+02  0.49977712187E+03  0.50401567568E+03  0.41800000000E+01 0.  1.
        -11    1    1    2    0    0  0.39068013577E+02 -0.15197547983E+02  0.10733160465E+02  0.43272114382E+02  0.00000000000E+00 0. -1.
         11    1    1    2    0    0 -0.48049549573E+02  0.13240903341E+02  0.83862217449E+01  0.50541165900E+02  0.00000000000E+00 0.  1.
</event>
<event>
 7    1  0.2989693E-009  0.2574014E+03  0.7561462E-02  0.1108715E+00
          2   -1    0    0  501    0  0.00000000000E+00  0.00000000000E+00  0.39893216533E+03  0.39893216533E+03  0.00000000000E+00 0. -1.
         -2   -1    0    0    0  501 -0.00000000000E+00 -0.00000000000E+00 -0.17377253666E+03  0.17377253666E+03  0.00000000000E+00 0.  1.
         25    2    1    2    0    0 -0.94165178921E+02 -0.21841473250E+03  0.14643515941E+03  0.30604402545E+03  0.12509042053E+03 0.  0.
          5    1    3    3  502    0 -0.81350171674E+02 -0.57816543209E+02  0.92374808483E+02  0.13605580011E+03  0.41800000000E+01 0.  1.
         -5    1    3    3    0  502 -0.12815007247E+02 -0.16059818929E+03  0.54060350930E+02  0.16998822535E+03  0.41800000000E+01 0.  1.
        -11    1    1    2    0    0  0.90827889105E+02  0.99246458642E+02  0.53648853859E+02  0.14483702742E+03  0.00000000000E+00 0. -1.
         11    1    1    2    0    0  0.33372898164E+01  0.11916827386E+03  0.25075615402E+02  0.12182364912E+03  0.00000000000E+00 0.  1.
</event>
<event>
 7    1  0.2998577E-009  0.1018854E+03  0.7561462E-02  0.1276380E+00
         -2   -1    0    0    0  501 -0.00000000000E+00  0.00000000000E+00  0.31257430534E+02  0.31257430534E+02  0.00000000000E+00 0.  1.
          2   -1    0    0  501    0  0.00000000000E+00 -0.00000000000E+00 -0.48761397767E+03  0.48761397767E+03  0.00000000000E+00 0. -1.
         25    2    1    2    0    0  0.53776088997E+02 -0.20022743510E+02 -0.27832540719E+03  0.31049188934E+03  0.12508958013E+03 0.  0.
          5    1    3    3  502    0  0.74707973410E+02  0.15042535580E+02 -0.24793372759E+03  0.25941504360E+03  0.41800000000E+01 0.  1.
         -5    1    3    3    0  502 -0.20931884413E+02 -0.35065279090E+02 -0.30391679599E+02  0.51076845748E+02  0.41800000000E+01 0.  1.
        -11    1    1    2    0    0 -0.19123814767E+02  0.41454925188E+02 -0.29485439748E+02  0.54347237931E+02  0.00000000000E+00 0.  1.
         11    1    1    2    0    0 -0.34652274230E+02 -0.21432181678E+02 -0.14854570020E+03  0.15403228093E+03  0.00000000000E+00 0. -1.
</event>
<event>
 7    1  0.3105637E-009  0.1346335E+03  0.7561462E-02  0.1220738E+00
          1   -1    0    0  501    0  0.00000000000E+00  0.00000000000E+00  0.31914520579E+03  0.31914520579E+03  0.00000000000E+00 0. -1.
         -1   -1    0    0    0  501 -0.00000000000E+00 -0.00000000000E+00 -0.84270166000E+02  0.84270166000E+02  0.00000000000E+00 0.  1.
         25    2    1    2    0    0 -0.11747053060E+03  0.28934363960E+02  0.10247143246E+03  0.20195369360E+03  0.12509347271E+03 0.  0.
          5    1    3    3  502    0 -0.12890995982E+03  0.25563743934E+02  0.38873965431E+02  0.13711287442E+03  0.41800000000E+01 0. -1.
         -5    1    3    3    0  502  0.11439429220E+02  0.33706200255E+01  0.63597467026E+02  0.64840819183E+02  0.41800000000E+01 0. -1.
        -11    1    1    2    0    0  0.43431712579E+02 -0.26878038254E+02  0.15492729587E+01  0.51099342898E+02  0.00000000000E+00 0.  1.
         11    1    1    2    0    0  0.74038818017E+02 -0.20563257057E+01  0.13085433437E+03  0.15036233529E+03  0.00000000000E+00 0. -1.
</event>
<event>
 7    1  0.2989693E-009  0.7205880E+02  0.7561462E-02  0.1353229E+00
         -1   -1    0    0    0  501 -0.00000000000E+00  0.00000000000E+00  0.14342612528E+03  0.14342612528E+03  0.00000000000E+00 0.  1.
          1   -1    0    0  501    0  0.00000000000E+00 -0.00000000000E+00 -0.10164026674E+03  0.10164026674E+03  0.00000000000E+00 0. -1.
         25    2    1    2    0    0 -0.39929843547E+02  0.34185612844E+02  0.24167708510E+02  0.13781382037E+03  0.12508206274E+03 0.  0.
          5    1    3    3  502    0 -0.18968449587E+01 -0.74604703519E+01  0.66560733177E+02  0.67134642620E+02  0.41800000000E+01 0.  1.
         -5    1    3    3    0  502 -0.38032998588E+02  0.41646083195E+02 -0.42393024667E+02  0.70679177751E+02  0.41800000000E+01 0.  1.
        -11    1    1    2    0    0 -0.43210834640E+01 -0.34281596317E+02 -0.27421804258E+02  0.44111845996E+02  0.00000000000E+00 0. -1.
         11    1    1    2    0    0  0.44250927011E+02  0.95983473687E-01  0.45039954289E+02  0.63140725657E+02  0.00000000000E+00 0.  1.
</event>
<event>
 7    1  0.2989693E-009  0.2291007E+03  0.7561462E-02  0.1127274E+00
         -1   -1    0    0    0  501 -0.00000000000E+00  0.00000000000E+00  0.40810286278E+03  0.40810286278E+03  0.00000000000E+00 0.  1.
          1   -1    0    0  501    0  0.00000000000E+00 -0.00000000000E+00 -0.15673158731E+03  0.15673158731E+03  0.00000000000E+00 0. -1.
         25    2    1    2    0    0  0.21399440134E+03  0.64641325300E+02  0.84794041660E+02  0.26983397889E+03  0.12509293314E+03 0.  0.
          5    1    3    3  502    0  0.20698454502E+03  0.69866422669E+02  0.10869657455E+03  0.24404166983E+03  0.41800000000E+01 0.  1.
         -5    1    3    3    0  502  0.70098563180E+01 -0.52250973692E+01 -0.23902532890E+02  0.25792309060E+02  0.41800000000E+01 0.  1.
        -11    1    1    2    0    0 -0.15896730744E+03 -0.22179079969E+02  0.67845605838E+02  0.17425711651E+03  0.00000000000E+00 0.  1.
         11    1    1    2    0    0 -0.55027093895E+02 -0.42462245330E+02  0.98731627967E+02  0.12074335469E+03  0.00000000000E+00 0. -1.
</event>
<event>
 7    1  0.2989693E-009  0.7594104E+02  0.7561462E-02  0.1340981E+00
         -1   -1    0    0    0  501 -0.00000000000E+00  0.00000000000E+00  0.30457316366E+03  0.30457316366E+03  0.00000000000E+00 0.  1.
          1   -1    0    0  501    0  0.00000000000E+00 -0.00000000000E+00 -0.43345625288E+02  0.43345625288E+02  0.00000000000E+00 0. -1.
         25    2    1    2    0    0  0.14225429579E+02 -0.42417974327E+02  0.21829153694E+03  0.25553876510E+03  0.12508884033E+03 0.  0.
          5    1    3    3  502    0 -0.32000720885E+02 -0.21920365496E+02  0.19647001172E+03  0.20030598210E+03  0.41800000000E+01 0. -1.
         -5    1    3    3    0  502  0.46226150465E+02 -0.20497608831E+02  0.21821525222E+02  0.55232782997E+02  0.41800000000E+01 0. -1.
        -11    1    1    2    0    0  0.22524439358E+01  0.45338968179E+02 -0.95708353225E+00  0.45404972724E+02  0.00000000000E+00 0. -1.
         11    1    1    2    0    0 -0.16477873515E+02 -0.29209938520E+01  0.43893084966E+02  0.46975051128E+02  0.00000000000E+00 0.  1.
</event>
<event>
 7    1  0.2989693E-009  0.2105019E+03  0.7561462E-02  0.1141169E+00
          2   -1    0    0  501    0  0.00000000000E+00  0.00000000000E+00  0.13897259743E+04  0.13897259743E+04  0.00000000000E+00 0. -1.
         -2   -1    0    0    0  501 -0.00000000000E+00 -0.00000000000E+00 -0.74764534461E+02  0.74764534461E+02  0.00000000000E+00 0.  1.
         25    2    1    2    0    0  0.12658096877E+03  0.16416201461E+03  0.16642391652E+03  0.29379664731E+03  0.12509053236E+03 0.  0.
          5    1    3    3  502    0  0.64821847307E+02  0.70091633067E+02  0.33515103521E+01  0.95621200244E+02  0.41800000000E+01 0.  1.
         -5    1    3    3    0  502  0.61759121462E+02  0.94070381539E+02  0.16307240617E+03  0.19817544707E+03  0.41800000000E+01 0.  1.
        -11    1    1    2    0    0 -0.30100635503E+02 -0.11468511993E+02  0.68972675427E+02  0.76123616445E+02  0.00000000000E+00 0.  1.
         11    1    1    2    0    0 -0.96480333266E+02 -0.15269350261E+03  0.10795648478E+04  0.10945702450E+04  0.00000000000E+00 0. -1.
</event>
<event>
 7    1  0.2989693E-009  0.1575017E+03  0.7561462E-02  0.1191547E+00
          2   -1    0    0  501    0  0.00000000000E+00  0.00000000000E+00  0.19398332562E+04  0.19398332562E+04  0.00000000000E+00 0. -1.
         -2   -1    0    0    0  501 -0.00000000000E+00 -0.00000000000E+00 -0.13967350966E+02  0.13967350966E+02  0.00000000000E+00 0.  1.
         25    2    1    2    0    0 -0.62020397595E+02 -0.94335023120E+02  0.12004208762E+04  0.12121890042E+04  0.12508507398E+03 0.  0.
          5    1    3    3  502    0 -0.57536148567E+02 -0.12106713967E+03  0.83103582375E+03  0.84178719012E+03  0.41800000000E+01 0. -1.
         -5    1    3    3    0  502 -0.44842490283E+01  0.26732116546E+02  0.36938505244E+03  0.37040181413E+03  0.41800000000E+01 0. -1.
        -11    1    1    2    0    0  0.45128173278E+02  0.11688444530E+03  0.61464718857E+03  0.62728756722E+03  0.00000000000E+00 0.  1.
         11    1    1    2    0    0  0.16892224317E+02 -0.22549422180E+02  0.11079784053E+03  0.11432403575E+03  0.00000000000E+00 0. -1.
</event>
<event>
 7    1  0.2989693E-009  0.8403282E+02  0.7561462E-02  0.1317981E+00
         -2   -1    0    0    0  501 -0.00000000000E+00  0.00000000000E+00  0.20977864773E+03  0.20977864773E+03  0.00000000000E+00 0.  1.
          2   -1    0    0  501    0  0.00000000000E+00 -0.00000000000E+00 -0.60270045592E+02  0.60270045592E+02  0.00000000000E+00 0. -1.
         25    2    1    2    0    0  0.87965640008E+01 -0.77400540019E+01  0.12025479650E+03  0.17391405588E+03  0.12509034647E+03 0.  0.
          5    1    3    3  502    0  0.59176939818E+02  0.99945348634E+01  0.26086389359E+02  0.65572654690E+02  0.41800000000E+01 0.  1.
         -5    1    3    3    0  502 -0.50380375817E+02 -0.17734588865E+02  0.94168407137E+02  0.10834140119E+03  0.41800000000E+01 0.  1.
        -11    1    1    2    0    0  0.16713358025E+02 -0.13224130860E+02 -0.24858492810E+02  0.32743833591E+02  0.00000000000E+00 0. -1.
         11    1    1    2    0    0 -0.25509922026E+02  0.20964184861E+02  0.54112298449E+02  0.63390803845E+02  0.00000000000E+00 0.  1.
</event>
<event>
 7    1  0.3479558E-009  0.1060750E+03  0.7561462E-02  0.1268016E+00
         -2   -1    0    0    0  501 -0.00000000000E+00  0.00000000000E+00  0.39952181352E+03  0.39952181352E+03  0.00000000000E+00 0.  1.
          2   -1    0    0  501    0  0.00000000000E+00 -0.00000000000E+00 -0.44826701016E+02  0.44826701016E+02  0.00000000000E+00 0. -1.
         25    2    1    2    0    0 -0.72070243673E+02  0.46377343921E+01  0.24483652867E+03  0.28426750021E+03  0.12508979696E+03 0.  0.
          5    1    3    3  502    0 -0.68202302357E+02 -0.24082399135E+02  0.51898279673E+02  0.89120254869E+02  0.41800000000E+01 0.  1.
         -5    1    3    3    0  502 -0.38679413157E+01  0.28720133527E+02  0.19293824899E+03  0.19514724534E+03  0.41800000000E+01 0.  1.
        -11    1    1    2    0    0  0.16331580526E+02 -0.40821505093E+02  0.19955957514E+02  0.48284117895E+02  0.00000000000E+00 0. -1.
         11    1    1    2    0    0  0.55738663147E+02  0.36183770701E+02  0.89902626321E+02  0.11179689643E+03  0.00000000000E+00 0.  1.
</event>
<event>
 7    1  0.2989693E-009  0.6806736E+02  0.7561462E-02  0.1366791E+00
          2   -1    0    0  501    0  0.00000000000E+00  0.00000000000E+00  0.77103072898E+03  0.77103072898E+03  0.00000000000E+00 0.  1.
         -2   -1    0    0    0  501 -0.00000000000E+00 -0.00000000000E+00 -0.21847473929E+02  0.21847473929E+02  0.00000000000E+00 0. -1.
         25    2    1    2    0    0  0.99504455947E+01 -0.62697887268E+01  0.64834402067E+03  0.66040572612E+03  0.12508969713E+03 0.  0.
          5    1    3    3  502    0 -0.11574445952E+02  0.16119695350E+02  0.61233059272E+03  0.61266633623E+03  0.41800000000E+01 0.  1.
         -5    1    3    3    0  502  0.21524891547E+02 -0.22389484077E+02  0.36013427956E+02  0.47739389884E+02  0.41800000000E+01 0.  1.
        -11    1    1    2    0    0 -0.45532195915E+02  0.14890520079E+02  0.68716582603E+02  0.83766802361E+02  0.00000000000E+00 0.  1.
         11    1    1    2    0    0  0.35581750320E+02 -0.86207313525E+01  0.32122651779E+02  0.48705674435E+02  0.00000000000E+00 0. -1.
</event>
<event>
 7    1  0.2989693E-009  0.1262387E+03  0.7561462E-02  0.1233146E+00
         -2   -1    0    0    0  501 -0.00000000000E+00  0.00000000000E+00  0.14642299674E+03  0.14642299674E+03  0.00000000000E+00 0.  1.
          2   -1    0    0  501    0  0.00000000000E+00 -0.00000000000E+00 -0.15602022495E+03  0.15602022495E+03  0.00000000000E+00 0. -1.
         25    2    1    2    0    0  0.36257302198E+02  0.88750805743E+02 -0.45637654263E+02  0.16407731948E+03  0.12508906347E+03 0.  0.
          5    1    3    3  502    0  0.81862204727E+02  0.49360414519E+02 -0.16824802137E+02  0.97151518007E+02  0.41800000000E+01 0. -1.
         -5    1    3    3    0  502 -0.45604902529E+02  0.39390391224E+02 -0.28812852127E+02  0.66925801475E+02  0.41800000000E+01 0. -1.
        -11    1    1    2    0    0 -0.13746046830E+02 -0.46822759665E+02 -0.29761792190E+02  0.57158454322E+02  0.00000000000E+00 0. -1.
         11    1    1    2    0    0 -0.22511255367E+02 -0.41928046078E+02  0.65802218239E+02  0.81207447880E+02  0.00000000000E+00 0.  1.
</event>
<event>
 7    1  0.2989693E-009  0.1309650E+03  0.7561462E-02  0.1226031E+00
         -2   -1    0    0    0  501 -0.00000000000E+00  0.00000000000E+00  0.82575926761E+02  0.82575926761E+02  0.00000000000E+00 0.  1.
          2   -1    0    0  501    0  0.00000000000E+00 -0.00000000000E+00 -0.38448171984E+03  0.38448171984E+03  0.00000000000E+00 0. -1.
         25    2    1    2    0    0 -0.39310531681E+02 -0.94347618311E+02 -0.28657667186E+03  0.32896637261E+03  0.12508354997E+03 0.  0.
          5    1    3    3  502    0  0.41962435144E+02 -0.53755845321E+02 -0.96313382796E+02  0.11808588813E+03  0.41800000000E+01 0.  1.
         -5    1    3    3    0  502 -0.81272966825E+02 -0.40591772990E+02 -0.19026328906E+03  0.21088048448E+03  0.41800000000E+01 0.  1.
        -11    1    1    2    0    0  0.17959248035E+02  0.31126650058E+02  0.38272787273E+02  0.52499611231E+02  0.00000000000E+00 0.  1.
         11    1    1    2    0    0  0.21351283646E+02  0.63220968253E+02 -0.53601908498E+02  0.85591662765E+02  0.00000000000E+00 0. -1.
</event>
<event>
 7    1  0.3254223E-009  0.1184205E+03  0.7561462E-02  0.1245726E+00
          1   -1    0    0  501    0  0.00000000000E+00  0.00000000000E+00  0.25889566930E+03  0.25889566930E+03  0.00000000000E+00 0. -1.
         -1   -1    0    0    0  501 -0.00000000000E+00 -0.00000000000E+00 -0.60299054669E+02  0.60299054669E+02  0.00000000000E+00 0.  1.
         25    2    1    2    0    0  0.44522684630E+02 -0.37939843443E+02  0.83876302388E+02  0.16156806215E+03  0.12508918193E+03 0.  0.
          5    1    3    3  502    0  0.80877740490E+02  0.15704667762E+01  0.67036165492E+02  0.10514273706E+03  0.41800000000E+01 0. -1.
         -5    1    3    3    0  502 -0.36355055860E+02 -0.39510310220E+02  0.16840136896E+02  0.56425325085E+02  0.41800000000E+01 0. -1.
        -11    1    1    2    0    0 -0.50451123030E+02 -0.11866983007E+02  0.84320000836E+02  0.98974762650E+02  0.00000000000E+00 0.  1.
         11    1    1    2    0    0  0.59284384002E+01  0.49806826451E+02  0.30400311408E+02  0.58651899173E+02  0.00000000000E+00 0. -1.
</event>
<event>
 7    1  0.2989693E-009  0.1434662E+03  0.7561462E-02  0.1208740E+00
          2   -1    0    0  501    0  0.00000000000E+00  0.00000000000E+00  0.84671840833E+03  0.84671840833E+03  0.00000000000E+00 0. -1.
         -2   -1    0    0    0  501 -0.00000000000E+00 -0.00000000000E+00 -0.28626605655E+02  0.28626605655E+02  0.00000000000E+00 0.  1.
         25    2    1    2    0    0 -0.10759695189E+03  0.19820058184E+02  0.48816900862E+03  0.51569066170E+03  0.12513168593E+03 0.  0.
          5    1    3    3  502    0 -0.80356593397E+02 -0.31175902797E+02  0.15398159384E+03  0.17651323649E+03  0.41800000000E+01 0. -1.
         -5    1    3    3    0  502 -0.27240358491E+02  0.50995960981E+02  0.33418741479E+03  0.33917742520E+03  0.41800000000E+01 0. -1.
        -11    1    1    2    0    0  0.31663817793E+01  0.27741252205E+02  0.53187551961E+02  0.60070947479E+02  0.00000000000E+00 0. -1.
         11    1    1    2    0    0  0.10443057011E+03 -0.47561310389E+02  0.27673524209E+03  0.29958340480E+03  0.00000000000E+00 0.  1.
</event>
<event>
 7    1  0.2989693E-009  0.9358196E+02  0.7561462E-02  0.1294402E+00
         -1   -1    0    0    0  501 -0.00000000000E+00  0.00000000000E+00  0.16524075835E+03  0.16524075835E+03  0.00000000000E+00 0.  1.
          1   -1    0    0  501    0  0.00000000000E+00 -0.00000000000E+00 -0.98313328707E+02  0.98313328707E+02  0.00000000000E+00 0. -1.
         25    2    1    2    0    0 -0.62209308681E+02 -0.21321200169E+02  0.55621253089E+02  0.15187329119E+03  0.12508869301E+03 0.  0.
          5    1    3    3  502    0 -0.87671535397E+02 -0.24736567759E+02  0.76085954421E+02  0.11876338141E+03  0.41800000000E+01 0.  1.
         -5    1    3    3    0  502  0.25462226716E+02  0.34153675902E+01 -0.20464701332E+02  0.33109909782E+02  0.41800000000E+01 0.  1.
        -11    1    1    2    0    0  0.28604667868E+02  0.22387596389E+02  0.49113336092E+02  0.61086424662E+02  0.00000000000E+00 0.  1.
         11    1    1    2    0    0  0.33604640813E+02 -0.10663962199E+01 -0.37807159539E+02  0.50594371203E+02  0.00000000000E+00 0. -1.
</event>
<event>
 7    1  0.2989693E-009  0.1553045E+03  0.7561462E-02  0.1194102E+00
         -2   -1    0    0    0  501 -0.00000000000E+00  0.00000000000E+00  0.38119479708E+02  0.38119479708E+02  0.00000000000E+00 0.  1.
          2   -1    0    0  501    0  0.00000000000E+00 -0.00000000000E+00 -0.82388409916E+03  0.82388409916E+03  0.00000000000E+00 0. -1.
         25    2    1    2    0    0  0.11417635086E+03  0.53158336169E+02 -0.26834920692E+03  0.32174602284E+03  0.12508860284E+03 0.  0.
          5    1    3    3  502    0  0.45033743049E+02 -0.25972351488E+02 -0.27550228827E+02  0.58983799159E+02  0.41800000000E+01 0.  1.
         -5    1    3    3    0  502  0.69142607807E+02  0.79130687657E+02 -0.24079897809E+03  0.26276222368E+03  0.41800000000E+01 0.  1.
        -11    1    1    2    0    0 -0.10601221392E+03 -0.68140945858E+01 -0.39718805571E+03  0.41114884529E+03  0.00000000000E+00 0. -1.
         11    1    1    2    0    0 -0.81641369387E+01 -0.46344241583E+02 -0.12022735682E+03  0.12910871074E+03  0.00000000000E+00 0.  1.
</event>
<event>
 7    1  0.2989693E-009  0.1533056E+03  0.7561462E-02  0.1196469E+00
         -2   -1    0    0    0  501 -0.00000000000E+00  0.00000000000E+00  0.15923890985E+03  0.15923890985E+03  0.00000000000E+00 0.  1.
          2   -1    0    0  501    0  0.00000000000E+00 -0.00000000000E+00 -0.16877833831E+03  0.16877833831E+03  0.00000000000E+00 0. -1.
         25    2    1    2    0    0  0.79998960575E+02 -0.83220638893E+02  0.37156052499E+02  0.17422646135E+03  0.12509508050E+03 0.  0.
          5    1    3    3  502    0  0.38312698222E+00  0.28842930989E+02 -0.66367188078E+01  0.29892806674E+02  0.41800000000E+01 0.  1.
         -5    1    3    3    0  502  0.79615833593E+02 -0.11206356988E+03  0.43792771307E+02  0.14433365468E+03  0.41800000000E+01 0.  1.
        -11    1    1    2    0    0  0.15093567790E+02  0.22553874138E+02 -0.28820436927E+02  0.39586747934E+02  0.00000000000E+00 0. -1.
         11    1    1    2    0    0 -0.95092528365E+02  0.60666764754E+02 -0.17875044033E+02  0.11420403888E+03  0.00000000000E+00 0.  1.
</event>
<event>
 7    1  0.2989693E-009  0.1168111E+03  0.7561462E-02  0.1248452E+00
         -2   -1    0    0    0  501 -0.00000000000E+00  0.00000000000E+00  0.37587114072E+02  0.37587114072E+02  0.00000000000E+00 0.  1.
          2   -1    0    0  501    0  0.00000000000E+00 -0.00000000000E+00 -0.43680154129E+03  0.43680154129E+03  0.00000000000E+00 0. -1.
         25    2    1    2    0    0  0.16471174036E+02  0.63947901390E+02 -0.21759739802E+03  0.25953113204E+03  0.12508855745E+03 0.  0.
          5    1    3    3  502    0  0.58600649605E+02  0.39956883614E+02 -0.55121408363E+02  0.89924583636E+02  0.41800000000E+01 0.  1.
         -5    1    3    3    0  502 -0.42129475569E+02  0.23991017776E+02 -0.16247598966E+03  0.16960654840E+03  0.41800000000E+01 0.  1.
        -11    1    1    2    0    0  0.38824308428E+02 -0.23255802854E+02 -0.59381666752E+02  0.74661513764E+02  0.00000000000E+00 0.  1.
         11    1    1    2    0    0 -0.55295482464E+02 -0.40692098536E+02 -0.12223536245E+03  0.14019600956E+03  0.00000000000E+00 0. -1.
</event>
<event>
 7    1  0.2989693E-009  0.1331634E+03  0.7561462E-02  0.1222836E+00
         -2   -1    0    0    0  501 -0.00000000000E+00  0.00000000000E+00  0.16758811975E+02  0.16758811975E+02  0.00000000000E+00 0.  1.
          2   -1    0    0  501    0  0.00000000000E+00 -0.00000000000E+00 -0.22043624451E+04  0.22043624451E+04  0.00000000000E+00 0. -1.
         25    2    1    2    0    0 -0.52569631554E+02 -0.10648634329E+03 -0.17441148974E+04  0.17526229981E+04  0.12509072885E+03 0.  0.
          5    1    3    3  502    0 -0.30349063767E+02 -0.11526094679E+03 -0.16774339909E+04  0.16816683436E+04  0.41800000000E+01 0. -1.
         -5    1    3    3    0  502 -0.22220567786E+02  0.87746035004E+01 -0.66680906513E+02  0.70954654483E+02  0.41800000000E+01 0. -1.
        -11    1    1    2    0    0  0.27327423644E+02  0.86197079668E+02 -0.41690672575E+03  0.42660044843E+03  0.00000000000E+00 0. -1.
         11    1    1    2    0    0  0.25242207910E+02  0.20289263625E+02 -0.26582009951E+02  0.41897810583E+02  0.00000000000E+00 0.  1.
</event>
<event>
 7    1  0.2989693E-009  0.2276041E+03  0.7561462E-02  0.1128338E+00
          2   -1    0    0  501    0  0.00000000000E+00  0.00000000000E+00  0.39637792787E+03  0.39637792787E+03  0.00000000000E+00 0. -1.
         -2   -1    0    0    0  501 -0.00000000000E+00 -0.00000000000E+00 -0.14980342445E+03  0.14980342445E+03  0.00000000000E+00 0.  1.
         25    2    1    2    0    0 -0.16004712312E+03 -0.14182113378E+03  0.86968973575E+02  0.26256113238E+03  0.12508569169E+03 0.  0.
          5    1    3    3  502    0 -0.16673741142E+03 -0.12015209404E+03  0.10724434619E+03  0.23185493796E+03  0.41800000000E+01 0.  1.
         -5    1    3    3    0  502  0.66902882943E+01 -0.21669039745E+02 -0.20275372615E+02  0.30706194417E+02  0.41800000000E+01 0.  1.
        -11    1    1    2    0    0  0.10981979187E+03  0.47348422985E+02  0.12031154281E+03  0.16963822441E+03  0.00000000000E+00 0. -1.
         11    1    1    2    0    0  0.50227331248E+02  0.94472710795E+02  0.39293987035E+02  0.11398199554E+03  0.00000000000E+00 0.  1.
</event>
<event>
 7    1  0.2989693E-009  0.1061884E+03  0.7561462E-02  0.1267796E+00
          2   -1    0    0  501    0  0.00000000000E+00  0.00000000000E+00  0.11605308079E+03  0.11605308079E+03  0.00000000000E+00 0.  1.
         -2   -1    0    0    0  501 -0.00000000000E+00 -0.00000000000E+00 -0.12180436646E+03  0.12180436646E+03  0.00000000000E+00 0. -1.
         25    2    1    2    0    0 -0.13616233491E+02 -0.28602925512E+01  0.43715137551E+02  0.13324664842E+03  0.12510025170E+03 0.  0.
          5    1    3    3  502    0 -0.54641874037E+02  0.34721407984E+02  0.44625608132E+01  0.65028435470E+02  0.41800000000E+01 0. -1.
         -5    1    3    3    0  502  0.41025640546E+02 -0.37581700536E+02  0.39252576738E+02  0.68218212949E+02  0.41800000000E+01 0. -1.
        -11    1    1    2    0    0  0.46087598775E+02 -0.21751877231E+02 -0.32696312868E+02  0.60549647390E+02  0.00000000000E+00 0. -1.
         11    1    1    2    0    0 -0.32471365284E+02  0.24612169782E+02 -0.16770110360E+02  0.44061151441E+02  0.00000000000E+00 0.  1.
</event>
<event>
 7    1  0.2989693E-009  0.1006829E+03  0.7561462E-02  0.1278866E+00
          2   -1    0    0  501    0  0.00000000000E+00  0.00000000000E+00  0.11415138425E+04  0.11415138425E+04  0.00000000000E+00 0. -1.
         -2   -1    0    0    0  501 -0.00000000000E+00 -0.00000000000E+00 -0.14368954755E+02  0.14368954755E+02  0.00000000000E+00 0.  1.
         25    2    1    2    0    0 -0.30076899701E+02  0.43932435914E+02  0.66870137728E+03  0.68238086728E+03  0.12508971677E+03 0.  0.
          5    1    3    3  502    0  0.20910602027E+02  0.35713959426E+01  0.51478462144E+03  0.51523847587E+03  0.41800000000E+01 0.  1.
         -5    1    3    3    0  502 -0.50987501728E+02  0.40361039971E+02  0.15391675584E+03  0.16714239142E+03  0.41800000000E+01 0.  1.
        -11    1    1    2    0    0 -0.19169848544E+02 -0.59834990751E+02  0.30980718844E+03  0.31611422496E+03  0.00000000000E+00 0. -1.
         11    1    1    2    0    0  0.49246748245E+02  0.15902554837E+02  0.14863632199E+03  0.15738770498E+03  0.00000000000E+00 0.  1.
</event>
<event>
 7    1  0.2989693E-009  0.1023699E+03  0.7561462E-02  0.1275390E+00
          1   -1    0    0  501    0  0.00000000000E+00  0.00000000000E+00  0.41919541727E+02  0.41919541727E+02  0.00000000000E+00 0. -1.
         -1   -1    0    0    0  501 -0.00000000000E+00 -0.00000000000E+00 -0.33199883949E+03  0.33199883949E+03  0.00000000000E+00 0.  1.
         25    2    1    2    0    0  0.19590240332E+02  0.42481580031E+02 -0.18224377806E+03  0.22593587987E+03  0.12508303247E+03 0.  0.
          5    1    3    3  502    0 -0.46850376379E+02 -0.45037014903E+01 -0.39562918209E+02  0.61627412660E+02  0.41800000000E+01 0.  1.
         -5    1    3    3    0  502  0.66440616711E+02  0.46985281522E+02 -0.14268085985E+03  0.16430846721E+03  0.41800000000E+01 0.  1.
        -11    1    1    2    0    0 -0.16421339469E+02 -0.57941748121E+02 -0.11563577657E+03  0.13037844679E+03  0.00000000000E+00 0.  1.
         11    1    1    2    0    0 -0.31689008628E+01  0.15460168090E+02  0.78002568574E+01  0.17604054564E+02  0.00000000000E+00 0. -1.
</event>
<event>
 7    1  0.2989693E-009  0.1254982E+03  0.7561462E-02  0.1234293E+00
          2   -1    0    0  501    0  0.00000000000E+00  0.00000000000E+00  0.13532115657E+03  0.13532115657E+03  0.00000000000E+00 0. -1.
         -2   -1    0    0    0  501 -0.00000000000E+00 -0.00000000000E+00 -0.13327177655E+03  0.13327177655E+03  0.00000000000E+00 0.  1.
         25    2    1    2    0    0 -0.72522594794E+01  0.64458334513E+02 -0.37644473592E+02  0.14585337762E+03  0.12509448116E+03 0.  0.
          5    1    3    3  502    0 -0.58191077740E+02  0.67882858887E+02 -0.20396705632E+02  0.91802952348E+02  0.41800000000E+01 0.  1.
         -5    1    3    3    0  502  0.50938818260E+02 -0.34245243746E+01 -0.17247767960E+02  0.54050425277E+02  0.41800000000E+01 0.  1.
        -11    1    1    2    0    0  0.48012573660E+02 -0.41620408358E+02  0.34985050595E+01  0.63637293775E+02  0.00000000000E+00 0.  1.
         11    1    1    2    0    0 -0.40760314181E+02 -0.22837926154E+02  0.36195348554E+02  0.59102261718E+02  0.00000000000E+00 0. -1.
</event>
<event>
 7    1  0.2989693E-009  0.1187391E+03  0.7561462E-02  0.1245192E+00
         -1   -1    0    0    0  501 -0.00000000000E+00  0.00000000000E+00  0.38923185204E+02  0.38923185204E+02  0.00000000000E+00 0.  1.
          1   -1    0    0  501    0  0.00000000000E+00 -0.00000000000E+00 -0.72221550433E+03  0.72221550433E+03  0.00000000000E+00 0. -1.
         25    2    1    2    0    0  0.19581786181E+02 -0.98391331393E+02 -0.53978554613E+03  0.56309700862E+03  0.12508199253E+03 0.  0.
          5    1    3    3  502    0  0.55013018944E+02 -0.42208234864E+02 -0.42310959248E+03  0.42877402789E+03  0.41800000000E+01 0. -1.
         -5    1    3    3    0  502 -0.35431232763E+02 -0.56183096528E+02 -0.11667595365E+03  0.13432298073E+03  0.41800000000E+01 0. -1.
        -11    1    1    2    0    0 -0.18733149676E+02  0.55824037394E+02 -0.12372848612E+02  0.60169273143E+02  0.00000000000E+00 0.  1.
         11    1    1    2    0    0 -0.84863650521E+00  0.42567293999E+02 -0.13113392438E+03  0.13787240777E+03  0.00000000000E+00 0. -1.
</event>
<event>
 7    1  0.2989693E-009  0.1593028E+03  0.7561462E-02  0.1189486E+00
         -1   -1    0    0    0  501 -0.00000000000E+00  0.00000000000E+00  0.20925117094E+03  0.20925117094E+03  0.00000000000E+00 0.  1.
          1   -1    0    0  501    0  0.00000000000E+00 -0.00000000000E+00 -0.15549784169E+03  0.15549784169E+03  0.00000000000E+00 0. -1.
         25    2    1    2    0    0  0.35459233974E+02  0.13995825058E+03  0.27712116098E+02  0.19302180141E+03  0.12507511847E+03 0.  0.
          5    1    3    3  502    0 -0.32193690663E+02  0.52221098901E+02  0.50816190430E+02  0.79769884661E+02  0.41800000000E+01 0.  1.
         -5    1    3    3    0  502  0.67652924636E+02  0.87737151675E+02 -0.23104074333E+02  0.11325191675E+03  0.41800000000E+01 0.  1.
        -11    1    1    2    0    0 -0.16545861852E+02 -0.26638432016E+02  0.45443495780E+02  0.55213068321E+02  0.00000000000E+00 0.  1.
         11    1    1    2    0    0 -0.18913372122E+02 -0.11331981856E+03 -0.19402282628E+02  0.11651414290E+03  0.00000000000E+00 0. -1.
</event>
<event>
 7    1  0.2989693E-009  0.1109159E+03  0.7561462E-02  0.1258883E+00
         -1   -1    0    0    0  501 -0.00000000000E+00  0.00000000000E+00  0.10884426228E+03  0.10884426228E+03  0.00000000000E+00 0.  1.
          1   -1    0    0  501    0  0.00000000000E+00 -0.00000000000E+00 -0.11726869299E+03  0.11726869299E+03  0.00000000000E+00 0. -1.
         25    2    1    2    0    0 -0.32046239422E+02 -0.59824182326E+00 -0.21684813399E+02  0.13093810082E+03  0.12508891142E+03 0.  0.
          5    1    3    3  502    0  0.34440497291E+02 -0.38391382953E+02 -0.15880743830E+02  0.54126856211E+02  0.41800000000E+01 0.  1.
         -5    1    3    3    0  502 -0.66486736713E+02  0.37793141130E+02 -0.58040695694E+01  0.76811244611E+02  0.41800000000E+01 0.  1.
        -11    1    1    2    0    0  0.61850517807E+02 -0.82668996241E+01  0.14470955740E+02  0.64056512100E+02  0.00000000000E+00 0.  1.
         11    1    1    2    0    0 -0.29804278385E+02  0.88651414473E+01 -0.12105730513E+01  0.31118342341E+02  0.00000000000E+00 0. -1.
</event>
<event>
 7    1  0.2989693E-009  0.1387824E+03  0.7561462E-02  0.1214977E+00
          1   -1    0    0  501    0  0.00000000000E+00  0.00000000000E+00  0.41426755038E+03  0.41426755038E+03  0.00000000000E+00 0. -1.
         -1   -1    0    0    0  501 -0.00000000000E+00 -0.00000000000E+00 -0.11961118681E+03  0.11961118681E+03  0.00000000000E+00 0.  1.
         25    2    1    2    0    0 -0.24174879655E+02  0.13039827784E+03 -0.16952669611E+02  0.18309306810E+03  0.12509013914E+03 0.  0.
          5    1    3    3  502    0 -0.54415549574E+01  0.10610081204E+02  0.45093972824E+02  0.46830792525E+02  0.41800000000E+01 0.  1.
         -5    1    3    3    0  502 -0.18733324697E+02  0.11978819664E+03 -0.62046642435E+02  0.13626227558E+03  0.41800000000E+01 0.  1.
        -11    1    1    2    0    0 -0.13459092982E+02 -0.77695874808E+02  0.88804490715E+02  0.11876040467E+03  0.00000000000E+00 0.  1.
         11    1    1    2    0    0  0.37633972636E+02 -0.52702403036E+02  0.22280454247E+03  0.23202526442E+03  0.00000000000E+00 0. -1.
</event>
<event>
 7    1  0.2989693E-009  0.1427348E+03  0.7561462E-02  0.1209696E+00
          2   -1    0    0  501    0  0.00000000000E+00  0.00000000000E+00  0.19902104861E+03  0.19902104861E+03  0.00000000000E+00 0. -1.
         -2   -1    0    0    0  501 -0.00000000000E+00 -0.00000000000E+00 -0.13041948223E+03  0.13041948223E+03  0.00000000000E+00 0.  1.
         25    2    1    2    0    0  0.10018792808E+03 -0.23028743064E+02  0.96832122044E+02  0.18865966097E+03  0.12509222149E+03 0.  0.
          5    1    3    3  502    0 -0.26249927194E+02 -0.23301678274E+02  0.23255364278E+02  0.42312069859E+02  0.41800000000E+01 0. -1.
         -5    1    3    3    0  502  0.12643785528E+03  0.27293520911E+00  0.73576757766E+02  0.14634759111E+03  0.41800000000E+01 0. -1.
        -11    1    1    2    0    0 -0.29306011665E+02  0.41087314721E+02  0.18759473802E+02  0.53841690240E+02  0.00000000000E+00 0. -1.
         11    1    1    2    0    0 -0.70881916418E+02 -0.18058571656E+02 -0.46990029469E+02  0.86939179630E+02  0.00000000000E+00 0.  1.
</event>
<event>
 7    1  0.2989693E-009  0.1268903E+03  0.7561462E-02  0.1232144E+00
          2   -1    0    0  501    0  0.00000000000E+00  0.00000000000E+00  0.32793715768E+03  0.32793715768E+03  0.00000000000E+00 0. -1.
         -2   -1    0    0    0  501 -0.00000000000E+00 -0.00000000000E+00 -0.75287691069E+02  0.75287691069E+02  0.00000000000E+00 0.  1.
         25    2    1    2    0    0 -0.47985178446E+02  0.94872817173E+02  0.94073616210E+02  0.18920873269E+03  0.12508665185E+03 0.  0.
          5    1    3    3  502    0  0.18531285349E+02  0.60601514279E+02  0.94984196342E+02  0.11426032568E+03  0.41800000000E+01 0. -1.
         -5    1    3    3    0  502 -0.66516463795E+02  0.34271302894E+02 -0.91058013223E+00  0.74948407014E+02  0.41800000000E+01 0. -1.
        -11    1    1    2    0    0  0.50327535278E+02 -0.51908764619E+02  0.15476438739E+03  0.17081977712E+03  0.00000000000E+00 0. -1.
         11    1    1    2    0    0 -0.23423568319E+01 -0.42964052555E+02  0.38114630172E+01  0.43196338940E+02  0.00000000000E+00 0.  1.
</event>
<event>
 7    1  0.2989693E-009  0.2533757E+03  0.7561462E-02  0.1111190E+00
         -1   -1    0    0    0  501 -0.00000000000E+00  0.00000000000E+00  0.17848292203E+03  0.17848292203E+03  0.00000000000E+00 0.  1.
          1   -1    0    0  501    0  0.00000000000E+00 -0.00000000000E+00 -0.40203343434E+03  0.40203343434E+03  0.00000000000E+00 0. -1.
         25    2    1    2    0    0  0.89422465958E+02 -0.21677392469E+03 -0.18975860174E+03  0.32656272236E+03  0.12509025884E+03 0.  0.
          5    1    3    3  502    0  0.12061013138E+03 -0.16837002178E+03 -0.13703050890E+03  0.24837491982E+03  0.41800000000E+01 0.  1.
         -5    1    3    3    0  502 -0.31187665425E+02 -0.48403902911E+02 -0.52728092837E+02  0.78187802539E+02  0.41800000000E+01 0.  1.
        -11    1    1    2    0    0 -0.71001111586E+02  0.94446639414E+02 -0.51670381972E+02  0.12896183124E+03  0.00000000000E+00 0.  1.
         11    1    1    2    0    0 -0.18421354372E+02  0.12232728527E+03  0.17878471399E+02  0.12499180277E+03  0.00000000000E+00 0. -1.
</event>
<event>
 7    1  0.2989693E-009  0.1459231E+03  0.7561462E-02  0.1205574E+00
         -2   -1    0    0    0  501 -0.00000000000E+00  0.00000000000E+00  0.34628532910E+03  0.34628532910E+03  0.00000000000E+00 0. -1.
          2   -1    0    0  501    0  0.00000000000E+00 -0.00000000000E+00 -0.80838998359E+02  0.80838998359E+02  0.00000000000E+00 0.  1.
         25    2    1    2    0    0 -0.11056060388E+03 -0.98753823205E+01  0.22475250036E+03  0.28014780761E+03  0.12509171589E+03 0.  0.
          5    1    3    3  502    0 -0.19100678641E+02 -0.50702008703E+02  0.32471273791E+02  0.63303914830E+02  0.41800000000E+01 0.  1.
         -5    1    3    3    0  502 -0.91459925236E+02  0.40826626383E+02  0.19228122657E+03  0.21684389278E+03  0.41800000000E+01 0.  1.
        -11    1    1    2    0    0 -0.12185877167E+02  0.78504784483E+01  0.16299994863E+02  0.21813194326E+02  0.00000000000E+00 0. -1.
         11    1    1    2    0    0  0.12274648104E+03  0.20249038722E+01  0.24393835520E+02  0.12516332552E+03  0.00000000000E+00 0.  1.
</event>
<event>
 7    1  0.2989693E-009  0.1506827E+03  0.7561462E-02  0.1199637E+00
         -2   -1    0    0    0  501 -0.00000000000E+00  0.00000000000E+00  0.19434434888E+03  0.19434434888E+03  0.00000000000E+00 0. -1.
          2   -1    0    0  501    0  0.00000000000E+00 -0.00000000000E+00 -0.14483389608E+03  0.14483389608E+03  0.00000000000E+00 0.  1.
         25    2    1    2    0    0 -0.22877867367E+02 -0.12473748396E+03  0.49072129008E+02  0.18476396270E+03  0.12508721497E+03 0.  0.
          5    1    3    3  502    0  0.30268503478E+02 -0.42164090093E+02 -0.28674366340E+02  0.59444801969E+02  0.41800000000E+01 0.  1.
         -5    1    3    3    0  502 -0.53146370845E+02 -0.82573393864E+02  0.77746495348E+02  0.12531916073E+03  0.41800000000E+01 0.  1.
        -11    1    1    2    0    0 -0.27422012409E+02  0.76693832353E+02 -0.15845788906E+02  0.82975898378E+02  0.00000000000E+00 0.  1.
         11    1    1    2    0    0  0.50299879777E+02  0.48043651604E+02  0.16284112690E+02  0.71438383878E+02  0.00000000000E+00 0. -1.
</event>
<event>
 7    1  0.2989693E-009  0.9990938E+02  0.7561462E-02  0.1280487E+00
          2   -1    0    0  501    0  0.00000000000E+00  0.00000000000E+00  0.54552879576E+02  0.54552879576E+02  0.00000000000E+00 0. -1.
         -2   -1    0    0    0  501 -0.00000000000E+00 -0.00000000000E+00 -0.39308862895E+03  0.39308862895E+03  0.00000000000E+00 0.  1.
         25    2    1    2    0    0 -0.27751231638E+02 -0.73433617044E+02 -0.95303642857E+02  0.17576561907E+03  0.12509253190E+03 0.  0.
          5    1    3    3  502    0 -0.53423581949E+01 -0.20098260296E+02  0.30548284373E+02  0.37190737235E+02  0.41800000000E+01 0.  1.
         -5    1    3    3    0  502 -0.22408873443E+02 -0.53335356749E+02 -0.12585192723E+03  0.13857488184E+03  0.41800000000E+01 0.  1.
        -11    1    1    2    0    0 -0.95780884163E+01 -0.18801936014E+02 -0.31311729485E+02  0.37758137917E+02  0.00000000000E+00 0.  1.
         11    1    1    2    0    0  0.37329320055E+02  0.92235553058E+02 -0.21192037703E+03  0.23411775154E+03  0.00000000000E+00 0. -1.
</event>
<event>
 7    1  0.2989693E-009  0.2252647E+03  0.7561462E-02  0.1130018E+00
         -1   -1    0    0    0  501 -0.00000000000E+00  0.00000000000E+00  0.45239405388E+02  0.45239405388E+02  0.00000000000E+00 0.  1.
          1   -1    0    0  501    0  0.00000000000E+00 -0.00000000000E+00 -0.12517040128E+04  0.12517040128E+04  0.00000000000E+00 0. -1.
         25    2    1    2    0    0 -0.11438113617E+03 -0.17748080915E+03 -0.61656942627E+03  0.66361721219E+03  0.12508982765E+03 0.  0.
          5    1    3    3  502    0  0.12967850912E+01 -0.79497464491E+02 -0.32913358032E+03  0.33862651197E+03  0.41800000000E+01 0. -1.
         -5    1    3    3    0  502 -0.11567792126E+03 -0.97983344656E+02 -0.28743584595E+03  0.32499070023E+03  0.41800000000E+01 0. -1.
        -11    1    1    2    0    0  0.89238435518E+02  0.17162616921E+03 -0.56602375736E+03  0.59816547395E+03  0.00000000000E+00 0. -1.
         11    1    1    2    0    0  0.25142700650E+02  0.58546399388E+01 -0.23871423796E+02  0.35160732058E+02  0.00000000000E+00 0.  1.
</event>
<event>
 7    1  0.2989693E-009  0.1422355E+03  0.7561462E-02  0.1210352E+00
         -2   -1    0    0    0  501 -0.00000000000E+00  0.00000000000E+00  0.71882931212E+02  0.71882931212E+02  0.00000000000E+00 0. -1.
          2   -1    0    0  501    0  0.00000000000E+00 -0.00000000000E+00 -0.49737769061E+03  0.49737769061E+03  0.00000000000E+00 0.  1.
         25    2    1    2    0    0 -0.13734417865E+02  0.10593744415E+03 -0.55358068993E+02  0.17356030073E+03  0.12508911176E+03 0.  0.
          5    1    3    3  502    0 -0.25237953758E+02 -0.10738703338E+02  0.19932670934E+02  0.34162228116E+02  0.41800000000E+01 0. -1.
         -5    1    3    3    0  502  0.11503535893E+02  0.11667614749E+03 -0.75290739926E+02  0.13939807262E+03  0.41800000000E+01 0. -1.
        -11    1    1    2    0    0  0.41397790557E+02 -0.14474114072E+02 -0.10126035863E+03  0.11034916072E+03  0.00000000000E+00 0. -1.
         11    1    1    2    0    0 -0.27663372692E+02 -0.91463330076E+02 -0.26887633177E+03  0.28535116036E+03  0.00000000000E+00 0.  1.
</event>
<event>
 7    1  0.3902867E-009  0.1337704E+03  0.7561462E-02  0.1221966E+00
         -2   -1    0    0    0  501 -0.00000000000E+00  0.00000000000E+00  0.77325860524E+02  0.77325860524E+02  0.00000000000E+00 0.  1.
          2   -1    0    0  501    0  0.00000000000E+00 -0.00000000000E+00 -0.34833761120E+03  0.34833761120E+03  0.00000000000E+00 0. -1.
         25    2    1    2    0    0 -0.86765471310E+02  0.78082802801E+02 -0.19273541900E+03  0.25771733056E+03  0.12508441002E+03 0.  0.
          5    1    3    3  502    0 -0.79492469103E+02  0.98754009280E+02 -0.19767287953E+03  0.23486899901E+03  0.41800000000E+01 0. -1.
         -5    1    3    3    0  502 -0.72730022073E+01 -0.20671206478E+02  0.49374605279E+01  0.22848331555E+02  0.41800000000E+01 0. -1.
        -11    1    1    2    0    0  0.61602697867E+02 -0.42626565201E+02  0.38602758902E+01  0.75012120189E+02  0.00000000000E+00 0.  1.
         11    1    1    2    0    0  0.25162773443E+02 -0.35456237600E+02 -0.82136607568E+02  0.92934020977E+02  0.00000000000E+00 0. -1.
</event>
<event>
 7    1  0.2989693E-009  0.9648531E+02  0.7561462E-02  0.1287865E+00
          1   -1    0    0  501    0  0.00000000000E+00  0.00000000000E+00  0.10951744477E+03  0.10951744477E+03  0.00000000000E+00 0. -1.
         -1   -1    0    0    0  501 -0.00000000000E+00 -0.00000000000E+00 -0.12982283888E+03  0.12982283888E+03  0.00000000000E+00 0.  1.
         25    2    1    2    0    0 -0.13493433705E+02  0.15435316640E+02  0.31386637072E+02  0.13058616337E+03  0.12508918149E+03 0.  0.
          5    1    3    3  502    0  0.94219540187E+01  0.66507338695E+02  0.22439413828E+01  0.67338748063E+02  0.41800000000E+01 0.  1.
         -5    1    3    3    0  502 -0.22915387724E+02 -0.51072022055E+02  0.29142695689E+02  0.63247415310E+02  0.41800000000E+01 0.  1.
        -11    1    1    2    0    0 -0.23362811161E+02  0.93033433636E+01 -0.58658689838E+02  0.63821744230E+02  0.00000000000E+00 0.  1.
         11    1    1    2    0    0  0.36856244867E+02 -0.24738660004E+02  0.69666586519E+01  0.44932376047E+02  0.00000000000E+00 0. -1.
</event>
<event>
 7    1  0.2989693E-009  0.3335118E+03  0.7561462E-02  0.1069594E+00
         -2   -1    0    0    0  501 -0.00000000000E+00  0.00000000000E+00  0.92877496655E+02  0.92877496655E+02  0.00000000000E+00 0. -1.
          2   -1    0    0  501    0  0.00000000000E+00 -0.00000000000E+00 -0.12319960246E+04  0.12319960246E+04  0.00000000000E+00 0.  1.
         25    2    1    2    0    0 -0.30283291496E+03 -0.10334512072E+03 -0.58337371774E+03  0.67702342826E+03  0.12509132463E+03 0.  0.
          5    1    3    3  502    0 -0.19258005847E+03 -0.11418706866E+03 -0.31345080038E+03  0.38522025158E+03  0.41800000000E+01 0. -1.
         -5    1    3    3    0  502 -0.11025285649E+03  0.10841947946E+02 -0.26992291737E+03  0.29180317668E+03  0.41800000000E+01 0. -1.
        -11    1    1    2    0    0  0.12394453340E+03  0.89360440829E+02 -0.23447681561E+03  0.27986945671E+03  0.00000000000E+00 0.  1.
         11    1    1    2    0    0  0.17888838156E+03  0.13984679888E+02 -0.32126799461E+03  0.36798063630E+03  0.00000000000E+00 0. -1.
</event>
<event>
 7    1  0.2989693E-009  0.9827378E+02  0.7561462E-02  0.1283968E+00
          1   -1    0    0  501    0  0.00000000000E+00  0.00000000000E+00  0.98489488999E+03  0.98489488999E+03  0.00000000000E+00 0. -1.
         -1   -1    0    0    0  501 -0.00000000000E+00 -0.00000000000E+00 -0.12777418108E+02  0.12777418108E+02  0.00000000000E+00 0.  1.
         25    2    1    2    0    0  0.25719087095E+02  0.27779331493E+01  0.48669271768E+03  0.50317800059E+03  0.12509640478E+03 0.  0.
          5    1    3    3  502    0 -0.44463724250E+00  0.48971544078E+02  0.86760484336E+02  0.99715915851E+02  0.41800000000E+01 0. -1.
         -5    1    3    3    0  502  0.26163724338E+02 -0.46193610929E+02  0.39993223334E+03  0.40346208474E+03  0.41800000000E+01 0. -1.
        -11    1    1    2    0    0 -0.86865275339E+01  0.43745611822E+02  0.21703763956E+03  0.22157272237E+03  0.00000000000E+00 0. -1.
         11    1    1    2    0    0 -0.17032559562E+02 -0.46523544971E+02  0.26838711465E+03  0.27292158513E+03  0.00000000000E+00 0.  1.
</event>
<event>
 7    1  0.2989693E-009  0.1418252E+03  0.7561462E-02  0.1210894E+00
          1   -1    0    0  501    0  0.00000000000E+00  0.00000000000E+00  0.85051162151E+02  0.85051162151E+02  0.00000000000E+00 0. -1.
         -1   -1    0    0    0  501 -0.00000000000E+00 -0.00000000000E+00 -0.27784785736E+03  0.27784785736E+03  0.00000000000E+00 0.  1.
         25    2    1    2    0    0  0.73021360921E+02 -0.69033531452E+02 -0.56291379367E+02  0.17003945085E+03  0.12508776055E+03 0.  0.
          5    1    3    3  502    0  0.38252523691E+02  0.31113321644E+02 -0.37975171633E+02  0.62376922119E+02  0.41800000000E+01 0.  1.
         -5    1    3    3    0  502  0.34768837230E+02 -0.10014685310E+03 -0.18316207734E+02  0.10766252873E+03  0.41800000000E+01 0.  1.
        -11    1    1    2    0    0 -0.52309630535E+02 -0.37067904273E+01 -0.24926293696E+02  0.58063395176E+02  0.00000000000E+00 0. -1.
         11    1    1    2    0    0 -0.20711730386E+02  0.72740321879E+02 -0.11157902215E+03  0.13479617348E+03  0.00000000000E+00 0.  1.
</event>
<event>
 7    1  0.2989693E-009  0.1141092E+03  0.7561462E-02  0.1253144E+00
          2   -1    0    0  501    0  0.00000000000E+00  0.00000000000E+00  0.26372256924E+03  0.26372256924E+03  0.00000000000E+00 0. -1.
         -2   -1    0    0    0  501 -0.00000000000E+00 -0.00000000000E+00 -0.60915143724E+02  0.60915143724E+02  0.00000000000E+00 0.  1.
         25    2    1    2    0    0 -0.59251330901E+02  0.71702090314E+01  0.14694440544E+03  0.20199525541E+03  0.12508913944E+03 0.  0.
          5    1    3    3  502    0  0.19539987195E+02 -0.40105680553E+02  0.64084621512E+02  0.78195829982E+02  0.41800000000E+01 0. -1.
         -5    1    3    3    0  502 -0.78791318096E+02  0.47275889585E+02  0.82859783932E+02  0.12379942543E+03  0.41800000000E+01 0. -1.
        -11    1    1    2    0    0 -0.13833387445E+02 -0.11821678876E+02  0.45088006691E+02  0.48621425802E+02  0.00000000000E+00 0. -1.
         11    1    1    2    0    0  0.73084718346E+02  0.46514698448E+01  0.10775013377E+02  0.74021031746E+02  0.00000000000E+00 0.  1.
</event>
<event>
 7    1  0.2989693E-009  0.1003579E+03  0.7561462E-02  0.1279545E+00
         -1   -1    0    0    0  501 -0.00000000000E+00  0.00000000000E+00  0.39782207693E+03  0.39782207693E+03  0.00000000000E+00 0.  1.
          1   -1    0    0  501    0  0.00000000000E+00 -0.00000000000E+00 -0.34789522958E+02  0.34789522958E+02  0.00000000000E+00 0. -1.
         25    2    1    2    0    0 -0.41365478537E+01  0.19835117607E+02  0.13077903592E+03  0.18209703219E+03  0.12508249269E+03 0.  0.
          5    1    3    3  502    0  0.38078948092E+02  0.46265764805E+02  0.11489981896E+03  0.12965326096E+03  0.41800000000E+01 0. -1.
         -5    1    3    3    0  502 -0.42215495946E+02 -0.26430647197E+02  0.15879216955E+02  0.52443771225E+02  0.41800000000E+01 0. -1.
        -11    1    1    2    0    0  0.27702300738E+02  0.26719237407E+02  0.67573827635E+02  0.77766042043E+02  0.00000000000E+00 0. -1.
         11    1    1    2    0    0 -0.23565752884E+02 -0.46554355015E+02  0.16467969042E+03  0.17274852566E+03  0.00000000000E+00 0.  1.
</event>
<event>
 7    1  0.2989693E-009  0.1837146E+03  0.7561462E-02  0.1164256E+00
          1   -1    0    0  501    0  0.00000000000E+00  0.00000000000E+00  0.82585541271E+02  0.82585541271E+02  0.00000000000E+00 0. -1.
         -1   -1    0    0    0  501 -0.00000000000E+00 -0.00000000000E+00 -0.43770041278E+03  0.43770041278E+03  0.00000000000E+00 0.  1.
         25    2    1    2    0    0 -0.39901111487E+02 -0.14945234427E+03 -0.15990899975E+03  0.25523928801E+03  0.12509238200E+03 0.  0.
          5    1    3    3  502    0 -0.70935724564E+01 -0.15850271218E+03 -0.10433533309E+03  0.18993883929E+03  0.41800000000E+01 0. -1.
         -5    1    3    3    0  502 -0.32807539031E+02  0.90503679098E+01 -0.55573666661E+02  0.65300448717E+02  0.41800000000E+01 0. -1.
        -11    1    1    2    0    0  0.55247124532E+02  0.52328708910E+02 -0.11625205336E+03  0.13894271645E+03  0.00000000000E+00 0.  1.
         11    1    1    2    0    0 -0.15346013045E+02  0.97123635364E+02 -0.78953818408E+02  0.12610394960E+03  0.00000000000E+00 0. -1.
</event>
<event>
 7    1  0.2989693E-009  0.1202455E+03  0.7561462E-02  0.1242693E+00
         -2   -1    0    0    0  501 -0.00000000000E+00  0.00000000000E+00  0.16019981493E+03  0.16019981493E+03  0.00000000000E+00 0.  1.
          2   -1    0    0  501    0  0.00000000000E+00 -0.00000000000E+00 -0.14028500375E+03  0.14028500375E+03  0.00000000000E+00 0. -1.
         25    2    1    2    0    0  0.77921356525E+02  0.57122993185E+02  0.41773495523E+02  0.16348270854E+03  0.12508715725E+03 0.  0.
          5    1    3    3  502    0  0.75469811587E+02  0.81751320127E+02  0.65303782786E+02  0.12907760166E+03  0.41800000000E+01 0.  1.
         -5    1    3    3    0  502  0.24515449381E+01 -0.24628326942E+02 -0.23530287264E+02  0.34405106878E+02  0.41800000000E+01 0.  1.
        -11    1    1    2    0    0 -0.58364524533E+02 -0.19302904670E+02 -0.55436050990E+02  0.82777869035E+02  0.00000000000E+00 0. -1.
         11    1    1    2    0    0 -0.19556831992E+02 -0.37820088515E+02  0.33577366647E+02  0.54224241109E+02  0.00000000000E+00 0.  1.
</event>
<event>
 7    1  0.2989693E-009  0.1211792E+03  0.7561462E-02  0.1241164E+00
         -1   -1    0    0    0  501 -0.00000000000E+00  0.00000000000E+00  0.28517475556E+03  0.28517475556E+03  0.00000000000E+00 0.  1.
          1   -1    0    0  501    0  0.00000000000E+00 -0.00000000000E+00 -0.62656036915E+02  0.62656036915E+02  0.00000000000E+00 0. -1.
         25    2    1    2    0    0  0.66774319737E+02  0.40768984842E+02  0.12535484392E+03  0.19360111303E+03  0.12508650675E+03 0.  0.
          5    1    3    3  502    0 -0.69934155461E+00 -0.29285307629E+02 -0.59097790114E+01  0.30174761134E+02  0.41800000000E+01 0. -1.
         -5    1    3    3    0  502  0.67473661292E+02  0.70054292471E+02  0.13126462293E+03  0.16342635190E+03  0.41800000000E+01 0. -1.
        -11    1    1    2    0    0 -0.84677469148E+02 -0.46514064236E+02  0.63318244376E+02  0.11551204277E+03  0.00000000000E+00 0.  1.
         11    1    1    2    0    0  0.17903149411E+02  0.57450793940E+01  0.33845630350E+02  0.38717636677E+02  0.00000000000E+00 0. -1.
</event>
<event>
 7    1  0.2989693E-009  0.7555185E+02  0.7561462E-02  0.1342171E+00
          2   -1    0    0  501    0  0.00000000000E+00  0.00000000000E+00  0.17604392597E+03  0.17604392597E+03  0.00000000000E+00 0. -1.
         -2   -1    0    0    0  501 -0.00000000000E+00 -0.00000000000E+00 -0.10926565334E+03  0.10926565334E+03  0.00000000000E+00 0.  1.
         25    2    1    2    0    0  0.44038632168E+02  0.38214891799E+02 -0.28822105239E+02  0.14098865900E+03  0.12508920473E+03 0.  0.
          5    1    3    3  502    0 -0.83478013875E+01  0.20122172430E+02 -0.68953937389E+02  0.72434145904E+02  0.41800000000E+01 0. -1.
         -5    1    3    3    0  502  0.52386433555E+02  0.18092719369E+02  0.40131832150E+02  0.68554513101E+02  0.41800000000E+01 0. -1.
        -11    1    1    2    0    0  0.75080334524E+01 -0.15069955058E+02 -0.13417983318E+02  0.21529430742E+02  0.00000000000E+00 0.  1.
         11    1    1    2    0    0 -0.51546665620E+02 -0.23144936741E+02  0.10901836119E+03  0.12279148957E+03  0.00000000000E+00 0. -1.
</event>
<event>
 7    1  0.2989693E-009  0.1223530E+03  0.7561462E-02  0.1239265E+00
          2   -1    0    0  501    0  0.00000000000E+00  0.00000000000E+00  0.40544552164E+03  0.40544552164E+03  0.00000000000E+00 0.  1.
         -2   -1    0    0    0  501 -0.00000000000E+00 -0.00000000000E+00 -0.39199581401E+02  0.39199581401E+02  0.00000000000E+00 0. -1.
         25    2    1    2    0    0  0.42429689753E+02 -0.41465431719E+02  0.23905117802E+03  0.27624817008E+03  0.12509166702E+03 0.  0.
          5    1    3    3  502    0  0.12267800677E+02  0.42816071759E+02  0.11348683496E+03  0.12198544603E+03  0.41800000000E+01 0. -1.
         -5    1    3    3    0  502  0.30161889076E+02 -0.84281503478E+02  0.12556434306E+03  0.15426272404E+03  0.41800000000E+01 0. -1.
        -11    1    1    2    0    0 -0.48104355721E+02  0.67960150502E+02  0.96220131473E+02  0.12724356485E+03  0.00000000000E+00 0.  1.
         11    1    1    2    0    0  0.56746659678E+01 -0.26494718783E+02  0.30974630741E+02  0.41153368109E+02  0.00000000000E+00 0. -1.
</event>
<event>
 7    1  0.2989693E-009  0.9215940E+02  0.7561462E-02  0.1297705E+00
         -4   -1    0    0    0  501 -0.00000000000E+00  0.00000000000E+00  0.24861228043E+03  0.24861228043E+03  0.00000000000E+00 0.  1.
          4   -1    0    0  501    0  0.00000000000E+00 -0.00000000000E+00 -0.57303369802E+02  0.57303369802E+02  0.00000000000E+00 0. -1.
         25    2    1    2    0    0  0.32213948576E+02 -0.12973856237E+02  0.62540717830E+02  0.14410267018E+03  0.12509268059E+03 0.  0.
          5    1    3    3  502    0  0.55752272288E+02  0.31147023494E+02  0.68291214348E+02  0.93592816471E+02  0.41800000000E+01 0.  1.
         -5    1    3    3    0  502 -0.23538323712E+02 -0.44120879731E+02 -0.57504965179E+01  0.50509853708E+02  0.41800000000E+01 0.  1.
        -11    1    1    2    0    0 -0.27802427827E+02 -0.21647790739E+02  0.80411789172E+01  0.36142252217E+02  0.00000000000E+00 0. -1.
         11    1    1    2    0    0 -0.44115207493E+01  0.34621646975E+02  0.12072701388E+03  0.12567072784E+03  0.00000000000E+00 0.  1.
</event>
<event>
 7    1  0.3581491E-009  0.1056521E+03  0.7561462E-02  0.1268840E+00
          3   -1    0    0  501    0  0.00000000000E+00  0.00000000000E+00  0.57117746593E+03  0.57117746593E+03  0.00000000000E+00 0. -1.
         -3   -1    0    0    0  501 -0.00000000000E+00 -0.00000000000E+00 -0.24898860881E+02  0.24898860881E+02  0.00000000000E+00 0.  1.
         25    2    1    2    0    0 -0.33545490176E+02  0.26018105241E+02  0.37341691652E+03  0.39609376982E+03  0.12509132358E+03 0.  0.
          5    1    3    3  502    0  0.83585230941E+01  0.69549738204E+02  0.22838159937E+03  0.23891977382E+03  0.41800000000E+01 0. -1.
         -5    1    3    3    0  502 -0.41904013270E+02 -0.43531632964E+02  0.14503531715E+03  0.15717399600E+03  0.41800000000E+01 0. -1.
        -11    1    1    2    0    0  0.52836990433E+02 -0.66986771147E+01  0.46492666308E+02  0.70697863147E+02  0.00000000000E+00 0.  1.
         11    1    1    2    0    0 -0.19291500258E+02 -0.19319428126E+02  0.12636902222E+03  0.12928469384E+03  0.00000000000E+00 0. -1.
</event>
<event>
 7    1  0.2989693E-009  0.4924797E+02  0.7561462E-02  0.1449440E+00
          2   -1    0    0  501    0  0.00000000000E+00  0.00000000000E+00  0.92256755828E+02  0.92256755828E+02  0.00000000000E+00 0.  1.
         -2   -1    0    0    0  501 -0.00000000000E+00 -0.00000000000E+00 -0.15138159792E+03  0.15138159792E+03  0.00000000000E+00 0. -1.
         25    2    1    2    0    0  0.34378202092E+02 -0.58140338908E+01  0.23802225944E+00  0.12986246616E+03  0.12509412334E+03 0.  0.
          5    1    3    3  502    0  0.46746452399E+02 -0.46324014647E+01 -0.55368749811E+02  0.72731429319E+02  0.41800000000E+01 0.  1.
         -5    1    3    3    0  502 -0.12368250307E+02 -0.11816324261E+01  0.55606772070E+02  0.57131036844E+02  0.41800000000E+01 0.  1.
        -11    1    1    2    0    0 -0.20185301741E+02  0.11153742633E+02  0.21484418401E+02  0.31518766079E+02  0.00000000000E+00 0.  1.
         11    1    1    2    0    0 -0.14192900350E+02 -0.53397087419E+01 -0.80847282749E+02  0.82257121502E+02  0.00000000000E+00 0. -1.
</event>
<event>
 7    1  0.2989693E-009  0.9485915E+02  0.7561462E-02  0.1291494E+00
          2   -1    0    0  501    0  0.00000000000E+00  0.00000000000E+00  0.33031591936E+03  0.33031591936E+03  0.00000000000E+00 0. -1.
         -2   -1    0    0    0  501 -0.00000000000E+00 -0.00000000000E+00 -0.42443737961E+02  0.42443737961E+02  0.00000000000E+00 0.  1.
         25    2    1    2    0    0  0.30771960564E+02  0.33176653994E+02  0.13717122005E+03  0.19107654890E+03  0.12508676989E+03 0.  0.
          5    1    3    3  502    0  0.33486906607E+02 -0.43999770148E+02  0.51761940485E+02  0.75855939582E+02  0.41800000000E+01 0. -1.
         -5    1    3    3    0  502 -0.27149460439E+01  0.77176424142E+02  0.85409279563E+02  0.11522060931E+03  0.41800000000E+01 0. -1.
        -11    1    1    2    0    0 -0.12734427143E+02 -0.36438746396E+02  0.15747847332E+03  0.16214011666E+03  0.00000000000E+00 0. -1.
         11    1    1    2    0    0 -0.18037533420E+02  0.32620924017E+01 -0.67775119612E+01  0.19542991764E+02  0.00000000000E+00 0.  1.
</event>
<event>
 7    1  0.2989693E-009  0.1153315E+03  0.7561462E-02  0.1251004E+00
          1   -1    0    0  501    0  0.00000000000E+00  0.00000000000E+00  0.89287409948E+03  0.89287409948E+03  0.00000000000E+00 0. -1.
         -1   -1    0    0    0  501 -0.00000000000E+00 -0.00000000000E+00 -0.16404176130E+02  0.16404176130E+02  0.00000000000E+00 0.  1.
         25    2    1    2    0    0 -0.38677410055E+02 -0.28003548173E+02  0.58640064786E+03  0.60149198180E+03  0.12508694417E+03 0.  0.
          5    1    3    3  502    0  0.41933272062E+02  0.89480423444E+01  0.24376822201E+03  0.24754572352E+03  0.41800000000E+01 0.  1.
         -5    1    3    3    0  502 -0.80610682117E+02 -0.36951590517E+02  0.34263242584E+03  0.35394625828E+03  0.41800000000E+01 0.  1.
        -11    1    1    2    0    0  0.65331266838E+02  0.30377171710E+02  0.24497438902E+03  0.25534956092E+03  0.00000000000E+00 0.  1.
         11    1    1    2    0    0 -0.26653856782E+02 -0.23736235375E+01  0.45094886478E+02  0.52436732893E+02  0.00000000000E+00 0. -1.
</event>
<event>
 7    1  0.2989693E-009  0.2082801E+03  0.7561462E-02  0.1142935E+00
         -1   -1    0    0    0  501 -0.00000000000E+00  0.00000000000E+00  0.60378533432E+02  0.60378533432E+02  0.00000000000E+00 0.  1.
          1   -1    0    0  501    0  0.00000000000E+00 -0.00000000000E+00 -0.88834845284E+03  0.88834845284E+03  0.00000000000E+00 0. -1.
         25    2    1    2    0    0 -0.19990375033E+03 -0.79832038180E+01 -0.49978935736E+03  0.55268503360E+03  0.12508438632E+03 0.  0.
          5    1    3    3  502    0 -0.12330715096E+02  0.11938724234E+02  0.83746231666E+00  0.17684835715E+02  0.41800000000E+01 0. -1.
         -5    1    3    3    0  502 -0.18757303523E+03 -0.19921928052E+02 -0.50062681968E+03  0.53500019789E+03  0.41800000000E+01 0. -1.
        -11    1    1    2    0    0  0.15900488777E+03  0.32840086424E+02 -0.19062148444E+03  0.25039484009E+03  0.00000000000E+00 0.  1.
         11    1    1    2    0    0  0.40898862554E+02 -0.24856882606E+02 -0.13755907761E+03  0.14564711258E+03  0.00000000000E+00 0. -1.
</event>
<event>
 7    1  0.2989693E-009  0.1266179E+03  0.7561462E-02  0.1232562E+00
         -1   -1    0    0    0  501 -0.00000000000E+00  0.00000000000E+00  0.28715700736E+02  0.28715700736E+02  0.00000000000E+00 0.  1.
          1   -1    0    0  501    0  0.00000000000E+00 -0.00000000000E+00 -0.79316804743E+03  0.79316804743E+03  0.00000000000E+00 0. -1.
         25    2    1    2    0    0 -0.99648684081E+02  0.28946324436E+02 -0.33027286984E+03  0.36809759823E+03  0.12509165973E+03 0.  0.
          5    1    3    3  502    0 -0.10253132093E+02 -0.17362669480E+02  0.21816086715E+01  0.20707989415E+02  0.41800000000E+01 0. -1.
         -5    1    3    3    0  502 -0.89395551987E+02  0.46308993917E+02 -0.33245447851E+03  0.34738960881E+03  0.41800000000E+01 0. -1.
        -11    1    1    2    0    0  0.37187455021E+02 -0.53169968962E+02 -0.22095898864E+03  0.23028857347E+03  0.00000000000E+00 0. -1.
         11    1    1    2    0    0  0.62461229060E+02  0.24223644526E+02 -0.21322048822E+03  0.22349757646E+03  0.00000000000E+00 0.  1.
</event>
<event>
 7    1  0.2989693E-009  0.9696294E+02  0.7561462E-02  0.1286815E+00
          2   -1    0    0  501    0  0.00000000000E+00  0.00000000000E+00  0.20310759206E+03  0.20310759206E+03  0.00000000000E+00 0. -1.
         -2   -1    0    0    0  501 -0.00000000000E+00 -0.00000000000E+00 -0.89679814471E+02  0.89679814471E+02  0.00000000000E+00 0.  1.
         25    2    1    2    0    0  0.18233774958E+02 -0.23791256443E+02 -0.16384814374E+02  0.12967178876E+03  0.12509123161E+03 0.  0.
          5    1    3    3  502    0  0.60114513712E+02 -0.32717501410E+02 -0.41208969281E+02  0.79999007535E+02  0.41800000000E+01 0.  1.
         -5    1    3    3    0  502 -0.41880738754E+02  0.89262449671E+01  0.24824154906E+02  0.49672781225E+02  0.41800000000E+01 0.  1.
        -11    1    1    2    0    0  0.77751886605E+01 -0.25467891731E+02  0.59229989956E+01  0.27279094285E+02  0.00000000000E+00 0.  1.
         11    1    1    2    0    0 -0.26008963618E+02  0.49259148174E+02  0.12388959297E+03  0.13583652349E+03  0.00000000000E+00 0. -1.
</event>
<event>
 7    1  0.2989693E-009  0.1772831E+03  0.7561462E-02  0.1170459E+00
          2   -1    0    0  501    0  0.00000000000E+00  0.00000000000E+00  0.67577863597E+02  0.67577863597E+02  0.00000000000E+00 0. -1.
         -2   -1    0    0    0  501 -0.00000000000E+00 -0.00000000000E+00 -0.67973121412E+03  0.67973121412E+03  0.00000000000E+00 0.  1.
         25    2    1    2    0    0  0.26556460484E+02  0.15064334639E+03 -0.49793890214E+03  0.53571692111E+03  0.12510318099E+03 0.  0.
          5    1    3    3  502    0 -0.41768833916E+02  0.64506690276E+02 -0.12413543254E+03  0.14605761393E+03  0.41800000000E+01 0. -1.
         -5    1    3    3    0  502  0.68325294400E+02  0.86136656112E+02 -0.37380346960E+03  0.38965930717E+03  0.41800000000E+01 0. -1.
        -11    1    1    2    0    0 -0.47265751597E+02 -0.71046042986E+02 -0.93884528311E+02  0.12686960296E+03  0.00000000000E+00 0.  1.
         11    1    1    2    0    0  0.20709291113E+02 -0.79597303402E+02 -0.20329920073E+02  0.84722553653E+02  0.00000000000E+00 0. -1.
</event>
<event>
 7    1  0.2989693E-009  0.1550995E+03  0.7561462E-02  0.1194343E+00
         -1   -1    0    0    0  501 -0.00000000000E+00  0.00000000000E+00  0.48108684741E+03  0.48108684741E+03  0.00000000000E+00 0.  1.
          1   -1    0    0  501    0  0.00000000000E+00 -0.00000000000E+00 -0.72071945572E+02  0.72071945572E+02  0.00000000000E+00 0. -1.
         25    2    1    2    0    0  0.13974164862E+02  0.11860140254E+03  0.34706411528E+03  0.38776601318E+03  0.12508961144E+03 0.  0.
          5    1    3    3  502    0  0.56933194129E+02  0.49386718446E+02  0.86861448848E+02  0.11507745326E+03  0.41800000000E+01 0.  1.
         -5    1    3    3    0  502 -0.42959029268E+02  0.69214684090E+02  0.26020266644E+03  0.27268855992E+03  0.41800000000E+01 0.  1.
        -11    1    1    2    0    0  0.31349871751E+02 -0.98853257975E+02  0.45943149683E+02  0.11342642582E+03  0.00000000000E+00 0. -1.
         11    1    1    2    0    0 -0.45324036612E+02 -0.19748144561E+02  0.16007636870E+02  0.51966353986E+02  0.00000000000E+00 0.  1.
</event>
<event>
 7    1  0.2989693E-009  0.1076406E+03  0.7561462E-02  0.1265003E+00
         -4   -1    0    0    0  501 -0.00000000000E+00  0.00000000000E+00  0.33920235651E+03  0.33920235651E+03  0.00000000000E+00 0.  1.
          4   -1    0    0  501    0  0.00000000000E+00 -0.00000000000E+00 -0.10475545382E+03  0.10475545382E+03  0.00000000000E+00 0. -1.
         25    2    1    2    0    0 -0.30607365967E+02 -0.70135882950E+02 -0.34434268447E+02  0.15063094811E+03  0.12509240887E+03 0.  0.
          5    1    3    3  502    0  0.84744394481E+01  0.80117494681E+01  0.36160032702E+02  0.38223351743E+02  0.41800000000E+01 0. -1.
         -5    1    3    3    0  502 -0.39081805415E+02 -0.78147632418E+02 -0.70594301148E+02  0.11240759637E+03  0.41800000000E+01 0. -1.
        -11    1    1    2    0    0 -0.26135893718E+02  0.12439105626E+01  0.41543239365E+02  0.49096568015E+02  0.00000000000E+00 0.  1.
         11    1    1    2    0    0  0.56743259685E+02  0.68891972388E+02  0.22733793177E+03  0.24423029419E+03  0.00000000000E+00 0. -1.
</event>
<event>
 7    1  0.2989693E-009  0.1191016E+03  0.7561462E-02  0.1244586E+00
          2   -1    0    0  501    0  0.00000000000E+00  0.00000000000E+00  0.92887570334E+02  0.92887570334E+02  0.00000000000E+00 0. -1.
         -2   -1    0    0    0  501 -0.00000000000E+00 -0.00000000000E+00 -0.24129215969E+03  0.24129215969E+03  0.00000000000E+00 0.  1.
         25    2    1    2    0    0 -0.44281642874E+01  0.10069265105E+03 -0.39984706319E+02  0.16554233679E+03  0.12508744907E+03 0.  0.
          5    1    3    3  502    0 -0.25592778792E+02  0.46212787081E+02  0.39998168672E+02  0.66392303117E+02  0.41800000000E+01 0.  1.
         -5    1    3    3    0  502  0.21164614504E+02  0.54479863967E+02 -0.79982874991E+02  0.99150033671E+02  0.41800000000E+01 0.  1.
        -11    1    1    2    0    0 -0.16109607714E+02  0.65752196071E+01 -0.47111463750E+01  0.18026310597E+02  0.00000000000E+00 0. -1.
         11    1    1    2    0    0  0.20537772002E+02 -0.10726787066E+03 -0.10370873666E+03  0.15061108264E+03  0.00000000000E+00 0.  1.
</event>
<event>
 7    1  0.2989693E-009  0.1055208E+03  0.7561462E-02  0.1269097E+00
         -3   -1    0    0    0  501 -0.00000000000E+00  0.00000000000E+00  0.17937171526E+02  0.17937171526E+02  0.00000000000E+00 0.  1.
          3   -1    0    0  501    0  0.00000000000E+00 -0.00000000000E+00 -0.88821543685E+03  0.88821543685E+03  0.00000000000E+00 0. -1.
         25    2    1    2    0    0 -0.61247751567E+02 -0.71639529598E-01 -0.53089150361E+03  0.54885661773E+03  0.12508599450E+03 0.  0.
          5    1    3    3  502    0  0.90073513279E+01 -0.35244530872E+02 -0.52319009753E+02  0.63859693985E+02  0.41800000000E+01 0.  1.
         -5    1    3    3    0  502 -0.70255102895E+02  0.35172891343E+02 -0.47857249386E+03  0.48499692375E+03  0.41800000000E+01 0.  1.
        -11    1    1    2    0    0  0.57052403087E+02 -0.30632907299E+02 -0.30136987750E+03  0.30824852761E+03  0.00000000000E+00 0. -1.
         11    1    1    2    0    0  0.41953484797E+01  0.30704546829E+02 -0.38016884212E+02  0.49047463033E+02  0.00000000000E+00 0.  1.
</event>
<event>
 7    1  0.2989693E-009  0.2077117E+03  0.7561462E-02  0.1143391E+00
          2   -1    0    0  501    0  0.00000000000E+00  0.00000000000E+00  0.18068652250E+04  0.18068652250E+04  0.00000000000E+00 0. -1.
         -2   -1    0    0    0  501 -0.00000000000E+00 -0.00000000000E+00 -0.25370205636E+02  0.25370205636E+02  0.00000000000E+00 0.  1.
         25    2    1    2    0    0  0.55476459209E+02  0.17526981798E+03  0.94157943333E+03  0.96747938853E+03  0.12508953323E+03 0.  0.
          5    1    3    3  502    0 -0.39278453719E+02  0.33533586538E+02  0.22150131103E+03  0.22748099161E+03  0.41800000000E+01 0.  1.
         -5    1    3    3    0  502  0.94754912928E+02  0.14173623144E+03  0.72007812230E+03  0.73999839692E+03  0.41800000000E+01 0.  1.
        -11    1    1    2    0    0 -0.66941297194E+02 -0.12826938725E+03  0.73658682526E+03  0.75066259006E+03  0.00000000000E+00 0.  1.
         11    1    1    2    0    0  0.11464837985E+02 -0.47000430727E+02  0.10332876081E+03  0.11409345209E+03  0.00000000000E+00 0. -1.
</event>
<event>
 7    1  0.2989693E-009  0.1383936E+03  0.7561462E-02  0.1215507E+00
         -1   -1    0    0    0  501 -0.00000000000E+00  0.00000000000E+00  0.87993193526E+02  0.87993193526E+02  0.00000000000E+00 0.  1.
          1   -1    0    0  501    0  0.00000000000E+00 -0.00000000000E+00 -0.29396014352E+03  0.29396014352E+03  0.00000000000E+00 0. -1.
         25    2    1    2    0    0 -0.92260025059E+02  0.61832276794E+02 -0.99019199676E+02  0.19441910049E+03  0.12513529499E+03 0.  0.
          5    1    3    3  502    0  0.34243281560E+01 -0.11487147317E+02  0.20822783972E+02  0.24387318613E+02  0.41800000000E+01 0.  1.
         -5    1    3    3    0  502 -0.95684353215E+02  0.73319424111E+02 -0.11984198365E+03  0.17003178187E+03  0.41800000000E+01 0.  1.
        -11    1    1    2    0    0 -0.12082164750E+02  0.10909851761E+02  0.60782805498E+01  0.17376681643E+02  0.00000000000E+00 0.  1.
         11    1    1    2    0    0  0.10434218981E+03 -0.72742128555E+02 -0.11302603086E+03  0.17015755491E+03  0.00000000000E+00 0. -1.
</event>
<event>
 7    1  0.2989693E-009  0.9685760E+02  0.7561462E-02  0.1287046E+00
         -3   -1    0    0    0  501 -0.00000000000E+00  0.00000000000E+00  0.61665367232E+03  0.61665367232E+03  0.00000000000E+00 0.  1.
          3   -1    0    0  501    0  0.00000000000E+00 -0.00000000000E+00 -0.30413618299E+02  0.30413618299E+02  0.00000000000E+00 0. -1.
         25    2    1    2    0    0  0.29485781388E+02  0.76983900656E+02  0.29391257749E+03  0.32989093132E+03  0.12508993203E+03 0.  0.
          5    1    3    3  502    0  0.28043865203E+01  0.54252657502E+02  0.27283034079E+02  0.60934815814E+02  0.41800000000E+01 0. -1.
         -5    1    3    3    0  502  0.26681394867E+02  0.22731243155E+02  0.26662954341E+03  0.26895611550E+03  0.41800000000E+01 0. -1.
        -11    1    1    2    0    0 -0.34996432459E+02 -0.95569060110E+01  0.19682332239E+03  0.20013871433E+03  0.00000000000E+00 0.  1.
         11    1    1    2    0    0  0.55106510716E+01 -0.67426994645E+02  0.95504154145E+02  0.11703764497E+03  0.00000000000E+00 0. -1.
</event>
<event>
 7    1  0.2989693E-009  0.3420218E+03  0.7561462E-02  0.1065938E+00
         -4   -1    0    0    0  501 -0.00000000000E+00  0.00000000000E+00  0.19293196014E+03  0.19293196014E+03  0.00000000000E+00 0. -1.
          4   -1    0    0  501    0  0.00000000000E+00 -0.00000000000E+00 -0.70089013415E+03  0.70089013415E+03  0.00000000000E+00 0.  1.
         25    2    1    2    0    0  0.32696700746E+03 -0.57277256068E+02 -0.12308282764E+03  0.37548091340E+03  0.12509366827E+03 0.  0.
          5    1    3    3  502    0  0.26760101533E+02 -0.21965729404E+02 -0.55765190647E+02  0.65771005696E+02  0.41800000000E+01 0.  1.
         -5    1    3    3    0  502  0.30020690593E+03 -0.35311526664E+02 -0.67317636992E+02  0.30970990771E+03  0.41800000000E+01 0.  1.
        -11    1    1    2    0    0 -0.15625769981E+03  0.78456086470E+02 -0.20538580774E+03  0.26973163752E+03  0.00000000000E+00 0.  1.
         11    1    1    2    0    0 -0.17070930765E+03 -0.21178830402E+02 -0.17948953863E+03  0.24860954337E+03  0.00000000000E+00 0. -1.
</event>
<event>
 7    1  0.2989693E-009  0.8683929E+02  0.7561462E-02  0.1310691E+00
          2   -1    0    0  501    0  0.00000000000E+00  0.00000000000E+00  0.61910609022E+03  0.61910609022E+03  0.00000000000E+00 0. -1.
         -2   -1    0    0    0  501 -0.00000000000E+00 -0.00000000000E+00 -0.28636472280E+02  0.28636472280E+02  0.00000000000E+00 0.  1.
         25    2    1    2    0    0 -0.14077203290E+02 -0.46235943679E+02  0.18180903060E+03  0.22591610243E+03  0.12509049360E+03 0.  0.
          5    1    3    3  502    0  0.77558441263E+01 -0.48576995963E+02  0.72113538849E+01  0.49893423211E+02  0.41800000000E+01 0. -1.
         -5    1    3    3    0  502 -0.21833047417E+02  0.23410522834E+01  0.17459767671E+03  0.17602267922E+03  0.41800000000E+01 0. -1.
        -11    1    1    2    0    0 -0.27909386076E+02 -0.11819869941E+02  0.82556581985E+02  0.87944484680E+02  0.00000000000E+00 0.  1.
         11    1    1    2    0    0  0.41986589367E+02  0.58055813621E+02  0.32610400536E+03  0.33388197539E+03  0.00000000000E+00 0. -1.
</event>
<event>
 7    1  0.2989693E-009  0.3046710E+03  0.7561462E-02  0.1082929E+00
          1   -1    0    0  501    0  0.00000000000E+00  0.00000000000E+00  0.16075533262E+03  0.16075533262E+03  0.00000000000E+00 0. -1.
         -1   -1    0    0    0  501 -0.00000000000E+00 -0.00000000000E+00 -0.68881382421E+03  0.68881382421E+03  0.00000000000E+00 0.  1.
         25    2    1    2    0    0 -0.29168253799E+03  0.60668248642E+02 -0.13949447967E+03  0.35194292091E+03  0.12508305384E+03 0.  0.
          5    1    3    3  502    0 -0.19075388890E+03  0.17020197187E+02 -0.25069805372E+02  0.19319084032E+03  0.41800000000E+01 0. -1.
         -5    1    3    3    0  502 -0.10092864909E+03  0.43648051456E+02 -0.11442467430E+03  0.15875208059E+03  0.41800000000E+01 0. -1.
        -11    1    1    2    0    0  0.15285217281E+03  0.75884730898E+01 -0.15796507279E+03  0.21994166472E+03  0.00000000000E+00 0.  1.
         11    1    1    2    0    0  0.13883036518E+03 -0.68256721732E+02 -0.23059893913E+03  0.27768457121E+03  0.00000000000E+00 0. -1.
</event>
<event>
 7    1  0.2989693E-009  0.1693090E+03  0.7561462E-02  0.1178570E+00
          1   -1    0    0  501    0  0.00000000000E+00  0.00000000000E+00  0.79892552843E+02  0.79892552843E+02  0.00000000000E+00 0. -1.
         -1   -1    0    0    0  501 -0.00000000000E+00 -0.00000000000E+00 -0.49134042844E+03  0.49134042844E+03  0.00000000000E+00 0.  1.
         25    2    1    2    0    0 -0.97853071134E+02  0.13027197570E+03 -0.25993125183E+03  0.33129754608E+03  0.12509115546E+03 0.  0.
          5    1    3    3  502    0 -0.48519087621E+01 -0.69654309150E+01  0.10459095416E+02  0.14104017987E+02  0.41800000000E+01 0. -1.
         -5    1    3    3    0  502 -0.93001162372E+02  0.13723740662E+03 -0.27039034724E+03  0.31719352809E+03  0.41800000000E+01 0. -1.
        -11    1    1    2    0    0  0.58914877875E+02 -0.69067324403E+02 -0.25104956264E+02  0.94188730558E+02  0.00000000000E+00 0. -1.
         11    1    1    2    0    0  0.38938193259E+02 -0.61204651302E+02 -0.12641166750E+03  0.14574670465E+03  0.00000000000E+00 0.  1.
</event>
<event>
 7    1  0.2989693E-009  0.1298866E+03  0.7561462E-02  0.1227624E+00
         -4   -1    0    0    0  501 -0.00000000000E+00  0.00000000000E+00  0.16869651163E+03  0.16869651163E+03  0.00000000000E+00 0. -1.
          4   -1    0    0  501    0  0.00000000000E+00 -0.00000000000E+00 -0.11009769651E+03  0.11009769651E+03  0.00000000000E+00 0.  1.
         25    2    1    2    0    0 -0.60190212111E+02  0.50327105014E+02  0.10525902480E+02  0.14803337744E+03  0.12508959621E+03 0.  0.
          5    1    3    3  502    0 -0.66505814611E+02 -0.20086821599E+02  0.28113254809E+02  0.75062182722E+02  0.41800000000E+01 0.  1.
         -5    1    3    3    0  502  0.63156024998E+01  0.70413926614E+02 -0.17587352330E+02  0.72971194714E+02  0.41800000000E+01 0.  1.
        -11    1    1    2    0    0  0.47465477622E+01 -0.62425823654E+02  0.12671321011E+02  0.63875469084E+02  0.00000000000E+00 0.  1.
         11    1    1    2    0    0  0.55443664349E+02  0.12098718640E+02  0.35401591631E+02  0.66885361621E+02  0.00000000000E+00 0. -1.
</event>
<event>
 7    1  0.2989693E-009  0.9771814E+02  0.7561462E-02  0.1285169E+00
         -2   -1    0    0    0  501 -0.00000000000E+00  0.00000000000E+00  0.55440882789E+02  0.55440882789E+02  0.00000000000E+00 0.  1.
          2   -1    0    0  501    0  0.00000000000E+00 -0.00000000000E+00 -0.30295601486E+03  0.30295601486E+03  0.00000000000E+00 0. -1.
         25    2    1    2    0    0 -0.44875919833E+02 -0.23883731943E+02 -0.70158336336E+02  0.15216301523E+03  0.12508840959E+03 0.  0.
          5    1    3    3  502    0  0.93700282403E+01  0.19760723507E+02 -0.78795742618E+02  0.81881164363E+02  0.41800000000E+01 0. -1.
         -5    1    3    3    0  502 -0.54245948074E+02 -0.43644455449E+02  0.86374062818E+01  0.70281850866E+02  0.41800000000E+01 0. -1.
        -11    1    1    2    0    0  0.71208579275E+02  0.28476543688E+02 -0.11321321792E+03  0.13674358491E+03  0.00000000000E+00 0.  1.
         11    1    1    2    0    0 -0.26332659442E+02 -0.45928117456E+01 -0.64143577818E+02  0.69490297512E+02  0.00000000000E+00 0. -1.
</event>
<event>
 7    1  0.2989693E-009  0.1066396E+03  0.7561462E-02  0.1266922E+00
         -2   -1    0    0    0  501 -0.00000000000E+00  0.00000000000E+00  0.50108026641E+03  0.50108026641E+03  0.00000000000E+00 0. -1.
          2   -1    0    0  501    0  0.00000000000E+00 -0.00000000000E+00 -0.35933741403E+02  0.35933741403E+02  0.00000000000E+00 0.  1.
         25    2    1    2    0    0  0.13122909212E+02  0.57983206854E+02  0.34650891105E+03  0.37316162045E+03  0.12508759538E+03 0.  0.
          5    1    3    3  502    0 -0.26495450620E+02  0.57917402156E+02  0.73860330593E+02  0.97617904154E+02  0.41800000000E+01 0.  1.
         -5    1    3    3    0  502  0.39618359832E+02  0.65804697882E-01  0.27264858046E+03  0.27554371630E+03  0.41800000000E+01 0.  1.
        -11    1    1    2    0    0 -0.27049595148E+02  0.17917707435E+02  0.54875641869E+02  0.63749987513E+02  0.00000000000E+00 0. -1.
         11    1    1    2    0    0  0.13926685936E+02 -0.75900914289E+02  0.63761972093E+02  0.10010239985E+03  0.00000000000E+00 0.  1.
</event>
<event>
 6    1  0.2989693E-009  0.1247816E+03  0.7561462E-02  0.1235411E+00
          1   -1    0    0  501    0  0.00000000000E+00  0.00000000000E+00  0.34126768893E+03  0.34126768893E+03  0.00000000000E+00 0. -1.
         -1   -1    0    0    0  501 -0.00000000000E+00 -0.00000000000E+00 -0.63678577309E+02  0.63678577309E+02  0.00000000000E+00 0.  1.
          5    1    1    2  502    0 -0.44588040787E+02 -0.18711118637E+02  0.68030749410E+02  0.83569459775E+02  0.41800000000E+01 0.  1.
         -5    1    1    2    0  502  0.54617523990E+02  0.59833667647E+02  0.17789767324E+03  0.19552032185E+03  0.41800000000E+01 0.  1.
        -11    1    1    2    0    0 -0.28971820745E+02  0.32702796980E+02  0.99417271220E+00  0.43701575566E+02  0.00000000000E+00 0. -1.
         11    1    1    2    0    0  0.18942337542E+02 -0.73825345990E+02  0.30666516263E+02  0.82154909055E+02  0.00000000000E+00 0.  1.
</event>
<event>
 6    1  0.2989693E-009  0.9848168E+02  0.7561462E-02  0.1283522E+00
         -1   -1    0    0    0  501 -0.00000000000E+00  0.00000000000E+00  0.44435591922E+02  0.44435591922E+02  0.00000000000E+00 0.  1.
          1   -1    0    0  501    0  0.00000000000E+00 -0.00000000000E+00 -0.27842208040E+03  0.27842208040E+03  0.00000000000E+00 0. -1.
          5    1    1    2  502    0 -0.18526948663E+02 -0.55345837952E+02 -0.83974976773E+02  0.10235076321E+03  0.41800000000E+01 0. -1.
         -5    1    1    2    0  502 -0.83603520865E+01  0.68186688643E+02 -0.66686649250E+02  0.95832674925E+02  0.41800000000E+01 0. -1.
        -11    1    1    2    0    0 -0.20242059540E+02 -0.95477108085E+01 -0.72947617214E+02  0.76303699867E+02  0.00000000000E+00 0. -1.
         11    1    1    2    0    0  0.47129360290E+02 -0.32931398822E+01 -0.10377245238E+02  0.48370534319E+02  0.00000000000E+00 0.  1.
</event>
<event>
 7    1  0.2989693E-009  0.2663780E+03  0.7561462E-02  0.1103371E+00
          1   -1    0    0  501    0  0.00000000000E+00  0.00000000000E+00  0.23933013489E+03  0.23933013489E+03  0.00000000000E+00 0. -1.
         -1   -1    0    0    0  501 -0.00000000000E+00 -0.00000000000E+00 -0.40479985206E+03  0.40479985206E+03  0.00000000000E+00 0.  1.
         25    2    1    2    0    0  0.11499541570E+03  0.22333663377E+03  0.68460084430E+02  0.28885518987E+03  0.12508932783E+03 0.  0.
          5    1    3    3  502    0  0.12712374619E+03  0.22002262696E+03  0.39744743987E+02  0.25723048088E+03  0.41800000000E+01 0. -1.
         -5    1    3    3    0  502 -0.12128330487E+02  0.33140068068E+01  0.28715340443E+02  0.31624708983E+02  0.41800000000E+01 0. -1.
        -11    1    1    2    0    0 -0.14853996163E+02  0.52904505120E+01 -0.48725874808E+01  0.16503701930E+02  0.00000000000E+00 0. -1.
         11    1    1    2    0    0 -0.10014141954E+03 -0.22862708428E+03 -0.22905721412E+03  0.33877109516E+03  0.00000000000E+00 0.  1.
</event>
<event>
 7    1  0.2989693E-009  0.1485743E+03  0.7561462E-02  0.1202236E+00
          2   -1    0    0  501    0  0.00000000000E+00  0.00000000000E+00  0.13401952355E+03  0.13401952355E+03  0.00000000000E+00 0. -1.
         -2   -1    0    0    0  501 -0.00000000000E+00 -0.00000000000E+00 -0.19211144941E+03  0.19211144941E+03  0.00000000000E+00 0.  1.
         25    2    1    2    0    0  0.10018779504E+03  0.60588334322E+02 -0.19342285267E+02  0.17242566519E+03  0.12509174828E+03 0.  0.
          5    1    3    3  502    0  0.66176499750E+02  0.99137545145E+02 -0.19470076280E+02  0.12084758271E+03  0.41800000000E+01 0.  1.
         -5    1    3    3    0  502  0.34011295287E+02 -0.38549210823E+02  0.12779101277E+00  0.51578082483E+02  0.41800000000E+01 0.  1.
        -11    1    1    2    0    0 -0.32364137974E+02 -0.47103668599E+02 -0.58506117431E+02  0.81787277734E+02  0.00000000000E+00 0.  1.
         11    1    1    2    0    0 -0.67823657062E+02 -0.13484665723E+02  0.19756476841E+02  0.71918030035E+02  0.00000000000E+00 0. -1.
</event>
<event>
 7    1  0.2989693E-009  0.1612831E+03  0.7561462E-02  0.1187256E+00
         -2   -1    0    0    0  501 -0.00000000000E+00  0.00000000000E+00  0.39464595514E+02  0.39464595514E+02  0.00000000000E+00 0.  1.
          2   -1    0    0  501    0  0.00000000000E+00 -0.00000000000E+00 -0.74869374437E+03  0.74869374437E+03  0.00000000000E+00 0. -1.
         25    2    1    2    0    0 -0.14466581928E+02 -0.13269944121E+03 -0.37764080689E+03  0.41961718314E+03  0.12509027807E+03 0.  0.
          5    1    3    3  502    0  0.37661412761E+01 -0.14122141129E+03 -0.22575335218E+03  0.26634511306E+03  0.41800000000E+01 0.  1.
         -5    1    3    3    0  502 -0.18232723204E+02  0.85219700856E+01 -0.15188745471E+03  0.15327207008E+03  0.41800000000E+01 0.  1.
        -11    1    1    2    0    0 -0.12189187612E+02  0.13345522423E+03 -0.28262705798E+03  0.31278894972E+03  0.00000000000E+00 0.  1.
         11    1    1    2    0    0  0.26655769540E+02 -0.75578302287E+00 -0.48961283990E+02  0.55752207021E+02  0.00000000000E+00 0. -1.
</event>
<event>
 7    1  0.2989693E-009  0.1008998E+03  0.7561462E-02  0.1278415E+00
         -2   -1    0    0    0  501 -0.00000000000E+00  0.00000000000E+00  0.15313291206E+02  0.15313291206E+02  0.00000000000E+00 0.  1.
          2   -1    0    0  501    0  0.00000000000E+00 -0.00000000000E+00 -0.97292482688E+03  0.97292482688E+03  0.00000000000E+00 0. -1.
         25    2    1    2    0    0  0.42531686361E+02  0.32752243921E+02 -0.56677600629E+03  0.58289341100E+03  0.12509209988E+03 0.  0.
          5    1    3    3  502    0  0.67885915795E+02  0.43264431551E+02 -0.53350391914E+03  0.53955927639E+03  0.41800000000E+01 0. -1.
         -5    1    3    3    0  502 -0.25354229434E+02 -0.10512187630E+02 -0.33272087152E+02  0.43334134610E+02  0.41800000000E+01 0. -1.
        -11    1    1    2    0    0  0.22372173326E+02 -0.11343565084E+02 -0.35326924586E+02  0.43326460840E+02  0.00000000000E+00 0. -1.
         11    1    1    2    0    0 -0.64903859688E+02 -0.21408678837E+02 -0.35550860480E+03  0.36201824625E+03  0.00000000000E+00 0.  1.
</event>
<event>
 7    1  0.2989693E-009  0.1079248E+03  0.7561462E-02  0.1264462E+00
         -1   -1    0    0    0  501 -0.00000000000E+00  0.00000000000E+00  0.95809965359E+01  0.95809965359E+01  0.00000000000E+00 0.  1.
          1   -1    0    0  501    0  0.00000000000E+00 -0.00000000000E+00 -0.20481041851E+04  0.20481041851E+04  0.00000000000E+00 0. -1.
         25    2    1    2    0    0  0.34530513653E+02 -0.23413134119E+02 -0.17054472696E+04  0.17105377319E+04  0.12509361093E+03 0.  0.
          5    1    3    3  502    0  0.24554165744E+02 -0.74953696131E+02 -0.97425090687E+03  0.97744732111E+03  0.41800000000E+01 0.  1.
         -5    1    3    3    0  502  0.99763479085E+01  0.51540562013E+02 -0.73119636273E+03  0.73309041074E+03  0.41800000000E+01 0.  1.
        -11    1    1    2    0    0 -0.19789352453E+02 -0.25978843826E+02 -0.52147990925E+02  0.61529925683E+02  0.00000000000E+00 0.  1.
         11    1    1    2    0    0 -0.14741161199E+02  0.49391977944E+02 -0.28092792803E+03  0.28561752409E+03  0.00000000000E+00 0. -1.
</event>
<event>
 7    1  0.2989693E-009  0.1264668E+03  0.7561462E-02  0.1232795E+00
         -1   -1    0    0    0  501 -0.00000000000E+00  0.00000000000E+00  0.74439310392E+03  0.74439310392E+03  0.00000000000E+00 0.  1.
          1   -1    0    0  501    0  0.00000000000E+00 -0.00000000000E+00 -0.25671193430E+02  0.25671193430E+02  0.00000000000E+00 0. -1.
         25    2    1    2    0    0  0.39838503646E+02 -0.74114207098E+02  0.34630529484E+03  0.37769683065E+03  0.12509003389E+03 0.  0.
          5    1    3    3  502    0  0.25427458205E+02  0.23590668744E+02  0.29170557407E+02  0.45513394753E+02  0.41800000000E+01 0.  1.
         -5    1    3    3    0  502  0.14411045441E+02 -0.97704875842E+02  0.31713473744E+03  0.33218343590E+03  0.41800000000E+01 0.  1.
        -11    1    1    2    0    0 -0.56919768566E+02  0.82411108885E+02  0.26521284655E+03  0.28349480577E+03  0.00000000000E+00 0.  1.
         11    1    1    2    0    0  0.17081264920E+02 -0.82969017874E+01  0.10720376910E+03  0.10887266093E+03  0.00000000000E+00 0. -1.
</event>
<event>
 7    1  0.2989693E-009  0.1170906E+03  0.7561462E-02  0.1247975E+00
          1   -1    0    0  501    0  0.00000000000E+00  0.00000000000E+00  0.47495853701E+03  0.47495853701E+03  0.00000000000E+00 0. -1.
         -1   -1    0    0    0  501 -0.00000000000E+00 -0.00000000000E+00 -0.29316860405E+02  0.29316860405E+02  0.00000000000E+00 0.  1.
         25    2    1    2    0    0 -0.41327478511E+02  0.77144478505E+01  0.27847765971E+03  0.30816456819E+03  0.12509244960E+03 0.  0.
          5    1    3    3  502    0  0.44199214573E+02  0.12719788355E+02  0.99329226858E+02  0.10954054634E+03  0.41800000000E+01 0.  1.
         -5    1    3    3    0  502 -0.85526693084E+02 -0.50053405045E+01  0.17914843285E+03  0.19862402185E+03  0.41800000000E+01 0.  1.
        -11    1    1    2    0    0 -0.18225230013E+02  0.27535374047E+02  0.61450207057E+02  0.69760187645E+02  0.00000000000E+00 0.  1.
         11    1    1    2    0    0  0.59552708524E+02 -0.35249821897E+02  0.10571380985E+03  0.12635064158E+03  0.00000000000E+00 0. -1.
</event>
<event>
 7    1  0.2989693E-009  0.1891783E+03  0.7561462E-02  0.1159205E+00
         -2   -1    0    0    0  501 -0.00000000000E+00  0.00000000000E+00  0.49489170070E+02  0.49489170070E+02  0.00000000000E+00 0.  1.
          2   -1    0    0  501    0  0.00000000000E+00 -0.00000000000E+00 -0.87551291266E+03  0.87551291266E+03  0.00000000000E+00 0. -1.
         25    2    1    2    0    0  0.10013273186E+03 -0.14680158967E+03 -0.43642594911E+03  0.48753691093E+03  0.12508940698E+03 0.  0.
          5    1    3    3  502    0  0.35538302383E+02 -0.14993790633E+02 -0.15582280226E+02  0.41809861885E+02  0.41800000000E+01 0.  1.
         -5    1    3    3    0  502  0.64594429475E+02 -0.13180779903E+03 -0.42084366889E+03  0.44572704904E+03  0.41800000000E+01 0.  1.
        -11    1    1    2    0    0 -0.40447991656E+01  0.68891414909E+02 -0.90613831342E+02  0.11390019262E+03  0.00000000000E+00 0.  1.
         11    1    1    2    0    0 -0.96087932692E+02  0.77910174757E+02 -0.29898396214E+03  0.32356497918E+03  0.00000000000E+00 0. -1.
</event>
<event>
 7    1  0.2989693E-009  0.1774382E+03  0.7561462E-02  0.1170306E+00
          1   -1    0    0  501    0  0.00000000000E+00  0.00000000000E+00  0.14305773253E+04  0.14305773253E+04  0.00000000000E+00 0. -1.
         -1   -1    0    0    0  501 -0.00000000000E+00 -0.00000000000E+00 -0.24309711372E+02  0.24309711372E+02  0.00000000000E+00 0.  1.
         25    2    1    2    0    0 -0.25553557397E+02 -0.15066702555E+03  0.77368119366E+03  0.79848917244E+03  0.12509529249E+03 0.  0.
          5    1    3    3  502    0  0.20875137923E+02  0.74661456673E+01  0.20958045252E+03  0.21079125502E+03  0.41800000000E+01 0.  1.
         -5    1    3    3    0  502 -0.46428695319E+02 -0.15813317122E+03  0.56410074113E+03  0.58769791742E+03  0.41800000000E+01 0.  1.
        -11    1    1    2    0    0  0.39987067599E+02  0.42596708711E+02  0.13661329969E+03  0.14858209455E+03  0.00000000000E+00 0.  1.
         11    1    1    2    0    0 -0.14433510202E+02  0.10807031684E+03  0.49597312063E+03  0.50781576973E+03  0.00000000000E+00 0. -1.
</event>
<event>
 7    1  0.2989693E-009  0.1252999E+03  0.7561462E-02  0.1234601E+00
          1   -1    0    0  501    0  0.00000000000E+00  0.00000000000E+00  0.12136867412E+03  0.12136867412E+03  0.00000000000E+00 0. -1.
         -1   -1    0    0    0  501 -0.00000000000E+00 -0.00000000000E+00 -0.15866282945E+03  0.15866282945E+03  0.00000000000E+00 0.  1.
         25    2    1    2    0    0 -0.33392924662E+02  0.70901283804E+02  0.11973307630E+02  0.14810367229E+03  0.12509699512E+03 0.  0.
          5    1    3    3  502    0 -0.24956758045E+02  0.97795808454E+02  0.39518771370E+02  0.10847149678E+03  0.41800000000E+01 0.  1.
         -5    1    3    3    0  502 -0.84361666168E+01 -0.26894524650E+02 -0.27545463740E+02  0.39632175514E+02  0.41800000000E+01 0.  1.
        -11    1    1    2    0    0 -0.27293353654E+02 -0.49890061643E+02 -0.32722119503E+02  0.65610079326E+02  0.00000000000E+00 0.  1.
         11    1    1    2    0    0  0.60686278316E+02 -0.21011222161E+02 -0.16545343459E+02  0.66317751942E+02  0.00000000000E+00 0. -1.
</event>
<event>
 7    1  0.2989693E-009  0.1442918E+03  0.7561462E-02  0.1207668E+00
          1   -1    0    0  501    0  0.00000000000E+00  0.00000000000E+00  0.15485376358E+03  0.15485376358E+03  0.00000000000E+00 0. -1.
         -1   -1    0    0    0  501 -0.00000000000E+00 -0.00000000000E+00 -0.18614324626E+03  0.18614324626E+03  0.00000000000E+00 0.  1.
         25    2    1    2    0    0  0.10782031446E+03 -0.61013974314E+02 -0.58092244124E+02  0.18539397196E+03  0.12509312827E+03 0.  0.
          5    1    3    3  502    0  0.99443827141E+02 -0.31581210484E+02  0.15516225830E+02  0.10556833463E+03  0.41800000000E+01 0. -1.
         -5    1    3    3    0  502  0.83764873215E+01 -0.29432763830E+02 -0.73608469954E+02  0.79825637332E+02  0.41800000000E+01 0. -1.
        -11    1    1    2    0    0 -0.99304883692E+02  0.80485480862E+01  0.17133481029E+02  0.10109300284E+03  0.00000000000E+00 0. -1.
         11    1    1    2    0    0 -0.85154307704E+01  0.52965426228E+02  0.96692804078E+01  0.54510035042E+02  0.00000000000E+00 0.  1.
</event>
<event>
 7    1  0.2989693E-009  0.1011708E+03  0.7561462E-02  0.1277853E+00
         -1   -1    0    0    0  501 -0.00000000000E+00  0.00000000000E+00  0.21443230665E+03  0.21443230665E+03  0.00000000000E+00 0.  1.
          1   -1    0    0  501    0  0.00000000000E+00 -0.00000000000E+00 -0.70360512873E+02  0.70360512873E+02  0.00000000000E+00 0. -1.
         25    2    1    2    0    0  0.15822475464E+02  0.21446149286E+01  0.15731890781E+02  0.12708330176E+03  0.12509085936E+03 0.  0.
          5    1    3    3  502    0  0.11964326771E+02  0.56679718693E+02  0.36335600756E+02  0.68509006039E+02  0.41800000000E+01 0.  1.
         -5    1    3    3    0  502  0.38581486933E+01 -0.54535103764E+02 -0.20603709975E+02  0.58574295716E+02  0.41800000000E+01 0.  1.
        -11    1    1    2    0    0  0.36546169348E+02  0.37217886338E+01  0.36256216225E+02  0.51613829732E+02  0.00000000000E+00 0. -1.
         11    1    1    2    0    0 -0.52368644812E+02 -0.58664035623E+01  0.92083686770E+02  0.10609568803E+03  0.00000000000E+00 0.  1.
</event>
<event>
 7    1  0.2989693E-009  0.8712066E+02  0.7561462E-02  0.1309978E+00
          4   -1    0    0  501    0  0.00000000000E+00  0.00000000000E+00  0.55111249407E+02  0.55111249407E+02  0.00000000000E+00 0. -1.
         -4   -1    0    0    0  501 -0.00000000000E+00 -0.00000000000E+00 -0.27793749602E+03  0.27793749602E+03  0.00000000000E+00 0.  1.
         25    2    1    2    0    0  0.44773383536E+02 -0.10631933237E+02 -0.17677370174E+03  0.22139130822E+03  0.12508987109E+03 0.  0.
          5    1    3    3  502    0 -0.21893661566E+02  0.22076014571E+02 -0.12954005262E+03  0.13328458451E+03  0.41800000000E+01 0. -1.
         -5    1    3    3    0  502  0.66667045102E+02 -0.32707947808E+02 -0.47233649119E+02  0.88106723702E+02  0.41800000000E+01 0. -1.
        -11    1    1    2    0    0 -0.44347863502E+02  0.27131602173E+02 -0.67116697833E+02  0.84897043304E+02  0.00000000000E+00 0.  1.
         11    1    1    2    0    0 -0.42552003409E+00 -0.16499668936E+02  0.21064152958E+02  0.26760393909E+02  0.00000000000E+00 0. -1.
</event>
<event>
 7    1  0.2989693E-009  0.2295288E+03  0.7561462E-02  0.1126972E+00
         -2   -1    0    0    0  501 -0.00000000000E+00  0.00000000000E+00  0.15848157851E+04  0.15848157851E+04  0.00000000000E+00 0.  1.
          2   -1    0    0  501    0  0.00000000000E+00 -0.00000000000E+00 -0.45053445379E+02  0.45053445379E+02  0.00000000000E+00 0. -1.
         25    2    1    2    0    0 -0.14519953504E+03  0.16179237138E+03  0.11246996798E+04  0.11523268568E+04  0.12509252047E+03 0.  0.
          5    1    3    3  502    0 -0.14778962550E+03  0.14888882195E+03  0.11169587549E+04  0.11364963648E+04  0.41800000000E+01 0. -1.
         -5    1    3    3    0  502  0.25900904601E+01  0.12903549432E+02  0.77409248704E+01  0.15830491919E+02  0.41800000000E+01 0. -1.
        -11    1    1    2    0    0  0.21830988352E+02 -0.90160010099E+02  0.18220718657E+03  0.20446241295E+03  0.00000000000E+00 0. -1.
         11    1    1    2    0    0  0.12336854669E+03 -0.71632361281E+02  0.23285547334E+03  0.27307996074E+03  0.00000000000E+00 0.  1.
</event>
<event>
 7    1  0.2989693E-009  0.1445197E+03  0.7561462E-02  0.1207374E+00
          2   -1    0    0  501    0  0.00000000000E+00  0.00000000000E+00  0.80298716555E+02  0.80298716555E+02  0.00000000000E+00 0. -1.
         -2   -1    0    0    0  501 -0.00000000000E+00 -0.00000000000E+00 -0.32583903661E+03  0.32583903661E+03  0.00000000000E+00 0.  1.
         25    2    1    2    0    0 -0.30833792201E+02 -0.11546749895E+03 -0.13926737102E+03  0.22209485087E+03  0.12508899271E+03 0.  0.
          5    1    3    3  502    0  0.28245019417E+02 -0.94739404186E+01  0.80963538728E+01  0.31153812206E+02  0.41800000000E+01 0. -1.
         -5    1    3    3    0  502 -0.59078811618E+02 -0.10599355853E+03 -0.14736372489E+03  0.19094103866E+03  0.41800000000E+01 0. -1.
        -11    1    1    2    0    0  0.52376517480E+02  0.72123085905E+02 -0.30652424404E+02  0.94258210388E+02  0.00000000000E+00 0. -1.
         11    1    1    2    0    0 -0.21542725279E+02  0.43344413048E+02 -0.75620524637E+02  0.89784691910E+02  0.00000000000E+00 0.  1.
</event>
<event>
 7    1  0.2989693E-009  0.8582797E+02  0.7561462E-02  0.1313281E+00
          1   -1    0    0  501    0  0.00000000000E+00  0.00000000000E+00  0.27082145826E+02  0.27082145826E+02  0.00000000000E+00 0. -1.
         -1   -1    0    0    0  501 -0.00000000000E+00 -0.00000000000E+00 -0.51221845777E+03  0.51221845777E+03  0.00000000000E+00 0.  1.
         25    2    1    2    0    0  0.49995957586E+01  0.30501628764E+02 -0.19234854298E+03  0.23151548381E+03  0.12508441926E+03 0.  0.
          5    1    3    3  502    0  0.49430636321E+02  0.35311960581E+01 -0.23893304267E+02  0.55174446453E+02  0.41800000000E+01 0. -1.
         -5    1    3    3    0  502 -0.44431040562E+02  0.26970432706E+02 -0.16845523872E+03  0.17634103736E+03  0.41800000000E+01 0. -1.
        -11    1    1    2    0    0  0.10485707135E+02 -0.46409343510E+02 -0.27568588910E+03  0.27976148175E+03  0.00000000000E+00 0.  1.
         11    1    1    2    0    0 -0.15485302893E+02  0.15907714746E+02 -0.17101879861E+02  0.28023638039E+02  0.00000000000E+00 0. -1.
</event>
<event>
 7    1  0.2989693E-009  0.1144130E+03  0.7561462E-02  0.1252609E+00
         -2   -1    0    0    0  501 -0.00000000000E+00  0.00000000000E+00  0.14193961838E+03  0.14193961838E+03  0.00000000000E+00 0.  1.
          2   -1    0    0  501    0  0.00000000000E+00 -0.00000000000E+00 -0.14501233802E+03  0.14501233802E+03  0.00000000000E+00 0. -1.
         25    2    1    2    0    0  0.63954242138E+01 -0.79867805811E+02  0.48007876707E+02  0.15611836285E+03  0.12509364147E+03 0.  0.
          5    1    3    3  502    0 -0.58279532452E+02 -0.24700804210E+02  0.19712640656E+02  0.66428113274E+02  0.41800000000E+01 0.  1.
         -5    1    3    3    0  502  0.64674956666E+02 -0.55167001601E+02  0.28295236051E+02  0.89690249573E+02  0.41800000000E+01 0.  1.
        -11    1    1    2    0    0 -0.10382239988E+01  0.44200114862E+02  0.21965534085E+02  0.49368134971E+02  0.00000000000E+00 0.  1.
         11    1    1    2    0    0 -0.53572002151E+01  0.35667690949E+02 -0.73046130433E+02  0.81465458589E+02  0.00000000000E+00 0. -1.
</event>
<event>
 7    1  0.2989693E-009  0.8728603E+02  0.7561462E-02  0.1309560E+00
         -2   -1    0    0    0  501 -0.00000000000E+00  0.00000000000E+00  0.15147451377E+03  0.15147451377E+03  0.00000000000E+00 0.  1.
          2   -1    0    0  501    0  0.00000000000E+00 -0.00000000000E+00 -0.13918691188E+03  0.13918691188E+03  0.00000000000E+00 0. -1.
         25    2    1    2    0    0 -0.55789281932E+02  0.44228474822E+02 -0.60112462778E+02  0.15597962408E+03  0.12509009946E+03 0.  0.
          5    1    3    3  502    0 -0.43099322504E+01  0.25853840079E+01  0.37438732190E+02  0.38005141685E+02  0.41800000000E+01 0.  1.
         -5    1    3    3    0  502 -0.51479349681E+02  0.41643090814E+02 -0.97551194968E+02  0.11797448239E+03  0.41800000000E+01 0.  1.
        -11    1    1    2    0    0  0.68982852518E+02 -0.16420417030E+02  0.75702160663E+02  0.10372599079E+03  0.00000000000E+00 0.  1.
         11    1    1    2    0    0 -0.13193570586E+02 -0.27808057791E+02 -0.33020959947E+01  0.30955810777E+02  0.00000000000E+00 0. -1.
</event>
<event>
 7    1  0.2989693E-009  0.1040131E+03  0.7561462E-02  0.1272076E+00
          4   -1    0    0  501    0  0.00000000000E+00  0.00000000000E+00  0.21180242367E+02  0.21180242367E+02  0.00000000000E+00 0. -1.
         -4   -1    0    0    0  501 -0.00000000000E+00 -0.00000000000E+00 -0.70869413426E+03  0.70869413426E+03  0.00000000000E+00 0.  1.
         25    2    1    2    0    0  0.45711331201E+02  0.33205874755E+02 -0.39032547721E+03  0.41375481116E+03  0.12508760802E+03 0.  0.
          5    1    3    3  502    0  0.20768099538E+02 -0.27678407245E+02 -0.29951324646E+03  0.30153451774E+03  0.41800000000E+01 0. -1.
         -5    1    3    3    0  502  0.24943231663E+02  0.60884282000E+02 -0.90812230753E+02  0.11222029342E+03  0.41800000000E+01 0. -1.
        -11    1    1    2    0    0 -0.73294192120E+02 -0.30972573272E+02 -0.23328090459E+03  0.24647782727E+03  0.00000000000E+00 0.  1.
         11    1    1    2    0    0  0.27582860918E+02 -0.22333014829E+01 -0.63907510100E+02  0.69641738197E+02  0.00000000000E+00 0. -1.
</event>
<event>
 6    1  0.2989693E-009  0.3310054E+03  0.7561462E-02  0.1070693E+00
          1   -1    0    0  501    0  0.00000000000E+00  0.00000000000E+00  0.62818052283E+03  0.62818052283E+03  0.00000000000E+00 0. -1.
         -1   -1    0    0    0  501 -0.00000000000E+00 -0.00000000000E+00 -0.18590695949E+03  0.18590695949E+03  0.00000000000E+00 0.  1.
          5    1    1    2  502    0 -0.21542345598E+03  0.14600207085E+03  0.90694705284E+02  0.27562088464E+03  0.41800000000E+01 0. -1.
         -5    1    1    2    0  502 -0.74304673353E+02 -0.95432744180E+01  0.74737569907E+02  0.10590295239E+03  0.41800000000E+01 0. -1.
        -11    1    1    2    0    0  0.15968038166E+02 -0.28024593148E+02  0.55516355140E+02  0.64206088123E+02  0.00000000000E+00 0. -1.
         11    1    1    2    0    0  0.27376009117E+03 -0.10843420329E+03  0.22132493301E+03  0.36835755718E+03  0.00000000000E+00 0.  1.
</event>
<event>
 7    1  0.2989693E-009  0.7844514E+02  0.7561462E-02  0.1333523E+00
          1   -1    0    0  501    0  0.00000000000E+00  0.00000000000E+00  0.24070604585E+03  0.24070604585E+03  0.00000000000E+00 0.  1.
         -1   -1    0    0    0  501 -0.00000000000E+00 -0.00000000000E+00 -0.68552424515E+02  0.68552424515E+02  0.00000000000E+00 0. -1.
         25    2    1    2    0    0 -0.51947816322E+02  0.97982798334E+01  0.15136520357E+03  0.20335390942E+03  0.12508719246E+03 0.  0.
          5    1    3    3  502    0 -0.42714527592E+02  0.12636369501E+02  0.17332275113E+03  0.17900407023E+03  0.41800000000E+01 0. -1.
         -5    1    3    3    0  502 -0.92332887301E+01 -0.28380896676E+01 -0.21957547560E+02  0.24349839190E+02  0.41800000000E+01 0. -1.
        -11    1    1    2    0    0  0.11891608233E+02 -0.46074031686E+02  0.20629534634E+02  0.51863324627E+02  0.00000000000E+00 0.  1.
         11    1    1    2    0    0  0.40056208089E+02  0.36275751852E+02  0.15888313563E+00  0.54041236318E+02  0.00000000000E+00 0. -1.
</event>
<event>
 7    1  0.2989693E-009  0.1156135E+03  0.7561462E-02  0.1250514E+00
          1   -1    0    0  501    0  0.00000000000E+00  0.00000000000E+00  0.97263016451E+03  0.97263016451E+03  0.00000000000E+00 0. -1.
         -1   -1    0    0    0  501 -0.00000000000E+00 -0.00000000000E+00 -0.17594857210E+02  0.17594857210E+02  0.00000000000E+00 0.  1.
         25    2    1    2    0    0  0.51340480266E+02 -0.12264570961E+02  0.62574772087E+03  0.64030766370E+03  0.12508968543E+03 0.  0.
          5    1    3    3  502    0  0.87327699168E+02  0.12077088400E+01  0.30647250805E+03  0.31870120206E+03  0.41800000000E+01 0. -1.
         -5    1    3    3    0  502 -0.35987218902E+02 -0.13472279801E+02  0.31927521282E+03  0.32160646164E+03  0.41800000000E+01 0. -1.
        -11    1    1    2    0    0  0.23750107474E+02 -0.11484804646E+02  0.27850549209E+02  0.38361718340E+02  0.00000000000E+00 0.  1.
         11    1    1    2    0    0 -0.75090587739E+02  0.23749375607E+02  0.30143703723E+03  0.31155563969E+03  0.00000000000E+00 0. -1.
</event>
<event>
 7    1  0.2989693E-009  0.1496505E+03  0.7561462E-02  0.1200903E+00
         -1   -1    0    0    0  501 -0.00000000000E+00  0.00000000000E+00  0.57290419373E+03  0.57290419373E+03  0.00000000000E+00 0.  1.
          1   -1    0    0  501    0  0.00000000000E+00 -0.00000000000E+00 -0.49731691128E+02  0.49731691128E+02  0.00000000000E+00 0. -1.
         25    2    1    2    0    0 -0.58075188097E+02 -0.98123104847E+02  0.38765611427E+03  0.42299608118E+03  0.12509016983E+03 0.  0.
          5    1    3    3  502    0  0.25968634458E+02 -0.62492165528E+02  0.23961645533E+03  0.24902441405E+03  0.41800000000E+01 0.  1.
         -5    1    3    3    0  502 -0.84043822555E+02 -0.35630939319E+02  0.14803965894E+03  0.17397166713E+03  0.41800000000E+01 0.  1.
        -11    1    1    2    0    0 -0.20904959402E+02  0.23634875846E+02  0.58712173231E+02  0.66653911883E+02  0.00000000000E+00 0.  1.
         11    1    1    2    0    0  0.78980147499E+02  0.74488229001E+02  0.76804215108E+02  0.13298589180E+03  0.00000000000E+00 0. -1.
</event>
<event>
 7    1  0.2989693E-009  0.1284766E+03  0.7561462E-02  0.1229734E+00
         -2   -1    0    0    0  501 -0.00000000000E+00  0.00000000000E+00  0.10789163372E+03  0.10789163372E+03  0.00000000000E+00 0.  1.
          2   -1    0    0  501    0  0.00000000000E+00 -0.00000000000E+00 -0.22790109064E+03  0.22790109064E+03  0.00000000000E+00 0. -1.
         25    2    1    2    0    0  0.97604887749E+02 -0.38046120345E+02 -0.22796017544E+02  0.16474927399E+03  0.12509373877E+03 0.  0.
          5    1    3    3  502    0 -0.19063571775E+02 -0.25432764349E+02 -0.34076484064E+02  0.46785942733E+02  0.41800000000E+01 0.  1.
         -5    1    3    3    0  502  0.11666845952E+03 -0.12613355996E+02  0.11280466520E+02  0.11796333126E+03  0.41800000000E+01 0.  1.
        -11    1    1    2    0    0 -0.62778036068E+02  0.11834411044E+02  0.67663913259E+00  0.63887345678E+02  0.00000000000E+00 0.  1.
         11    1    1    2    0    0 -0.34826851681E+02  0.26211709301E+02 -0.97890078502E+02  0.10715610469E+03  0.00000000000E+00 0. -1.
</event>
<event>
 7    1  0.2989693E-009  0.1038150E+03  0.7561462E-02  0.1272472E+00
         -1   -1    0    0    0  501 -0.00000000000E+00  0.00000000000E+00  0.27729336163E+03  0.27729336163E+03  0.00000000000E+00 0.  1.
          1   -1    0    0  501    0  0.00000000000E+00 -0.00000000000E+00 -0.50571824270E+02  0.50571824270E+02  0.00000000000E+00 0. -1.
         25    2    1    2    0    0  0.28423138911E+02 -0.36441972141E+02  0.10208634684E+03  0.16794651053E+03  0.12509402874E+03 0.  0.
          5    1    3    3  502    0  0.67521100333E+02 -0.43651799634E+02  0.30771425873E+02  0.86191250436E+02  0.41800000000E+01 0. -1.
         -5    1    3    3    0  502 -0.39097961422E+02  0.72098274932E+01  0.71314920967E+02  0.81755260090E+02  0.41800000000E+01 0. -1.
        -11    1    1    2    0    0  0.12911352746E+02  0.43352607818E+02  0.10356327637E+03  0.11301107842E+03  0.00000000000E+00 0.  1.
         11    1    1    2    0    0 -0.41334491656E+02 -0.69106356776E+01  0.21071914157E+02  0.46907596956E+02  0.00000000000E+00 0. -1.
</event>
<event>
 7    1  0.2989693E-009  0.1093876E+03  0.7561462E-02  0.1261708E+00
         -1   -1    0    0    0  501 -0.00000000000E+00  0.00000000000E+00  0.15721548635E+03  0.15721548635E+03  0.00000000000E+00 0.  1.
          1   -1    0    0  501    0  0.00000000000E+00 -0.00000000000E+00 -0.12614859234E+03  0.12614859234E+03  0.00000000000E+00 0. -1.
         25    2    1    2    0    0  0.11192702832E+02  0.83509508223E+02 -0.20251143144E+02  0.15217131556E+03  0.12508751305E+03 0.  0.
          5    1    3    3  502    0 -0.46052522217E+02  0.45087795016E+02  0.25375816855E+02  0.69391271375E+02  0.41800000000E+01 0.  1.
         -5    1    3    3    0  502  0.57245225048E+02  0.38421713207E+02 -0.45626959999E+02  0.82780044185E+02  0.41800000000E+01 0.  1.
        -11    1    1    2    0    0 -0.11386957138E+02 -0.39466427829E+02 -0.21293708666E+02  0.46267523677E+02  0.00000000000E+00 0. -1.
         11    1    1    2    0    0  0.19425430680E+00 -0.44043080395E+02  0.72611745815E+02  0.84925239451E+02  0.00000000000E+00 0.  1.
</event>
<event>
 7    1  0.2989693E-009  0.1650423E+03  0.7561462E-02  0.1183119E+00
         -2   -1    0    0    0  501 -0.00000000000E+00  0.00000000000E+00  0.38559761801E+02  0.38559761801E+02  0.00000000000E+00 0.  1.
          2   -1    0    0  501    0  0.00000000000E+00 -0.00000000000E+00 -0.92625948053E+03  0.92625948053E+03  0.00000000000E+00 0. -1.
         25    2    1    2    0    0 -0.14482747090E+03 -0.81771274254E+01 -0.32677701815E+03  0.37877791378E+03  0.12509047378E+03 0.  0.
          5    1    3    3  502    0 -0.18660758123E+02  0.44000290495E+02 -0.45654337183E+02  0.66227187476E+02  0.41800000000E+01 0.  1.
         -5    1    3    3    0  502 -0.12616671278E+03 -0.52177417920E+02 -0.28112268097E+03  0.31255072630E+03  0.41800000000E+01 0.  1.
        -11    1    1    2    0    0  0.98033567022E+02  0.10919499694E+02 -0.49745614398E+03  0.50714143088E+03  0.00000000000E+00 0. -1.
         11    1    1    2    0    0  0.46793903882E+02 -0.27423722687E+01 -0.63466556594E+02  0.78899897668E+02  0.00000000000E+00 0.  1.
</event>
<event>
 7    1  0.2989693E-009  0.1417239E+03  0.7561462E-02  0.1211028E+00
         -1   -1    0    0    0  501 -0.00000000000E+00  0.00000000000E+00  0.45753144665E+02  0.45753144665E+02  0.00000000000E+00 0.  1.
          1   -1    0    0  501    0  0.00000000000E+00 -0.00000000000E+00 -0.64516061604E+03  0.64516061604E+03  0.00000000000E+00 0. -1.
         25    2    1    2    0    0  0.89693630402E+02  0.95915071163E+02 -0.34837453304E+03  0.39275338144E+03  0.12508299305E+03 0.  0.
          5    1    3    3  502    0 -0.35552178671E+00  0.39042297201E+02 -0.23055588157E+03  0.23387585231E+03  0.41800000000E+01 0.  1.
         -5    1    3    3    0  502  0.90049152189E+02  0.56872773962E+02 -0.11781865147E+03  0.15887752913E+03  0.41800000000E+01 0.  1.
        -11    1    1    2    0    0 -0.27106096207E+02 -0.55463270469E+01 -0.42371174843E+01  0.27990272594E+02  0.00000000000E+00 0.  1.
         11    1    1    2    0    0 -0.62587534195E+02 -0.90368744116E+02 -0.24679582086E+03  0.27017010668E+03  0.00000000000E+00 0. -1.
</event>
<event>
 7    1  0.2989693E-009  0.1553957E+03  0.7561462E-02  0.1193995E+00
         -2   -1    0    0    0  501 -0.00000000000E+00  0.00000000000E+00  0.41594631618E+02  0.41594631618E+02  0.00000000000E+00 0.  1.
          2   -1    0    0  501    0  0.00000000000E+00 -0.00000000000E+00 -0.63243751523E+03  0.63243751523E+03  0.00000000000E+00 0. -1.
         25    2    1    2    0    0 -0.86549298181E+02  0.81532391063E+02 -0.35129952457E+03  0.39140346884E+03  0.12508799962E+03 0.  0.
          5    1    3    3  502    0 -0.37033899384E+01 -0.26031870152E+02 -0.19879115132E+02  0.33226871341E+02  0.41800000000E+01 0. -1.
         -5    1    3    3    0  502 -0.82845908243E+02  0.10756426122E+03 -0.33142040944E+03  0.35817659750E+03  0.41800000000E+01 0. -1.
        -11    1    1    2    0    0  0.10249978064E+03 -0.83573034245E+02 -0.19824572446E+03  0.23831077262E+03  0.00000000000E+00 0.  1.
         11    1    1    2    0    0 -0.15950482457E+02  0.20406431818E+01 -0.41297634584E+02  0.44317905382E+02  0.00000000000E+00 0. -1.
</event>
<event>
 7    1  0.2989693E-009  0.8517103E+02  0.7561462E-02  0.1314986E+00
          1   -1    0    0  501    0  0.00000000000E+00  0.00000000000E+00  0.49405594387E+02  0.49405594387E+02  0.00000000000E+00 0. -1.
         -1   -1    0    0    0  501 -0.00000000000E+00 -0.00000000000E+00 -0.28131201440E+03  0.28131201440E+03  0.00000000000E+00 0.  1.
         25    2    1    2    0    0  0.34340850577E+02 -0.55783521188E+01 -0.90866013983E+02  0.15847929911E+03  0.12509453912E+03 0.  0.
          5    1    3    3  502    0 -0.14882648622E+02 -0.15555252861E+02  0.24321731444E+02  0.32748712066E+02  0.41800000000E+01 0. -1.
         -5    1    3    3    0  502  0.49223499199E+02  0.99769007417E+01 -0.11518774543E+03  0.12573058704E+03  0.41800000000E+01 0. -1.
        -11    1    1    2    0    0 -0.61671621973E+02 -0.15393852081E+02 -0.80354057250E+02  0.10245552281E+03  0.00000000000E+00 0. -1.
         11    1    1    2    0    0  0.27330771396E+02  0.20972204200E+02 -0.60686348784E+02  0.69782786867E+02  0.00000000000E+00 0.  1.
</event>
<event>
 7    1  0.2989693E-009  0.2985751E+03  0.7561462E-02  0.1085955E+00
          2   -1    0    0  501    0  0.00000000000E+00  0.00000000000E+00  0.12722001064E+04  0.12722001064E+04  0.00000000000E+00 0. -1.
         -2   -1    0    0    0  501 -0.00000000000E+00 -0.00000000000E+00 -0.76991274332E+02  0.76991274332E+02  0.00000000000E+00 0.  1.
         25    2    1    2    0    0 -0.22740410874E+03 -0.17700797352E+03  0.49749630541E+03  0.58838334273E+03  0.12509169734E+03 0.  0.
          5    1    3    3  502    0 -0.20783504797E+02 -0.51665155237E+02  0.33273056301E+02  0.65006238261E+02  0.41800000000E+01 0. -1.
         -5    1    3    3    0  502 -0.20662060395E+03 -0.12534281829E+03  0.46422324911E+03  0.52337710447E+03  0.41800000000E+01 0. -1.
        -11    1    1    2    0    0  0.17356854486E+03  0.85625040127E+02  0.39106564410E+03  0.43633705465E+03  0.00000000000E+00 0.  1.
         11    1    1    2    0    0  0.53835563881E+02  0.91382933396E+02  0.30664688255E+03  0.32447098334E+03  0.00000000000E+00 0. -1.
</event>
<event>
 7    1  0.2989693E-009  0.1454638E+03  0.7561462E-02  0.1206161E+00
         -1   -1    0    0    0  501 -0.00000000000E+00  0.00000000000E+00  0.38689487591E+03  0.38689487591E+03  0.00000000000E+00 0.  1.
          1   -1    0    0  501    0  0.00000000000E+00 -0.00000000000E+00 -0.98831809519E+02  0.98831809519E+02  0.00000000000E+00 0. -1.
         25    2    1    2    0    0 -0.41521549989E+02 -0.11693124837E+03  0.20927336365E+02  0.17742827197E+03  0.12508350142E+03 0.  0.
          5    1    3    3  502    0  0.13971698014E+02 -0.39476605142E+02 -0.44902681365E+02  0.61541318581E+02  0.41800000000E+01 0. -1.
         -5    1    3    3    0  502 -0.55493248003E+02 -0.77454643230E+02  0.65830017730E+02  0.11588695339E+03  0.41800000000E+01 0. -1.
        -11    1    1    2    0    0  0.29157938450E+02 -0.61243528237E+01  0.61494929021E+02  0.68332418130E+02  0.00000000000E+00 0. -1.
         11    1    1    2    0    0  0.12363611539E+02  0.12305560120E+03  0.20564080100E+03  0.23996599532E+03  0.00000000000E+00 0.  1.
</event>
<event>
 7    1  0.2989693E-009  0.1413132E+03  0.7561462E-02  0.1211573E+00
         -2   -1    0    0    0  501 -0.00000000000E+00  0.00000000000E+00  0.11681855861E+02  0.11681855861E+02  0.00000000000E+00 0.  1.
          2   -1    0    0  501    0  0.00000000000E+00 -0.00000000000E+00 -0.22162384852E+04  0.22162384852E+04  0.00000000000E+00 0. -1.
         25    2    1    2    0    0  0.25889439405E+02  0.10028442156E+03 -0.15876407968E+04  0.15959254306E+04  0.12508977685E+03 0.  0.
          5    1    3    3  502    0  0.19772773980E+01 -0.29605607852E+02 -0.25767021071E+03  0.25940665283E+03  0.41800000000E+01 0.  1.
         -5    1    3    3    0  502  0.23912162007E+02  0.12989002941E+03 -0.13299705861E+04  0.13365187778E+04  0.41800000000E+01 0.  1.
        -11    1    1    2    0    0 -0.21906130866E+02 -0.18239614551E+01 -0.31914980162E+02  0.38752694921E+02  0.00000000000E+00 0.  1.
         11    1    1    2    0    0 -0.39833085392E+01 -0.98460460107E+02 -0.58500085241E+03  0.59324221552E+03  0.00000000000E+00 0. -1.
</event>
<event>
 7    1  0.2989693E-009  0.1265095E+03  0.7561462E-02  0.1232729E+00
         -1   -1    0    0    0  501 -0.00000000000E+00  0.00000000000E+00  0.29517422214E+02  0.29517422214E+02  0.00000000000E+00 0.  1.
          1   -1    0    0  501    0  0.00000000000E+00 -0.00000000000E+00 -0.57094383544E+03  0.57094383544E+03  0.00000000000E+00 0. -1.
         25    2    1    2    0    0  0.68438216029E+02  0.15704371086E+02 -0.31897479253E+03  0.34974105484E+03  0.12507386010E+03 0.  0.
          5    1    3    3  502    0 -0.26040502907E+02 -0.23467908432E+02 -0.44520410293E+02  0.56818921589E+02  0.41800000000E+01 0. -1.
         -5    1    3    3    0  502  0.94478718936E+02  0.39172279518E+02 -0.27445438224E+03  0.29292213325E+03  0.41800000000E+01 0. -1.
        -11    1    1    2    0    0  0.10278028756E+02 -0.33166756830E+02 -0.58888496438E+02  0.68363196578E+02  0.00000000000E+00 0.  1.
         11    1    1    2    0    0 -0.78716244785E+02  0.17462385744E+02 -0.16356312426E+03  0.18235700624E+03  0.00000000000E+00 0. -1.
</event>
<event>
 7    1  0.2989693E-009  0.1318832E+03  0.7561462E-02  0.1224688E+00
          2   -1    0    0  501    0  0.00000000000E+00  0.00000000000E+00  0.38140395203E+03  0.38140395203E+03  0.00000000000E+00 0. -1.
         -2   -1    0    0    0  501 -0.00000000000E+00 -0.00000000000E+00 -0.56772392559E+02  0.56772392559E+02  0.00000000000E+00 0.  1.
         25    2    1    2    0    0 -0.83920642910E+02 -0.21696845188E+02  0.25038377226E+03  0.29300740149E+03  0.12509147259E+03 0.  0.
          5    1    3    3  502    0 -0.16640875720E+02  0.50015196353E+02  0.72839939680E+02  0.90008709709E+02  0.41800000000E+01 0. -1.
         -5    1    3    3    0  502 -0.67279767190E+02 -0.71712041541E+02  0.17754383258E+03  0.20299869178E+03  0.41800000000E+01 0. -1.
        -11    1    1    2    0    0 -0.82677496736E+01  0.18456637155E+02 -0.78375296381E+01  0.21689398575E+02  0.00000000000E+00 0.  1.
         11    1    1    2    0    0  0.92188392584E+02  0.32402080339E+01  0.82085316852E+02  0.12347954453E+03  0.00000000000E+00 0. -1.
</event>
<event>
 7    1  0.2989693E-009  0.1319545E+03  0.7561462E-02  0.1224584E+00
         -1   -1    0    0    0  501 -0.00000000000E+00  0.00000000000E+00  0.16845831163E+03  0.16845831163E+03  0.00000000000E+00 0.  1.
          1   -1    0    0  501    0  0.00000000000E+00 -0.00000000000E+00 -0.14200418977E+03  0.14200418977E+03  0.00000000000E+00 0. -1.
         25    2    1    2    0    0  0.54153319505E+02 -0.95448553431E+02  0.19542533615E+02  0.16754826360E+03  0.12508997422E+03 0.  0.
          5    1    3    3  502    0  0.62115862963E+02 -0.26135643445E+02  0.56899275641E+02  0.88297521247E+02  0.41800000000E+01 0.  1.
         -5    1    3    3    0  502 -0.79625434573E+01 -0.69312909986E+02 -0.37356742026E+02  0.79250742355E+02  0.41800000000E+01 0.  1.
        -11    1    1    2    0    0 -0.25116683264E+02  0.94135789872E+02  0.33991278199E+02  0.10318818589E+03  0.00000000000E+00 0.  1.
         11    1    1    2    0    0 -0.29036636241E+02  0.13127635588E+01 -0.27079689957E+02  0.39726051912E+02  0.00000000000E+00 0. -1.
</event>
<event>
 7    1  0.2989693E-009  0.9935941E+02  0.7561462E-02  0.1281649E+00
         -2   -1    0    0    0  501 -0.00000000000E+00  0.00000000000E+00  0.11364523572E+03  0.11364523572E+03  0.00000000000E+00 0.  1.
          2   -1    0    0  501    0  0.00000000000E+00 -0.00000000000E+00 -0.13994112387E+03  0.13994112387E+03  0.00000000000E+00 0. -1.
         25    2    1    2    0    0  0.45087436252E+02  0.12886165393E+02  0.29678976542E+02  0.13684895769E+03  0.12509142819E+03 0.  0.
          5    1    3    3  502    0 -0.34510879456E+02 -0.11184747713E+02  0.38566635503E+02  0.53112683572E+02  0.41800000000E+01 0. -1.
         -5    1    3    3    0  502  0.79598315708E+02  0.24070913106E+02 -0.88876589609E+01  0.83736274118E+02  0.41800000000E+01 0. -1.
        -11    1    1    2    0    0 -0.50138064232E+02  0.13619438443E+02  0.28358392548E+01  0.52032264728E+02  0.00000000000E+00 0.  1.
         11    1    1    2    0    0  0.50506279803E+01 -0.26505603837E+02 -0.58810703950E+02  0.64705137175E+02  0.00000000000E+00 0. -1.
</event>
<event>
 7    1  0.2989693E-009  0.1068138E+03  0.7561462E-02  0.1266587E+00
          2   -1    0    0  501    0  0.00000000000E+00  0.00000000000E+00  0.67268586012E+03  0.67268586012E+03  0.00000000000E+00 0. -1.
         -2   -1    0    0    0  501 -0.00000000000E+00 -0.00000000000E+00 -0.23453764951E+02  0.23453764951E+02  0.00000000000E+00 0.  1.
         25    2    1    2    0    0  0.49684969262E+02 -0.38495514650E+02  0.32151402816E+03  0.35067001602E+03  0.12509072312E+03 0.  0.
          5    1    3    3  502    0  0.74687361210E+02  0.75758018555E+01  0.11373704135E+03  0.13634214929E+03  0.41800000000E+01 0.  1.
         -5    1    3    3    0  502 -0.25002391948E+02 -0.46071316505E+02  0.20777698681E+03  0.21432786673E+03  0.41800000000E+01 0.  1.
        -11    1    1    2    0    0  0.11949496693E+02 -0.19898257460E+01  0.29950958451E+01  0.12478801098E+02  0.00000000000E+00 0.  1.
         11    1    1    2    0    0 -0.61634465955E+02  0.40485340396E+02  0.32472297116E+03  0.33299080795E+03  0.00000000000E+00 0. -1.
</event>
<event>
 7    1  0.2989693E-009  0.1137249E+03  0.7561462E-02  0.1253823E+00
         -3   -1    0    0    0  501 -0.00000000000E+00  0.00000000000E+00  0.13087938516E+03  0.13087938516E+03  0.00000000000E+00 0.  1.
          3   -1    0    0  501    0  0.00000000000E+00 -0.00000000000E+00 -0.13001810158E+03  0.13001810158E+03  0.00000000000E+00 0. -1.
         25    2    1    2    0    0  0.55161379949E+02  0.28126575378E+02  0.32106527239E+02  0.14321961822E+03  0.12508856012E+03 0.  0.
          5    1    3    3  502    0 -0.40503705946E+02  0.11305971261E+02  0.73375365283E+01  0.42891572877E+02  0.41800000000E+01 0. -1.
         -5    1    3    3    0  502  0.95665085896E+02  0.16820604118E+02  0.24768990711E+02  0.10032804535E+03  0.41800000000E+01 0. -1.
        -11    1    1    2    0    0  0.96337085679E+01  0.90900973126E+01  0.22170825397E+02  0.25826027738E+02  0.00000000000E+00 0.  1.
         11    1    1    2    0    0 -0.64795088517E+02 -0.37216672691E+02 -0.53416069058E+02  0.91851840786E+02  0.00000000000E+00 0. -1.
</event>
<event>
 7    1  0.2989693E-009  0.1227160E+03  0.7561462E-02  0.1238683E+00
         -1   -1    0    0    0  501 -0.00000000000E+00  0.00000000000E+00  0.33795409006E+03  0.33795409006E+03  0.00000000000E+00 0.  1.
          1   -1    0    0  501    0  0.00000000000E+00 -0.00000000000E+00 -0.62659409246E+02  0.62659409246E+02  0.00000000000E+00 0. -1.
         25    2    1    2    0    0  0.40037025793E+02 -0.44979982797E+02  0.25154663871E+03  0.28731308258E+03  0.12508770397E+03 0.  0.
          5    1    3    3  502    0 -0.43290394252E+02 -0.16507801882E+02  0.12244332891E+03  0.13098246811E+03  0.41800000000E+01 0. -1.
         -5    1    3    3    0  502  0.83327420044E+02 -0.28472180915E+02  0.12910330980E+03  0.15633061447E+03  0.41800000000E+01 0. -1.
        -11    1    1    2    0    0 -0.56846662822E+02 -0.59182795521E+01  0.13516634046E+02  0.58730473374E+02  0.00000000000E+00 0.  1.
         11    1    1    2    0    0  0.16809637029E+02  0.50898262349E+02  0.10231408055E+02  0.54569943357E+02  0.00000000000E+00 0. -1.
</event>
<event>
 7    1  0.2989693E-009  0.7393352E+02  0.7561462E-02  0.1347206E+00
         -2   -1    0    0    0  501 -0.00000000000E+00  0.00000000000E+00  0.14430984330E+03  0.14430984330E+03  0.00000000000E+00 0.  1.
          2   -1    0    0  501    0  0.00000000000E+00 -0.00000000000E+00 -0.96762847357E+02  0.96762847357E+02  0.00000000000E+00 0. -1.
         25    2    1    2    0    0  0.13619928699E+02 -0.41234646804E+02  0.88866303616E+01  0.13271731085E+03  0.12509641819E+03 0.  0.
          5    1    3    3  502    0  0.22895486932E+02 -0.27370416197E+02  0.64868630556E+02  0.74153588145E+02  0.41800000000E+01 0. -1.
         -5    1    3    3    0  502 -0.92755582328E+01 -0.13864230607E+02 -0.55982000194E+02  0.58563722701E+02  0.41800000000E+01 0. -1.
        -11    1    1    2    0    0  0.32148905083E+02 -0.14180725798E+01  0.32095158349E+02  0.45449556844E+02  0.00000000000E+00 0. -1.
         11    1    1    2    0    0 -0.45768833783E+02  0.42652719383E+02  0.65652072293E+01  0.62905822962E+02  0.00000000000E+00 0.  1.
</event>
<event>
 7    1  0.2989693E-009  0.1316931E+03  0.7561462E-02  0.1224965E+00
          1   -1    0    0  501    0  0.00000000000E+00  0.00000000000E+00  0.33927444827E+03  0.33927444827E+03  0.00000000000E+00 0. -1.
         -1   -1    0    0    0  501 -0.00000000000E+00 -0.00000000000E+00 -0.63931729464E+02  0.63931729464E+02  0.00000000000E+00 0.  1.
         25    2    1    2    0    0  0.57363513493E+02 -0.53998485541E+02  0.66923435914E+02  0.16227056167E+03  0.12508628937E+03 0.  0.
          5    1    3    3  502    0  0.89208619622E+02 -0.66646774922E+02  0.39650503541E+02  0.11827766168E+03  0.41800000000E+01 0. -1.
         -5    1    3    3    0  502 -0.31845106129E+02  0.12648289382E+02  0.27272932373E+02  0.43992899982E+02  0.41800000000E+01 0. -1.
        -11    1    1    2    0    0 -0.10103633135E+02  0.67524516998E+02  0.14841422165E+03  0.16336592358E+03  0.00000000000E+00 0. -1.
         11    1    1    2    0    0 -0.47259880359E+02 -0.13526031457E+02  0.60005061245E+02  0.77569692493E+02  0.00000000000E+00 0.  1.
</event>
<event>
 7    1  0.2989693E-009  0.1030558E+03  0.7561462E-02  0.1273998E+00
         -4   -1    0    0    0  501 -0.00000000000E+00  0.00000000000E+00  0.10214195363E+03  0.10214195363E+03  0.00000000000E+00 0. -1.
          4   -1    0    0  501    0  0.00000000000E+00 -0.00000000000E+00 -0.12126008232E+03  0.12126008232E+03  0.00000000000E+00 0.  1.
         25    2    1    2    0    0  0.16114991698E+02 -0.13287424720E+02 -0.32030285181E+02  0.13080524696E+03  0.12509126608E+03 0.  0.
          5    1    3    3  502    0 -0.18402749061E+02  0.46203125599E+02  0.88467461378E+01  0.50686559415E+02  0.41800000000E+01 0.  1.
         -5    1    3    3    0  502  0.34517740759E+02 -0.59490550319E+02 -0.40877031319E+02  0.80118687544E+02  0.41800000000E+01 0.  1.
        -11    1    1    2    0    0  0.43536142757E+00  0.48440581591E+02 -0.69859767126E+01  0.48943675333E+02  0.00000000000E+00 0.  1.
         11    1    1    2    0    0 -0.16550353125E+02 -0.35153156871E+02  0.19898133203E+02  0.43653113652E+02  0.00000000000E+00 0. -1.
</event>
<event>
 7    1  0.2989693E-009  0.1092006E+03  0.7561462E-02  0.1262057E+00
         -2   -1    0    0    0  501 -0.00000000000E+00  0.00000000000E+00  0.54493438919E+02  0.54493438919E+02  0.00000000000E+00 0. -1.
          2   -1    0    0  501    0  0.00000000000E+00 -0.00000000000E+00 -0.22999337304E+03  0.22999337304E+03  0.00000000000E+00 0.  1.
         25    2    1    2    0    0  0.22898771889E+02  0.15565309734E+02 -0.11128270085E+03  0.16969898583E+03  0.12508906292E+03 0.  0.
          5    1    3    3  502    0 -0.47387989398E+02  0.28894053346E+02 -0.39364803905E+02  0.68172927504E+02  0.41800000000E+01 0.  1.
         -5    1    3    3    0  502  0.70286761287E+02 -0.13328743612E+02 -0.71917896940E+02  0.10152605832E+03  0.41800000000E+01 0.  1.
        -11    1    1    2    0    0 -0.23683029224E+02  0.34040488675E+02 -0.46010984372E+02  0.61940708951E+02  0.00000000000E+00 0.  1.
         11    1    1    2    0    0  0.78425733410E+00 -0.49605798409E+02 -0.18206248907E+02  0.52847117183E+02  0.00000000000E+00 0. -1.
</event>
<event>
 7    1  0.2989693E-009  0.1214267E+03  0.7561462E-02  0.1240762E+00
         -2   -1    0    0    0  501 -0.00000000000E+00  0.00000000000E+00  0.11686440889E+03  0.11686440889E+03  0.00000000000E+00 0. -1.
          2   -1    0    0  501    0  0.00000000000E+00 -0.00000000000E+00 -0.19133423985E+03  0.19133423985E+03  0.00000000000E+00 0.  1.
         25    2    1    2    0    0 -0.56393413553E+02  0.22429812935E+02  0.46010336522E+02  0.14645673348E+03  0.12509720266E+03 0.  0.
          5    1    3    3  502    0 -0.91193311585E+02 -0.38546950421E+01  0.14553024916E+02  0.92522114577E+02  0.41800000000E+01 0. -1.
         -5    1    3    3    0  502  0.34799898032E+02  0.26284507977E+02  0.31457311606E+02  0.53934618902E+02  0.41800000000E+01 0. -1.
        -11    1    1    2    0    0  0.28538135486E+02 -0.56719484931E+02 -0.76297948416E+02  0.99261785599E+02  0.00000000000E+00 0.  1.
         11    1    1    2    0    0  0.27855278067E+02  0.34289671996E+02 -0.44182219060E+02  0.62480129664E+02  0.00000000000E+00 0. -1.
</event>
<event>
 7    1  0.2989693E-009  0.8165903E+02  0.7561462E-02  0.1324408E+00
         -2   -1    0    0    0  501 -0.00000000000E+00  0.00000000000E+00  0.16064820329E+03  0.16064820329E+03  0.00000000000E+00 0.  1.
          2   -1    0    0  501    0  0.00000000000E+00 -0.00000000000E+00 -0.11606307153E+03  0.11606307153E+03  0.00000000000E+00 0. -1.
         25    2    1    2    0    0 -0.30687403761E+02  0.26268549348E+02  0.85045098080E+02  0.15656302314E+03  0.12509019975E+03 0.  0.
          5    1    3    3  502    0  0.10600571125E+02  0.17454514340E+02 -0.28523866670E+02  0.35328678843E+02  0.41800000000E+01 0.  1.
         -5    1    3    3    0  502 -0.41287974886E+02  0.88140350084E+01  0.11356896475E+03  0.12123434430E+03  0.41800000000E+01 0.  1.
        -11    1    1    2    0    0 -0.32651251691E+02 -0.14032067742E+02  0.11459196247E+02  0.37340545533E+02  0.00000000000E+00 0.  1.
         11    1    1    2    0    0  0.63338655452E+02 -0.12236481606E+02 -0.51919162563E+02  0.82807706150E+02  0.00000000000E+00 0. -1.
</event>
<event>
 7    1  0.2989693E-009  0.1059073E+03  0.7561462E-02  0.1268342E+00
          4   -1    0    0  501    0  0.00000000000E+00  0.00000000000E+00  0.18682944457E+02  0.18682944457E+02  0.00000000000E+00 0.  1.
         -4   -1    0    0    0  501 -0.00000000000E+00 -0.00000000000E+00 -0.69548986717E+03  0.69548986717E+03  0.00000000000E+00 0. -1.
         25    2    1    2    0    0 -0.20936471208E+02 -0.15850962879E+02 -0.30988414589E+03  0.33520919871E+03  0.12508970452E+03 0.  0.
          5    1    3    3  502    0 -0.85325404446E+00 -0.69140971555E+02 -0.14453844991E+03  0.16028112144E+03  0.41800000000E+01 0. -1.
         -5    1    3    3    0  502 -0.20083217163E+02  0.53290008676E+02 -0.16534569598E+03  0.17492807726E+03  0.41800000000E+01 0. -1.
        -11    1    1    2    0    0  0.42540830960E+01 -0.33281785796E+02 -0.71031921936E+02  0.78557675772E+02  0.00000000000E+00 0.  1.
         11    1    1    2    0    0  0.16682388112E+02  0.49132748675E+02 -0.29589085489E+03  0.30040593715E+03  0.00000000000E+00 0. -1.
</event>
<event>
 7    1  0.2989693E-009  0.1130163E+03  0.7561462E-02  0.1255084E+00
          1   -1    0    0  501    0  0.00000000000E+00  0.00000000000E+00  0.41757032033E+03  0.41757032033E+03  0.00000000000E+00 0. -1.
         -1   -1    0    0    0  501 -0.00000000000E+00 -0.00000000000E+00 -0.45289384832E+02  0.45289384832E+02  0.00000000000E+00 0.  1.
         25    2    1    2    0    0 -0.84227817321E+02  0.66047139007E+01  0.17716998312E+03  0.23275244052E+03  0.12508616308E+03 0.  0.
          5    1    3    3  502    0 -0.82726991289E+02  0.29108865760E+02  0.45098388632E+02  0.98703688942E+02  0.41800000000E+01 0. -1.
         -5    1    3    3    0  502 -0.15008260326E+01 -0.22504151860E+02  0.13207159449E+03  0.13404875158E+03  0.41800000000E+01 0. -1.
        -11    1    1    2    0    0  0.78524678723E+02 -0.35260675946E+02  0.17378357782E+03  0.19393342248E+03  0.00000000000E+00 0.  1.
         11    1    1    2    0    0  0.57031385978E+01  0.28655962046E+02  0.21327374556E+02  0.36173842152E+02  0.00000000000E+00 0. -1.
</event>
<event>
 7    1  0.2989693E-009  0.1156225E+03  0.7561462E-02  0.1250498E+00
         -4   -1    0    0    0  501 -0.00000000000E+00  0.00000000000E+00  0.46627244051E+03  0.46627244051E+03  0.00000000000E+00 0.  1.
          4   -1    0    0  501    0  0.00000000000E+00 -0.00000000000E+00 -0.73361073978E+02  0.73361073978E+02  0.00000000000E+00 0. -1.
         25    2    1    2    0    0 -0.31756638232E+02 -0.33095982177E+02  0.41585448878E+03  0.43667686255E+03  0.12509155983E+03 0.  0.
          5    1    3    3  502    0 -0.23351896519E+02  0.45829590828E+02  0.12693967647E+03  0.13702852378E+03  0.41800000000E+01 0.  1.
         -5    1    3    3    0  502 -0.84047417130E+01 -0.78925573006E+02  0.28891481231E+03  0.29964833877E+03  0.41800000000E+01 0.  1.
        -11    1    1    2    0    0  0.61621005491E+02  0.33805356527E+02 -0.13032892891E+02  0.71482912257E+02  0.00000000000E+00 0.  1.
         11    1    1    2    0    0 -0.29864367258E+02 -0.70937434998E+00 -0.99102293547E+01  0.31473739682E+02  0.00000000000E+00 0. -1.
</event>
<event>
 7    1  0.2989693E-009  0.3906228E+03  0.7561462E-02  0.1047076E+00
         -4   -1    0    0    0  501 -0.00000000000E+00  0.00000000000E+00  0.50093613975E+03  0.50093613975E+03  0.00000000000E+00 0.  1.
          4   -1    0    0  501    0  0.00000000000E+00 -0.00000000000E+00 -0.34800600938E+03  0.34800600938E+03  0.00000000000E+00 0. -1.
         25    2    1    2    0    0  0.16643811767E+02  0.37555833949E+03 -0.70957068648E+02  0.40249697388E+03  0.12509126892E+03 0.  0.
          5    1    3    3  502    0  0.60647994451E+02  0.10891320642E+03 -0.36908213235E+02  0.13007672493E+03  0.41800000000E+01 0.  1.
         -5    1    3    3    0  502 -0.44004182684E+02  0.26664513307E+03 -0.34048855413E+02  0.27242024895E+03  0.41800000000E+01 0.  1.
        -11    1    1    2    0    0  0.36488653787E+02 -0.17419843312E+03  0.10528674768E+03  0.20678930145E+03  0.00000000000E+00 0.  1.
         11    1    1    2    0    0 -0.53132465553E+02 -0.20135990637E+03  0.11860045134E+03  0.23965587380E+03  0.00000000000E+00 0. -1.
</event>
<event>
 7    1  0.2989693E-009  0.1220233E+03  0.7561462E-02  0.1239796E+00
         -1   -1    0    0    0  501 -0.00000000000E+00  0.00000000000E+00  0.16642063064E+03  0.16642063064E+03  0.00000000000E+00 0.  1.
          1   -1    0    0  501    0  0.00000000000E+00 -0.00000000000E+00 -0.10510156959E+03  0.10510156959E+03  0.00000000000E+00 0. -1.
         25    2    1    2    0    0 -0.61267748914E+02  0.31424318069E+02  0.50645759349E+02  0.15150175048E+03  0.12508622081E+03 0.  0.
          5    1    3    3  502    0 -0.22802501404E+02 -0.43575701472E+02  0.45210393541E+02  0.66934654053E+02  0.41800000000E+01 0.  1.
         -5    1    3    3    0  502 -0.38465247510E+02  0.75000019541E+02  0.54353658079E+01  0.84567096430E+02  0.41800000000E+01 0.  1.
        -11    1    1    2    0    0  0.83416496251E+02 -0.27269206206E+02  0.27419584508E+02  0.91944304166E+02  0.00000000000E+00 0.  1.
         11    1    1    2    0    0 -0.22148747337E+02 -0.41551118635E+01 -0.16746282808E+02  0.28076145588E+02  0.00000000000E+00 0. -1.
</event>
<event>
 7    1  0.2989693E-009  0.7293519E+02  0.7561462E-02  0.1350387E+00
          2   -1    0    0  501    0  0.00000000000E+00  0.00000000000E+00  0.12139741950E+04  0.12139741950E+04  0.00000000000E+00 0. -1.
         -2   -1    0    0    0  501 -0.00000000000E+00 -0.00000000000E+00 -0.10566327142E+02  0.10566327142E+02  0.00000000000E+00 0.  1.
         25    2    1    2    0    0 -0.23730413827E+02 -0.22751944814E+02  0.69205406275E+03  0.70403733100E+03  0.12509577987E+03 0.  0.
          5    1    3    3  502    0 -0.32532078671E+02 -0.20621792712E+02  0.57091405234E+02  0.68996343590E+02  0.41800000000E+01 0. -1.
         -5    1    3    3    0  502  0.88016648439E+01 -0.21301521021E+01  0.63496265751E+03  0.63504098741E+03  0.41800000000E+01 0. -1.
        -11    1    1    2    0    0  0.42073758173E+02 -0.22936537419E+02  0.25617540393E+03  0.26061873197E+03  0.00000000000E+00 0.  1.
         11    1    1    2    0    0 -0.18343344346E+02  0.45688482232E+02  0.25517840121E+03  0.25988445920E+03  0.00000000000E+00 0. -1.
</event>
<event>
 7    1  0.2989693E-009  0.1479486E+03  0.7561462E-02  0.1203017E+00
         -1   -1    0    0    0  501 -0.00000000000E+00  0.00000000000E+00  0.28434522984E+02  0.28434522984E+02  0.00000000000E+00 0.  1.
          1   -1    0    0  501    0  0.00000000000E+00 -0.00000000000E+00 -0.77515574350E+03  0.77515574350E+03  0.00000000000E+00 0. -1.
         25    2    1    2    0    0 -0.17577411445E+02  0.99201844271E+02 -0.37215487429E+03  0.40533528797E+03  0.12508986337E+03 0.  0.
          5    1    3    3  502    0  0.34945622986E+02  0.10195064211E+03 -0.24941485235E+03  0.27173584777E+03  0.41800000000E+01 0.  1.
         -5    1    3    3    0  502 -0.52523034431E+02 -0.27487978381E+01 -0.12274002194E+03  0.13359944020E+03  0.41800000000E+01 0.  1.
        -11    1    1    2    0    0  0.37152547712E+02 -0.31837503108E+01 -0.10007831346E+03  0.10679942365E+03  0.00000000000E+00 0.  1.
         11    1    1    2    0    0 -0.19575136266E+02 -0.96018093960E+02 -0.27448803276E+03  0.29145555485E+03  0.00000000000E+00 0. -1.
</event>
<event>
 7    1  0.2989693E-009  0.5735866E+02  0.7561462E-02  0.1409263E+00
         -2   -1    0    0    0  501 -0.00000000000E+00  0.00000000000E+00  0.17445994391E+03  0.17445994391E+03  0.00000000000E+00 0.  1.
          2   -1    0    0  501    0  0.00000000000E+00 -0.00000000000E+00 -0.13242867042E+03  0.13242867042E+03  0.00000000000E+00 0. -1.
         25    2    1    2    0    0  0.41244645051E+02 -0.45669969937E+01  0.10840583399E+03  0.17064871440E+03  0.12508869124E+03 0.  0.
          5    1    3    3  502    0 -0.50498244208E+00  0.10154970010E+02  0.12327358507E+03  0.12376278761E+03  0.41800000000E+01 0. -1.
         -5    1    3    3    0  502  0.41749627493E+02 -0.14721967003E+02 -0.14867751077E+02  0.46885926784E+02  0.41800000000E+01 0. -1.
        -11    1    1    2    0    0 -0.48297439406E+01  0.19359747094E+02 -0.88781985426E+02  0.90996522848E+02  0.00000000000E+00 0. -1.
         11    1    1    2    0    0 -0.36414901111E+02 -0.14792750101E+02  0.22407424927E+02  0.45243377087E+02  0.00000000000E+00 0.  1.
</event>
<event>
 7    1  0.2989693E-009  0.2291242E+03  0.7561462E-02  0.1127258E+00
          2   -1    0    0  501    0  0.00000000000E+00  0.00000000000E+00  0.81189708128E+03  0.81189708128E+03  0.00000000000E+00 0. -1.
         -2   -1    0    0    0  501 -0.00000000000E+00 -0.00000000000E+00 -0.12664736628E+03  0.12664736628E+03  0.00000000000E+00 0.  1.
         25    2    1    2    0    0  0.19665989569E+03 -0.11439744808E+03  0.63670013883E+03  0.68760174469E+03  0.12508877575E+03 0.  0.
          5    1    3    3  502    0  0.15165350448E+03 -0.10517459595E+03  0.60258159206E+03  0.63022418911E+03  0.41800000000E+01 0.  1.
         -5    1    3    3    0  502  0.45006391202E+02 -0.92228521304E+01  0.34118546772E+02  0.57377555579E+02  0.41800000000E+01 0.  1.
        -11    1    1    2    0    0 -0.92183170675E+02  0.53026219166E+02  0.70786339899E+02  0.12775062736E+03  0.00000000000E+00 0. -1.
         11    1    1    2    0    0 -0.10447672501E+03  0.61371228913E+02 -0.22236763732E+02  0.12319207551E+03  0.00000000000E+00 0.  1.
</event>
<event>
 7    1  0.2989693E-009  0.1258680E+03  0.7561462E-02  0.1233719E+00
          1   -1    0    0  501    0  0.00000000000E+00  0.00000000000E+00  0.28580632840E+03  0.28580632840E+03  0.00000000000E+00 0. -1.
         -1   -1    0    0    0  501 -0.00000000000E+00 -0.00000000000E+00 -0.69461596388E+02  0.69461596388E+02  0.00000000000E+00 0.  1.
         25    2    1    2    0    0  0.74772290392E+02 -0.26489895845E+02  0.16676797031E+03  0.22305459151E+03  0.12509670212E+03 0.  0.
          5    1    3    3  502    0  0.47124130822E+02 -0.70684362040E+02  0.59759342952E+02  0.10395005634E+03  0.41800000000E+01 0. -1.
         -5    1    3    3    0  502  0.27648159570E+02  0.44194466195E+02  0.10700862736E+03  0.11910453517E+03  0.41800000000E+01 0. -1.
        -11    1    1    2    0    0 -0.73930743635E+02 -0.12845514639E+02  0.54246314806E+02  0.92592790058E+02  0.00000000000E+00 0. -1.
         11    1    1    2    0    0 -0.84154675734E+00  0.39335410485E+02 -0.46695531010E+01  0.39620543221E+02  0.00000000000E+00 0.  1.
</event>
<event>
 7    1  0.2989693E-009  0.8193064E+02  0.7561462E-02  0.1323660E+00
          4   -1    0    0  501    0  0.00000000000E+00  0.00000000000E+00  0.77594838454E+02  0.77594838454E+02  0.00000000000E+00 0. -1.
         -4   -1    0    0    0  501 -0.00000000000E+00 -0.00000000000E+00 -0.15958922334E+03  0.15958922334E+03  0.00000000000E+00 0.  1.
         25    2    1    2    0    0  0.25439537058E+02 -0.30728388145E+01 -0.65616601235E+02  0.14355899895E+03  0.12508811069E+03 0.  0.
          5    1    3    3  502    0  0.35194334622E+02  0.36122205588E+02 -0.84720026558E+02  0.98683383738E+02  0.41800000000E+01 0. -1.
         -5    1    3    3    0  502 -0.97547975636E+01 -0.39195044403E+02  0.19103425322E+02  0.44875615208E+02  0.41800000000E+01 0. -1.
        -11    1    1    2    0    0 -0.73352331810E+01 -0.32187484803E+02 -0.36465290012E+02  0.49188994699E+02  0.00000000000E+00 0.  1.
         11    1    1    2    0    0 -0.18104303877E+02  0.35260323618E+02  0.20087506364E+02  0.44436068148E+02  0.00000000000E+00 0. -1.
</event>
<event>
 7    1  0.2989693E-009  0.1444316E+03  0.7561462E-02  0.1207487E+00
          1   -1    0    0  501    0  0.00000000000E+00  0.00000000000E+00  0.11275431588E+04  0.11275431588E+04  0.00000000000E+00 0. -1.
         -1   -1    0    0    0  501 -0.00000000000E+00 -0.00000000000E+00 -0.22330862181E+02  0.22330862181E+02  0.00000000000E+00 0.  1.
         25    2    1    2    0    0 -0.99879224625E+02 -0.57137899356E+02  0.58958036418E+03  0.61359012645E+03  0.12508892192E+03 0.  0.
          5    1    3    3  502    0 -0.96429857359E+02  0.18536083927E+01  0.47379497636E+03  0.48353004589E+03  0.41800000000E+01 0.  1.
         -5    1    3    3    0  502 -0.34493672659E+01 -0.58991507749E+02  0.11578538782E+03  0.13006008056E+03  0.41800000000E+01 0.  1.
        -11    1    1    2    0    0  0.65913005402E+02 -0.80781907328E+00  0.14060768752E+03  0.15529230065E+03  0.00000000000E+00 0.  1.
         11    1    1    2    0    0  0.33966219223E+02  0.57945718429E+02  0.37502424494E+03  0.38099159390E+03  0.00000000000E+00 0. -1.
</event>
<event>
 7    1  0.2989693E-009  0.7937178E+02  0.7561462E-02  0.1330844E+00
          1   -1    0    0  501    0  0.00000000000E+00  0.00000000000E+00  0.45254610695E+03  0.45254610695E+03  0.00000000000E+00 0. -1.
         -1   -1    0    0    0  501 -0.00000000000E+00 -0.00000000000E+00 -0.47342778805E+02  0.47342778805E+02  0.00000000000E+00 0.  1.
         25    2    1    2    0    0 -0.24266063229E+02 -0.25838783877E+02  0.63545253262E+02  0.14470987341E+03  0.12508582523E+03 0.  0.
          5    1    3    3  502    0 -0.26846062463E+02  0.12033122306E+02  0.92261581325E+02  0.96928730988E+02  0.41800000000E+01 0. -1.
         -5    1    3    3    0  502  0.25799992333E+01 -0.37871906183E+02 -0.28716328063E+02  0.47781142425E+02  0.41800000000E+01 0. -1.
        -11    1    1    2    0    0  0.13183618814E+02 -0.30601948265E+02  0.19158254313E+03  0.19445862767E+03  0.00000000000E+00 0.  1.
         11    1    1    2    0    0  0.11082444415E+02  0.56440732142E+02  0.15007553175E+03  0.16072038468E+03  0.00000000000E+00 0. -1.
</event>
<event>
 7    1  0.2989693E-009  0.2074122E+03  0.7561462E-02  0.1143632E+00
          1   -1    0    0  501    0  0.00000000000E+00  0.00000000000E+00  0.41994138473E+03  0.41994138473E+03  0.00000000000E+00 0. -1.
         -1   -1    0    0    0  501 -0.00000000000E+00 -0.00000000000E+00 -0.12678688667E+03  0.12678688667E+03  0.00000000000E+00 0.  1.
         25    2    1    2    0    0 -0.54232686066E+02 -0.19842982409E+03  0.18723690812E+03  0.30499220076E+03  0.12508798278E+03 0.  0.
          5    1    3    3  502    0  0.66849421967E+00 -0.14451002349E+02 -0.18300765558E+02  0.23699552178E+02  0.41800000000E+01 0. -1.
         -5    1    3    3    0  502 -0.54901180286E+02 -0.18397882174E+03  0.20553767368E+03  0.28129264858E+03  0.41800000000E+01 0. -1.
        -11    1    1    2    0    0  0.37665257698E+01  0.64381078695E+02  0.15466908044E+01  0.64509706733E+02  0.00000000000E+00 0.  1.
         11    1    1    2    0    0  0.50466160296E+02  0.13404874539E+03  0.10437089914E+03  0.17722636391E+03  0.00000000000E+00 0. -1.
</event>
<event>
 7    1  0.2989693E-009  0.1368842E+03  0.7561462E-02  0.1217584E+00
         -2   -1    0    0    0  501 -0.00000000000E+00  0.00000000000E+00  0.16533042137E+03  0.16533042137E+03  0.00000000000E+00 0.  1.
          2   -1    0    0  501    0  0.00000000000E+00 -0.00000000000E+00 -0.12096840897E+03  0.12096840897E+03  0.00000000000E+00 0. -1.
         25    2    1    2    0    0 -0.84441469800E+02  0.29348412716E+02  0.13988978502E+02  0.15436789554E+03  0.12506823938E+03 0.  0.
          5    1    3    3  502    0 -0.10596254937E+03 -0.48000921622E+01  0.30666421140E+02  0.11049436429E+03  0.41800000000E+01 0.  1.
         -5    1    3    3    0  502  0.21521079572E+02  0.34148504879E+02 -0.16677442638E+02  0.43873531250E+02  0.41800000000E+01 0.  1.
        -11    1    1    2    0    0  0.31498920169E+02 -0.58614143248E+02  0.25433459362E+02  0.71236652193E+02  0.00000000000E+00 0. -1.
         11    1    1    2    0    0  0.52942549630E+02  0.29265730531E+02  0.49395745392E+01  0.60694282610E+02  0.00000000000E+00 0.  1.
</event>
<event>
 7    1  0.2989693E-009  0.1410175E+03  0.7561462E-02  0.1211966E+00
          2   -1    0    0  501    0  0.00000000000E+00  0.00000000000E+00  0.12462132394E+04  0.12462132394E+04  0.00000000000E+00 0. -1.
         -2   -1    0    0    0  501 -0.00000000000E+00 -0.00000000000E+00 -0.23716210891E+02  0.23716210891E+02  0.00000000000E+00 0.  1.
         25    2    1    2    0    0  0.91529406202E+01 -0.91897001206E+02  0.99790151390E+03  0.10099424943E+04  0.12509026809E+03 0.  0.
          5    1    3    3  502    0  0.67051249302E+02 -0.51697159837E+02  0.56311143805E+03  0.56945625858E+03  0.41800000000E+01 0. -1.
         -5    1    3    3    0  502 -0.57898308682E+02 -0.40199841369E+02  0.43479007585E+03  0.44048623571E+03  0.41800000000E+01 0. -1.
        -11    1    1    2    0    0  0.36430236347E+02  0.20091304371E+02  0.10744063336E+03  0.11521420194E+03  0.00000000000E+00 0. -1.
         11    1    1    2    0    0 -0.45583176967E+02  0.71805696834E+02  0.11715488128E+03  0.14477275409E+03  0.00000000000E+00 0.  1.
</event>
<event>
 7    1  0.2989693E-009  0.1009513E+03  0.7561462E-02  0.1278308E+00
         -2   -1    0    0    0  501 -0.00000000000E+00  0.00000000000E+00  0.14376840597E+03  0.14376840597E+03  0.00000000000E+00 0.  1.
          2   -1    0    0  501    0  0.00000000000E+00 -0.00000000000E+00 -0.14125022468E+03  0.14125022468E+03  0.00000000000E+00 0. -1.
         25    2    1    2    0    0 -0.81890252563E+02 -0.36809290855E+02 -0.21923997017E+02  0.15552876460E+03  0.12509035780E+03 0.  0.
          5    1    3    3  502    0 -0.25355476719E+02 -0.26223507884E+02 -0.70917304252E+02  0.79858055372E+02  0.41800000000E+01 0. -1.
         -5    1    3    3    0  502 -0.56534775845E+02 -0.10585782971E+02  0.48993307235E+02  0.75670709226E+02  0.41800000000E+01 0. -1.
        -11    1    1    2    0    0  0.79138498224E+02  0.90860442468E+01 -0.15141964926E+02  0.81084753209E+02  0.00000000000E+00 0. -1.
         11    1    1    2    0    0  0.27517543394E+01  0.27723246608E+02  0.39584143230E+02  0.48405112847E+02  0.00000000000E+00 0.  1.
</event>
<event>
 7    1  0.2989693E-009  0.1989335E+03  0.7561462E-02  0.1150642E+00
         -2   -1    0    0    0  501 -0.00000000000E+00  0.00000000000E+00  0.44422431973E+02  0.44422431973E+02  0.00000000000E+00 0.  1.
          2   -1    0    0  501    0  0.00000000000E+00 -0.00000000000E+00 -0.10455240034E+04  0.10455240034E+04  0.00000000000E+00 0. -1.
         25    2    1    2    0    0  0.17483511409E+03  0.57893003611E+02 -0.58382798692E+03  0.62483707875E+03  0.12508932685E+03 0.  0.
          5    1    3    3  502    0  0.50139944861E+02  0.70890574130E+02 -0.15139689112E+03  0.17457943353E+03  0.41800000000E+01 0. -1.
         -5    1    3    3    0  502  0.12469516923E+03 -0.12997570519E+02 -0.43243109580E+03  0.45025764522E+03  0.41800000000E+01 0. -1.
        -11    1    1    2    0    0 -0.13612240867E+03 -0.54525732421E+02 -0.39257034675E+03  0.41906305347E+03  0.00000000000E+00 0.  1.
         11    1    1    2    0    0 -0.38712705423E+02 -0.33672711908E+01 -0.24703237726E+02  0.46046303115E+02  0.00000000000E+00 0. -1.
</event>
<event>
 7    1  0.2989693E-009  0.1059351E+03  0.7561462E-02  0.1268288E+00
          1   -1    0    0  501    0  0.00000000000E+00  0.00000000000E+00  0.63774562286E+03  0.63774562286E+03  0.00000000000E+00 0. -1.
         -1   -1    0    0    0  501 -0.00000000000E+00 -0.00000000000E+00 -0.18678308172E+02  0.18678308172E+02  0.00000000000E+00 0.  1.
         25    2    1    2    0    0  0.34540816946E+01  0.86507022711E+01  0.33025020963E+03  0.35326888154E+03  0.12508771470E+03 0.  0.
          5    1    3    3  502    0  0.32024852156E+02 -0.50112154056E+02  0.14441186447E+03  0.15623404924E+03  0.41800000000E+01 0. -1.
         -5    1    3    3    0  502 -0.28570770461E+02  0.58762856327E+02  0.18583834516E+03  0.19703483230E+03  0.41800000000E+01 0. -1.
        -11    1    1    2    0    0  0.26425654380E+02  0.28656330490E+02  0.80722476336E+02  0.89641612393E+02  0.00000000000E+00 0.  1.
         11    1    1    2    0    0 -0.29879736075E+02 -0.37307032761E+02  0.20809462871E+03  0.21351343710E+03  0.00000000000E+00 0. -1.
</event>
<event>
 7    1  0.2989693E-009  0.9237322E+02  0.7561462E-02  0.1297204E+00
          2   -1    0    0  501    0  0.00000000000E+00  0.00000000000E+00  0.29069745517E+03  0.29069745517E+03  0.00000000000E+00 0. -1.
         -2   -1    0    0    0  501 -0.00000000000E+00 -0.00000000000E+00 -0.36987170114E+02  0.36987170114E+02  0.00000000000E+00 0.  1.
         25    2    1    2    0    0 -0.21145826558E+02 -0.10374993923E+02  0.13863271830E+03  0.18820088154E+03  0.12508299146E+03 0.  0.
          5    1    3    3  502    0 -0.25230825831E+01 -0.58886828985E+02  0.26938379121E+02  0.64939766271E+02  0.41800000000E+01 0. -1.
         -5    1    3    3    0  502 -0.18622743975E+02  0.48511835062E+02  0.11169433918E+03  0.12326111527E+03  0.41800000000E+01 0. -1.
        -11    1    1    2    0    0  0.46874112747E+02  0.41629887343E+01  0.47301127964E+02  0.66722632050E+02  0.00000000000E+00 0.  1.
         11    1    1    2    0    0 -0.25728286189E+02  0.62120051886E+01  0.67776438791E+02  0.72761111687E+02  0.00000000000E+00 0. -1.
</event>
<event>
 7    1  0.2989693E-009  0.9736128E+02  0.7561462E-02  0.1285945E+00
          2   -1    0    0  501    0  0.00000000000E+00  0.00000000000E+00  0.12312567419E+03  0.12312567419E+03  0.00000000000E+00 0. -1.
         -2   -1    0    0    0  501 -0.00000000000E+00 -0.00000000000E+00 -0.12579892657E+03  0.12579892657E+03  0.00000000000E+00 0.  1.
         25    2    1    2    0    0 -0.27512717209E+02  0.51632758135E+02 -0.20081523805E+02  0.13954652052E+03  0.12508825872E+03 0.  0.
          5    1    3    3  502    0  0.19451348151E+02  0.41448266137E+02  0.41077878196E+02  0.61653695654E+02  0.41800000000E+01 0. -1.
         -5    1    3    3    0  502 -0.46964065361E+02  0.10184491998E+02 -0.61159402001E+02  0.77892824866E+02  0.41800000000E+01 0. -1.
        -11    1    1    2    0    0 -0.28154397212E+02 -0.66240854457E+01  0.23869535975E+02  0.37500711166E+02  0.00000000000E+00 0. -1.
         11    1    1    2    0    0  0.55667114421E+02 -0.45008672689E+02 -0.64612645446E+01  0.71877369072E+02  0.00000000000E+00 0.  1.
</event>
<event>
 7    1  0.2989693E-009  0.1143005E+03  0.7561462E-02  0.1252807E+00
          1   -1    0    0  501    0  0.00000000000E+00  0.00000000000E+00  0.36206139453E+03  0.36206139453E+03  0.00000000000E+00 0. -1.
         -1   -1    0    0    0  501 -0.00000000000E+00 -0.00000000000E+00 -0.62975605311E+02  0.62975605311E+02  0.00000000000E+00 0.  1.
         25    2    1    2    0    0 -0.38964668782E+02 -0.38515308069E+02  0.28900971273E+03  0.31966649004E+03  0.12513343449E+03 0.  0.
          5    1    3    3  502    0  0.41583787791E+02 -0.35407120580E+02  0.97324396313E+02  0.11167983754E+03  0.41800000000E+01 0.  1.
         -5    1    3    3    0  502 -0.80548456572E+02 -0.31081874885E+01  0.19168531642E+03  0.20798665250E+03  0.41800000000E+01 0.  1.
        -11    1    1    2    0    0  0.54250243266E+02  0.28720871703E+01  0.29690394456E+02  0.61910074319E+02  0.00000000000E+00 0. -1.
         11    1    1    2    0    0 -0.15285574485E+02  0.35643220899E+02 -0.19614317970E+02  0.43460435488E+02  0.00000000000E+00 0.  1.
</event>
<event>
 7    1  0.2989693E-009  0.9395897E+02  0.7561462E-02  0.1293538E+00
         -1   -1    0    0    0  501 -0.00000000000E+00  0.00000000000E+00  0.57281515929E+02  0.57281515929E+02  0.00000000000E+00 0.  1.
          1   -1    0    0  501    0  0.00000000000E+00 -0.00000000000E+00 -0.25570500319E+03  0.25570500319E+03  0.00000000000E+00 0. -1.
         25    2    1    2    0    0  0.10642993953E+02 -0.48285282676E+02 -0.14080611862E+03  0.19472548651E+03  0.12508761014E+03 0.  0.
          5    1    3    3  502    0 -0.18510409774E+02  0.18117524619E+02  0.94055593131E+01  0.27871435455E+02  0.41800000000E+01 0.  1.
         -5    1    3    3    0  502  0.29153403727E+02 -0.66402807295E+02 -0.15021167793E+03  0.16685405105E+03  0.41800000000E+01 0.  1.
        -11    1    1    2    0    0  0.28566905612E+02  0.23754593155E+01 -0.49693210606E+02  0.57368336942E+02  0.00000000000E+00 0. -1.
         11    1    1    2    0    0 -0.39209899565E+02  0.45909823361E+02 -0.79241580342E+01  0.60892695666E+02  0.00000000000E+00 0.  1.
</event>
<event>
 7    1  0.4594063E-009  0.1088078E+03  0.7561462E-02  0.1262794E+00
         -1   -1    0    0    0  501 -0.00000000000E+00  0.00000000000E+00  0.82322626462E+02  0.82322626462E+02  0.00000000000E+00 0.  1.
          1   -1    0    0  501    0  0.00000000000E+00 -0.00000000000E+00 -0.20079596638E+03  0.20079596638E+03  0.00000000000E+00 0. -1.
         25    2    1    2    0    0 -0.28388704444E+02  0.29352089352E+02 -0.49041828070E+01  0.13167775381E+03  0.12509003218E+03 0.  0.
          5    1    3    3  502    0  0.48388280572E+02  0.14511856896E+02 -0.14648061117E+02  0.52764171383E+02  0.41800000000E+01 0.  1.
         -5    1    3    3    0  502 -0.76776985016E+02  0.14840232456E+02  0.97438783097E+01  0.78913582430E+02  0.41800000000E+01 0.  1.
        -11    1    1    2    0    0  0.38921457780E+02  0.15981322886E+02 -0.19260890188E+02  0.46273798717E+02  0.00000000000E+00 0.  1.
         11    1    1    2    0    0 -0.10532753336E+02 -0.45333412238E+02 -0.94308266927E+02  0.10516704032E+03  0.00000000000E+00 0. -1.
</event>
<event>
 7    1  0.2989693E-009  0.1004202E+03  0.7561462E-02  0.1279415E+00
          2   -1    0    0  501    0  0.00000000000E+00  0.00000000000E+00  0.73701288931E+03  0.73701288931E+03  0.00000000000E+00 0. -1.
         -2   -1    0    0    0  501 -0.00000000000E+00 -0.00000000000E+00 -0.19696099178E+02  0.19696099178E+02  0.00000000000E+00 0.  1.
         25    2    1    2    0    0 -0.27729496973E+02  0.44581852121E+02  0.44050774646E+03  0.46092376314E+03  0.12508866534E+03 0.  0.
          5    1    3    3  502    0 -0.65529795964E+02  0.60757778064E+02  0.35281885707E+03  0.36398390082E+03  0.41800000000E+01 0.  1.
         -5    1    3    3    0  502  0.37800298991E+02 -0.16175925942E+02  0.87688889393E+02  0.96939862321E+02  0.41800000000E+01 0.  1.
        -11    1    1    2    0    0  0.40723384969E+02 -0.30407155686E+02  0.27096136361E+03  0.27568650632E+03  0.00000000000E+00 0. -1.
         11    1    1    2    0    0 -0.12993887996E+02 -0.14174696436E+02  0.58476800643E+01  0.20098719024E+02  0.00000000000E+00 0.  1.
</event>
<event>
 7    1  0.2989693E-009  0.8095435E+02  0.7561462E-02  0.1326365E+00
          2   -1    0    0  501    0  0.00000000000E+00  0.00000000000E+00  0.79066719967E+03  0.79066719967E+03  0.00000000000E+00 0. -1.
         -2   -1    0    0    0  501 -0.00000000000E+00 -0.00000000000E+00 -0.30436768745E+02  0.30436768745E+02  0.00000000000E+00 0.  1.
         25    2    1    2    0    0 -0.30592339309E+02  0.22849225128E+02  0.68369456667E+03  0.69609117542E+03  0.12508671268E+03 0.  0.
          5    1    3    3  502    0 -0.68660024913E+02  0.20493462571E+02  0.59682554965E+03  0.60112593535E+03  0.41800000000E+01 0. -1.
         -5    1    3    3    0  502  0.38067685604E+02  0.23557625564E+01  0.86869017020E+02  0.94965240075E+02  0.41800000000E+01 0. -1.
        -11    1    1    2    0    0  0.25318107988E+01 -0.23559637317E+02  0.90578528820E+02  0.93626579878E+02  0.00000000000E+00 0. -1.
         11    1    1    2    0    0  0.28060528510E+02  0.71041218982E+00 -0.14042664565E+02  0.31386213117E+02  0.00000000000E+00 0.  1.
</event>
<event>
 7    1  0.2989693E-009  0.1053728E+03  0.7561462E-02  0.1269387E+00
         -1   -1    0    0    0  501 -0.00000000000E+00  0.00000000000E+00  0.64329192862E+03  0.64329192862E+03  0.00000000000E+00 0.  1.
          1   -1    0    0  501    0  0.00000000000E+00 -0.00000000000E+00 -0.23717226894E+02  0.23717226894E+02  0.00000000000E+00 0. -1.
         25    2    1    2    0    0  0.54450989386E+02  0.15009252008E+02  0.29676078786E+03  0.32697319892E+03  0.12511722389E+03 0.  0.
          5    1    3    3  502    0  0.52997997264E+01  0.51384848886E+02  0.47544564828E+02  0.70330993288E+02  0.41800000000E+01 0. -1.
         -5    1    3    3    0  502  0.49151189660E+02 -0.36375596877E+02  0.24921622303E+03  0.25664220564E+03  0.41800000000E+01 0. -1.
        -11    1    1    2    0    0 -0.45435646813E+02  0.28209182245E+02  0.24309702589E+03  0.24891026488E+03  0.00000000000E+00 0.  1.
         11    1    1    2    0    0 -0.90153425733E+01 -0.43218434253E+02  0.79716887979E+02  0.91125691713E+02  0.00000000000E+00 0. -1.
</event>
<event>
 7    1  0.2989693E-009  0.1790744E+03  0.7561462E-02  0.1168702E+00
          1   -1    0    0  501    0  0.00000000000E+00  0.00000000000E+00  0.82018380358E+03  0.82018380358E+03  0.00000000000E+00 0. -1.
         -1   -1    0    0    0  501 -0.00000000000E+00 -0.00000000000E+00 -0.53486760745E+02  0.53486760745E+02  0.00000000000E+00 0.  1.
         25    2    1    2    0    0  0.17310307535E+03 -0.45102807774E+02  0.35574429080E+03  0.41737224615E+03  0.12508658382E+03 0.  0.
          5    1    3    3  502    0  0.73546460052E+02 -0.15660311450E+02  0.27685070089E+03  0.28691132799E+03  0.41800000000E+01 0. -1.
         -5    1    3    3    0  502  0.99556615299E+02 -0.29442496324E+02  0.78893589909E+02  0.13046091816E+03  0.41800000000E+01 0. -1.
        -11    1    1    2    0    0 -0.54002445856E+02  0.16139870091E+02  0.23628653080E+03  0.24291579652E+03  0.00000000000E+00 0. -1.
         11    1    1    2    0    0 -0.11910062949E+03  0.28962937683E+02  0.17466622123E+03  0.21338252165E+03  0.00000000000E+00 0.  1.
</event>
<event>
 7    1  0.2989693E-009  0.1085545E+03  0.7561462E-02  0.1263270E+00
         -2   -1    0    0    0  501 -0.00000000000E+00  0.00000000000E+00  0.46060165186E+02  0.46060165186E+02  0.00000000000E+00 0.  1.
          2   -1    0    0  501    0  0.00000000000E+00 -0.00000000000E+00 -0.39797158541E+03  0.39797158541E+03  0.00000000000E+00 0. -1.
         25    2    1    2    0    0  0.50331547556E+02 -0.72780109531E+01 -0.31720935434E+03  0.34475344619E+03  0.12508768947E+03 0.  0.
          5    1    3    3  502    0  0.22358914300E+02 -0.62338097392E+02 -0.21745527424E+03  0.22735485068E+03  0.41800000000E+01 0. -1.
         -5    1    3    3    0  502  0.27972633256E+02  0.55060086439E+02 -0.99754080103E+02  0.11739859551E+03  0.41800000000E+01 0. -1.
        -11    1    1    2    0    0  0.33591636348E+01 -0.25648904000E+02 -0.24204979857E+02  0.35426421024E+02  0.00000000000E+00 0.  1.
         11    1    1    2    0    0 -0.53690711191E+02  0.32926914953E+02 -0.10497086029E+02  0.63851883383E+02  0.00000000000E+00 0. -1.
</event>
<event>
 7    1  0.2989693E-009  0.1794462E+03  0.7561462E-02  0.1168340E+00
         -1   -1    0    0    0  501 -0.00000000000E+00  0.00000000000E+00  0.35846506565E+02  0.35846506565E+02  0.00000000000E+00 0.  1.
          1   -1    0    0  501    0  0.00000000000E+00 -0.00000000000E+00 -0.95493356748E+03  0.95493356748E+03  0.00000000000E+00 0. -1.
         25    2    1    2    0    0  0.12484371749E+03  0.82163793963E+02 -0.48304043295E+03  0.52087641693E+03  0.12508932414E+03 0.  0.
          5    1    3    3  502    0 -0.13071118217E+02  0.41058384470E+02 -0.59843282499E+02  0.73860245917E+02  0.41800000000E+01 0.  1.
         -5    1    3    3    0  502  0.13791483570E+03  0.41105409493E+02 -0.42319715045E+03  0.44701617101E+03  0.41800000000E+01 0.  1.
        -11    1    1    2    0    0 -0.18035560558E+02 -0.59860470152E+02 -0.20627234732E+03  0.21553848520E+03  0.00000000000E+00 0.  1.
         11    1    1    2    0    0 -0.10680815693E+03 -0.22303323811E+02 -0.22977428064E+03  0.25436517192E+03  0.00000000000E+00 0. -1.
</event>
<event>
 7    1  0.2989693E-009  0.9720295E+02  0.7561462E-02  0.1286290E+00
         -2   -1    0    0    0  501 -0.00000000000E+00  0.00000000000E+00  0.14502538019E+03  0.14502538019E+03  0.00000000000E+00 0.  1.
          2   -1    0    0  501    0  0.00000000000E+00 -0.00000000000E+00 -0.14560246245E+03  0.14560246245E+03  0.00000000000E+00 0. -1.
         25    2    1    2    0    0  0.52041720912E+01  0.56207404126E+02  0.77176784245E+02  0.15744618810E+03  0.12508673165E+03 0.  0.
          5    1    3    3  502    0 -0.32869194825E+02 -0.62082269615E+01 -0.17316567040E+02  0.37898046711E+02  0.41800000000E+01 0. -1.
         -5    1    3    3    0  502  0.38073366917E+02  0.62415631088E+02  0.94493351285E+02  0.11954814139E+03  0.41800000000E+01 0. -1.
        -11    1    1    2    0    0  0.30813018442E+02 -0.22707449077E+02  0.32488948516E+01  0.38413873364E+02  0.00000000000E+00 0.  1.
         11    1    1    2    0    0 -0.36017190533E+02 -0.33499955050E+02 -0.81002761349E+02  0.94767781173E+02  0.00000000000E+00 0. -1.
</event>
<event>
 7    1  0.2989693E-009  0.1125847E+03  0.7561462E-02  0.1255857E+00
          1   -1    0    0  501    0  0.00000000000E+00  0.00000000000E+00  0.65389678501E+03  0.65389678501E+03  0.00000000000E+00 0.  1.
         -1   -1    0    0    0  501 -0.00000000000E+00 -0.00000000000E+00 -0.21060551949E+02  0.21060551949E+02  0.00000000000E+00 0. -1.
         25    2    1    2    0    0  0.12580636270E+02 -0.31649218959E+02  0.39985196451E+03  0.42034390276E+03  0.12508979812E+03 0.  0.
          5    1    3    3  502    0  0.40730662992E+02  0.32700609533E+02  0.24060808794E+03  0.24624792619E+03  0.41800000000E+01 0.  1.
         -5    1    3    3    0  502 -0.28150026722E+02 -0.64349828492E+02  0.15924387657E+03  0.17409597657E+03  0.41800000000E+01 0.  1.
        -11    1    1    2    0    0 -0.26940685360E+02 -0.29291841216E+02  0.81395827274E+02  0.90604046196E+02  0.00000000000E+00 0.  1.
         11    1    1    2    0    0  0.14360049090E+02  0.60941060175E+02  0.15158844127E+03  0.16400938800E+03  0.00000000000E+00 0. -1.
</event>
<event>
 7    1  0.2989693E-009  0.7897075E+02  0.7561462E-02  0.1331998E+00
         -1   -1    0    0    0  501 -0.00000000000E+00  0.00000000000E+00  0.60337025393E+02  0.60337025393E+02  0.00000000000E+00 0.  1.
          1   -1    0    0  501    0  0.00000000000E+00 -0.00000000000E+00 -0.23071367278E+03  0.23071367278E+03  0.00000000000E+00 0. -1.
         25    2    1    2    0    0 -0.42736941406E+01 -0.10592089163E+02 -0.40468290141E+02  0.13196060150E+03  0.12508181733E+03 0.  0.
          5    1    3    3  502    0 -0.33542416488E+02  0.24875852423E+01  0.35693102667E+02  0.49221456319E+02  0.41800000000E+01 0.  1.
         -5    1    3    3    0  502  0.29268722347E+02 -0.13079674405E+02 -0.76161392809E+02  0.82739145179E+02  0.41800000000E+01 0.  1.
        -11    1    1    2    0    0  0.46729354394E+01  0.51047615484E+02 -0.68626760139E+02  0.85658202056E+02  0.00000000000E+00 0. -1.
         11    1    1    2    0    0 -0.39924129885E+00 -0.40455526321E+02 -0.61281597109E+02  0.73431894622E+02  0.00000000000E+00 0.  1.
</event>
<event>
 7    1  0.2989693E-009  0.7048757E+02  0.7561462E-02  0.1358443E+00
          2   -1    0    0  501    0  0.00000000000E+00  0.00000000000E+00  0.55999136751E+02  0.55999136751E+02  0.00000000000E+00 0. -1.
         -2   -1    0    0    0  501 -0.00000000000E+00 -0.00000000000E+00 -0.29781209112E+03  0.29781209112E+03  0.00000000000E+00 0.  1.
         25    2    1    2    0    0 -0.23850203849E+02  0.37733737286E+02 -0.58364920741E+02  0.14506212164E+03  0.12507552921E+03 0.  0.
          5    1    3    3  502    0 -0.89991683663E+01  0.43393796866E+02 -0.94999040620E+02  0.10491089913E+03  0.41800000000E+01 0. -1.
         -5    1    3    3    0  502 -0.14851035483E+02 -0.56600595796E+01  0.36634119879E+02  0.40151222505E+02  0.41800000000E+01 0. -1.
        -11    1    1    2    0    0  0.34624547784E+02  0.58647260121E+01 -0.22629161338E+02  0.41777185920E+02  0.00000000000E+00 0. -1.
         11    1    1    2    0    0 -0.10774343935E+02 -0.43598463299E+02 -0.16081887229E+03  0.16697192032E+03  0.00000000000E+00 0.  1.
</event>
<event>
 7    1  0.2989693E-009  0.1111102E+03  0.7561462E-02  0.1258528E+00
         -2   -1    0    0    0  501 -0.00000000000E+00  0.00000000000E+00  0.45551333875E+02  0.45551333875E+02  0.00000000000E+00 0.  1.
          2   -1    0    0  501    0  0.00000000000E+00 -0.00000000000E+00 -0.32434810829E+03  0.32434810829E+03  0.00000000000E+00 0. -1.
         25    2    1    2    0    0  0.32728382794E+02  0.13404774621E+02 -0.94635832876E+02  0.16077944931E+03  0.12507300042E+03 0.  0.
          5    1    3    3  502    0  0.70608902285E+02 -0.25434240298E+02 -0.48652495028E+02  0.89538010553E+02  0.41800000000E+01 0. -1.
         -5    1    3    3    0  502 -0.37880519491E+02  0.38839014919E+02 -0.45983337848E+02  0.71241438758E+02  0.41800000000E+01 0. -1.
        -11    1    1    2    0    0 -0.51565271212E+01 -0.48070644584E+02 -0.58564510226E+02  0.75941941644E+02  0.00000000000E+00 0.  1.
         11    1    1    2    0    0 -0.27571855673E+02  0.34665869963E+02 -0.12559643132E+03  0.13317805121E+03  0.00000000000E+00 0. -1.
</event>
<event>
 7    1  0.2989693E-009  0.1087472E+03  0.7561462E-02  0.1262908E+00
          2   -1    0    0  501    0  0.00000000000E+00  0.00000000000E+00  0.48590534981E+03  0.48590534981E+03  0.00000000000E+00 0. -1.
         -2   -1    0    0    0  501 -0.00000000000E+00 -0.00000000000E+00 -0.31435310760E+02  0.31435310760E+02  0.00000000000E+00 0.  1.
         25    2    1    2    0    0  0.56812100635E+02 -0.16038427276E+02  0.21223842122E+03  0.25333252391E+03  0.12508946519E+03 0.  0.
          5    1    3    3  502    0 -0.23499722914E+02 -0.43536511126E+02  0.51675683500E+02  0.71662496770E+02  0.41800000000E+01 0.  1.
         -5    1    3    3    0  502  0.80311823549E+02  0.27498083850E+02  0.16056273772E+03  0.18167002714E+03  0.41800000000E+01 0.  1.
        -11    1    1    2    0    0 -0.30771555234E+02  0.37923141296E+02  0.54333975579E+02  0.73056376583E+02  0.00000000000E+00 0.  1.
         11    1    1    2    0    0 -0.26040545400E+02 -0.21884714020E+02  0.18789764225E+03  0.19095176008E+03  0.00000000000E+00 0. -1.
</event>
<event>
 7    1  0.3247939E-009  0.1532859E+03  0.7561462E-02  0.1196493E+00
         -1   -1    0    0    0  501 -0.00000000000E+00  0.00000000000E+00  0.46374638900E+02  0.46374638900E+02  0.00000000000E+00 0.  1.
          1   -1    0    0  501    0  0.00000000000E+00 -0.00000000000E+00 -0.91638218103E+03  0.91638218103E+03  0.00000000000E+00 0. -1.
         25    2    1    2    0    0 -0.96229184427E+02  0.83012460942E+02 -0.73395134493E+03  0.75530346382E+03  0.12509045179E+03 0.  0.
          5    1    3    3  502    0 -0.11024906010E+03  0.18400947691E+02 -0.44247027424E+03  0.45638894171E+03  0.41800000000E+01 0. -1.
         -5    1    3    3    0  502  0.14019875672E+02  0.64611513251E+02 -0.29148107068E+03  0.29891452211E+03  0.41800000000E+01 0. -1.
        -11    1    1    2    0    0  0.65256280914E+02 -0.44200467169E+02 -0.20139904769E+02  0.81349119607E+02  0.00000000000E+00 0.  1.
         11    1    1    2    0    0  0.30972903513E+02 -0.38811993773E+02 -0.11591629243E+03  0.12610423650E+03  0.00000000000E+00 0. -1.
</event>
<event>
 7    1  0.2989693E-009  0.1340451E+03  0.7561462E-02  0.1221574E+00
          1   -1    0    0  501    0  0.00000000000E+00  0.00000000000E+00  0.11974788191E+04  0.11974788191E+04  0.00000000000E+00 0. -1.
         -1   -1    0    0    0  501 -0.00000000000E+00 -0.00000000000E+00 -0.21174041460E+02  0.21174041460E+02  0.00000000000E+00 0.  1.
         25    2    1    2    0    0  0.13750498771E+02 -0.11332405863E+03  0.54250496211E+03  0.56832274113E+03  0.12509070984E+03 0.  0.
          5    1    3    3  502    0  0.44013231602E+02 -0.46644346693E+02  0.94059460164E+02  0.11391889255E+03  0.41800000000E+01 0. -1.
         -5    1    3    3    0  502 -0.30262732831E+02 -0.66679711934E+02  0.44844550195E+03  0.45440384858E+03  0.41800000000E+01 0. -1.
        -11    1    1    2    0    0  0.20594286738E+02  0.12799187428E+02  0.37600755841E+02  0.44741040275E+02  0.00000000000E+00 0.  1.
         11    1    1    2    0    0 -0.34344785509E+02  0.10052487120E+03  0.59619905966E+03  0.60558907913E+03  0.00000000000E+00 0. -1.
</event>
<event>
 7    1  0.2989693E-009  0.9164964E+02  0.7561462E-02  0.1298905E+00
          2   -1    0    0  501    0  0.00000000000E+00  0.00000000000E+00  0.38045790605E+02  0.38045790605E+02  0.00000000000E+00 0. -1.
         -2   -1    0    0    0  501 -0.00000000000E+00 -0.00000000000E+00 -0.38938832646E+03  0.38938832646E+03  0.00000000000E+00 0.  1.
         25    2    1    2    0    0  0.98601495977E+01 -0.17017649261E+02 -0.28306590452E+03  0.31009761359E+03  0.12508957076E+03 0.  0.
          5    1    3    3  502    0  0.32096053310E+02 -0.44748757459E+02 -0.26366605935E+03  0.26938795664E+03  0.41800000000E+01 0.  1.
         -5    1    3    3    0  502 -0.22235903712E+02  0.27731108198E+02 -0.19399845177E+02  0.40709656946E+02  0.41800000000E+01 0.  1.
        -11    1    1    2    0    0  0.26941394163E+01  0.53567863701E+02 -0.24572980421E+02  0.58996659020E+02  0.00000000000E+00 0.  1.
         11    1    1    2    0    0 -0.12554289014E+02 -0.36550214441E+02 -0.43703650908E+02  0.58339844454E+02  0.00000000000E+00 0. -1.
</event>
<event>
 6    1  0.2989693E-009  0.1191670E+03  0.7561462E-02  0.1244478E+00
          2   -1    0    0  501    0  0.00000000000E+00  0.00000000000E+00  0.13879638843E+04  0.13879638843E+04  0.00000000000E+00 0.  1.
         -2   -1    0    0    0  501 -0.00000000000E+00 -0.00000000000E+00 -0.12783688517E+02  0.12783688517E+02  0.00000000000E+00 0. -1.
          5    1    1    2  502    0 -0.89420354169E+02  0.20552363558E+02  0.85100481964E+03  0.85594688786E+03  0.41800000000E+01 0. -1.
         -5    1    1    2    0  502  0.28490718218E+02 -0.28100265696E+02  0.18171657885E+03  0.18611752574E+03  0.41800000000E+01 0. -1.
        -11    1    1    2    0    0 -0.10257129830E+02  0.29922921196E+02  0.11674661114E+03  0.12095602978E+03  0.00000000000E+00 0.  1.
         11    1    1    2    0    0  0.71186765781E+02 -0.22375019057E+02  0.22571218618E+03  0.23772712948E+03  0.00000000000E+00 0. -1.
</event>
<event>
 7    1  0.2989693E-009  0.1911217E+03  0.7561462E-02  0.1157453E+00
         -1   -1    0    0    0  501 -0.00000000000E+00  0.00000000000E+00  0.37406826431E+03  0.37406826431E+03  0.00000000000E+00 0.  1.
          1   -1    0    0  501    0  0.00000000000E+00 -0.00000000000E+00 -0.14281261283E+03  0.14281261283E+03  0.00000000000E+00 0. -1.
         25    2    1    2    0    0  0.13775982216E+03 -0.12800207928E+03  0.31154403853E+02  0.22798998922E+03  0.12508611996E+03 0.  0.
          5    1    3    3  502    0  0.11807755777E+03 -0.10089528857E+03 -0.29903586758E+02  0.15822093984E+03  0.41800000000E+01 0. -1.
         -5    1    3    3    0  502  0.19682264389E+02 -0.27106790708E+02  0.61057990611E+02  0.69769049380E+02  0.41800000000E+01 0. -1.
        -11    1    1    2    0    0 -0.12923845055E+02  0.35394081186E+02  0.28931284173E+01  0.37790699200E+02  0.00000000000E+00 0. -1.
         11    1    1    2    0    0 -0.12483597710E+03  0.92607998090E+02  0.19720811921E+03  0.25110018871E+03  0.00000000000E+00 0.  1.
</event>
<event>
 7    1  0.2989693E-009  0.8117937E+02  0.7561462E-02  0.1325737E+00
          3   -1    0    0  501    0  0.00000000000E+00  0.00000000000E+00  0.39041847256E+02  0.39041847256E+02  0.00000000000E+00 0. -1.
         -3   -1    0    0    0  501 -0.00000000000E+00 -0.00000000000E+00 -0.38493827542E+03  0.38493827542E+03  0.00000000000E+00 0.  1.
         25    2    1    2    0    0 -0.56922573075E+02  0.10283131688E+02 -0.18811577715E+03  0.23319631718E+03  0.12508818733E+03 0.  0.
          5    1    3    3  502    0 -0.70359435758E+02  0.27731940770E+02 -0.19544813924E+03  0.20961144595E+03  0.41800000000E+01 0. -1.
         -5    1    3    3    0  502  0.13436862683E+02 -0.17448809082E+02  0.73323620924E+01  0.23584871231E+02  0.41800000000E+01 0. -1.
        -11    1    1    2    0    0  0.30472288767E+02  0.86445758088E+01 -0.21026485511E+01  0.31744451555E+02  0.00000000000E+00 0. -1.
         11    1    1    2    0    0  0.26450284309E+02 -0.18927707497E+02 -0.15567800247E+03  0.15903935394E+03  0.00000000000E+00 0.  1.
</event>
<event>
 7    1  0.2989693E-009  0.1080014E+03  0.7561462E-02  0.1264316E+00
          1   -1    0    0  501    0  0.00000000000E+00  0.00000000000E+00  0.58485894127E+03  0.58485894127E+03  0.00000000000E+00 0. -1.
         -1   -1    0    0    0  501 -0.00000000000E+00 -0.00000000000E+00 -0.25580160363E+02  0.25580160363E+02  0.00000000000E+00 0.  1.
         25    2    1    2    0    0  0.10728959133E+02  0.68598226006E+01  0.45370152777E+03  0.47080319307E+03  0.12509357524E+03 0.  0.
          5    1    3    3  502    0 -0.53092291321E+02 -0.18737575116E+02  0.22300098142E+03  0.23003651500E+03  0.41800000000E+01 0. -1.
         -5    1    3    3    0  502  0.63821250455E+02  0.25597397717E+02  0.23070054636E+03  0.24076667807E+03  0.41800000000E+01 0. -1.
        -11    1    1    2    0    0 -0.50545588116E+02 -0.26062828007E+01  0.67601066985E+02  0.84448525420E+02  0.00000000000E+00 0.  1.
         11    1    1    2    0    0  0.39816628982E+02 -0.42535397999E+01  0.37976186151E+02  0.55187383150E+02  0.00000000000E+00 0. -1.
</event>
<event>
 7    1  0.2989693E-009  0.1770453E+03  0.7561462E-02  0.1170694E+00
         -1   -1    0    0    0  501 -0.00000000000E+00  0.00000000000E+00  0.26398614587E+02  0.26398614587E+02  0.00000000000E+00 0.  1.
          1   -1    0    0  501    0  0.00000000000E+00 -0.00000000000E+00 -0.13409976805E+04  0.13409976805E+04  0.00000000000E+00 0. -1.
         25    2    1    2    0    0  0.14789927917E+03  0.25461858167E+01 -0.84156511601E+03  0.86357435954E+03  0.12509256622E+03 0.  0.
          5    1    3    3  502    0  0.44817990168E+02  0.58042046489E+02 -0.25212274798E+03  0.26260404386E+03  0.41800000000E+01 0.  1.
         -5    1    3    3    0  502  0.10308128900E+03 -0.55495860672E+02 -0.58944236803E+03  0.60097031567E+03  0.41800000000E+01 0.  1.
        -11    1    1    2    0    0 -0.92448721544E+02 -0.35454670633E+02 -0.19859007985E+03  0.22190497876E+03  0.00000000000E+00 0.  1.
         11    1    1    2    0    0 -0.55450557628E+02  0.32908484816E+02 -0.27444387002E+03  0.28191695675E+03  0.00000000000E+00 0. -1.
</event>
<event>
 7    1  0.2989693E-009  0.9554342E+02  0.7561462E-02  0.1289957E+00
         -1   -1    0    0    0  501 -0.00000000000E+00  0.00000000000E+00  0.44318515772E+02  0.44318515772E+02  0.00000000000E+00 0.  1.
          1   -1    0    0  501    0  0.00000000000E+00 -0.00000000000E+00 -0.37306428303E+03  0.37306428303E+03  0.00000000000E+00 0. -1.
         25    2    1    2    0    0  0.22274327296E+02  0.46536820182E+02 -0.25356876098E+03  0.28741339687E+03  0.12509005903E+03 0.  0.
          5    1    3    3  502    0  0.59040707842E+02 -0.96109024543E+01 -0.16928593294E+03  0.17959224404E+03  0.41800000000E+01 0. -1.
         -5    1    3    3    0  502 -0.36766380546E+02  0.56147722636E+02 -0.84282828041E+02  0.10782115283E+03  0.41800000000E+01 0. -1.
        -11    1    1    2    0    0 -0.16536664310E+02  0.45011120219E+00  0.18618540206E+02  0.24906101782E+02  0.00000000000E+00 0.  1.
         11    1    1    2    0    0 -0.57376629859E+01 -0.46986931384E+02 -0.93795546481E+02  0.10506330014E+03  0.00000000000E+00 0. -1.
</event>
<event>
 7    1  0.2989693E-009  0.1411371E+03  0.7561462E-02  0.1211807E+00
          1   -1    0    0  501    0  0.00000000000E+00  0.00000000000E+00  0.29326049012E+03  0.29326049012E+03  0.00000000000E+00 0. -1.
         -1   -1    0    0    0  501 -0.00000000000E+00 -0.00000000000E+00 -0.96796468006E+02  0.96796468006E+02  0.00000000000E+00 0.  1.
         25    2    1    2    0    0 -0.11961296663E+03 -0.47829555240E+02  0.10332925914E+03  0.20717651893E+03  0.12510094349E+03 0.  0.
          5    1    3    3  502    0 -0.11960345162E+03 -0.29784510231E+02  0.12706168233E+03  0.17707130260E+03  0.41800000000E+01 0.  1.
         -5    1    3    3    0  502 -0.95150075260E-02 -0.18045045009E+02 -0.23732423186E+02  0.30105216329E+02  0.41800000000E+01 0.  1.
        -11    1    1    2    0    0  0.97768721893E+01  0.26887056172E+02 -0.10450552037E+02  0.30458415213E+02  0.00000000000E+00 0. -1.
         11    1    1    2    0    0  0.10983609444E+03  0.20942499068E+02  0.10358531501E+03  0.15242202398E+03  0.00000000000E+00 0.  1.
</event>
<event>
 7    1  0.2989693E-009  0.8083964E+02  0.7561462E-02  0.1326685E+00
          1   -1    0    0  501    0  0.00000000000E+00  0.00000000000E+00  0.73367998431E+03  0.73367998431E+03  0.00000000000E+00 0. -1.
         -1   -1    0    0    0  501 -0.00000000000E+00 -0.00000000000E+00 -0.17005475334E+02  0.17005475334E+02  0.00000000000E+00 0.  1.
         25    2    1    2    0    0 -0.96197821069E+01 -0.20480483462E+02  0.44300953959E+03  0.46088727536E+03  0.12509051925E+03 0.  0.
          5    1    3    3  502    0 -0.14385324308E+02 -0.45994559297E+02  0.60432366009E+02  0.77407882685E+02  0.41800000000E+01 0.  1.
         -5    1    3    3    0  502  0.47655422010E+01  0.25514075835E+02  0.38257717358E+03  0.38347939267E+03  0.41800000000E+01 0.  1.
        -11    1    1    2    0    0  0.26520383922E+02  0.47932240777E+02  0.10881609536E+03  0.12182681592E+03  0.00000000000E+00 0.  1.
         11    1    1    2    0    0 -0.16900601815E+02 -0.27451757315E+02  0.16484887403E+03  0.16797136836E+03  0.00000000000E+00 0. -1.
</event>
<event>
 7    1  0.2989693E-009  0.1776509E+03  0.7561462E-02  0.1170096E+00
         -1   -1    0    0    0  501 -0.00000000000E+00  0.00000000000E+00  0.43045843214E+02  0.43045843214E+02  0.00000000000E+00 0.  1.
          1   -1    0    0  501    0  0.00000000000E+00 -0.00000000000E+00 -0.83377881186E+03  0.83377881186E+03  0.00000000000E+00 0. -1.
         25    2    1    2    0    0  0.62608759779E+02  0.14229719187E+03 -0.39204854534E+03  0.43990593425E+03  0.12508725542E+03 0.  0.
          5    1    3    3  502    0  0.11783313512E+02  0.12166789339E+03 -0.34973037153E+03  0.37050064498E+03  0.41800000000E+01 0.  1.
         -5    1    3    3    0  502  0.50825446267E+02  0.20629298473E+02 -0.42318173808E+02  0.69405289267E+02  0.41800000000E+01 0.  1.
        -11    1    1    2    0    0 -0.83189023245E+02 -0.94247191916E+02 -0.29924668781E+03  0.32457899954E+03  0.00000000000E+00 0.  1.
         11    1    1    2    0    0  0.20580263466E+02 -0.48049999950E+02 -0.99437735494E+02  0.11233972129E+03  0.00000000000E+00 0. -1.
</event>
<event>
 7    1  0.2989693E-009  0.1068120E+03  0.7561462E-02  0.1266590E+00
         -1   -1    0    0    0  501 -0.00000000000E+00  0.00000000000E+00  0.34620412198E+03  0.34620412198E+03  0.00000000000E+00 0.  1.
          1   -1    0    0  501    0  0.00000000000E+00 -0.00000000000E+00 -0.51585844423E+02  0.51585844423E+02  0.00000000000E+00 0. -1.
         25    2    1    2    0    0  0.34239081541E+02 -0.53757200935E+02  0.23155480929E+03  0.27079052630E+03  0.12509087926E+03 0.  0.
          5    1    3    3  502    0 -0.40233586117E+02  0.42260508957E+01  0.39197961841E+02  0.56484985354E+02  0.41800000000E+01 0.  1.
         -5    1    3    3    0  502  0.74472667658E+02 -0.57983251831E+02  0.19235684745E+03  0.21430554095E+03  0.41800000000E+01 0.  1.
        -11    1    1    2    0    0 -0.63643892038E+01  0.49938725683E+02  0.79733714829E+02  0.94296590889E+02  0.00000000000E+00 0.  1.
         11    1    1    2    0    0 -0.27874692338E+02  0.38184752522E+01 -0.16670246561E+02  0.32702849212E+02  0.00000000000E+00 0. -1.
</event>
<event>
 7    1  0.2989693E-009  0.8815434E+02  0.7561462E-02  0.1307384E+00
          2   -1    0    0  501    0  0.00000000000E+00  0.00000000000E+00  0.18995006558E+03  0.18995006558E+03  0.00000000000E+00 0. -1.
         -2   -1    0    0    0  501 -0.00000000000E+00 -0.00000000000E+00 -0.97041603608E+02  0.97041603608E+02  0.00000000000E+00 0.  1.
         25    2    1    2    0    0  0.22432654787E+02 -0.47858767039E+02 -0.14094534627E+02  0.13652796284E+03  0.12509014009E+03 0.  0.
          5    1    3    3  502    0  0.30517740320E+02 -0.74997551919E+02  0.27867736381E+02  0.85732423267E+02  0.41800000000E+01 0. -1.
         -5    1    3    3    0  502 -0.80850855327E+01  0.27138784881E+02 -0.41962271008E+02  0.50795539578E+02  0.41800000000E+01 0. -1.
        -11    1    1    2    0    0  0.14001357473E+01  0.42054988164E+02  0.11672516409E+03  0.12407798492E+03  0.00000000000E+00 0. -1.
         11    1    1    2    0    0 -0.23832790535E+02  0.58037788749E+01 -0.97221674975E+01  0.26385721418E+02  0.00000000000E+00 0.  1.
</event>
<event>
 7    1  0.2989693E-009  0.1327030E+03  0.7561462E-02  0.1223499E+00
         -2   -1    0    0    0  501 -0.00000000000E+00  0.00000000000E+00  0.11357646448E+03  0.11357646448E+03  0.00000000000E+00 0. -1.
          2   -1    0    0  501    0  0.00000000000E+00 -0.00000000000E+00 -0.17695001889E+03  0.17695001889E+03  0.00000000000E+00 0.  1.
         25    2    1    2    0    0  0.74687554459E+02 -0.53150666287E+02 -0.29704399735E+02  0.15790162311E+03  0.12508935646E+03 0.  0.
          5    1    3    3  502    0 -0.32073150567E+02  0.33907967655E+01  0.30417588362E+01  0.32663575842E+02  0.41800000000E+01 0.  1.
         -5    1    3    3    0  502  0.10676070503E+03 -0.56541463053E+02 -0.32746158571E+02  0.12523804727E+03  0.41800000000E+01 0.  1.
        -11    1    1    2    0    0 -0.79187905996E+02  0.24341523585E+02 -0.52346947690E+02  0.97997128319E+02  0.00000000000E+00 0.  1.
         11    1    1    2    0    0  0.45003515366E+01  0.28809142703E+02  0.18677793014E+02  0.34627731937E+02  0.00000000000E+00 0. -1.
</event>
<event>
 7    1  0.2989693E-009  0.8057313E+02  0.7561462E-02  0.1327433E+00
          1   -1    0    0  501    0  0.00000000000E+00  0.00000000000E+00  0.81418377514E+02  0.81418377514E+02  0.00000000000E+00 0. -1.
         -1   -1    0    0    0  501 -0.00000000000E+00 -0.00000000000E+00 -0.15020244363E+03  0.15020244363E+03  0.00000000000E+00 0.  1.
         25    2    1    2    0    0 -0.17607667782E+02  0.35465684200E+00 -0.57937058463E+02  0.13894646974E+03  0.12505703884E+03 0.  0.
          5    1    3    3  502    0 -0.33722143933E+02 -0.26772829246E+02 -0.86157921582E+02  0.96408647063E+02  0.41800000000E+01 0. -1.
         -5    1    3    3    0  502  0.16114476151E+02  0.27127486088E+02  0.28220863119E+02  0.42537822679E+02  0.41800000000E+01 0. -1.
        -11    1    1    2    0    0  0.20480608074E+00 -0.41438990805E+02 -0.21668303146E+02  0.46762669574E+02  0.00000000000E+00 0.  1.
         11    1    1    2    0    0  0.17402861701E+02  0.41084333963E+02  0.10821295489E+02  0.45911681832E+02  0.00000000000E+00 0. -1.
</event>
<event>
 7    1  0.2989693E-009  0.1543119E+03  0.7561462E-02  0.1195272E+00
          2   -1    0    0  501    0  0.00000000000E+00  0.00000000000E+00  0.61073659651E+03  0.61073659651E+03  0.00000000000E+00 0. -1.
         -2   -1    0    0    0  501 -0.00000000000E+00 -0.00000000000E+00 -0.46228118618E+02  0.46228118618E+02  0.00000000000E+00 0.  1.
         25    2    1    2    0    0 -0.10042642052E+03  0.65639598243E+02  0.22414386072E+03  0.28334071859E+03  0.12508984657E+03 0.  0.
          5    1    3    3  502    0 -0.86879521803E+01  0.71738336338E+02  0.55479159296E+02  0.91199116936E+02  0.41800000000E+01 0. -1.
         -5    1    3    3    0  502 -0.91738468335E+02 -0.60987380955E+01  0.16866470142E+03  0.19214160165E+03  0.41800000000E+01 0. -1.
        -11    1    1    2    0    0  0.10850695092E+03 -0.74950564631E+02  0.33528906998E+03  0.36029169569E+03  0.00000000000E+00 0. -1.
         11    1    1    2    0    0 -0.80805304044E+01  0.93109663885E+01  0.50755471975E+01  0.13332300854E+02  0.00000000000E+00 0.  1.
</event>
<event>
 7    1  0.2989693E-009  0.1786126E+03  0.7561462E-02  0.1169153E+00
         -1   -1    0    0    0  501 -0.00000000000E+00  0.00000000000E+00  0.46647267015E+03  0.46647267015E+03  0.00000000000E+00 0.  1.
          1   -1    0    0  501    0  0.00000000000E+00 -0.00000000000E+00 -0.89763333743E+02  0.89763333743E+02  0.00000000000E+00 0. -1.
         25    2    1    2    0    0 -0.15471395106E+03  0.71563242705E+02  0.14194067856E+03  0.25466040493E+03  0.12508821388E+03 0.  0.
          5    1    3    3  502    0 -0.69601070248E+01  0.12466254107E+02  0.83918446593E+02  0.85226924500E+02  0.41800000000E+01 0. -1.
         -5    1    3    3    0  502 -0.14775384404E+03  0.59096988597E+02  0.58022231966E+02  0.16943348043E+03  0.41800000000E+01 0. -1.
        -11    1    1    2    0    0  0.90928640309E+02 -0.51471880527E+01  0.15484882071E+03  0.17964595305E+03  0.00000000000E+00 0.  1.
         11    1    1    2    0    0  0.63785310754E+02 -0.66416054652E+02  0.79919837146E+02  0.12192964591E+03  0.00000000000E+00 0. -1.
</event>
<event>
 7    1  0.2989693E-009  0.1042639E+03  0.7561462E-02  0.1271577E+00
         -2   -1    0    0    0  501 -0.00000000000E+00  0.00000000000E+00  0.21416647979E+02  0.21416647979E+02  0.00000000000E+00 0.  1.
          2   -1    0    0  501    0  0.00000000000E+00 -0.00000000000E+00 -0.78293374913E+03  0.78293374913E+03  0.00000000000E+00 0. -1.
         25    2    1    2    0    0 -0.64196748964E+02  0.19574566740E+02 -0.29064178974E+03  0.32345702308E+03  0.12508960629E+03 0.  0.
          5    1    3    3  502    0  0.14523713625E+02 -0.18305619394E+02 -0.43882331257E+01  0.24140483608E+02  0.41800000000E+01 0. -1.
         -5    1    3    3    0  502 -0.78720462589E+02  0.37880186134E+02 -0.28625355661E+03  0.29931653948E+03  0.41800000000E+01 0. -1.
        -11    1    1    2    0    0  0.27406751662E+02 -0.44943369341E+02 -0.23524266060E+03  0.24106046098E+03  0.00000000000E+00 0. -1.
         11    1    1    2    0    0  0.36789997302E+02  0.25368802601E+02 -0.23563265082E+03  0.23983291304E+03  0.00000000000E+00 0.  1.
</event>
<event>
 7    1  0.2989693E-009  0.6939416E+02  0.7561462E-02  0.1362165E+00
          1   -1    0    0  501    0  0.00000000000E+00  0.00000000000E+00  0.23360733881E+03  0.23360733881E+03  0.00000000000E+00 0. -1.
         -1   -1    0    0    0  501 -0.00000000000E+00 -0.00000000000E+00 -0.55558287918E+02  0.55558287918E+02  0.00000000000E+00 0.  1.
         25    2    1    2    0    0  0.15831858968E+02  0.12939855493E+02  0.64098416231E+02  0.14203647293E+03  0.12509062739E+03 0.  0.
          5    1    3    3  502    0 -0.39707743582E+01  0.40913602338E+02  0.89895503658E+02  0.98936160645E+02  0.41800000000E+01 0. -1.
         -5    1    3    3    0  502  0.19802633326E+02 -0.27973746845E+02 -0.25797087426E+02  0.43100312283E+02  0.41800000000E+01 0. -1.
        -11    1    1    2    0    0 -0.25259922518E+02 -0.32539755683E+02  0.12030574551E+02  0.42914264640E+02  0.00000000000E+00 0.  1.
         11    1    1    2    0    0  0.94280635506E+01  0.19599900190E+02  0.10192006011E+03  0.10421488916E+03  0.00000000000E+00 0. -1.
</event>
<event>
 7    1  0.2989693E-009  0.1381581E+03  0.7561462E-02  0.1215829E+00
          2   -1    0    0  501    0  0.00000000000E+00  0.00000000000E+00  0.98383076407E+03  0.98383076407E+03  0.00000000000E+00 0. -1.
         -2   -1    0    0    0  501 -0.00000000000E+00 -0.00000000000E+00 -0.29749723365E+02  0.29749723365E+02  0.00000000000E+00 0.  1.
         25    2    1    2    0    0  0.81135125491E+02 -0.88279357799E+02  0.67286485373E+03  0.69481689584E+03  0.12508898333E+03 0.  0.
          5    1    3    3  502    0  0.84515720518E+02 -0.78204722191E+02  0.67359074555E+03  0.68337460480E+03  0.41800000000E+01 0.  1.
         -5    1    3    3    0  502 -0.33805950272E+01 -0.10074635607E+02 -0.72589181768E+00  0.11442291042E+02  0.41800000000E+01 0.  1.
        -11    1    1    2    0    0  0.15766024940E+02  0.36604189951E+02  0.64727531822E+02  0.76013733234E+02  0.00000000000E+00 0.  1.
         11    1    1    2    0    0 -0.96901150432E+02  0.51675167848E+02  0.21648865515E+03  0.24274985836E+03  0.00000000000E+00 0. -1.
</event>
<event>
 7    1  0.2989693E-009  0.1883615E+03  0.7561462E-02  0.1159948E+00
         -1   -1    0    0    0  501 -0.00000000000E+00  0.00000000000E+00  0.34708726312E+03  0.34708726312E+03  0.00000000000E+00 0.  1.
          1   -1    0    0  501    0  0.00000000000E+00 -0.00000000000E+00 -0.11779270267E+03  0.11779270267E+03  0.00000000000E+00 0. -1.
         25    2    1    2    0    0  0.13544992139E+03 -0.90550202751E+02  0.18255770355E+03  0.27481053928E+03  0.12508995545E+03 0.  0.
          5    1    3    3  502    0  0.15276425621E+03 -0.74518492218E+02  0.18434527843E+03  0.25077993886E+03  0.41800000000E+01 0.  1.
         -5    1    3    3    0  502 -0.17314334816E+02 -0.16031710533E+02 -0.17875748775E+01  0.24030600423E+02  0.41800000000E+01 0.  1.
        -11    1    1    2    0    0 -0.96815887449E+02  0.15121013743E+02  0.12977239133E+02  0.98845181242E+02  0.00000000000E+00 0. -1.
         11    1    1    2    0    0 -0.38634033940E+02  0.75429189008E+02  0.33759617765E+02  0.91224245267E+02  0.00000000000E+00 0.  1.
</event>
<event>
 7    1  0.2989693E-009  0.1397385E+03  0.7561462E-02  0.1213681E+00
         -2   -1    0    0    0  501 -0.00000000000E+00  0.00000000000E+00  0.14446536295E+03  0.14446536295E+03  0.00000000000E+00 0.  1.
          2   -1    0    0  501    0  0.00000000000E+00 -0.00000000000E+00 -0.47571935434E+03  0.47571935434E+03  0.00000000000E+00 0. -1.
         25    2    1    2    0    0  0.90638419330E+02 -0.32119916580E+02 -0.42819154529E+03  0.45633670034E+03  0.12509265576E+03 0.  0.
          5    1    3    3  502    0  0.26714588262E+02  0.46664117801E+02 -0.18751481421E+03  0.19511659864E+03  0.41800000000E+01 0. -1.
         -5    1    3    3    0  502  0.63923831068E+02 -0.78784034381E+02 -0.24067673108E+03  0.26122010170E+03  0.41800000000E+01 0. -1.
        -11    1    1    2    0    0 -0.35409632443E+02  0.54020036981E+02  0.78464111160E+02  0.10162983423E+03  0.00000000000E+00 0.  1.
         11    1    1    2    0    0 -0.55228786886E+02 -0.21900120401E+02  0.18473442733E+02  0.62218182720E+02  0.00000000000E+00 0. -1.
</event>
<event>
 7    1  0.2989693E-009  0.8319171E+02  0.7561462E-02  0.1320230E+00
          2   -1    0    0  501    0  0.00000000000E+00  0.00000000000E+00  0.99212727582E+03  0.99212727582E+03  0.00000000000E+00 0. -1.
         -2   -1    0    0    0  501 -0.00000000000E+00 -0.00000000000E+00 -0.14161237791E+02  0.14161237791E+02  0.00000000000E+00 0.  1.
         25    2    1    2    0    0  0.37539048970E+01 -0.33975774782E+02  0.68941912495E+03  0.70151029285E+03  0.12509802581E+03 0.  0.
          5    1    3    3  502    0  0.17501323964E+02  0.13551035909E+02  0.19616278497E+02  0.29869678552E+02  0.41800000000E+01 0. -1.
         -5    1    3    3    0  502 -0.13747419067E+02 -0.47526810691E+02  0.66980284645E+03  0.67164061430E+03  0.41800000000E+01 0. -1.
        -11    1    1    2    0    0 -0.18495225806E+02 -0.26301174789E+02  0.14273020817E+03  0.14630699743E+03  0.00000000000E+00 0. -1.
         11    1    1    2    0    0  0.14741320909E+02  0.60276949571E+02  0.14581670491E+03  0.15847122332E+03  0.00000000000E+00 0.  1.
</event>
<event>
 7    1  0.2989693E-009  0.1272099E+03  0.7561462E-02  0.1231656E+00
         -2   -1    0    0    0  501 -0.00000000000E+00  0.00000000000E+00  0.43915942359E+02  0.43915942359E+02  0.00000000000E+00 0.  1.
          2   -1    0    0  501    0  0.00000000000E+00 -0.00000000000E+00 -0.62048620486E+03  0.62048620486E+03  0.00000000000E+00 0. -1.
         25    2    1    2    0    0 -0.83406352042E+02  0.84107852758E+02 -0.23597014199E+03  0.29216480717E+03  0.12509043200E+03 0.  0.
          5    1    3    3  502    0 -0.88320877939E+02  0.68039971857E+02 -0.24741675988E+03  0.27140843893E+03  0.41800000000E+01 0. -1.
         -5    1    3    3    0  502  0.49145258970E+01  0.16067880902E+02  0.11446617887E+02  0.20756368240E+02  0.41800000000E+01 0. -1.
        -11    1    1    2    0    0 -0.40044017760E+01 -0.10582677820E+02  0.16460153365E+01  0.11434057456E+02  0.00000000000E+00 0.  1.
         11    1    1    2    0    0  0.87410753818E+02 -0.73525174938E+02 -0.34224613584E+03  0.36080328260E+03  0.00000000000E+00 0. -1.
</event>
<event>
 7    1  0.2989693E-009  0.1128599E+03  0.7561462E-02  0.1255364E+00
         -2   -1    0    0    0  501 -0.00000000000E+00  0.00000000000E+00  0.10660031436E+03  0.10660031436E+03  0.00000000000E+00 0.  1.
          2   -1    0    0  501    0  0.00000000000E+00 -0.00000000000E+00 -0.17812815967E+03  0.17812815967E+03  0.00000000000E+00 0. -1.
         25    2    1    2    0    0 -0.35134111114E+02  0.46658266377E+02 -0.10630183297E+03  0.17423939574E+03  0.12509151750E+03 0.  0.
          5    1    3    3  502    0  0.46977230518E+02  0.18138122693E+02 -0.46304621143E+02  0.68537887487E+02  0.41800000000E+01 0.  1.
         -5    1    3    3    0  502 -0.82111341632E+02  0.28520143685E+02 -0.59997211830E+02  0.10570150826E+03  0.41800000000E+01 0.  1.
        -11    1    1    2    0    0  0.50819399236E+02 -0.15249405210E+02 -0.95863886611E+01  0.53917108097E+02  0.00000000000E+00 0. -1.
         11    1    1    2    0    0 -0.15685288122E+02 -0.31408861167E+02  0.44360376330E+02  0.56571970193E+02  0.00000000000E+00 0.  1.
</event>
<event>
 7    1  0.2989693E-009  0.9175170E+02  0.7561462E-02  0.1298664E+00
         -4   -1    0    0    0  501 -0.00000000000E+00  0.00000000000E+00  0.63329757416E+03  0.63329757416E+03  0.00000000000E+00 0.  1.
          4   -1    0    0  501    0  0.00000000000E+00 -0.00000000000E+00 -0.22906093810E+02  0.22906093810E+02  0.00000000000E+00 0. -1.
         25    2    1    2    0    0 -0.44232340030E+02 -0.32553399566E+02  0.33274605874E+03  0.35971023413E+03  0.12512109815E+03 0.  0.
          5    1    3    3  502    0 -0.63082155284E+02 -0.13935004646E+02  0.69042483076E+02  0.94646075139E+02  0.41800000000E+01 0. -1.
         -5    1    3    3    0  502  0.18849815254E+02 -0.18618394919E+02  0.26370357566E+03  0.26506415899E+03  0.41800000000E+01 0. -1.
        -11    1    1    2    0    0  0.14802682344E+02  0.53700644328E+02  0.93659194364E+02  0.10897212164E+03  0.00000000000E+00 0. -1.
         11    1    1    2    0    0  0.29429657687E+02 -0.21147244762E+02  0.18398622725E+03  0.18752131220E+03  0.00000000000E+00 0.  1.
</event>
<event>
 7    1  0.2989693E-009  0.1133983E+03  0.7561462E-02  0.1254403E+00
         -4   -1    0    0    0  501 -0.00000000000E+00  0.00000000000E+00  0.26739349219E+03  0.26739349219E+03  0.00000000000E+00 0.  1.
          4   -1    0    0  501    0  0.00000000000E+00 -0.00000000000E+00 -0.73907379881E+02  0.73907379881E+02  0.00000000000E+00 0. -1.
         25    2    1    2    0    0  0.29032710983E+02  0.79084624456E+02  0.14018484387E+03  0.20590566297E+03  0.12509226780E+03 0.  0.
          5    1    3    3  502    0  0.40456736979E+02 -0.10281995937E+02  0.97462794866E+02  0.10610813254E+03  0.41800000000E+01 0.  1.
         -5    1    3    3    0  502 -0.11424025996E+02  0.89366620393E+02  0.42722049002E+02  0.99797530437E+02  0.41800000000E+01 0.  1.
        -11    1    1    2    0    0 -0.20631838525E+02 -0.65670871638E+01  0.58330814798E+02  0.62219637975E+02  0.00000000000E+00 0.  1.
         11    1    1    2    0    0 -0.84008724582E+01 -0.72517537293E+02 -0.50295463535E+01  0.73175571126E+02  0.00000000000E+00 0. -1.
</event>
<event>
 7    1  0.2989693E-009  0.1360058E+03  0.7561462E-02  0.1218807E+00
         -1   -1    0    0    0  501 -0.00000000000E+00  0.00000000000E+00  0.87858116903E+02  0.87858116903E+02  0.00000000000E+00 0. -1.
          1   -1    0    0  501    0  0.00000000000E+00 -0.00000000000E+00 -0.26648390365E+03  0.26648390365E+03  0.00000000000E+00 0.  1.
         25    2    1    2    0    0 -0.92504303413E+02  0.56556117912E+02 -0.98610048068E+02  0.19268528538E+03  0.12509211406E+03 0.  0.
          5    1    3    3  502    0 -0.24296542092E+02  0.70619582012E+02 -0.36994030862E+01  0.74890622272E+02  0.41800000000E+01 0. -1.
         -5    1    3    3    0  502 -0.68207761321E+02 -0.14063464100E+02 -0.94910644982E+02  0.11779466311E+03  0.41800000000E+01 0. -1.
        -11    1    1    2    0    0  0.66463293183E+02 -0.71337607825E+02 -0.27669130258E+02  0.10135089738E+03  0.00000000000E+00 0. -1.
         11    1    1    2    0    0  0.26041010231E+02  0.14781489913E+02 -0.52346608418E+02  0.60305837784E+02  0.00000000000E+00 0.  1.
</event>
<event>
 7    1  0.2989693E-009  0.8366123E+02  0.7561462E-02  0.1318971E+00
          3   -1    0    0  501    0  0.00000000000E+00  0.00000000000E+00  0.16101982588E+03  0.16101982588E+03  0.00000000000E+00 0. -1.
         -3   -1    0    0    0  501 -0.00000000000E+00 -0.00000000000E+00 -0.12503565602E+03  0.12503565602E+03  0.00000000000E+00 0.  1.
         25    2    1    2    0    0 -0.56020154224E+02  0.49310043497E+01  0.92842006394E+02  0.16562499823E+03  0.12509767945E+03 0.  0.
          5    1    3    3  502    0 -0.50204503543E+02  0.23985956376E+02  0.11961688960E+03  0.13199049570E+03  0.41800000000E+01 0. -1.
         -5    1    3    3    0  502 -0.58156506812E+01 -0.19054952027E+02 -0.26774883203E+02  0.33634502525E+02  0.41800000000E+01 0. -1.
        -11    1    1    2    0    0 -0.16740152315E+02 -0.75449389287E+01 -0.42395075594E+02  0.46200662740E+02  0.00000000000E+00 0.  1.
         11    1    1    2    0    0  0.72760306538E+02  0.26139345789E+01 -0.14462760944E+02  0.74229820933E+02  0.00000000000E+00 0. -1.
</event>
<event>
 7    1  0.2989693E-009  0.2192829E+03  0.7561462E-02  0.1134419E+00
         -2   -1    0    0    0  501 -0.00000000000E+00  0.00000000000E+00  0.47685969755E+02  0.47685969755E+02  0.00000000000E+00 0.  1.
          2   -1    0    0  501    0  0.00000000000E+00 -0.00000000000E+00 -0.12327740712E+04  0.12327740712E+04  0.00000000000E+00 0. -1.
         25    2    1    2    0    0 -0.33352402566E+02 -0.18673042442E+03 -0.88274187198E+03  0.91151542708E+03  0.12508607874E+03 0.  0.
          5    1    3    3  502    0  0.47720441681E+02 -0.62845034581E+02 -0.29558104111E+03  0.30596137532E+03  0.41800000000E+01 0. -1.
         -5    1    3    3    0  502 -0.81072844247E+02 -0.12388538984E+03 -0.58716083088E+03  0.60555405176E+03  0.41800000000E+01 0. -1.
        -11    1    1    2    0    0  0.41198918078E+02  0.22363931332E+02 -0.65636087582E+02  0.80657251804E+02  0.00000000000E+00 0. -1.
         11    1    1    2    0    0 -0.78465155119E+01  0.16436649309E+03 -0.23671014184E+03  0.28828736203E+03  0.00000000000E+00 0.  1.
</event>
<event>
 7    1  0.2989693E-009  0.1283044E+03  0.7561462E-02  0.1229994E+00
          2   -1    0    0  501    0  0.00000000000E+00  0.00000000000E+00  0.37093579451E+03  0.37093579451E+03  0.00000000000E+00 0. -1.
         -2   -1    0    0    0  501 -0.00000000000E+00 -0.00000000000E+00 -0.44949645155E+02  0.44949645155E+02  0.00000000000E+00 0.  1.
         25    2    1    2    0    0 -0.68373971128E+02  0.14714480827E+02  0.18736875299E+03  0.23589658078E+03  0.12509448969E+03 0.  0.
          5    1    3    3  502    0 -0.97920887117E+02 -0.17329946010E+02  0.13041770946E+03  0.16405815585E+03  0.41800000000E+01 0.  1.
         -5    1    3    3    0  502  0.29546915989E+02  0.32044426837E+02  0.56951043532E+02  0.71838424922E+02  0.41800000000E+01 0.  1.
        -11    1    1    2    0    0 -0.15285416183E+02  0.17864932318E+02  0.17920096241E+02  0.29562300382E+02  0.00000000000E+00 0.  1.
         11    1    1    2    0    0  0.83659387311E+02 -0.32579413146E+02  0.12069730012E+03  0.15042655850E+03  0.00000000000E+00 0. -1.
</event>
<event>
 7    1  0.2989693E-009  0.1444167E+03  0.7561462E-02  0.1207507E+00
         -3   -1    0    0    0  501 -0.00000000000E+00  0.00000000000E+00  0.24024925071E+04  0.24024925071E+04  0.00000000000E+00 0.  1.
          3   -1    0    0  501    0  0.00000000000E+00 -0.00000000000E+00 -0.11357999414E+02  0.11357999414E+02  0.00000000000E+00 0. -1.
         25    2    1    2    0    0 -0.17141479887E+02 -0.85947159605E+02  0.18247694995E+04  0.18311505974E+04  0.12509212348E+03 0.  0.
          5    1    3    3  502    0  0.50911796630E+02 -0.60198083490E+02  0.84899655461E+03  0.85265962871E+03  0.41800000000E+01 0.  1.
         -5    1    3    3    0  502 -0.68053276517E+02 -0.25749076115E+02  0.97577294488E+03  0.97849096865E+03  0.41800000000E+01 0.  1.
        -11    1    1    2    0    0 -0.44413561217E+02  0.28280142956E+02  0.21590095285E+03  0.22222860380E+03  0.00000000000E+00 0.  1.
         11    1    1    2    0    0  0.61555041104E+02  0.57667016649E+02  0.35046405530E+03  0.36047130531E+03  0.00000000000E+00 0. -1.
</event>
<event>
 7    1  0.2989693E-009  0.1225910E+03  0.7561462E-02  0.1238883E+00
         -2   -1    0    0    0  501 -0.00000000000E+00  0.00000000000E+00  0.53845964416E+02  0.53845964416E+02  0.00000000000E+00 0. -1.
          2   -1    0    0  501    0  0.00000000000E+00 -0.00000000000E+00 -0.38290158632E+03  0.38290158632E+03  0.00000000000E+00 0.  1.
         25    2    1    2    0    0 -0.10852292156E+02  0.84887787579E+02 -0.22877058816E+03  0.27442039577E+03  0.12508742095E+03 0.  0.
          5    1    3    3  502    0 -0.44513487631E+02  0.65935981268E+00 -0.24752510775E+02  0.51108164965E+02  0.41800000000E+01 0. -1.
         -5    1    3    3    0  502  0.33661195475E+02  0.84228427767E+02 -0.20401807739E+03  0.22331223080E+03  0.41800000000E+01 0. -1.
        -11    1    1    2    0    0  0.21667547070E+01  0.12098735777E+02 -0.52387138042E+02  0.53809724638E+02  0.00000000000E+00 0.  1.
         11    1    1    2    0    0  0.86855374490E+01 -0.96986523356E+02 -0.47897895702E+02  0.10851743033E+03  0.00000000000E+00 0. -1.
</event>
<event>
 7    1  0.2989693E-009  0.1679343E+03  0.7561462E-02  0.1180019E+00
         -1   -1    0    0    0  501 -0.00000000000E+00  0.00000000000E+00  0.53529195391E+02  0.53529195391E+02  0.00000000000E+00 0.  1.
          1   -1    0    0  501    0  0.00000000000E+00 -0.00000000000E+00 -0.65271296781E+03  0.65271296781E+03  0.00000000000E+00 0. -1.
         25    2    1    2    0    0 -0.39845981068E+02 -0.12955334307E+03 -0.44316754828E+03  0.48001748349E+03  0.12509011831E+03 0.  0.
          5    1    3    3  502    0 -0.73466943584E+02 -0.52777043484E+02 -0.15134006634E+03  0.17636353421E+03  0.41800000000E+01 0. -1.
         -5    1    3    3    0  502  0.33620962516E+02 -0.76776299588E+02 -0.29182748194E+03  0.30365394928E+03  0.41800000000E+01 0. -1.
        -11    1    1    2    0    0  0.67123059236E+02  0.76748150579E+02 -0.79233976329E+02  0.12912709516E+03  0.00000000000E+00 0.  1.
         11    1    1    2    0    0 -0.27277078168E+02  0.52805192492E+02 -0.76782247810E+02  0.97097584554E+02  0.00000000000E+00 0. -1.
</event>
<event>
 7    1  0.2989693E-009  0.1421244E+03  0.7561462E-02  0.1210499E+00
          1   -1    0    0  501    0  0.00000000000E+00  0.00000000000E+00  0.36109774835E+03  0.36109774835E+03  0.00000000000E+00 0. -1.
         -1   -1    0    0    0  501 -0.00000000000E+00 -0.00000000000E+00 -0.73356295124E+02  0.73356295124E+02  0.00000000000E+00 0.  1.
         25    2    1    2    0    0  0.87018369585E+02  0.36638483879E+02  0.21229754411E+03  0.26388056963E+03  0.12509249638E+03 0.  0.
          5    1    3    3  502    0 -0.29357647092E+01  0.62344593980E+02  0.95714983438E+02  0.11434289470E+03  0.41800000000E+01 0. -1.
         -5    1    3    3    0  502  0.89954134295E+02 -0.25706110101E+02  0.11658256067E+03  0.14953767494E+03  0.41800000000E+01 0. -1.
        -11    1    1    2    0    0 -0.55447092122E+02  0.23424366632E+02 -0.10469334027E+02  0.61095727608E+02  0.00000000000E+00 0.  1.
         11    1    1    2    0    0 -0.31571277463E+02 -0.60062850512E+02  0.85913243142E+02  0.10947774623E+03  0.00000000000E+00 0. -1.
</event>
<event>
 7    1  0.2989693E-009  0.8682342E+02  0.7561462E-02  0.1310732E+00
         -1   -1    0    0    0  501 -0.00000000000E+00  0.00000000000E+00  0.33248725149E+02  0.33248725149E+02  0.00000000000E+00 0.  1.
          1   -1    0    0  501    0  0.00000000000E+00 -0.00000000000E+00 -0.39653643030E+03  0.39653643030E+03  0.00000000000E+00 0. -1.
         25    2    1    2    0    0  0.33787801729E+02 -0.15336535160E+02 -0.21993078547E+03  0.25572298560E+03  0.12509144698E+03 0.  0.
          5    1    3    3  502    0  0.61673603263E+02 -0.66088447934E+01 -0.41220902605E+02  0.74591858674E+02  0.41800000000E+01 0.  1.
         -5    1    3    3    0  502 -0.27885801534E+02 -0.87276903661E+01 -0.17870988287E+03  0.18113112692E+03  0.41800000000E+01 0.  1.
        -11    1    1    2    0    0  0.20092178899E+02 -0.99762243120E+01 -0.43578432210E+01  0.22851947443E+02  0.00000000000E+00 0.  1.
         11    1    1    2    0    0 -0.53879980628E+02  0.25312759471E+02 -0.13899907646E+03  0.15121022241E+03  0.00000000000E+00 0. -1.
</event>
<event>
 7    1  0.2989693E-009  0.1428103E+03  0.7561462E-02  0.1209597E+00
         -2   -1    0    0    0  501 -0.00000000000E+00  0.00000000000E+00  0.21532750572E+02  0.21532750572E+02  0.00000000000E+00 0.  1.
          2   -1    0    0  501    0  0.00000000000E+00 -0.00000000000E+00 -0.10089969405E+04  0.10089969405E+04  0.00000000000E+00 0. -1.
         25    2    1    2    0    0  0.80364591067E+02  0.57676021266E+02 -0.52182935345E+03  0.54565513676E+03  0.12509461709E+03 0.  0.
          5    1    3    3  502    0  0.17606848377E+02 -0.34692748891E+02 -0.69820394053E+02  0.80037164875E+02  0.41800000000E+01 0. -1.
         -5    1    3    3    0  502  0.62757742690E+02  0.92368770157E+02 -0.45200895940E+03  0.46561797189E+03  0.41800000000E+01 0. -1.
        -11    1    1    2    0    0 -0.43248758768E+01  0.23278009027E+02 -0.67185365199E+02  0.71235128641E+02  0.00000000000E+00 0. -1.
         11    1    1    2    0    0 -0.76039715190E+02 -0.80954030293E+02 -0.39844947131E+03  0.41363942570E+03  0.00000000000E+00 0.  1.
</event>
<event>
 7    1  0.2989693E-009  0.1136502E+03  0.7561462E-02  0.1253956E+00
         -3   -1    0    0    0  501 -0.00000000000E+00  0.00000000000E+00  0.98900537629E+02  0.98900537629E+02  0.00000000000E+00 0.  1.
          3   -1    0    0  501    0  0.00000000000E+00 -0.00000000000E+00 -0.13558218883E+03  0.13558218883E+03  0.00000000000E+00 0. -1.
         25    2    1    2    0    0 -0.62147830612E+02  0.45424485853E+01 -0.33737516622E+01  0.13979141165E+03  0.12508904781E+03 0.  0.
          5    1    3    3  502    0  0.11331281279E+01 -0.53477375224E+02  0.17813624825E+01  0.53682020198E+02  0.41800000000E+01 0.  1.
         -5    1    3    3    0  502 -0.63280958740E+02  0.58019823809E+02 -0.51551141447E+01  0.86109391449E+02  0.41800000000E+01 0.  1.
        -11    1    1    2    0    0 -0.64181174215E+01  0.15067904334E+02 -0.11858713279E+02  0.20220362333E+02  0.00000000000E+00 0. -1.
         11    1    1    2    0    0  0.68565948033E+02 -0.19610352920E+02 -0.21449186256E+02  0.74470952474E+02  0.00000000000E+00 0.  1.
</event>
<event>
 7    1  0.2989693E-009  0.1126572E+03  0.7561462E-02  0.1255727E+00
          2   -1    0    0  501    0  0.00000000000E+00  0.00000000000E+00  0.52800261745E+03  0.52800261745E+03  0.00000000000E+00 0. -1.
         -2   -1    0    0    0  501 -0.00000000000E+00 -0.00000000000E+00 -0.29145400790E+02  0.29145400790E+02  0.00000000000E+00 0.  1.
         25    2    1    2    0    0  0.41442118566E+02 -0.97918198508E+01  0.18741517018E+03  0.22931359284E+03  0.12508776488E+03 0.  0.
          5    1    3    3  502    0  0.81975756066E+02 -0.28521619995E+02  0.11505140604E+03  0.14417976911E+03  0.41800000000E+01 0.  1.
         -5    1    3    3    0  502 -0.40533637501E+02  0.18729800144E+02  0.72363764142E+02  0.85133823732E+02  0.41800000000E+01 0.  1.
        -11    1    1    2    0    0  0.10660417938E+02  0.34353364429E+02  0.19062151170E+03  0.19398546049E+03  0.00000000000E+00 0. -1.
         11    1    1    2    0    0 -0.52102536504E+02 -0.24561544578E+02  0.12082053478E+03  0.13384896491E+03  0.00000000000E+00 0.  1.
</event>
<event>
 7    1  0.2989693E-009  0.1432611E+03  0.7561462E-02  0.1209007E+00
         -2   -1    0    0    0  501 -0.00000000000E+00  0.00000000000E+00  0.31960219485E+03  0.31960219485E+03  0.00000000000E+00 0.  1.
          2   -1    0    0  501    0  0.00000000000E+00 -0.00000000000E+00 -0.65235391363E+02  0.65235391363E+02  0.00000000000E+00 0. -1.
         25    2    1    2    0    0 -0.94725790723E+02  0.18217680496E+02  0.14100479166E+03  0.21173963616E+03  0.12508582230E+03 0.  0.
          5    1    3    3  502    0 -0.81398269790E+02  0.66801101589E+02  0.78811872930E+02  0.13159349989E+03  0.41800000000E+01 0.  1.
         -5    1    3    3    0  502 -0.13327520933E+02 -0.48583421092E+02  0.62192918728E+02  0.80146136271E+02  0.41800000000E+01 0.  1.
        -11    1    1    2    0    0  0.65417463167E+02  0.31706806960E+02  0.68123185287E+02  0.99626976609E+02  0.00000000000E+00 0. -1.
         11    1    1    2    0    0  0.29308327556E+02 -0.49924487456E+02  0.45238826539E+02  0.73470973442E+02  0.00000000000E+00 0.  1.
</event>
<event>
 7    1  0.2989693E-009  0.1872514E+03  0.7561462E-02  0.1160964E+00
         -2   -1    0    0    0  501 -0.00000000000E+00  0.00000000000E+00  0.11566102623E+03  0.11566102623E+03  0.00000000000E+00 0.  1.
          2   -1    0    0  501    0  0.00000000000E+00 -0.00000000000E+00 -0.40974199876E+03  0.40974199876E+03  0.00000000000E+00 0. -1.
         25    2    1    2    0    0  0.15712663950E+03  0.13678167475E+00 -0.27569992676E+02  0.20272210964E+03  0.12508936683E+03 0.  0.
          5    1    3    3  502    0  0.54863319934E+02  0.55324524535E+02 -0.36415382655E+02  0.86106558305E+02  0.41800000000E+01 0.  1.
         -5    1    3    3    0  502  0.10226331956E+03 -0.55187742860E+02  0.88453899786E+01  0.11661555134E+03  0.41800000000E+01 0.  1.
        -11    1    1    2    0    0 -0.79611710246E+02 -0.44173166475E+02 -0.15678965620E+03  0.18130716846E+03  0.00000000000E+00 0. -1.
         11    1    1    2    0    0 -0.77514929251E+02  0.44036384800E+02 -0.10972132366E+03  0.14137374688E+03  0.00000000000E+00 0.  1.
</event>
<event>
 7    1  0.2989693E-009  0.1178841E+03  0.7561462E-02  0.1246629E+00
         -3   -1    0    0    0  501 -0.00000000000E+00  0.00000000000E+00  0.34200281443E+03  0.34200281443E+03  0.00000000000E+00 0.  1.
          3   -1    0    0  501    0  0.00000000000E+00 -0.00000000000E+00 -0.65617871693E+02  0.65617871693E+02  0.00000000000E+00 0. -1.
         25    2    1    2    0    0 -0.49606913038E+02  0.28721184860E+02  0.26676819827E+03  0.30016393620E+03  0.12508942683E+03 0.  0.
          5    1    3    3  502    0 -0.20010038619E+02  0.74449747789E+02  0.11195856541E+03  0.13599764469E+03  0.41800000000E+01 0.  1.
         -5    1    3    3    0  502 -0.29596874420E+02 -0.45728562929E+02  0.15480963286E+03  0.16416629151E+03  0.41800000000E+01 0.  1.
        -11    1    1    2    0    0  0.31729162664E+02  0.29318729664E+02 -0.86079365916E+01  0.44050246819E+02  0.00000000000E+00 0. -1.
         11    1    1    2    0    0  0.17877750374E+02 -0.58039914524E+02  0.18224681057E+02  0.63406503105E+02  0.00000000000E+00 0.  1.
</event>
<event>
 7    1  0.2989693E-009  0.1807478E+03  0.7561462E-02  0.1167081E+00
          2   -1    0    0  501    0  0.00000000000E+00  0.00000000000E+00  0.97183473996E+02  0.97183473996E+02  0.00000000000E+00 0. -1.
         -2   -1    0    0    0  501 -0.00000000000E+00 -0.00000000000E+00 -0.41000446732E+03  0.41000446732E+03  0.00000000000E+00 0.  1.
         25    2    1    2    0    0  0.97746166645E+02  0.11523132052E+03 -0.73100851453E+02  0.20934267240E+03  0.12509216475E+03 0.  0.
          5    1    3    3  502    0  0.37659884280E+02 -0.18513950632E+02  0.61531637696E+01  0.42618858225E+02  0.41800000000E+01 0.  1.
         -5    1    3    3    0  502  0.60086282365E+02  0.13374527116E+03 -0.79254015223E+02  0.16672381418E+03  0.41800000000E+01 0.  1.
        -11    1    1    2    0    0 -0.56957903187E+02 -0.75033270680E+01 -0.51393059131E+02  0.77082742423E+02  0.00000000000E+00 0.  1.
         11    1    1    2    0    0 -0.40788263458E+02 -0.10772799346E+03 -0.18832708274E+03  0.22076252649E+03  0.00000000000E+00 0. -1.
</event>
<event>
 7    1  0.2989693E-009  0.1314293E+03  0.7561462E-02  0.1225350E+00
          2   -1    0    0  501    0  0.00000000000E+00  0.00000000000E+00  0.13333624441E+03  0.13333624441E+03  0.00000000000E+00 0. -1.
         -2   -1    0    0    0  501 -0.00000000000E+00 -0.00000000000E+00 -0.41916976171E+03  0.41916976171E+03  0.00000000000E+00 0.  1.
         25    2    1    2    0    0  0.99422249852E+02 -0.12685695882E+01 -0.36526520158E+03  0.39868867685E+03  0.12509036946E+03 0.  0.
          5    1    3    3  502    0  0.20863723172E+02 -0.47291333558E+02 -0.22867841638E+03  0.23448465982E+03  0.41800000000E+01 0.  1.
         -5    1    3    3    0  502  0.78558526680E+02  0.46022763970E+02 -0.13658678520E+03  0.16420401703E+03  0.41800000000E+01 0.  1.
        -11    1    1    2    0    0 -0.72781628157E+02  0.31723831800E+02  0.19925068963E+02  0.81857041691E+02  0.00000000000E+00 0.  1.
         11    1    1    2    0    0 -0.26640621695E+02 -0.30455262212E+02  0.59506615319E+02  0.71960287572E+02  0.00000000000E+00 0. -1.
</event>
<event>
 7    1  0.2989693E-009  0.1423174E+03  0.7561462E-02  0.1210244E+00
          2   -1    0    0  501    0  0.00000000000E+00  0.00000000000E+00  0.91915351977E+03  0.91915351977E+03  0.00000000000E+00 0. -1.
         -2   -1    0    0    0  501 -0.00000000000E+00 -0.00000000000E+00 -0.31796484848E+02  0.31796484848E+02  0.00000000000E+00 0.  1.
         25    2    1    2    0    0 -0.10364482470E+02 -0.11577604802E+03  0.29620796531E+03  0.34190541231E+03  0.12509451012E+03 0.  0.
          5    1    3    3  502    0 -0.37383161876E+02 -0.20012563854E+02  0.19618094277E+03  0.20075467170E+03  0.41800000000E+01 0. -1.
         -5    1    3    3    0  502  0.27018679406E+02 -0.95763484166E+02  0.10002702254E+03  0.14115074061E+03  0.41800000000E+01 0. -1.
        -11    1    1    2    0    0  0.38746095150E+02  0.22209122586E+02  0.12465345136E+03  0.13241218959E+03  0.00000000000E+00 0.  1.
         11    1    1    2    0    0 -0.28381612680E+02  0.93566925434E+02  0.46649561825E+03  0.47663240272E+03  0.00000000000E+00 0. -1.
</event>
<event>
 7    1  0.2989693E-009  0.1307476E+03  0.7561462E-02  0.1226351E+00
         -1   -1    0    0    0  501 -0.00000000000E+00  0.00000000000E+00  0.14665061733E+02  0.14665061733E+02  0.00000000000E+00 0.  1.
          1   -1    0    0  501    0  0.00000000000E+00 -0.00000000000E+00 -0.13070561761E+04  0.13070561761E+04  0.00000000000E+00 0. -1.
         25    2    1    2    0    0  0.77596905302E+02 -0.16634363712E+02 -0.88523953387E+03  0.89754926179E+03  0.12509062014E+03 0.  0.
          5    1    3    3  502    0  0.76473885718E+02  0.42216738769E+02 -0.46054064150E+03  0.46877037353E+03  0.41800000000E+01 0.  1.
         -5    1    3    3    0  502  0.11230195846E+01 -0.58851102480E+02 -0.42469889237E+03  0.42877888826E+03  0.41800000000E+01 0.  1.
        -11    1    1    2    0    0  0.16776472188E+02  0.11846706703E+02 -0.38886719723E+02  0.43976942249E+02  0.00000000000E+00 0.  1.
         11    1    1    2    0    0 -0.94373377490E+02  0.47876570090E+01 -0.36826486077E+03  0.38019503379E+03  0.00000000000E+00 0. -1.
</event>
<event>
 7    1  0.4600641E-009  0.1218249E+03  0.7561462E-02  0.1240116E+00
          2   -1    0    0  501    0  0.00000000000E+00  0.00000000000E+00  0.87914883619E+03  0.87914883619E+03  0.00000000000E+00 0. -1.
         -2   -1    0    0    0  501 -0.00000000000E+00 -0.00000000000E+00 -0.19559720591E+02  0.19559720591E+02  0.00000000000E+00 0.  1.
         25    2    1    2    0    0 -0.19523409279E+02  0.61694089023E+02  0.59721384750E+03  0.61359409979E+03  0.12508403383E+03 0.  0.
          5    1    3    3  502    0 -0.69484674166E+02  0.31169656310E+02  0.24739491522E+03  0.25888488541E+03  0.41800000000E+01 0.  1.
         -5    1    3    3    0  502  0.49961264888E+02  0.30524432713E+02  0.34981893228E+03  0.35470921438E+03  0.41800000000E+01 0.  1.
        -11    1    1    2    0    0 -0.33490597081E+02 -0.37890551227E+02  0.90362369889E+02  0.10355033490E+03  0.00000000000E+00 0.  1.
         11    1    1    2    0    0  0.53014006360E+02 -0.23803537795E+02  0.17201289822E+03  0.18156412210E+03  0.00000000000E+00 0. -1.
</event>
<event>
 7    1  0.2989693E-009  0.1016931E+03  0.7561462E-02  0.1276775E+00
          1   -1    0    0  501    0  0.00000000000E+00  0.00000000000E+00  0.80587888217E+03  0.80587888217E+03  0.00000000000E+00 0. -1.
         -1   -1    0    0    0  501 -0.00000000000E+00 -0.00000000000E+00 -0.19304858632E+02  0.19304858632E+02  0.00000000000E+00 0.  1.
         25    2    1    2    0    0 -0.36436947375E+02  0.13489101845E+02  0.59789509061E+03  0.61207395201E+03  0.12508547618E+03 0.  0.
          5    1    3    3  502    0 -0.66982244481E+02  0.31494878595E+02  0.21312173751E+03  0.22564772512E+03  0.41800000000E+01 0. -1.
         -5    1    3    3    0  502  0.30545297106E+02 -0.18005776750E+02  0.38477335310E+03  0.38642622689E+03  0.41800000000E+01 0. -1.
        -11    1    1    2    0    0 -0.15967718365E+02  0.24203365151E+02  0.95128743884E+02  0.99449730152E+02  0.00000000000E+00 0. -1.
         11    1    1    2    0    0  0.52404665740E+02 -0.37692466996E+02  0.93550189040E+02  0.11366005864E+03  0.00000000000E+00 0.  1.
</event>
<event>
 7    1  0.2989693E-009  0.1438558E+03  0.7561462E-02  0.1208233E+00
          1   -1    0    0  501    0  0.00000000000E+00  0.00000000000E+00  0.51331494071E+03  0.51331494071E+03  0.00000000000E+00 0. -1.
         -1   -1    0    0    0  501 -0.00000000000E+00 -0.00000000000E+00 -0.43558406791E+02  0.43558406791E+02  0.00000000000E+00 0.  1.
         25    2    1    2    0    0 -0.69947611188E+02  0.71572134060E+02  0.20948051021E+03  0.26371296777E+03  0.12508879458E+03 0.  0.
          5    1    3    3  502    0 -0.51505346282E+02 -0.22981000466E+02  0.11774032656E+03  0.13061846721E+03  0.41800000000E+01 0.  1.
         -5    1    3    3    0  502 -0.18442264906E+02  0.94553134526E+02  0.91740183650E+02  0.13309450056E+03  0.41800000000E+01 0.  1.
        -11    1    1    2    0    0  0.35692777587E+02 -0.89294476900E+02  0.17890610120E+03  0.20311295140E+03  0.00000000000E+00 0.  1.
         11    1    1    2    0    0  0.34254833601E+02  0.17722342840E+02  0.81369922503E+02  0.90047428331E+02  0.00000000000E+00 0. -1.
</event>
<event>
 7    1  0.2989693E-009  0.9617581E+02  0.7561462E-02  0.1288550E+00
         -2   -1    0    0    0  501 -0.00000000000E+00  0.00000000000E+00  0.52275630472E+02  0.52275630472E+02  0.00000000000E+00 0.  1.
          2   -1    0    0  501    0  0.00000000000E+00 -0.00000000000E+00 -0.24991286723E+03  0.24991286723E+03  0.00000000000E+00 0. -1.
         25    2    1    2    0    0  0.12712651995E+02 -0.29566994148E+02 -0.89773024517E+02  0.15729743385E+03  0.12508984012E+03 0.  0.
          5    1    3    3  502    0  0.25432778161E+02  0.29130216275E+02  0.10545493250E+02  0.40299820510E+02  0.41800000000E+01 0.  1.
         -5    1    3    3    0  502 -0.12720126166E+02 -0.58697210424E+02 -0.10031851777E+03  0.11699761334E+03  0.41800000000E+01 0.  1.
        -11    1    1    2    0    0  0.19913597618E+02 -0.23595415694E+02 -0.18773359551E+02  0.36134942102E+02  0.00000000000E+00 0. -1.
         11    1    1    2    0    0 -0.32626249614E+02  0.53162409842E+02 -0.89090852691E+02  0.10875612175E+03  0.00000000000E+00 0.  1.
</event>
<event>
 7    1  0.2989693E-009  0.1990044E+03  0.7561462E-02  0.1150582E+00
         -1   -1    0    0    0  501 -0.00000000000E+00  0.00000000000E+00  0.80954461596E+02  0.80954461596E+02  0.00000000000E+00 0.  1.
          1   -1    0    0  501    0  0.00000000000E+00 -0.00000000000E+00 -0.58518470031E+03  0.58518470031E+03  0.00000000000E+00 0. -1.
         25    2    1    2    0    0 -0.87495097867E+02 -0.16674200850E+03 -0.27499812969E+03  0.35599114446E+03  0.12508970404E+03 0.  0.
          5    1    3    3  502    0 -0.59500875753E+00 -0.96398230862E+02 -0.19774320001E+03  0.22002913102E+03  0.41800000000E+01 0. -1.
         -5    1    3    3    0  502 -0.86900089109E+02 -0.70343777635E+02 -0.77254929679E+02  0.13596201344E+03  0.41800000000E+01 0. -1.
        -11    1    1    2    0    0  0.50842846354E+02  0.11933082627E+03 -0.21069253546E+03  0.24741904862E+03  0.00000000000E+00 0.  1.
         11    1    1    2    0    0  0.36652251513E+02  0.47411182231E+02 -0.18539573569E+02  0.62728968823E+02  0.00000000000E+00 0. -1.
</event>
<event>
 7    1  0.2989693E-009  0.1112720E+03  0.7561462E-02  0.1258232E+00
         -2   -1    0    0    0  501 -0.00000000000E+00  0.00000000000E+00  0.92034192852E+02  0.92034192852E+02  0.00000000000E+00 0.  1.
          2   -1    0    0  501    0  0.00000000000E+00 -0.00000000000E+00 -0.34536532430E+03  0.34536532430E+03  0.00000000000E+00 0. -1.
         25    2    1    2    0    0 -0.46142582648E+02 -0.19995645486E+02  0.30562510055E+02  0.13824209672E+03  0.12509135267E+03 0.  0.
          5    1    3    3  502    0 -0.38938356198E+02  0.48594235259E+02  0.29762164316E+02  0.69143720674E+02  0.41800000000E+01 0. -1.
         -5    1    3    3    0  502 -0.72042264502E+01 -0.68589880745E+02  0.80034573889E+00  0.69098376049E+02  0.41800000000E+01 0. -1.
        -11    1    1    2    0    0 -0.15973150318E+02  0.23961656148E+02 -0.56726324577E+02  0.63617437833E+02  0.00000000000E+00 0.  1.
         11    1    1    2    0    0  0.62115732966E+02 -0.39660106623E+01 -0.22716731693E+03  0.23553998260E+03  0.00000000000E+00 0. -1.
</event>
<event>
 7    1  0.2989693E-009  0.1131314E+03  0.7561462E-02  0.1254879E+00
         -1   -1    0    0    0  501 -0.00000000000E+00  0.00000000000E+00  0.60266640808E+02  0.60266640808E+02  0.00000000000E+00 0.  1.
          1   -1    0    0  501    0  0.00000000000E+00 -0.00000000000E+00 -0.27383447658E+03  0.27383447658E+03  0.00000000000E+00 0. -1.
         25    2    1    2    0    0  0.48322212045E+02 -0.37180328126E+01 -0.54834327923E+02  0.14492236776E+03  0.12508728638E+03 0.  0.
          5    1    3    3  502    0  0.79329401713E+02  0.22657269260E+02 -0.84058729956E+01  0.83033950450E+02  0.41800000000E+01 0.  1.
         -5    1    3    3    0  502 -0.31007189668E+02 -0.26375302073E+02 -0.46428454927E+02  0.61888417313E+02  0.41800000000E+01 0.  1.
        -11    1    1    2    0    0  0.21401425796E+02  0.21959596479E+02 -0.52682239050E+02  0.60956240164E+02  0.00000000000E+00 0. -1.
         11    1    1    2    0    0 -0.69723637840E+02 -0.18241563666E+02 -0.10605126880E+03  0.12822250946E+03  0.00000000000E+00 0.  1.
</event>
<event>
 7    1  0.2989693E-009  0.9960048E+02  0.7561462E-02  0.1281138E+00
         -3   -1    0    0    0  501 -0.00000000000E+00  0.00000000000E+00  0.97566089167E+02  0.97566089167E+02  0.00000000000E+00 0.  1.
          3   -1    0    0  501    0  0.00000000000E+00 -0.00000000000E+00 -0.14929279838E+03  0.14929279838E+03  0.00000000000E+00 0. -1.
         25    2    1    2    0    0 -0.22434662338E+02  0.55135496314E+02 -0.57241441997E+02  0.14988873217E+03  0.12508721886E+03 0.  0.
          5    1    3    3  502    0 -0.63616895885E+02  0.12809306966E+02  0.34300418705E+01  0.65118548619E+02  0.41800000000E+01 0.  1.
         -5    1    3    3    0  502  0.41182233547E+02  0.42326189347E+02 -0.60671483867E+02  0.84770183551E+02  0.41800000000E+01 0.  1.
        -11    1    1    2    0    0  0.31658724094E+02 -0.17403305047E+02 -0.27968024639E+02  0.45687637716E+02  0.00000000000E+00 0. -1.
         11    1    1    2    0    0 -0.92240617562E+01 -0.37732191267E+02  0.33482757423E+02  0.51282517662E+02  0.00000000000E+00 0.  1.
</event>
<event>
 7    1  0.2989693E-009  0.1107856E+03  0.7561462E-02  0.1259122E+00
          2   -1    0    0  501    0  0.00000000000E+00  0.00000000000E+00  0.39668205225E+03  0.39668205225E+03  0.00000000000E+00 0. -1.
         -2   -1    0    0    0  501 -0.00000000000E+00 -0.00000000000E+00 -0.42067852624E+02  0.42067852624E+02  0.00000000000E+00 0.  1.
         25    2    1    2    0    0 -0.49651765647E+02 -0.36048358689E+02  0.25486335898E+03  0.29046048832E+03  0.12508869465E+03 0.  0.
          5    1    3    3  502    0 -0.43813759251E+01 -0.70123074105E+02  0.79781144345E+02  0.10639053233E+03  0.41800000000E+01 0. -1.
         -5    1    3    3    0  502 -0.45270389722E+02  0.34074715416E+02  0.17508221464E+03  0.18406995599E+03  0.41800000000E+01 0. -1.
        -11    1    1    2    0    0  0.36176369025E+02 -0.16760987976E+02  0.81643299318E+02  0.90858619389E+02  0.00000000000E+00 0.  1.
         11    1    1    2    0    0  0.13475396622E+02  0.52809346665E+02  0.18107541319E+02  0.57430797156E+02  0.00000000000E+00 0. -1.
</event>
<event>
 7    1  0.2989693E-009  0.2265154E+03  0.7561462E-02  0.1129117E+00
         -3   -1    0    0    0  501 -0.00000000000E+00  0.00000000000E+00  0.51512896000E+02  0.51512896000E+02  0.00000000000E+00 0.  1.
          3   -1    0    0  501    0  0.00000000000E+00 -0.00000000000E+00 -0.11504378119E+04  0.11504378119E+04  0.00000000000E+00 0. -1.
         25    2    1    2    0    0  0.14413069091E+03  0.16171296813E+03 -0.61023876213E+03  0.65951725513E+03  0.12508766078E+03 0.  0.
          5    1    3    3  502    0  0.80738733103E+02  0.23971325417E+02 -0.33282499720E+03  0.34334140243E+03  0.41800000000E+01 0. -1.
         -5    1    3    3    0  502  0.63391957803E+02  0.13774164272E+03 -0.27741376494E+03  0.31617585270E+03  0.41800000000E+01 0. -1.
        -11    1    1    2    0    0 -0.24435146479E+02 -0.35264959734E+02 -0.20606095884E+03  0.21047995754E+03  0.00000000000E+00 0. -1.
         11    1    1    2    0    0 -0.11969554443E+03 -0.12644800840E+03 -0.28262519489E+03  0.33195349520E+03  0.00000000000E+00 0.  1.
</event>
<event>
 7    1  0.2989693E-009  0.8189007E+02  0.7561462E-02  0.1323772E+00
          2   -1    0    0  501    0  0.00000000000E+00  0.00000000000E+00  0.70094839935E+03  0.70094839935E+03  0.00000000000E+00 0. -1.
         -2   -1    0    0    0  501 -0.00000000000E+00 -0.00000000000E+00 -0.20548452449E+02  0.20548452449E+02  0.00000000000E+00 0.  1.
         25    2    1    2    0    0  0.19213615218E+02  0.48461356770E+02  0.35570307121E+03  0.38064426491E+03  0.12509082872E+03 0.  0.
          5    1    3    3  502    0 -0.15298292137E+02  0.34050545055E+02  0.33613668629E+03  0.33822894854E+03  0.41800000000E+01 0. -1.
         -5    1    3    3    0  502  0.34511907354E+02  0.14410811715E+02  0.19566384916E+02  0.42415316363E+02  0.41800000000E+01 0. -1.
        -11    1    1    2    0    0  0.24974589479E+02 -0.29456587397E+01  0.28809521298E+02  0.38241280607E+02  0.00000000000E+00 0.  1.
         11    1    1    2    0    0 -0.44188204696E+02 -0.45515698030E+02  0.29588735440E+03  0.30261130629E+03  0.00000000000E+00 0. -1.
</event>
<event>
 7    1  0.2989693E-009  0.1103427E+03  0.7561462E-02  0.1259937E+00
         -3   -1    0    0    0  501 -0.00000000000E+00  0.00000000000E+00  0.11223107036E+03  0.11223107036E+03  0.00000000000E+00 0.  1.
          3   -1    0    0  501    0  0.00000000000E+00 -0.00000000000E+00 -0.14609433781E+03  0.14609433781E+03  0.00000000000E+00 0. -1.
         25    2    1    2    0    0 -0.47488116911E+02 -0.47818125259E+02 -0.29950729098E+02  0.14520690735E+03  0.12508519264E+03 0.  0.
          5    1    3    3  502    0 -0.64215488839E+02  0.15687306593E+02 -0.41830329794E+02  0.78338812129E+02  0.41800000000E+01 0.  1.
         -5    1    3    3    0  502  0.16727371928E+02 -0.63505431852E+02  0.11879600697E+02  0.66868095225E+02  0.41800000000E+01 0.  1.
        -11    1    1    2    0    0  0.17133701057E+02  0.54869590137E+02 -0.36450192707E+02  0.68065058452E+02  0.00000000000E+00 0. -1.
         11    1    1    2    0    0  0.30354415854E+02 -0.70514648779E+01  0.32537654353E+02  0.45053442372E+02  0.00000000000E+00 0.  1.
</event>
<event>
 7    1  0.2989693E-009  0.9081190E+02  0.7561462E-02  0.1300897E+00
          1   -1    0    0  501    0  0.00000000000E+00  0.00000000000E+00  0.43143150483E+03  0.43143150483E+03  0.00000000000E+00 0. -1.
         -1   -1    0    0    0  501 -0.00000000000E+00 -0.00000000000E+00 -0.41751934116E+02  0.41751934116E+02  0.00000000000E+00 0.  1.
         25    2    1    2    0    0  0.31359279660E+02 -0.25313065331E+02  0.33007205922E+03  0.35527246850E+03  0.12508719718E+03 0.  0.
          5    1    3    3  502    0  0.94464612389E+01 -0.47537962639E+02  0.31775889711E+03  0.32146116813E+03  0.41800000000E+01 0. -1.
         -5    1    3    3    0  502  0.21912818422E+02  0.22224897308E+02  0.12313162111E+02  0.33811300370E+02  0.41800000000E+01 0. -1.
        -11    1    1    2    0    0 -0.53174565330E+02 -0.15346358805E+02  0.28398030026E+02  0.62205250871E+02  0.00000000000E+00 0.  1.
         11    1    1    2    0    0  0.21815285670E+02  0.40659424136E+02  0.31209481466E+02  0.55705719574E+02  0.00000000000E+00 0. -1.
</event>
<event>
 7    1  0.2989693E-009  0.1822829E+03  0.7561462E-02  0.1165612E+00
          2   -1    0    0  501    0  0.00000000000E+00  0.00000000000E+00  0.25424835946E+03  0.25424835946E+03  0.00000000000E+00 0. -1.
         -2   -1    0    0    0  501 -0.00000000000E+00 -0.00000000000E+00 -0.13596014737E+03  0.13596014737E+03  0.00000000000E+00 0.  1.
         25    2    1    2    0    0 -0.12270851345E+03  0.81894304109E+02  0.95193703064E+02  0.21557610314E+03  0.12508860389E+03 0.  0.
          5    1    3    3  502    0  0.18547606730E+02  0.42723288095E+02  0.22050556163E+02  0.51700991172E+02  0.41800000000E+01 0. -1.
         -5    1    3    3    0  502 -0.14125612017E+03  0.39171016014E+02  0.73143146901E+02  0.16387511196E+03  0.41800000000E+01 0. -1.
        -11    1    1    2    0    0 -0.12332530569E+02  0.15270249464E+01 -0.50734689630E+01  0.13422488694E+02  0.00000000000E+00 0.  1.
         11    1    1    2    0    0  0.13504104401E+03 -0.83421329056E+02  0.28167977990E+02  0.16120991500E+03  0.00000000000E+00 0. -1.
</event>
<event>
 7    1  0.2989693E-009  0.1464895E+03  0.7561462E-02  0.1204854E+00
         -1   -1    0    0    0  501 -0.00000000000E+00  0.00000000000E+00  0.21002695340E+02  0.21002695340E+02  0.00000000000E+00 0.  1.
          1   -1    0    0  501    0  0.00000000000E+00 -0.00000000000E+00 -0.10444676161E+04  0.10444676161E+04  0.00000000000E+00 0. -1.
         25    2    1    2    0    0 -0.60853754726E+02 -0.80411438672E+02 -0.53715078227E+03  0.56066707443E+03  0.12508967394E+03 0.  0.
          5    1    3    3  502    0  0.68473893260E+01 -0.90308640148E+02 -0.26782340446E+03  0.28275322386E+03  0.41800000000E+01 0. -1.
         -5    1    3    3    0  502 -0.67701144052E+02  0.98972014765E+01 -0.26932737781E+03  0.27791385057E+03  0.41800000000E+01 0. -1.
        -11    1    1    2    0    0  0.68236885341E+02  0.95263139181E+02 -0.39579660764E+03  0.41277874561E+03  0.00000000000E+00 0.  1.
         11    1    1    2    0    0 -0.73831306148E+01 -0.14851700510E+02 -0.90517530821E+02  0.92024491369E+02  0.00000000000E+00 0. -1.
</event>
<event>
 7    1  0.2989693E-009  0.7783595E+02  0.7561462E-02  0.1335307E+00
         -2   -1    0    0    0  501 -0.00000000000E+00  0.00000000000E+00  0.17351423428E+03  0.17351423428E+03  0.00000000000E+00 0.  1.
          2   -1    0    0  501    0  0.00000000000E+00 -0.00000000000E+00 -0.43890833588E+02  0.43890833588E+02  0.00000000000E+00 0. -1.
         25    2    1    2    0    0 -0.59194397584E+01 -0.19241124249E+02  0.11713273804E+03  0.17254844714E+03  0.12509047790E+03 0.  0.
          5    1    3    3  502    0  0.13017648652E+02 -0.67645670072E+02  0.91034311941E+02  0.11423709646E+03  0.41800000000E+01 0. -1.
         -5    1    3    3    0  502 -0.18937088410E+02  0.48404545824E+02  0.26098426098E+02  0.58311350685E+02  0.41800000000E+01 0. -1.
        -11    1    1    2    0    0  0.16508630942E+02  0.60142172867E+01  0.19740596521E+02  0.26427199174E+02  0.00000000000E+00 0.  1.
         11    1    1    2    0    0 -0.10589191183E+02  0.13226906962E+02 -0.72499338698E+01  0.18429421554E+02  0.00000000000E+00 0. -1.
</event>
<event>
 7    1  0.2989693E-009  0.1027478E+03  0.7561462E-02  0.1274622E+00
          1   -1    0    0  501    0  0.00000000000E+00  0.00000000000E+00  0.58654458720E+02  0.58654458720E+02  0.00000000000E+00 0. -1.
         -1   -1    0    0    0  501 -0.00000000000E+00 -0.00000000000E+00 -0.23549450491E+03  0.23549450491E+03  0.00000000000E+00 0.  1.
         25    2    1    2    0    0  0.42945853447E+02 -0.11111159713E+02 -0.99308108508E+02  0.16576335520E+03  0.12509030862E+03 0.  0.
          5    1    3    3  502    0 -0.31796166663E+02 -0.39960956102E+02 -0.27797358681E+02  0.58292707749E+02  0.41800000000E+01 0.  1.
         -5    1    3    3    0  502  0.74742020110E+02  0.28849796389E+02 -0.71510749827E+02  0.10747064745E+03  0.41800000000E+01 0.  1.
        -11    1    1    2    0    0 -0.52508122558E+02 -0.75647494631E+01 -0.89639490301E+02  0.10416125283E+03  0.00000000000E+00 0.  1.
         11    1    1    2    0    0  0.95622691102E+01  0.18675909176E+02  0.12107552620E+02  0.24224355606E+02  0.00000000000E+00 0. -1.
</event>
<event>
 7    1  0.2989693E-009  0.1488136E+03  0.7561462E-02  0.1201938E+00
         -1   -1    0    0    0  501 -0.00000000000E+00  0.00000000000E+00  0.11757279724E+03  0.11757279724E+03  0.00000000000E+00 0.  1.
          1   -1    0    0  501    0  0.00000000000E+00 -0.00000000000E+00 -0.24296601705E+03  0.24296601705E+03  0.00000000000E+00 0. -1.
         25    2    1    2    0    0 -0.57168133549E+02  0.11453699771E+03 -0.87796081082E+02  0.19935548115E+03  0.12509011421E+03 0.  0.
          5    1    3    3  502    0  0.14590221966E+01  0.82822289058E+02  0.71772245906E+01  0.83250497076E+02  0.41800000000E+01 0. -1.
         -5    1    3    3    0  502 -0.58627155745E+02  0.31714708647E+02 -0.94973305673E+02  0.11610498407E+03  0.41800000000E+01 0. -1.
        -11    1    1    2    0    0 -0.15309159730E+02 -0.41769818128E+01 -0.23562773730E+02  0.28408130078E+02  0.00000000000E+00 0.  1.
         11    1    1    2    0    0  0.72477293279E+02 -0.11036001589E+03 -0.14034365005E+02  0.13277520307E+03  0.00000000000E+00 0. -1.
</event>
<event>
 7    1  0.2989693E-009  0.1150115E+03  0.7561462E-02  0.1251561E+00
          1   -1    0    0  501    0  0.00000000000E+00  0.00000000000E+00  0.16910519938E+03  0.16910519938E+03  0.00000000000E+00 0. -1.
         -1   -1    0    0    0  501 -0.00000000000E+00 -0.00000000000E+00 -0.12265166124E+03  0.12265166124E+03  0.00000000000E+00 0.  1.
         25    2    1    2    0    0  0.24978811960E+02 -0.89938924366E+02  0.12180900823E+02  0.15655352675E+03  0.12509069202E+03 0.  0.
          5    1    3    3  502    0  0.43321684471E+02 -0.66783537042E+02 -0.45375922093E+02  0.91723802097E+02  0.41800000000E+01 0.  1.
         -5    1    3    3    0  502 -0.18342872510E+02 -0.23155387324E+02  0.57556822916E+02  0.64829724650E+02  0.41800000000E+01 0.  1.
        -11    1    1    2    0    0  0.21770308045E+02  0.62692898235E+02 -0.75799496284E+01  0.66796717268E+02  0.00000000000E+00 0.  1.
         11    1    1    2    0    0 -0.46749120005E+02  0.27246026131E+02  0.41852586949E+02  0.68406616606E+02  0.00000000000E+00 0. -1.
</event>
<event>
 6    1  0.2989693E-009  0.1065508E+03  0.7561462E-02  0.1267094E+00
         -2   -1    0    0    0  501 -0.00000000000E+00  0.00000000000E+00  0.36835993952E+02  0.36835993952E+02  0.00000000000E+00 0.  1.
          2   -1    0    0  501    0  0.00000000000E+00 -0.00000000000E+00 -0.42749771314E+03  0.42749771314E+03  0.00000000000E+00 0. -1.
          5    1    1    2  502    0 -0.59223548092E+02 -0.42723099618E+02 -0.14137059886E+03  0.15917226678E+03  0.41800000000E+01 0. -1.
         -5    1    1    2    0  502  0.46782886259E+02  0.16260653741E+02 -0.18419777976E+03  0.19078611526E+03  0.41800000000E+01 0. -1.
        -11    1    1    2    0    0  0.20497822279E+02 -0.28276004818E+02 -0.10075250351E+02  0.36348367725E+02  0.00000000000E+00 0.  1.
         11    1    1    2    0    0 -0.80571604453E+01  0.54738450695E+02 -0.55018090213E+02  0.78026957326E+02  0.00000000000E+00 0. -1.
</event>
<event>
 7    1  0.2989693E-009  0.1815521E+03  0.7561462E-02  0.1166309E+00
          2   -1    0    0  501    0  0.00000000000E+00  0.00000000000E+00  0.13927014858E+04  0.13927014858E+04  0.00000000000E+00 0. -1.
         -2   -1    0    0    0  501 -0.00000000000E+00 -0.00000000000E+00 -0.34868037399E+02  0.34868037399E+02  0.00000000000E+00 0.  1.
         25    2    1    2    0    0 -0.15527759979E+03  0.13516634021E+02  0.10594905473E+04  0.10781747016E+04  0.12508650940E+03 0.  0.
          5    1    3    3  502    0 -0.88134991052E+02  0.53499930195E+02  0.36552251937E+03  0.37980811438E+03  0.41800000000E+01 0.  1.
         -5    1    3    3    0  502 -0.67142608736E+02 -0.39983296174E+02  0.69396802796E+03  0.69836658720E+03  0.41800000000E+01 0.  1.
        -11    1    1    2    0    0  0.12452829890E+03  0.30270389590E+02  0.20312445852E+03  0.24017314454E+03  0.00000000000E+00 0.  1.
         11    1    1    2    0    0  0.30749300890E+02 -0.43787023611E+02  0.95218442529E+02  0.10922167706E+03  0.00000000000E+00 0. -1.
</event>
<event>
 7    1  0.2989693E-009  0.1081230E+03  0.7561462E-02  0.1264086E+00
          2   -1    0    0  501    0  0.00000000000E+00  0.00000000000E+00  0.50627261533E+03  0.50627261533E+03  0.00000000000E+00 0. -1.
         -2   -1    0    0    0  501 -0.00000000000E+00 -0.00000000000E+00 -0.30248560657E+02  0.30248560657E+02  0.00000000000E+00 0.  1.
         25    2    1    2    0    0  0.15001043531E+02  0.11669951127E+02  0.15147407655E+03  0.19736689919E+03  0.12509227779E+03 0.  0.
          5    1    3    3  502    0  0.61371537787E+02 -0.23861038993E+02  0.97468273158E+02  0.11770026128E+03  0.41800000000E+01 0.  1.
         -5    1    3    3    0  502 -0.46370494256E+02  0.35530990120E+02  0.54005803392E+02  0.79666637913E+02  0.41800000000E+01 0.  1.
        -11    1    1    2    0    0 -0.52797153024E+02 -0.27722166228E+01  0.12273672784E+03  0.13363954846E+03  0.00000000000E+00 0.  1.
         11    1    1    2    0    0  0.37796109493E+02 -0.88977345039E+01  0.20181325029E+03  0.20551472834E+03  0.00000000000E+00 0. -1.
</event>
<event>
 7    1  0.2989693E-009  0.3203285E+03  0.7561462E-02  0.1075498E+00
         -1   -1    0    0    0  501 -0.00000000000E+00  0.00000000000E+00  0.13089159205E+04  0.13089159205E+04  0.00000000000E+00 0.  1.
          1   -1    0    0  501    0  0.00000000000E+00 -0.00000000000E+00 -0.83632420978E+02  0.83632420978E+02  0.00000000000E+00 0. -1.
         25    2    1    2    0    0 -0.47793691714E+02  0.29850669044E+03  0.78697308920E+03  0.85227001050E+03  0.12508815479E+03 0.  0.
          5    1    3    3  502    0 -0.88888011337E+02  0.21015608530E+03  0.51367204697E+03  0.56208816300E+03  0.41800000000E+01 0. -1.
         -5    1    3    3    0  502  0.41094319623E+02  0.88350605138E+02  0.27330104223E+03  0.29018184750E+03  0.41800000000E+01 0. -1.
        -11    1    1    2    0    0  0.71909799411E+02 -0.17734456798E+03  0.24531041975E+03  0.31112588623E+03  0.00000000000E+00 0.  1.
         11    1    1    2    0    0 -0.24116107696E+02 -0.12116212247E+03  0.19299999052E+03  0.22915244470E+03  0.00000000000E+00 0. -1.
</event>
<event>
 7    1  0.2989693E-009  0.8591058E+02  0.7561462E-02  0.1313068E+00
         -1   -1    0    0    0  501 -0.00000000000E+00  0.00000000000E+00  0.29453452020E+02  0.29453452020E+02  0.00000000000E+00 0.  1.
          1   -1    0    0  501    0  0.00000000000E+00 -0.00000000000E+00 -0.45701231466E+03  0.45701231466E+03  0.00000000000E+00 0. -1.
         25    2    1    2    0    0  0.26669902740E+02  0.30388876817E+02 -0.24636851031E+03  0.27924882617E+03  0.12509075305E+03 0.  0.
          5    1    3    3  502    0 -0.32123299655E+02  0.35605874391E+01 -0.98804669776E+01  0.34054077455E+02  0.41800000000E+01 0. -1.
         -5    1    3    3    0  502  0.58793202394E+02  0.26828289378E+02 -0.23648804333E+03  0.24519474872E+03  0.41800000000E+01 0. -1.
        -11    1    1    2    0    0  0.18554679755E+02 -0.21469122446E+02 -0.10250014464E+02  0.30170551137E+02  0.00000000000E+00 0.  1.
         11    1    1    2    0    0 -0.45224582495E+02 -0.89197543710E+01 -0.17094033787E+03  0.17704638937E+03  0.00000000000E+00 0. -1.
</event>
<event>
 7    1  0.2989693E-009  0.7781149E+02  0.7561462E-02  0.1335379E+00
         -1   -1    0    0    0  501 -0.00000000000E+00  0.00000000000E+00  0.55353165566E+03  0.55353165566E+03  0.00000000000E+00 0.  1.
          1   -1    0    0  501    0  0.00000000000E+00 -0.00000000000E+00 -0.26842194941E+02  0.26842194941E+02  0.00000000000E+00 0. -1.
         25    2    1    2    0    0  0.45596706848E+02  0.21492305836E+02  0.24100545717E+03  0.27617806340E+03  0.12509881466E+03 0.  0.
          5    1    3    3  502    0  0.37455609064E+02  0.25405773192E+02  0.12070799895E+02  0.47027147180E+02  0.41800000000E+01 0. -1.
         -5    1    3    3    0  502  0.81410977839E+01 -0.39134673555E+01  0.22893465728E+03  0.22915091622E+03  0.41800000000E+01 0. -1.
        -11    1    1    2    0    0 -0.94052830954E+01  0.33271919478E+02  0.14324687704E+03  0.14736060449E+03  0.00000000000E+00 0.  1.
         11    1    1    2    0    0 -0.36191423752E+02 -0.54764225314E+02  0.14243712651E+03  0.15683518271E+03  0.00000000000E+00 0. -1.
</event>
<event>
 7    1  0.2989693E-009  0.2156717E+03  0.7561462E-02  0.1137152E+00
          2   -1    0    0  501    0  0.00000000000E+00  0.00000000000E+00  0.37033668701E+03  0.37033668701E+03  0.00000000000E+00 0.  1.
         -2   -1    0    0    0  501 -0.00000000000E+00 -0.00000000000E+00 -0.19409067501E+03  0.19409067501E+03  0.00000000000E+00 0. -1.
         25    2    1    2    0    0  0.19762483392E+03 -0.71553974765E+02  0.22703032395E+03  0.33371171085E+03  0.12508074063E+03 0.  0.
          5    1    3    3  502    0  0.15168151395E+03 -0.76316706158E+02  0.96862234466E+02  0.19552822348E+03  0.41800000000E+01 0.  1.
         -5    1    3    3    0  502  0.45943319975E+02  0.47627313924E+01  0.13016808948E+03  0.13818348737E+03  0.41800000000E+01 0.  1.
        -11    1    1    2    0    0 -0.18248241431E+03  0.78257987573E+02 -0.25071760558E+02  0.20013179989E+03  0.00000000000E+00 0.  1.
         11    1    1    2    0    0 -0.15142419618E+02 -0.67040128076E+01 -0.25712551398E+02  0.30583851278E+02  0.00000000000E+00 0. -1.
</event>
<event>
 7    1  0.2989693E-009  0.1008011E+03  0.7561462E-02  0.1278620E+00
         -2   -1    0    0    0  501 -0.00000000000E+00  0.00000000000E+00  0.66418921677E+02  0.66418921677E+02  0.00000000000E+00 0.  1.
          2   -1    0    0  501    0  0.00000000000E+00 -0.00000000000E+00 -0.20348990439E+03  0.20348990439E+03  0.00000000000E+00 0. -1.
         25    2    1    2    0    0 -0.31807787654E+02  0.27423725336E+02 -0.86387097423E+02  0.15771786722E+03  0.12509356087E+03 0.  0.
          5    1    3    3  502    0 -0.57283939955E+02 -0.12721841414E+02  0.22060360930E+00  0.58828701258E+02  0.41800000000E+01 0. -1.
         -5    1    3    3    0  502  0.25476152301E+02  0.40145566750E+02 -0.86607701032E+02  0.98889165958E+02  0.41800000000E+01 0. -1.
        -11    1    1    2    0    0 -0.17922678711E+02  0.19629780721E+02  0.70026285233E+00  0.26590243914E+02  0.00000000000E+00 0.  1.
         11    1    1    2    0    0  0.49730466366E+02 -0.47053506057E+02 -0.51384148138E+02  0.85600714933E+02  0.00000000000E+00 0. -1.
</event>
<event>
 7    1  0.2989693E-009  0.1302683E+03  0.7561462E-02  0.1227058E+00
          4   -1    0    0  501    0  0.00000000000E+00  0.00000000000E+00  0.17919346858E+03  0.17919346858E+03  0.00000000000E+00 0. -1.
         -4   -1    0    0    0  501 -0.00000000000E+00 -0.00000000000E+00 -0.10663053590E+03  0.10663053590E+03  0.00000000000E+00 0.  1.
         25    2    1    2    0    0 -0.12402491998E+02  0.82314036995E+02  0.33093850791E+02  0.15384589916E+03  0.12507571800E+03 0.  0.
          5    1    3    3  502    0  0.38289335455E+02  0.90521047693E+02  0.26665030786E+02  0.10192462682E+03  0.41800000000E+01 0. -1.
         -5    1    3    3    0  502 -0.50691827453E+02 -0.82070106982E+01  0.64288200053E+01  0.51921272344E+02  0.41800000000E+01 0. -1.
        -11    1    1    2    0    0 -0.37321994122E+01 -0.91831649549E+02  0.55463535159E+02  0.10734609869E+03  0.00000000000E+00 0. -1.
         11    1    1    2    0    0  0.16134691410E+02  0.95176125541E+01 -0.15994453268E+02  0.24632006638E+02  0.00000000000E+00 0.  1.
</event>
<event>
 7    1  0.2989693E-009  0.1740840E+03  0.7561462E-02  0.1173655E+00
          1   -1    0    0  501    0  0.00000000000E+00  0.00000000000E+00  0.61129075595E+02  0.61129075595E+02  0.00000000000E+00 0. -1.
         -1   -1    0    0    0  501 -0.00000000000E+00 -0.00000000000E+00 -0.63683092093E+03  0.63683092093E+03  0.00000000000E+00 0.  1.
         25    2    1    2    0    0 -0.14371549580E+03 -0.79226373515E+02 -0.24430912720E+03  0.31979045440E+03  0.12509205850E+03 0.  0.
          5    1    3    3  502    0 -0.34966344032E+02 -0.47163816714E+02 -0.17999606741E+03  0.18937562542E+03  0.41800000000E+01 0. -1.
         -5    1    3    3    0  502 -0.10874915176E+03 -0.32062556800E+02 -0.64313059792E+02  0.13041482898E+03  0.41800000000E+01 0. -1.
        -11    1    1    2    0    0  0.12012844918E+03  0.34002276034E+02 -0.27569382487E+03  0.30264514559E+03  0.00000000000E+00 0.  1.
         11    1    1    2    0    0  0.23587046611E+02  0.45224097480E+02 -0.55698893273E+02  0.75524396539E+02  0.00000000000E+00 0. -1.
</event>
<event>
 7    1  0.2989693E-009  0.1205961E+03  0.7561462E-02  0.1242117E+00
          2   -1    0    0  501    0  0.00000000000E+00  0.00000000000E+00  0.31831254345E+03  0.31831254345E+03  0.00000000000E+00 0. -1.
         -2   -1    0    0    0  501 -0.00000000000E+00 -0.00000000000E+00 -0.10703152133E+03  0.10703152133E+03  0.00000000000E+00 0.  1.
         25    2    1    2    0    0 -0.64155118553E+02  0.56800348308E+02  0.25247070612E+03  0.29449705531E+03  0.12507957201E+03 0.  0.
          5    1    3    3  502    0 -0.36890398645E+01  0.84150834216E+02  0.15586230945E+03  0.17721598072E+03  0.41800000000E+01 0. -1.
         -5    1    3    3    0  502 -0.60466078689E+02 -0.27350485908E+02  0.96608396671E+02  0.11728107460E+03  0.41800000000E+01 0. -1.
        -11    1    1    2    0    0  0.37976365365E+02 -0.50933877508E+02 -0.67900716014E+02  0.92989093122E+02  0.00000000000E+00 0.  1.
         11    1    1    2    0    0  0.26178753188E+02 -0.58664707995E+01  0.26711032021E+02  0.37857916342E+02  0.00000000000E+00 0. -1.
</event>
<event>
 7    1  0.2989693E-009  0.8475317E+02  0.7561462E-02  0.1316079E+00
          2   -1    0    0  501    0  0.00000000000E+00  0.00000000000E+00  0.48307150612E+03  0.48307150612E+03  0.00000000000E+00 0. -1.
         -2   -1    0    0    0  501 -0.00000000000E+00 -0.00000000000E+00 -0.34425627623E+02  0.34425627623E+02  0.00000000000E+00 0.  1.
         25    2    1    2    0    0 -0.25702371978E+02 -0.27085235526E+02  0.36002384599E+03  0.38296043928E+03  0.12508919404E+03 0.  0.
          5    1    3    3  502    0  0.37021313330E+02 -0.28995275917E+02  0.26390457100E+03  0.26809401087E+03  0.41800000000E+01 0. -1.
         -5    1    3    3    0  502 -0.62723685308E+02  0.19100403903E+01  0.96119274984E+02  0.11486642841E+03  0.41800000000E+01 0. -1.
        -11    1    1    2    0    0 -0.13489951316E+02  0.47938623775E+01 -0.15482774618E+02  0.21087347223E+02  0.00000000000E+00 0.  1.
         11    1    1    2    0    0  0.39192323294E+02  0.22291373149E+02  0.10410480713E+03  0.11344934724E+03  0.00000000000E+00 0. -1.
</event>
<event>
 7    1  0.2989693E-009  0.9704720E+02  0.7561462E-02  0.1286631E+00
         -3   -1    0    0    0  501 -0.00000000000E+00  0.00000000000E+00  0.45521503808E+02  0.45521503808E+02  0.00000000000E+00 0.  1.
          3   -1    0    0  501    0  0.00000000000E+00 -0.00000000000E+00 -0.41224721045E+03  0.41224721045E+03  0.00000000000E+00 0. -1.
         25    2    1    2    0    0  0.80196065767E+01  0.43275413831E+02 -0.31857319089E+03  0.34506907417E+03  0.12508681970E+03 0.  0.
          5    1    3    3  502    0  0.22987749406E+02  0.70246860250E+02 -0.10070369344E+03  0.12498705641E+03  0.41800000000E+01 0.  1.
         -5    1    3    3    0  502 -0.14968142829E+02 -0.26971446420E+02 -0.21786949746E+03  0.22008201776E+03  0.41800000000E+01 0.  1.
        -11    1    1    2    0    0 -0.31419230193E+02 -0.54557591191E+02 -0.60765150277E+01  0.63250476815E+02  0.00000000000E+00 0.  1.
         11    1    1    2    0    0  0.23399623616E+02  0.11282177360E+02 -0.42076000726E+02  0.49449163274E+02  0.00000000000E+00 0. -1.
</event>
<event>
 7    1  0.3988336E-009  0.1556160E+03  0.7561462E-02  0.1193737E+00
         -2   -1    0    0    0  501 -0.00000000000E+00  0.00000000000E+00  0.11393960458E+03  0.11393960458E+03  0.00000000000E+00 0.  1.
          2   -1    0    0  501    0  0.00000000000E+00 -0.00000000000E+00 -0.27261309669E+03  0.27261309669E+03  0.00000000000E+00 0. -1.
         25    2    1    2    0    0 -0.66986001742E+02 -0.11133738555E+03 -0.31722018636E+02  0.18313167243E+03  0.12509110731E+03 0.  0.
          5    1    3    3  502    0 -0.73758490727E+02 -0.12203328932E+03  0.63484646725E+01  0.14279430682E+03  0.41800000000E+01 0. -1.
         -5    1    3    3    0  502  0.67724889848E+01  0.10695903769E+02 -0.38070483309E+02  0.40337365604E+02  0.41800000000E+01 0. -1.
        -11    1    1    2    0    0  0.78712618633E+02  0.51022796752E+02 -0.54743084138E+02  0.10860850511E+03  0.00000000000E+00 0.  1.
         11    1    1    2    0    0 -0.11726616891E+02  0.60314588802E+02 -0.72208389340E+02  0.94812523736E+02  0.00000000000E+00 0. -1.
</event>
<event>
 7    1  0.2989693E-009  0.1207726E+03  0.7561462E-02  0.1241828E+00
          2   -1    0    0  501    0  0.00000000000E+00  0.00000000000E+00  0.11205692921E+03  0.11205692921E+03  0.00000000000E+00 0. -1.
         -2   -1    0    0    0  501 -0.00000000000E+00 -0.00000000000E+00 -0.15785160449E+03  0.15785160449E+03  0.00000000000E+00 0.  1.
         25    2    1    2    0    0  0.86346074780E+01  0.75962590997E+02 -0.30720198118E+02  0.14978079316E+03  0.12508270764E+03 0.  0.
          5    1    3    3  502    0 -0.44548284369E+02 -0.66871658495E+00 -0.34235548179E+02  0.56343073942E+02  0.41800000000E+01 0. -1.
         -5    1    3    3    0  502  0.53182891847E+02  0.76631307582E+02  0.35153500607E+01  0.93437719220E+02  0.41800000000E+01 0. -1.
        -11    1    1    2    0    0 -0.39089020947E+02 -0.49549521765E+02  0.20505195706E+02  0.66359398104E+02  0.00000000000E+00 0. -1.
         11    1    1    2    0    0  0.30454413469E+02 -0.26413069232E+02 -0.35579672872E+02  0.53768342430E+02  0.00000000000E+00 0.  1.
</event>
<event>
 7    1  0.2989693E-009  0.1045816E+03  0.7561462E-02  0.1270946E+00
          3   -1    0    0  501    0  0.00000000000E+00  0.00000000000E+00  0.19671115382E+03  0.19671115382E+03  0.00000000000E+00 0. -1.
         -3   -1    0    0    0  501 -0.00000000000E+00 -0.00000000000E+00 -0.75438905339E+02  0.75438905339E+02  0.00000000000E+00 0.  1.
         25    2    1    2    0    0  0.41098792175E+01  0.28013164955E+02  0.11816960040E+03  0.17438722307E+03  0.12508085622E+03 0.  0.
          5    1    3    3  502    0  0.19906991398E+02 -0.39484642011E+02  0.94982549557E+01  0.45420419510E+02  0.41800000000E+01 0. -1.
         -5    1    3    3    0  502 -0.15797112180E+02  0.67497806967E+02  0.10867134545E+03  0.12896680356E+03  0.41800000000E+01 0. -1.
        -11    1    1    2    0    0 -0.21933970396E+02  0.28545163671E+02  0.11677580222E+02  0.37845624664E+02  0.00000000000E+00 0. -1.
         11    1    1    2    0    0  0.17824091179E+02 -0.56558328627E+02 -0.85749321478E+01  0.59917211423E+02  0.00000000000E+00 0.  1.
</event>
<event>
 7    1  0.2989693E-009  0.1166886E+03  0.7561462E-02  0.1248662E+00
          1   -1    0    0  501    0  0.00000000000E+00  0.00000000000E+00  0.11129606822E+03  0.11129606822E+03  0.00000000000E+00 0. -1.
         -1   -1    0    0    0  501 -0.00000000000E+00 -0.00000000000E+00 -0.15990725726E+03  0.15990725726E+03  0.00000000000E+00 0.  1.
         25    2    1    2    0    0  0.60073480129E+02  0.49429527288E+02 -0.20477253216E+02  0.14871793585E+03  0.12508239429E+03 0.  0.
          5    1    3    3  502    0  0.93363207620E+02  0.61234221784E+02 -0.15957204488E+02  0.11286462346E+03  0.41800000000E+01 0. -1.
         -5    1    3    3    0  502 -0.33289727490E+02 -0.11804694496E+02 -0.45200487278E+01  0.35853312386E+02  0.41800000000E+01 0. -1.
        -11    1    1    2    0    0 -0.22715840875E+02  0.16734728006E+01 -0.50459407197E+02  0.55362096353E+02  0.00000000000E+00 0.  1.
         11    1    1    2    0    0 -0.37357639254E+02 -0.51103000088E+02  0.22325471377E+02  0.67123293281E+02  0.00000000000E+00 0. -1.
</event>
<event>
 7    1  0.2989693E-009  0.1098909E+03  0.7561462E-02  0.1260772E+00
         -1   -1    0    0    0  501 -0.00000000000E+00  0.00000000000E+00  0.31401319204E+02  0.31401319204E+02  0.00000000000E+00 0.  1.
          1   -1    0    0  501    0  0.00000000000E+00 -0.00000000000E+00 -0.54301697210E+03  0.54301697210E+03  0.00000000000E+00 0. -1.
         25    2    1    2    0    0  0.66012744466E+02  0.11169917037E+02 -0.34139813815E+03  0.36970802053E+03  0.12509549247E+03 0.  0.
          5    1    3    3  502    0  0.99257249127E+02 -0.10632201459E+02 -0.21377896836E+03  0.23597450058E+03  0.41800000000E+01 0. -1.
         -5    1    3    3    0  502 -0.33244504661E+02  0.21802118496E+02 -0.12761916979E+03  0.13373351995E+03  0.41800000000E+01 0. -1.
        -11    1    1    2    0    0 -0.22410771050E+02 -0.25546396280E+02 -0.63996368213E+01  0.34580577979E+02  0.00000000000E+00 0.  1.
         11    1    1    2    0    0 -0.43601973416E+02  0.14376479243E+02 -0.16381787793E+03  0.17012969280E+03  0.00000000000E+00 0. -1.
</event>
<event>
 7    1  0.2989693E-009  0.1035306E+03  0.7561462E-02  0.1273042E+00
         -1   -1    0    0    0  501 -0.00000000000E+00  0.00000000000E+00  0.18567834688E+03  0.18567834688E+03  0.00000000000E+00 0.  1.
          1   -1    0    0  501    0  0.00000000000E+00 -0.00000000000E+00 -0.62143103326E+02  0.62143103326E+02  0.00000000000E+00 0. -1.
         25    2    1    2    0    0 -0.21299737201E+02 -0.44304887823E+01  0.10243009584E+03  0.16313498021E+03  0.12509112358E+03 0.  0.
          5    1    3    3  502    0  0.47828419101E+02 -0.25468131780E+02  0.38972058412E+02  0.66876581454E+02  0.41800000000E+01 0. -1.
         -5    1    3    3    0  502 -0.69128156302E+02  0.21037642998E+02  0.63458037427E+02  0.96258398754E+02  0.41800000000E+01 0. -1.
        -11    1    1    2    0    0  0.50739136378E+02  0.39247365601E+01  0.21485437705E+02  0.55240271097E+02  0.00000000000E+00 0. -1.
         11    1    1    2    0    0 -0.29439399177E+02  0.50575222225E+00 -0.38028999086E+00  0.29446198901E+02  0.00000000000E+00 0.  1.
</event>
<event>
 7    1  0.2989693E-009  0.1770802E+03  0.7561462E-02  0.1170659E+00
          2   -1    0    0  501    0  0.00000000000E+00  0.00000000000E+00  0.97541078078E+02  0.97541078078E+02  0.00000000000E+00 0. -1.
         -2   -1    0    0    0  501 -0.00000000000E+00 -0.00000000000E+00 -0.42262962547E+03  0.42262962547E+03  0.00000000000E+00 0.  1.
         25    2    1    2    0    0  0.14396734923E+03  0.81862482899E+02 -0.11277614230E+03  0.23620788083E+03  0.12509053100E+03 0.  0.
          5    1    3    3  502    0 -0.33149568699E+01  0.32304883548E+02 -0.66319884873E+02  0.73962111717E+02  0.41800000000E+01 0.  1.
         -5    1    3    3    0  502  0.14728230610E+03  0.49557599351E+02 -0.46456257424E+02  0.16224576912E+03  0.41800000000E+01 0.  1.
        -11    1    1    2    0    0 -0.12842544222E+03 -0.76712816556E+02 -0.21986687816E+03  0.26593118386E+03  0.00000000000E+00 0.  1.
         11    1    1    2    0    0 -0.15541907002E+02 -0.51496663424E+01  0.75544730648E+01  0.18031638860E+02  0.00000000000E+00 0. -1.
</event>
<event>
 7    1  0.2989693E-009  0.1004061E+03  0.7561462E-02  0.1279444E+00
          2   -1    0    0  501    0  0.00000000000E+00  0.00000000000E+00  0.37638454373E+02  0.37638454373E+02  0.00000000000E+00 0. -1.
         -2   -1    0    0    0  501 -0.00000000000E+00 -0.00000000000E+00 -0.42662909520E+03  0.42662909520E+03  0.00000000000E+00 0.  1.
         25    2    1    2    0    0 -0.49105485899E+02  0.32191955337E+02 -0.16441083490E+03  0.21476496053E+03  0.12508155301E+03 0.  0.
          5    1    3    3  502    0 -0.31197750946E+02 -0.39184364447E+02 -0.22948844138E+02  0.55252474410E+02  0.41800000000E+01 0.  1.
         -5    1    3    3    0  502 -0.17907734953E+02  0.71376319784E+02 -0.14146199076E+03  0.15951248612E+03  0.41800000000E+01 0.  1.
        -11    1    1    2    0    0  0.36980959589E+02 -0.45636983015E+02 -0.22380126683E+03  0.23138135756E+03  0.00000000000E+00 0.  1.
         11    1    1    2    0    0  0.12124526311E+02  0.13445027678E+02 -0.77853909814E+00  0.18121231488E+02  0.00000000000E+00 0. -1.
</event>
<event>
 7    1  0.2989693E-009  0.1156228E+03  0.7561462E-02  0.1250498E+00
          1   -1    0    0  501    0  0.00000000000E+00  0.00000000000E+00  0.22510458400E+03  0.22510458400E+03  0.00000000000E+00 0. -1.
         -1   -1    0    0    0  501 -0.00000000000E+00 -0.00000000000E+00 -0.69268916611E+02  0.69268916611E+02  0.00000000000E+00 0.  1.
         25    2    1    2    0    0 -0.36257051387E+02 -0.49246435512E+02  0.79114948974E+02  0.16011246044E+03  0.12504814933E+03 0.  0.
          5    1    3    3  502    0 -0.50789138757E+02 -0.84755963916E+02  0.67754367064E+02  0.11988009297E+03  0.41800000000E+01 0.  1.
         -5    1    3    3    0  502  0.14532087371E+02  0.35509528404E+02  0.11360581910E+02  0.40232367469E+02  0.41800000000E+01 0.  1.
        -11    1    1    2    0    0  0.40762642409E+02  0.65355985177E+02  0.85739141382E+02  0.11525709600E+03  0.00000000000E+00 0. -1.
         11    1    1    2    0    0 -0.45055910228E+01 -0.16109549665E+02 -0.90184229688E+01  0.19003944162E+02  0.00000000000E+00 0.  1.
</event>
<event>
 7    1  0.2989693E-009  0.2573351E+03  0.7561462E-02  0.1108755E+00
          2   -1    0    0  501    0  0.00000000000E+00  0.00000000000E+00  0.71159035734E+03  0.71159035734E+03  0.00000000000E+00 0. -1.
         -2   -1    0    0    0  501 -0.00000000000E+00 -0.00000000000E+00 -0.10305676855E+03  0.10305676855E+03  0.00000000000E+00 0.  1.
         25    2    1    2    0    0 -0.11530803459E+03 -0.21753496418E+03  0.35004149694E+03  0.44587363852E+03  0.12512732902E+03 0.  0.
          5    1    3    3  502    0 -0.81785096163E+02 -0.64554208184E+02  0.21534753870E+03  0.23926571541E+03  0.41800000000E+01 0. -1.
         -5    1    3    3    0  502 -0.33522938423E+02 -0.15298075599E+03  0.13469395824E+03  0.20660792311E+03  0.41800000000E+01 0. -1.
        -11    1    1    2    0    0  0.22585800307E+02  0.10744308206E+03  0.64909576413E+02  0.12754366847E+03  0.00000000000E+00 0.  1.
         11    1    1    2    0    0  0.92722234279E+02  0.11009188212E+03  0.19358251544E+03  0.24122981889E+03  0.00000000000E+00 0. -1.
</event>
<event>
 7    1  0.2989693E-009  0.6131268E+02  0.7561462E-02  0.1392404E+00
          1   -1    0    0  501    0  0.00000000000E+00  0.00000000000E+00  0.24623926824E+03  0.24623926824E+03  0.00000000000E+00 0. -1.
         -1   -1    0    0    0  501 -0.00000000000E+00 -0.00000000000E+00 -0.57411814209E+02  0.57411814209E+02  0.00000000000E+00 0.  1.
         25    2    1    2    0    0 -0.80695973088E+01  0.13735287126E+02  0.46474304342E+02  0.13439199763E+03  0.12509025361E+03 0.  0.
          5    1    3    3  502    0  0.11578407279E+02 -0.25441013355E+01  0.86135052696E+02  0.87047410471E+02  0.41800000000E+01 0.  1.
         -5    1    3    3    0  502 -0.19648004588E+02  0.16279388461E+02 -0.39660748354E+02  0.47344587156E+02  0.41800000000E+01 0.  1.
        -11    1    1    2    0    0 -0.36497491425E+02 -0.15371097551E+02  0.10081301392E+03  0.10831251680E+03  0.00000000000E+00 0.  1.
         11    1    1    2    0    0  0.44567088733E+02  0.16358104250E+01  0.41540135773E+02  0.60946568024E+02  0.00000000000E+00 0. -1.
</event>
<event>
 7    1  0.2989693E-009  0.9960136E+02  0.7561462E-02  0.1281136E+00
         -2   -1    0    0    0  501 -0.00000000000E+00  0.00000000000E+00  0.25619666092E+03  0.25619666092E+03  0.00000000000E+00 0.  1.
          2   -1    0    0  501    0  0.00000000000E+00 -0.00000000000E+00 -0.61441627006E+02  0.61441627006E+02  0.00000000000E+00 0. -1.
         25    2    1    2    0    0 -0.10463984798E+01 -0.13903102312E+02  0.19307327308E+03  0.23048230340E+03  0.12510160750E+03 0.  0.
          5    1    3    3  502    0  0.61307407267E+02 -0.98356649199E+01  0.81608496977E+02  0.10262922424E+03  0.41800000000E+01 0. -1.
         -5    1    3    3    0  502 -0.62353805747E+02 -0.40674373922E+01  0.11146477610E+03  0.12785307916E+03  0.41800000000E+01 0. -1.
        -11    1    1    2    0    0  0.29094484498E+02 -0.16117379138E+02  0.23416535449E+02  0.40676689527E+02  0.00000000000E+00 0.  1.
         11    1    1    2    0    0 -0.28048086018E+02  0.30020481450E+02 -0.21734774616E+02  0.46479294996E+02  0.00000000000E+00 0. -1.
</event>
<event>
 7    1  0.2989693E-009  0.2173644E+03  0.7561462E-02  0.1135863E+00
         -1   -1    0    0    0  501 -0.00000000000E+00  0.00000000000E+00  0.28241108414E+02  0.28241108414E+02  0.00000000000E+00 0.  1.
          1   -1    0    0  501    0  0.00000000000E+00 -0.00000000000E+00 -0.17510705668E+04  0.17510705668E+04  0.00000000000E+00 0. -1.
         25    2    1    2    0    0 -0.19278159775E+03 -0.24824280575E+01 -0.81169637022E+03  0.84360483484E+03  0.12508882068E+03 0.  0.
          5    1    3    3  502    0 -0.18668565718E+03  0.35120431033E+02 -0.70803258870E+03  0.73308430507E+03  0.41800000000E+01 0. -1.
         -5    1    3    3    0  502 -0.60959405774E+01 -0.37602859090E+02 -0.10366378151E+03  0.11052052977E+03  0.41800000000E+01 0. -1.
        -11    1    1    2    0    0  0.12739903903E+03 -0.33554489511E+02 -0.68545962301E+03  0.69800523901E+03  0.00000000000E+00 0.  1.
         11    1    1    2    0    0  0.65382558724E+02  0.36036917569E+02 -0.22567346517E+03  0.23770160138E+03  0.00000000000E+00 0. -1.
</event>
<event>
 7    1  0.2989693E-009  0.9878304E+02  0.7561462E-02  0.1282876E+00
          1   -1    0    0  501    0  0.00000000000E+00  0.00000000000E+00  0.10309551001E+03  0.10309551001E+03  0.00000000000E+00 0. -1.
         -1   -1    0    0    0  501 -0.00000000000E+00 -0.00000000000E+00 -0.12955900338E+03  0.12955900338E+03  0.00000000000E+00 0.  1.
         25    2    1    2    0    0  0.39609026823E+01 -0.44356801944E+02 -0.45034803090E+01  0.13286263017E+03  0.12509589335E+03 0.  0.
          5    1    3    3  502    0  0.50641896153E+02  0.39541781301E+01  0.27960504110E+02  0.58133461627E+02  0.41800000000E+01 0. -1.
         -5    1    3    3    0  502 -0.46680993471E+02 -0.48310980074E+02 -0.32463984419E+02  0.74729168545E+02  0.41800000000E+01 0. -1.
        -11    1    1    2    0    0 -0.32969952369E+02  0.10276747601E+02 -0.38828148526E+02  0.51963972311E+02  0.00000000000E+00 0.  1.
         11    1    1    2    0    0  0.29009049687E+02  0.34080054343E+02  0.16868135457E+02  0.47827910905E+02  0.00000000000E+00 0. -1.
</event>
<event>
 7    1  0.2989693E-009  0.1051401E+03  0.7561462E-02  0.1269844E+00
         -2   -1    0    0    0  501 -0.00000000000E+00  0.00000000000E+00  0.18523722888E+02  0.18523722888E+02  0.00000000000E+00 0.  1.
          2   -1    0    0  501    0  0.00000000000E+00 -0.00000000000E+00 -0.68078458938E+03  0.68078458938E+03  0.00000000000E+00 0. -1.
         25    2    1    2    0    0 -0.25225177033E+02 -0.17871276284E+02 -0.36731031311E+03  0.38925562096E+03  0.12508948901E+03 0.  0.
          5    1    3    3  502    0 -0.36884321172E+02  0.48645891161E+02 -0.17532146112E+03  0.18569319591E+03  0.41800000000E+01 0. -1.
         -5    1    3    3    0  502  0.11659144139E+02 -0.66517167445E+02 -0.19198885199E+03  0.20356242506E+03  0.41800000000E+01 0. -1.
        -11    1    1    2    0    0  0.51143510062E+02  0.21069981805E+02 -0.26316350689E+03  0.26891380425E+03  0.00000000000E+00 0. -1.
         11    1    1    2    0    0 -0.25918333029E+02 -0.31987055206E+01 -0.31787046491E+02  0.41138887062E+02  0.00000000000E+00 0.  1.
</event>
<event>
 7    1  0.2989693E-009  0.8540021E+02  0.7561462E-02  0.1314389E+00
          1   -1    0    0  501    0  0.00000000000E+00  0.00000000000E+00  0.50078276801E+02  0.50078276801E+02  0.00000000000E+00 0. -1.
         -1   -1    0    0    0  501 -0.00000000000E+00 -0.00000000000E+00 -0.19724000514E+03  0.19724000514E+03  0.00000000000E+00 0.  1.
         25    2    1    2    0    0 -0.12855411325E+02 -0.88892079043E+00 -0.88833129149E+02  0.15396351572E+03  0.12508951818E+03 0.  0.
          5    1    3    3  502    0 -0.68073522472E+01  0.50332643052E+02 -0.88606035386E+02  0.10221651974E+03  0.41800000000E+01 0. -1.
         -5    1    3    3    0  502 -0.60480590776E+01 -0.51221563842E+02 -0.22709376223E+00  0.51746995977E+02  0.41800000000E+01 0. -1.
        -11    1    1    2    0    0 -0.24139350298E+02  0.15086286230E+02 -0.41452402712E+02  0.50285245904E+02  0.00000000000E+00 0.  1.
         11    1    1    2    0    0  0.36994761623E+02 -0.14197365440E+02 -0.16876196478E+02  0.43069520319E+02  0.00000000000E+00 0. -1.
</event>
<event>
 7    1  0.2989693E-009  0.1306391E+03  0.7561462E-02  0.1226510E+00
         -2   -1    0    0    0  501 -0.00000000000E+00  0.00000000000E+00  0.12445916407E+03  0.12445916407E+03  0.00000000000E+00 0.  1.
          2   -1    0    0  501    0  0.00000000000E+00 -0.00000000000E+00 -0.19989478358E+03  0.19989478358E+03  0.00000000000E+00 0. -1.
         25    2    1    2    0    0  0.79729970110E+01 -0.82734259974E+02  0.36708619434E+02  0.15460253644E+03  0.12508355239E+03 0.  0.
          5    1    3    3  502    0  0.62133737093E+02 -0.69272113584E+02  0.31780027063E+02  0.98420879521E+02  0.41800000000E+01 0.  1.
         -5    1    3    3    0  502 -0.54160740082E+02 -0.13462146390E+02  0.49285923709E+01  0.56181656921E+02  0.41800000000E+01 0.  1.
        -11    1    1    2    0    0 -0.40909664054E+02  0.33233827383E+02 -0.13229685044E+02  0.54342547437E+02  0.00000000000E+00 0.  1.
         11    1    1    2    0    0  0.32936667043E+02  0.49500432591E+02 -0.98914553903E+02  0.11540886377E+03  0.00000000000E+00 0. -1.
</event>
<event>
 7    1  0.2989693E-009  0.1114373E+03  0.7561462E-02  0.1257931E+00
         -2   -1    0    0    0  501 -0.00000000000E+00  0.00000000000E+00  0.19706660957E+03  0.19706660957E+03  0.00000000000E+00 0.  1.
          2   -1    0    0  501    0  0.00000000000E+00 -0.00000000000E+00 -0.10477268985E+03  0.10477268985E+03  0.00000000000E+00 0. -1.
         25    2    1    2    0    0 -0.13732798123E+02 -0.93771814656E+02  0.51126952443E+02  0.16505321217E+03  0.12508738790E+03 0.  0.
          5    1    3    3  502    0 -0.15369026885E+02  0.71859015503E+01  0.61057937957E+02  0.63508962801E+02  0.41800000000E+01 0. -1.
         -5    1    3    3    0  502  0.16362287625E+01 -0.10095771621E+03 -0.99309855146E+01  0.10154424937E+03  0.41800000000E+01 0. -1.
        -11    1    1    2    0    0  0.29707622676E+02  0.63925469761E+02  0.64599783268E+02  0.95614541402E+02  0.00000000000E+00 0.  1.
         11    1    1    2    0    0 -0.15974824553E+02  0.29846344895E+02 -0.23432815989E+02  0.41171545857E+02  0.00000000000E+00 0. -1.
</event>
<event>
 7    1  0.2989693E-009  0.1936132E+03  0.7561462E-02  0.1155242E+00
         -2   -1    0    0    0  501 -0.00000000000E+00  0.00000000000E+00  0.57181592854E+02  0.57181592854E+02  0.00000000000E+00 0.  1.
          2   -1    0    0  501    0  0.00000000000E+00 -0.00000000000E+00 -0.92320743304E+03  0.92320743304E+03  0.00000000000E+00 0. -1.
         25    2    1    2    0    0  0.16886808526E+03  0.67551751187E+02 -0.63321066335E+03  0.67058389506E+03  0.12508935538E+03 0.  0.
          5    1    3    3  502    0  0.15327375438E+02  0.41420675957E+02 -0.29367959584E+03  0.29701141097E+03  0.41800000000E+01 0.  1.
         -5    1    3    3    0  502  0.15354070982E+03  0.26131075231E+02 -0.33953106750E+03  0.37357248408E+03  0.41800000000E+01 0.  1.
        -11    1    1    2    0    0 -0.10397992991E+03 -0.18258365452E+02 -0.66967354375E+02  0.12501927965E+03  0.00000000000E+00 0.  1.
         11    1    1    2    0    0 -0.64888155348E+02 -0.49293385736E+02 -0.16584782246E+03  0.18478585118E+03  0.00000000000E+00 0. -1.
</event>
<event>
 7    1  0.2989693E-009  0.9520420E+02  0.7561462E-02  0.1290717E+00
         -1   -1    0    0    0  501 -0.00000000000E+00  0.00000000000E+00  0.56752563647E+03  0.56752563647E+03  0.00000000000E+00 0.  1.
          1   -1    0    0  501    0  0.00000000000E+00 -0.00000000000E+00 -0.21190254916E+02  0.21190254916E+02  0.00000000000E+00 0. -1.
         25    2    1    2    0    0  0.61686267202E+01 -0.83345298549E+01  0.27309822110E+03  0.30056213345E+03  0.12508973321E+03 0.  0.
          5    1    3    3  502    0 -0.31063190227E+02 -0.41397747619E+02  0.22602522963E+03  0.23191285459E+03  0.41800000000E+01 0. -1.
         -5    1    3    3    0  502  0.37231816947E+02  0.33063217764E+02  0.47072991464E+02  0.68649278856E+02  0.41800000000E+01 0. -1.
        -11    1    1    2    0    0  0.12140258199E+02  0.45496197256E+02  0.18127976301E+03  0.18729560142E+03  0.00000000000E+00 0.  1.
         11    1    1    2    0    0 -0.18308884919E+02 -0.37161667401E+02  0.91957397443E+02  0.10085815651E+03  0.00000000000E+00 0. -1.
</event>
<event>
 7    1  0.2989693E-009  0.9391080E+02  0.7561462E-02  0.1293648E+00
         -2   -1    0    0    0  501 -0.00000000000E+00  0.00000000000E+00  0.42608525233E+02  0.42608525233E+02  0.00000000000E+00 0.  1.
          2   -1    0    0  501    0  0.00000000000E+00 -0.00000000000E+00 -0.39873914765E+03  0.39873914765E+03  0.00000000000E+00 0. -1.
         25    2    1    2    0    0  0.48865694938E+01  0.27607002453E+02 -0.30975175707E+03  0.33523123592E+03  0.12509118826E+03 0.  0.
          5    1    3    3  502    0 -0.41498186718E+02  0.27183289838E+02 -0.47275281179E+02  0.68654609153E+02  0.41800000000E+01 0.  1.
         -5    1    3    3    0  502  0.46384756212E+02  0.42371261543E+00 -0.26247647589E+03  0.26657662677E+03  0.41800000000E+01 0.  1.
        -11    1    1    2    0    0 -0.39519912905E+02 -0.38483215606E+02 -0.12713216543E+02  0.56607484260E+02  0.00000000000E+00 0.  1.
         11    1    1    2    0    0  0.34633343411E+02  0.10876213153E+02 -0.33665648800E+02  0.49508952700E+02  0.00000000000E+00 0. -1.
</event>
<event>
 7    1  0.2989693E-009  0.1036232E+03  0.7561462E-02  0.1272856E+00
         -2   -1    0    0    0  501 -0.00000000000E+00  0.00000000000E+00  0.40448801486E+02  0.40448801486E+02  0.00000000000E+00 0.  1.
          2   -1    0    0  501    0  0.00000000000E+00 -0.00000000000E+00 -0.36964917961E+03  0.36964917961E+03  0.00000000000E+00 0. -1.
         25    2    1    2    0    0  0.12528957462E+02 -0.47505464216E+02 -0.22265614469E+03  0.26007106598E+03  0.12508979449E+03 0.  0.
          5    1    3    3  502    0  0.67083304633E+02 -0.31572931135E+02 -0.97564339197E+02  0.12261032756E+03  0.41800000000E+01 0.  1.
         -5    1    3    3    0  502 -0.54554347171E+02 -0.15932533082E+02 -0.12509180549E+03  0.13746073842E+03  0.41800000000E+01 0.  1.
        -11    1    1    2    0    0  0.99370987204E+01  0.52125136514E+02 -0.11413504792E+03  0.12586733075E+03  0.00000000000E+00 0. -1.
         11    1    1    2    0    0 -0.22466056182E+02 -0.46196722976E+01  0.75908144781E+01  0.24159584370E+02  0.00000000000E+00 0.  1.
</event>
<event>
 7    1  0.3866751E-009  0.8306596E+02  0.7561462E-02  0.1320569E+00
         -4   -1    0    0    0  501 -0.00000000000E+00  0.00000000000E+00  0.10447180599E+03  0.10447180599E+03  0.00000000000E+00 0.  1.
          4   -1    0    0  501    0  0.00000000000E+00 -0.00000000000E+00 -0.15869125538E+03  0.15869125538E+03  0.00000000000E+00 0. -1.
         25    2    1    2    0    0 -0.33978434863E+02  0.57168721458E+02 -0.50721299946E+02  0.15044654278E+03  0.12505484884E+03 0.  0.
          5    1    3    3  502    0 -0.69326648656E+01  0.64706862816E+02  0.24799115712E+02  0.69767531687E+02  0.41800000000E+01 0.  1.
         -5    1    3    3    0  502 -0.27045769997E+02 -0.75381413577E+01 -0.75520415658E+02  0.80679011093E+02  0.41800000000E+01 0.  1.
        -11    1    1    2    0    0  0.25686142807E+02 -0.15396306128E+02  0.41228875725E+02  0.50957279836E+02  0.00000000000E+00 0.  1.
         11    1    1    2    0    0  0.82922920559E+01 -0.41772415331E+02 -0.44727025177E+02  0.61759238753E+02  0.00000000000E+00 0. -1.
</event>
<event>
 7    1  0.2989693E-009  0.1964162E+03  0.7561462E-02  0.1152798E+00
          2   -1    0    0  501    0  0.00000000000E+00  0.00000000000E+00  0.14887678155E+03  0.14887678155E+03  0.00000000000E+00 0. -1.
         -2   -1    0    0    0  501 -0.00000000000E+00 -0.00000000000E+00 -0.40135976874E+03  0.40135976874E+03  0.00000000000E+00 0.  1.
         25    2    1    2    0    0 -0.15532466508E+03  0.10625121358E+03 -0.25612695152E+03  0.34156060802E+03  0.12509021421E+03 0.  0.
          5    1    3    3  502    0 -0.56430068715E+02  0.39520432050E+01 -0.10527424737E+02  0.57691163728E+02  0.41800000000E+01 0.  1.
         -5    1    3    3    0  502 -0.98894596361E+02  0.10229917038E+03 -0.24559952678E+03  0.28386944429E+03  0.41800000000E+01 0.  1.
        -11    1    1    2    0    0  0.92585910575E+02 -0.35391055281E+02 -0.36831171833E+02  0.10574125425E+03  0.00000000000E+00 0.  1.
         11    1    1    2    0    0  0.62738754501E+02 -0.70860158300E+02  0.40475136166E+02  0.10293468802E+03  0.00000000000E+00 0. -1.
</event>
<event>
 7    1  0.2989693E-009  0.1259053E+03  0.7561462E-02  0.1233661E+00
          1   -1    0    0  501    0  0.00000000000E+00  0.00000000000E+00  0.14086311206E+03  0.14086311206E+03  0.00000000000E+00 0. -1.
         -1   -1    0    0    0  501 -0.00000000000E+00 -0.00000000000E+00 -0.17656558462E+03  0.17656558462E+03  0.00000000000E+00 0.  1.
         25    2    1    2    0    0 -0.67222597576E+02 -0.53859206232E+02  0.56294513858E+02  0.16197851303E+03  0.12509306405E+03 0.  0.
          5    1    3    3  502    0 -0.14059042007E+02  0.40300561673E+02  0.86909584885E+01  0.43758394541E+02  0.41800000000E+01 0.  1.
         -5    1    3    3    0  502 -0.53163555569E+02 -0.94159767906E+02  0.47603555370E+02  0.11822011849E+03  0.41800000000E+01 0.  1.
        -11    1    1    2    0    0  0.10195722149E+02  0.41005516712E+02  0.46397035468E+01  0.42508022771E+02  0.00000000000E+00 0. -1.
         11    1    1    2    0    0  0.57026875428E+02  0.12853689521E+02 -0.96636689969E+02  0.11294216088E+03  0.00000000000E+00 0.  1.
</event>
<event>
 7    1  0.2989693E-009  0.2023437E+03  0.7561462E-02  0.1147777E+00
          1   -1    0    0  501    0  0.00000000000E+00  0.00000000000E+00  0.88851398354E+03  0.88851398354E+03  0.00000000000E+00 0. -1.
         -1   -1    0    0    0  501 -0.00000000000E+00 -0.00000000000E+00 -0.61738683123E+02  0.61738683123E+02  0.00000000000E+00 0.  1.
         25    2    1    2    0    0  0.15901734053E+03  0.10401400102E+03  0.26680011336E+03  0.35062363493E+03  0.12509678607E+03 0.  0.
          5    1    3    3  502    0  0.14652063614E+03  0.64596631716E+02  0.12594905522E+03  0.20376863977E+03  0.41800000000E+01 0. -1.
         -5    1    3    3    0  502  0.12496704394E+02  0.39417369300E+02  0.14085105815E+03  0.14685499516E+03  0.41800000000E+01 0. -1.
        -11    1    1    2    0    0 -0.51741965690E+01 -0.33171273780E+02  0.37236638963E+02  0.50136543514E+02  0.00000000000E+00 0.  1.
         11    1    1    2    0    0 -0.15384314397E+03 -0.70842727236E+02  0.52273854809E+03  0.54949248822E+03  0.00000000000E+00 0. -1.
</event>
<event>
 7    1  0.2989693E-009  0.2079537E+03  0.7561462E-02  0.1143197E+00
          1   -1    0    0  501    0  0.00000000000E+00  0.00000000000E+00  0.51341416804E+03  0.51341416804E+03  0.00000000000E+00 0. -1.
         -1   -1    0    0    0  501 -0.00000000000E+00 -0.00000000000E+00 -0.98528525089E+02  0.98528525089E+02  0.00000000000E+00 0.  1.
         25    2    1    2    0    0  0.57963368930E+02 -0.17823687928E+03  0.29051736599E+03  0.36766387577E+03  0.12509295876E+03 0.  0.
          5    1    3    3  502    0 -0.35636911930E+02 -0.51029684712E+02  0.50229380752E+02  0.80090457012E+02  0.41800000000E+01 0.  1.
         -5    1    3    3    0  502  0.93600280860E+02 -0.12720719456E+03  0.24028798524E+03  0.28757341876E+03  0.41800000000E+01 0.  1.
        -11    1    1    2    0    0  0.11223797510E+02  0.24189276586E+02  0.56128454943E+02  0.62140954181E+02  0.00000000000E+00 0.  1.
         11    1    1    2    0    0 -0.69187166440E+02  0.15404760269E+03  0.68239822019E+02  0.18213786318E+03  0.00000000000E+00 0. -1.
</event>
<event>
 7    1  0.2989693E-009  0.7462341E+02  0.7561462E-02  0.1345041E+00
          2   -1    0    0  501    0  0.00000000000E+00  0.00000000000E+00  0.85553927233E+02  0.85553927233E+02  0.00000000000E+00 0. -1.
         -2   -1    0    0    0  501 -0.00000000000E+00 -0.00000000000E+00 -0.15999420813E+03  0.15999420813E+03  0.00000000000E+00 0.  1.
         25    2    1    2    0    0  0.42941135641E+02  0.61276316973E+01 -0.33165676101E+02  0.13648685021E+03  0.12508880529E+03 0.  0.
          5    1    3    3  502    0  0.35594267748E+02  0.39466102354E+02  0.32445533731E+02  0.62407613242E+02  0.41800000000E+01 0. -1.
         -5    1    3    3    0  502  0.73468678929E+01 -0.33338470657E+02 -0.65611209832E+02  0.74079236964E+02  0.41800000000E+01 0. -1.
        -11    1    1    2    0    0 -0.83439096705E+01  0.17677134615E+02 -0.59982426401E+02  0.63087188824E+02  0.00000000000E+00 0.  1.
         11    1    1    2    0    0 -0.34597225970E+02 -0.23804766312E+02  0.18707821608E+02  0.45974096329E+02  0.00000000000E+00 0. -1.
</event>
<event>
 6    1  0.2989693E-009  0.1583107E+03  0.7561462E-02  0.1190617E+00
         -2   -1    0    0    0  501 -0.00000000000E+00  0.00000000000E+00  0.33868884916E+02  0.33868884916E+02  0.00000000000E+00 0.  1.
          2   -1    0    0  501    0  0.00000000000E+00 -0.00000000000E+00 -0.76641497433E+03  0.76641497433E+03  0.00000000000E+00 0. -1.
          5    1    1    2  502    0 -0.11480973242E+03 -0.10730047492E+02 -0.28167123677E+03  0.30438884112E+03  0.41800000000E+01 0. -1.
         -5    1    1    2    0  502  0.14442111740E+02 -0.49523863607E+02 -0.72649356446E+02  0.89199714406E+02  0.41800000000E+01 0. -1.
        -11    1    1    2    0    0  0.51015582456E+01  0.53750557550E+02 -0.13860460158E+03  0.14874939970E+03  0.00000000000E+00 0. -1.
         11    1    1    2    0    0  0.95266062433E+02  0.65033535495E+01 -0.23962089462E+03  0.25794590402E+03  0.00000000000E+00 0.  1.
</event>
<event>
 7    1  0.2989693E-009  0.1083617E+03  0.7561462E-02  0.1263634E+00
          2   -1    0    0  501    0  0.00000000000E+00  0.00000000000E+00  0.45105056787E+02  0.45105056787E+02  0.00000000000E+00 0. -1.
         -2   -1    0    0    0  501 -0.00000000000E+00 -0.00000000000E+00 -0.37975784411E+03  0.37975784411E+03  0.00000000000E+00 0.  1.
         25    2    1    2    0    0  0.30223939598E+02  0.39386891735E+02 -0.20536548181E+03  0.24553455132E+03  0.12508965188E+03 0.  0.
          5    1    3    3  502    0 -0.18964341781E+02  0.39513776647E+02 -0.18818165675E+03  0.19326353288E+03  0.41800000000E+01 0.  1.
         -5    1    3    3    0  502  0.49188281379E+02 -0.12688491217E+00 -0.17183825060E+02  0.52271018438E+02  0.41800000000E+01 0.  1.
        -11    1    1    2    0    0  0.74401733661E+01 -0.72680296429E+02 -0.65577145972E+02  0.98174048213E+02  0.00000000000E+00 0.  1.
         11    1    1    2    0    0 -0.37664112964E+02  0.33293404695E+02 -0.63710159547E+02  0.81154301372E+02  0.00000000000E+00 0. -1.
</event>
<event>
 7    1  0.2989693E-009  0.1474686E+03  0.7561462E-02  0.1203618E+00
          3   -1    0    0  501    0  0.00000000000E+00  0.00000000000E+00  0.21134030690E+03  0.21134030690E+03  0.00000000000E+00 0. -1.
         -3   -1    0    0    0  501 -0.00000000000E+00 -0.00000000000E+00 -0.12967532191E+03  0.12967532191E+03  0.00000000000E+00 0.  1.
         25    2    1    2    0    0 -0.38837660345E+02 -0.11766848571E+03  0.53626657307E+02  0.18405801394E+03  0.12508915913E+03 0.  0.
          5    1    3    3  502    0  0.84758861994E+01  0.18712549888E+02  0.31674672746E+02  0.37983647320E+02  0.41800000000E+01 0. -1.
         -5    1    3    3    0  502 -0.47313546544E+02 -0.13638103560E+03  0.21951984562E+02  0.14607436662E+03  0.41800000000E+01 0. -1.
        -11    1    1    2    0    0  0.21881171403E+02  0.10767522146E+03 -0.13782187742E+02  0.11073702035E+03  0.00000000000E+00 0.  1.
         11    1    1    2    0    0  0.16956488942E+02  0.99932642527E+01  0.41820515417E+02  0.46220594516E+02  0.00000000000E+00 0. -1.
</event>
<event>
 7    1  0.2989693E-009  0.1610615E+03  0.7561462E-02  0.1187503E+00
          2   -1    0    0  501    0  0.00000000000E+00  0.00000000000E+00  0.37088370619E+02  0.37088370619E+02  0.00000000000E+00 0.  1.
         -2   -1    0    0    0  501 -0.00000000000E+00 -0.00000000000E+00 -0.13370216799E+04  0.13370216799E+04  0.00000000000E+00 0. -1.
         25    2    1    2    0    0 -0.86308696971E+02 -0.86179873127E+02 -0.11433957734E+04  0.11566664129E+04  0.12508850664E+03 0.  0.
          5    1    3    3  502    0 -0.54112536886E+02  0.24071195653E+02 -0.42762275406E+03  0.43172477494E+03  0.41800000000E+01 0. -1.
         -5    1    3    3    0  502 -0.32196160085E+02 -0.11025106878E+03 -0.71577301929E+03  0.72494163796E+03  0.41800000000E+01 0. -1.
        -11    1    1    2    0    0  0.68601250840E+02  0.96614280405E+01 -0.95459752476E+02  0.11794930755E+03  0.00000000000E+00 0. -1.
         11    1    1    2    0    0  0.17707446131E+02  0.76518445086E+02 -0.61077783470E+02  0.99494330092E+02  0.00000000000E+00 0.  1.
</event>
<event>
 7    1  0.2989693E-009  0.1213099E+03  0.7561462E-02  0.1240952E+00
         -2   -1    0    0    0  501 -0.00000000000E+00  0.00000000000E+00  0.63899425051E+02  0.63899425051E+02  0.00000000000E+00 0.  1.
          2   -1    0    0  501    0  0.00000000000E+00 -0.00000000000E+00 -0.25790986544E+03  0.25790986544E+03  0.00000000000E+00 0. -1.
         25    2    1    2    0    0  0.60942295341E+02  0.30987440011E+02 -0.10637019041E+03  0.17786689968E+03  0.12509129383E+03 0.  0.
          5    1    3    3  502    0  0.67642873990E+01  0.68612163447E+02 -0.25981529356E+02  0.73796319858E+02  0.41800000000E+01 0. -1.
         -5    1    3    3    0  502  0.54178007942E+02 -0.37624723436E+02 -0.80388661050E+02  0.10407057982E+03  0.41800000000E+01 0. -1.
        -11    1    1    2    0    0 -0.35023088743E+02  0.26813444095E+02 -0.12874522918E+02  0.45949220556E+02  0.00000000000E+00 0. -1.
         11    1    1    2    0    0 -0.25919206598E+02 -0.57800884106E+02 -0.74765727068E+02  0.97993170263E+02  0.00000000000E+00 0.  1.
</event>
<event>
 7    1  0.2989693E-009  0.1609851E+03  0.7561462E-02  0.1187589E+00
         -1   -1    0    0    0  501 -0.00000000000E+00  0.00000000000E+00  0.10047655467E+03  0.10047655467E+03  0.00000000000E+00 0.  1.
          1   -1    0    0  501    0  0.00000000000E+00 -0.00000000000E+00 -0.71968344347E+03  0.71968344347E+03  0.00000000000E+00 0. -1.
         25    2    1    2    0    0  0.75726439969E+02  0.10007262189E+03 -0.63943866439E+03  0.66353305785E+03  0.12508113359E+03 0.  0.
          5    1    3    3  502    0  0.95596370338E+02  0.33866614632E+02 -0.46289773096E+03  0.47389597522E+03  0.41800000000E+01 0. -1.
         -5    1    3    3    0  502 -0.19869930369E+02  0.66206007254E+02 -0.17654093343E+03  0.18963708263E+03  0.41800000000E+01 0. -1.
        -11    1    1    2    0    0 -0.74178160275E+02 -0.11465154897E+03  0.67699761994E+01  0.13672311334E+03  0.00000000000E+00 0. -1.
         11    1    1    2    0    0 -0.15482796932E+01  0.14578927083E+02  0.13461799385E+02  0.19903826958E+02  0.00000000000E+00 0.  1.
</event>
<event>
 7    1  0.2989693E-009  0.1063863E+03  0.7561462E-02  0.1267412E+00
         -2   -1    0    0    0  501 -0.00000000000E+00  0.00000000000E+00  0.92436898142E+02  0.92436898142E+02  0.00000000000E+00 0.  1.
          2   -1    0    0  501    0  0.00000000000E+00 -0.00000000000E+00 -0.16734593250E+03  0.16734593250E+03  0.00000000000E+00 0. -1.
         25    2    1    2    0    0  0.47281197239E+02 -0.31201681293E+02 -0.65214380872E+02  0.15201736136E+03  0.12508919280E+03 0.  0.
          5    1    3    3  502    0  0.30050232540E+02 -0.78243137299E+02 -0.24778414826E+02  0.87501127143E+02  0.41800000000E+01 0. -1.
         -5    1    3    3    0  502  0.17230964699E+02  0.47041456006E+02 -0.40435966045E+02  0.64516234218E+02  0.41800000000E+01 0. -1.
        -11    1    1    2    0    0 -0.44151633687E+02 -0.29841570151E+01 -0.41719808474E+02  0.60817878699E+02  0.00000000000E+00 0. -1.
         11    1    1    2    0    0 -0.31295635517E+01  0.34185838308E+02  0.32025154992E+02  0.46947590578E+02  0.00000000000E+00 0.  1.
</event>
<event>
 7    1  0.2989693E-009  0.2172403E+03  0.7561462E-02  0.1135957E+00
         -2   -1    0    0    0  501 -0.00000000000E+00  0.00000000000E+00  0.70493673106E+02  0.70493673106E+02  0.00000000000E+00 0.  1.
          2   -1    0    0  501    0  0.00000000000E+00 -0.00000000000E+00 -0.84676754706E+03  0.84676754706E+03  0.00000000000E+00 0. -1.
         25    2    1    2    0    0  0.98802032393E+02  0.18519733079E+03 -0.51086848586E+03  0.56629862186E+03  0.12509047262E+03 0.  0.
          5    1    3    3  502    0  0.20967340940E+02 -0.12629732490E+01 -0.56378273127E+01  0.22146827862E+02  0.41800000000E+01 0. -1.
         -5    1    3    3    0  502  0.77834691453E+02  0.18646030404E+03 -0.50523065855E+03  0.54415179400E+03  0.41800000000E+01 0. -1.
        -11    1    1    2    0    0 -0.26504480441E+02 -0.31884917375E+02 -0.12226795337E+03  0.12910688541E+03  0.00000000000E+00 0. -1.
         11    1    1    2    0    0 -0.72297551953E+02 -0.15331241341E+03 -0.14313743473E+03  0.22185571290E+03  0.00000000000E+00 0.  1.
</event>
<event>
 7    1  0.2989693E-009  0.2856921E+03  0.7561462E-02  0.1092620E+00
         -1   -1    0    0    0  501 -0.00000000000E+00  0.00000000000E+00  0.38347375578E+03  0.38347375578E+03  0.00000000000E+00 0.  1.
          1   -1    0    0  501    0  0.00000000000E+00 -0.00000000000E+00 -0.24844674648E+03  0.24844674648E+03  0.00000000000E+00 0. -1.
         25    2    1    2    0    0  0.17070820437E+03 -0.22211250726E+03  0.13963096129E+03  0.33707491227E+03  0.12508970465E+03 0.  0.
          5    1    3    3  502    0  0.32142185831E+02 -0.72057251546E+02  0.10253131887E+03  0.12944308155E+03  0.41800000000E+01 0. -1.
         -5    1    3    3    0  502  0.13856601854E+03 -0.15005525571E+03  0.37099642412E+02  0.20763183072E+03  0.41800000000E+01 0. -1.
        -11    1    1    2    0    0 -0.62433285706E+02  0.34146298165E+02  0.26029533407E+02  0.75772168055E+02  0.00000000000E+00 0.  1.
         11    1    1    2    0    0 -0.10827491866E+03  0.18796620909E+03 -0.30633485388E+02  0.21907342194E+03  0.00000000000E+00 0. -1.
</event>
<event>
 7    1  0.2989693E-009  0.1577060E+03  0.7561462E-02  0.1191311E+00
          2   -1    0    0  501    0  0.00000000000E+00  0.00000000000E+00  0.88293549172E+03  0.88293549172E+03  0.00000000000E+00 0.  1.
         -2   -1    0    0    0  501 -0.00000000000E+00 -0.00000000000E+00 -0.28725065004E+02  0.28725065004E+02  0.00000000000E+00 0. -1.
         25    2    1    2    0    0 -0.80242417574E+02 -0.86427738785E+02  0.42512468981E+03  0.45857111769E+03  0.12509144047E+03 0.  0.
          5    1    3    3  502    0 -0.10263882970E+03 -0.10162733165E+03  0.36056079779E+03  0.38843841880E+03  0.41800000000E+01 0.  1.
         -5    1    3    3    0  502  0.22396412128E+02  0.15199592864E+02  0.64563892024E+02  0.70132698884E+02  0.41800000000E+01 0.  1.
        -11    1    1    2    0    0  0.68433806128E+02  0.13634325865E+02  0.17141309131E+03  0.18507168486E+03  0.00000000000E+00 0.  1.
         11    1    1    2    0    0  0.11808611447E+02  0.72793412920E+02  0.25767264559E+03  0.26801775418E+03  0.00000000000E+00 0. -1.
</event>
<event>
 7    1  0.2989693E-009  0.1235025E+03  0.7561462E-02  0.1237428E+00
          1   -1    0    0  501    0  0.00000000000E+00  0.00000000000E+00  0.75457131666E+03  0.75457131666E+03  0.00000000000E+00 0. -1.
         -1   -1    0    0    0  501 -0.00000000000E+00 -0.00000000000E+00 -0.36229543484E+02  0.36229543484E+02  0.00000000000E+00 0.  1.
         25    2    1    2    0    0 -0.75901568835E+02 -0.11721240510E+02  0.61567740154E+03  0.63293488217E+03  0.12509782844E+03 0.  0.
          5    1    3    3  502    0  0.26887266952E+02 -0.27083988400E+02  0.24301109421E+03  0.24602506348E+03  0.41800000000E+01 0.  1.
         -5    1    3    3    0  502 -0.10278883579E+03  0.15362747890E+02  0.37266630732E+03  0.38690981869E+03  0.41800000000E+01 0.  1.
        -11    1    1    2    0    0  0.33399078953E+02  0.41078540798E+02  0.90419226075E+02  0.10477872605E+03  0.00000000000E+00 0. -1.
         11    1    1    2    0    0  0.42502489883E+02 -0.29357300288E+02  0.12245145568E+02  0.53087251920E+02  0.00000000000E+00 0.  1.
</event>
<event>
 7    1  0.2989693E-009  0.1211777E+03  0.7561462E-02  0.1241167E+00
         -1   -1    0    0    0  501 -0.00000000000E+00  0.00000000000E+00  0.99130237153E+02  0.99130237153E+02  0.00000000000E+00 0.  1.
          1   -1    0    0  501    0  0.00000000000E+00 -0.00000000000E+00 -0.18839541058E+03  0.18839541058E+03  0.00000000000E+00 0. -1.
         25    2    1    2    0    0  0.37795617868E+02  0.48791450928E+02  0.91340198192E+01  0.13979527796E+03  0.12510065950E+03 0.  0.
          5    1    3    3  502    0  0.52346310282E+02 -0.28694973855E+02 -0.30003963483E+01  0.59916713052E+02  0.41800000000E+01 0. -1.
         -5    1    3    3    0  502 -0.14550692414E+02  0.77486424783E+02  0.12134416167E+02  0.79878564904E+02  0.41800000000E+01 0. -1.
        -11    1    1    2    0    0 -0.44091050318E+02  0.93579129070E+01 -0.68613130726E+02  0.82093562233E+02  0.00000000000E+00 0.  1.
         11    1    1    2    0    0  0.62954324500E+01 -0.58149363835E+02 -0.29786062523E+02  0.65636807546E+02  0.00000000000E+00 0. -1.
</event>
<event>
 7    1  0.2989693E-009  0.1541721E+03  0.7561462E-02  0.1195438E+00
          2   -1    0    0  501    0  0.00000000000E+00  0.00000000000E+00  0.25857591303E+03  0.25857591303E+03  0.00000000000E+00 0. -1.
         -2   -1    0    0    0  501 -0.00000000000E+00 -0.00000000000E+00 -0.13534146406E+03  0.13534146406E+03  0.00000000000E+00 0.  1.
         25    2    1    2    0    0 -0.92831103535E+02 -0.89621262372E+02  0.14941496396E+03  0.23371352260E+03  0.12509034630E+03 0.  0.
          5    1    3    3  502    0  0.34678359443E+01 -0.44760527820E+02 -0.59228934775E+01  0.45476189419E+02  0.41800000000E+01 0.  1.
         -5    1    3    3    0  502 -0.96298939479E+02 -0.44860734552E+02  0.15533785744E+03  0.18823733318E+03  0.41800000000E+01 0.  1.
        -11    1    1    2    0    0  0.25745963802E+02  0.85981989314E+02 -0.55562395531E+01  0.89925685633E+02  0.00000000000E+00 0.  1.
         11    1    1    2    0    0  0.67085139733E+02  0.36392730575E+01 -0.20624275429E+02  0.70278168861E+02  0.00000000000E+00 0. -1.
</event>
<event>
 7    1  0.2989693E-009  0.8820315E+02  0.7561462E-02  0.1307262E+00
         -2   -1    0    0    0  501 -0.00000000000E+00  0.00000000000E+00  0.19987692017E+02  0.19987692017E+02  0.00000000000E+00 0.  1.
          2   -1    0    0  501    0  0.00000000000E+00 -0.00000000000E+00 -0.57397517347E+03  0.57397517347E+03  0.00000000000E+00 0. -1.
         25    2    1    2    0    0 -0.49823065722E+02 -0.14930127125E+02 -0.43008415921E+03  0.45091678289E+03  0.12509322332E+03 0.  0.
          5    1    3    3  502    0 -0.81051261633E+02 -0.26769225038E+02 -0.38657592661E+03  0.39590948189E+03  0.41800000000E+01 0.  1.
         -5    1    3    3    0  502  0.31228195911E+02  0.11839097913E+02 -0.43508232604E+02  0.55007301002E+02  0.41800000000E+01 0.  1.
        -11    1    1    2    0    0  0.31041137632E+02  0.21084021126E+02 -0.32848625221E+02  0.49871037198E+02  0.00000000000E+00 0.  1.
         11    1    1    2    0    0  0.18781928090E+02 -0.61538940017E+01 -0.91054697027E+02  0.93175045398E+02  0.00000000000E+00 0. -1.
</event>
<event>
 7    1  0.4476905E-009  0.9694713E+02  0.7561462E-02  0.1286850E+00
         -2   -1    0    0    0  501 -0.00000000000E+00  0.00000000000E+00  0.17324847801E+02  0.17324847801E+02  0.00000000000E+00 0. -1.
          2   -1    0    0  501    0  0.00000000000E+00 -0.00000000000E+00 -0.10790875574E+04  0.10790875574E+04  0.00000000000E+00 0.  1.
         25    2    1    2    0    0 -0.19710448811E+02 -0.39133583389E+02 -0.86601286827E+03  0.87609683115E+03  0.12508968944E+03 0.  0.
          5    1    3    3  502    0 -0.34887293340E+01  0.30896884302E+02 -0.59040480473E+03  0.59123776481E+03  0.41800000000E+01 0.  1.
         -5    1    3    3    0  502 -0.16221719477E+02 -0.70030467691E+02 -0.27560806354E+03  0.28485906634E+03  0.41800000000E+01 0.  1.
        -11    1    1    2    0    0 -0.93354708702E+01  0.56103755725E+02 -0.70259761062E+02  0.90394781084E+02  0.00000000000E+00 0. -1.
         11    1    1    2    0    0  0.29045919681E+02 -0.16970172336E+02 -0.12549008030E+03  0.12992079299E+03  0.00000000000E+00 0.  1.
</event>
<event>
 6    1  0.2989693E-009  0.8049102E+02  0.7561462E-02  0.1327664E+00
          4   -1    0    0  501    0  0.00000000000E+00  0.00000000000E+00  0.34177194408E+02  0.34177194408E+02  0.00000000000E+00 0. -1.
         -4   -1    0    0    0  501 -0.00000000000E+00 -0.00000000000E+00 -0.37970725472E+03  0.37970725472E+03  0.00000000000E+00 0.  1.
          5    1    1    2  502    0 -0.42017733247E+02  0.10093859831E+02 -0.21264055506E+03  0.21702731158E+03  0.41800000000E+01 0.  1.
         -5    1    1    2    0  502  0.42954178815E+02  0.16077286673E+02 -0.24218266282E+02  0.52034002788E+02  0.41800000000E+01 0.  1.
        -11    1    1    2    0    0  0.91264845927E+00 -0.48799967279E+02 -0.19089098220E+02  0.52408619563E+02  0.00000000000E+00 0. -1.
         11    1    1    2    0    0 -0.18490940280E+01  0.22628820776E+02 -0.89582140750E+02  0.92414515201E+02  0.00000000000E+00 0.  1.
</event>
<event>
 7    1  0.2989693E-009  0.1125388E+03  0.7561462E-02  0.1255939E+00
         -1   -1    0    0    0  501 -0.00000000000E+00  0.00000000000E+00  0.25554014420E+03  0.25554014420E+03  0.00000000000E+00 0.  1.
          1   -1    0    0  501    0  0.00000000000E+00 -0.00000000000E+00 -0.10756803665E+03  0.10756803665E+03  0.00000000000E+00 0. -1.
         25    2    1    2    0    0 -0.79395976986E+01 -0.10589379774E+03  0.14311547947E+03  0.21772432268E+03  0.12508120006E+03 0.  0.
          5    1    3    3  502    0  0.21112943076E+02 -0.41905250425E+02 -0.10924846792E+02  0.48359394702E+02  0.41800000000E+01 0.  1.
         -5    1    3    3    0  502 -0.29052540775E+02 -0.63988547312E+02  0.15404032626E+03  0.16936492797E+03  0.41800000000E+01 0.  1.
        -11    1    1    2    0    0 -0.54633207433E+01  0.34107240840E+02  0.49075202296E+02  0.60012725581E+02  0.00000000000E+00 0.  1.
         11    1    1    2    0    0  0.13402918442E+02  0.71786556898E+02 -0.44218574217E+02  0.85371132591E+02  0.00000000000E+00 0. -1.
</event>
<event>
 7    1  0.2989693E-009  0.1135851E+03  0.7561462E-02  0.1254071E+00
         -2   -1    0    0    0  501 -0.00000000000E+00  0.00000000000E+00  0.48089887598E+02  0.48089887598E+02  0.00000000000E+00 0.  1.
          2   -1    0    0  501    0  0.00000000000E+00 -0.00000000000E+00 -0.28562558927E+03  0.28562558927E+03  0.00000000000E+00 0. -1.
         25    2    1    2    0    0  0.30877210667E+02  0.94976602874E+01 -0.10486257858E+03  0.16640932650E+03  0.12510913584E+03 0.  0.
          5    1    3    3  502    0 -0.22944334278E+02 -0.45050308579E+02 -0.28690606457E+02  0.58280323243E+02  0.41800000000E+01 0.  1.
         -5    1    3    3    0  502  0.53821544945E+02  0.54547968866E+02 -0.76171972120E+02  0.10812900325E+03  0.41800000000E+01 0.  1.
        -11    1    1    2    0    0 -0.39431627570E+02  0.36004982603E+02 -0.53490578595E+02  0.75580778135E+02  0.00000000000E+00 0. -1.
         11    1    1    2    0    0  0.85544169039E+01 -0.45502642891E+02 -0.79182544500E+02  0.91725372237E+02  0.00000000000E+00 0.  1.
</event>
<event>
 7    1  0.2989693E-009  0.1230367E+03  0.7561462E-02  0.1238170E+00
         -3   -1    0    0    0  501 -0.00000000000E+00  0.00000000000E+00  0.10770655157E+03  0.10770655157E+03  0.00000000000E+00 0.  1.
          3   -1    0    0  501    0  0.00000000000E+00 -0.00000000000E+00 -0.20264613551E+03  0.20264613551E+03  0.00000000000E+00 0. -1.
         25    2    1    2    0    0 -0.20804862375E+02  0.97333042900E+02 -0.38370492056E+02  0.16439587221E+03  0.12508854704E+03 0.  0.
          5    1    3    3  502    0  0.24770875735E+02  0.58763735575E+02  0.32447699748E+02  0.71673555251E+02  0.41800000000E+01 0. -1.
         -5    1    3    3    0  502 -0.45575738110E+02  0.38569307325E+02 -0.70818191805E+02  0.92722316959E+02  0.41800000000E+01 0. -1.
        -11    1    1    2    0    0  0.22148913924E+02  0.26631669185E+01  0.11387848862E+02  0.25046954860E+02  0.00000000000E+00 0.  1.
         11    1    1    2    0    0 -0.13440515498E+01 -0.99996209818E+02 -0.67956940744E+02  0.12090986001E+03  0.00000000000E+00 0. -1.
</event>
<event>
 6    1  0.2989693E-009  0.1921699E+03  0.7561462E-02  0.1156519E+00
          1   -1    0    0  501    0  0.00000000000E+00  0.00000000000E+00  0.51243585583E+03  0.51243585583E+03  0.00000000000E+00 0. -1.
         -1   -1    0    0    0  501 -0.00000000000E+00 -0.00000000000E+00 -0.98822877477E+02  0.98822877477E+02  0.00000000000E+00 0.  1.
          5    1    1    2  502    0  0.77700165189E+02 -0.44248531915E+02  0.48940724599E+02  0.10201919021E+03  0.41800000000E+01 0.  1.
         -5    1    1    2    0  502  0.86768802155E+02  0.80583815798E+02  0.28026578638E+02  0.12176016551E+03  0.41800000000E+01 0.  1.
        -11    1    1    2    0    0 -0.11115885046E+03 -0.49097361523E+02  0.15052592019E+03  0.19345514621E+03  0.00000000000E+00 0.  1.
         11    1    1    2    0    0 -0.53310116885E+02  0.12762077640E+02  0.18611975492E+03  0.19402423138E+03  0.00000000000E+00 0. -1.
</event>
<event>
 7    1  0.2989693E-009  0.2725995E+03  0.7561462E-02  0.1099801E+00
         -1   -1    0    0    0  501 -0.00000000000E+00  0.00000000000E+00  0.19018255675E+03  0.19018255675E+03  0.00000000000E+00 0.  1.
          1   -1    0    0  501    0  0.00000000000E+00 -0.00000000000E+00 -0.39736619185E+03  0.39736619185E+03  0.00000000000E+00 0. -1.
         25    2    1    2    0    0  0.25218677469E+03  0.19902270347E-01 -0.10977945661E+03  0.30215478658E+03  0.12509123165E+03 0.  0.
          5    1    3    3  502    0  0.20407308800E+03  0.51085447282E+02 -0.72205014257E+02  0.22245580382E+03  0.41800000000E+01 0. -1.
         -5    1    3    3    0  502  0.48113686684E+02 -0.51065545012E+02 -0.37574442356E+02  0.79698982754E+02  0.41800000000E+01 0. -1.
        -11    1    1    2    0    0 -0.14151901709E+03  0.39600905011E+02 -0.30315063131E+02  0.15004954824E+03  0.00000000000E+00 0.  1.
         11    1    1    2    0    0 -0.11066775760E+03 -0.39620807281E+02 -0.67089115352E+02  0.13534441377E+03  0.00000000000E+00 0. -1.
</event>
<event>
 7    1  0.2989693E-009  0.2025143E+03  0.7561462E-02  0.1147635E+00
         -1   -1    0    0    0  501 -0.00000000000E+00  0.00000000000E+00  0.19632659420E+03  0.19632659420E+03  0.00000000000E+00 0.  1.
          1   -1    0    0  501    0  0.00000000000E+00 -0.00000000000E+00 -0.22482646052E+03  0.22482646052E+03  0.00000000000E+00 0. -1.
         25    2    1    2    0    0  0.14760637856E+03 -0.10103524131E+03 -0.31542200337E+02  0.22053973795E+03  0.12508837929E+03 0.  0.
          5    1    3    3  502    0  0.11279940203E+03 -0.17105388478E+02  0.20134747781E+02  0.11592747682E+03  0.41800000000E+01 0.  1.
         -5    1    3    3    0  502  0.34806976527E+02 -0.83929852834E+02 -0.51676948118E+02  0.10461226113E+03  0.41800000000E+01 0.  1.
        -11    1    1    2    0    0 -0.60124234726E+02  0.94726579856E+02 -0.65111038707E+01  0.11238524372E+03  0.00000000000E+00 0.  1.
         11    1    1    2    0    0 -0.87482143832E+02  0.63086614557E+01  0.95534378889E+01  0.88228073051E+02  0.00000000000E+00 0. -1.
</event>
<event>
 7    1  0.2989693E-009  0.1738563E+03  0.7561462E-02  0.1173885E+00
         -1   -1    0    0    0  501 -0.00000000000E+00  0.00000000000E+00  0.49640335248E+02  0.49640335248E+02  0.00000000000E+00 0.  1.
          1   -1    0    0  501    0  0.00000000000E+00 -0.00000000000E+00 -0.13270375417E+04  0.13270375417E+04  0.00000000000E+00 0. -1.
         25    2    1    2    0    0  0.75667270184E+02 -0.14327247155E+03 -0.11012562845E+04  0.11201184810E+04  0.12508984992E+03 0.  0.
          5    1    3    3  502    0  0.68626982646E+02 -0.11172750544E+03 -0.46842330468E+03  0.48644687581E+03  0.41800000000E+01 0.  1.
         -5    1    3    3    0  502  0.70402875386E+01 -0.31544966108E+02 -0.63283297980E+03  0.63367160522E+03  0.41800000000E+01 0.  1.
        -11    1    1    2    0    0  0.19830813149E+02  0.25893317295E+02 -0.16329575584E+02  0.36474375519E+02  0.00000000000E+00 0.  1.
         11    1    1    2    0    0 -0.95498083333E+02  0.11737915425E+03 -0.15981134641E+03  0.22008502043E+03  0.00000000000E+00 0. -1.
</event>
<event>
 7    1  0.2989693E-009  0.2667894E+03  0.7561462E-02  0.1103131E+00
         -1   -1    0    0    0  501 -0.00000000000E+00  0.00000000000E+00  0.33038142889E+03  0.33038142889E+03  0.00000000000E+00 0.  1.
          1   -1    0    0  501    0  0.00000000000E+00 -0.00000000000E+00 -0.33529572235E+03  0.33529572235E+03  0.00000000000E+00 0. -1.
         25    2    1    2    0    0 -0.16060324288E+03  0.18685676145E+03  0.19234210289E+03  0.33667738532E+03  0.12508927339E+03 0.  0.
          5    1    3    3  502    0 -0.22162412990E+02 -0.15927455306E+02  0.36745561958E+02  0.45962649028E+02  0.41800000000E+01 0.  1.
         -5    1    3    3    0  502 -0.13844082989E+03  0.20278421675E+03  0.15559654093E+03  0.29071473629E+03  0.41800000000E+01 0.  1.
        -11    1    1    2    0    0  0.16835243504E+03 -0.15930358702E+03 -0.15837067818E+03  0.28071595417E+03  0.00000000000E+00 0.  1.
         11    1    1    2    0    0 -0.77491921549E+01 -0.27553174432E+02 -0.38885718160E+02  0.48283811750E+02  0.00000000000E+00 0. -1.
</event>
<event>
 7    1  0.2989693E-009  0.1131441E+03  0.7561462E-02  0.1254856E+00
          2   -1    0    0  501    0  0.00000000000E+00  0.00000000000E+00  0.18312633538E+03  0.18312633538E+03  0.00000000000E+00 0.  1.
         -2   -1    0    0    0  501 -0.00000000000E+00 -0.00000000000E+00 -0.10376894930E+03  0.10376894930E+03  0.00000000000E+00 0. -1.
         25    2    1    2    0    0  0.42922500906E+02 -0.72058346125E+02  0.70277347389E+02  0.16619773441E+03  0.12509210621E+03 0.  0.
          5    1    3    3  502    0 -0.24471304728E+02 -0.56613771977E+02  0.74493454030E+02  0.96802432954E+02  0.41800000000E+01 0.  1.
         -5    1    3    3    0  502  0.67393805635E+02 -0.15444574149E+02 -0.42161066415E+01  0.69395301453E+02  0.41800000000E+01 0.  1.
        -11    1    1    2    0    0 -0.42463276189E+02  0.27385410588E+02 -0.32162591637E+02  0.59895933406E+02  0.00000000000E+00 0. -1.
         11    1    1    2    0    0 -0.45922471797E+00  0.44672935538E+02  0.41242630333E+02  0.60801616868E+02  0.00000000000E+00 0.  1.
</event>
<event>
 7    1  0.2989693E-009  0.8699176E+02  0.7561462E-02  0.1310305E+00
         -2   -1    0    0    0  501 -0.00000000000E+00  0.00000000000E+00  0.90119023614E+02  0.90119023614E+02  0.00000000000E+00 0. -1.
          2   -1    0    0  501    0  0.00000000000E+00 -0.00000000000E+00 -0.17029643438E+03  0.17029643438E+03  0.00000000000E+00 0.  1.
         25    2    1    2    0    0  0.42606644277E+02  0.41892449495E+02 -0.43410709821E+02  0.14524624204E+03  0.12506669276E+03 0.  0.
          5    1    3    3  502    0  0.15788534511E+02  0.34914310142E+02  0.41018493363E+02  0.56287441517E+02  0.41800000000E+01 0. -1.
         -5    1    3    3    0  502  0.26818109766E+02  0.69781393524E+01 -0.84429203184E+02  0.88958800523E+02  0.41800000000E+01 0. -1.
        -11    1    1    2    0    0  0.12012070191E+02  0.20951910763E+02 -0.17168203813E+02  0.29631395800E+02  0.00000000000E+00 0.  1.
         11    1    1    2    0    0 -0.54618714468E+02 -0.62844360258E+02 -0.19598497129E+02  0.85537820150E+02  0.00000000000E+00 0. -1.
</event>
<event>
 7    1  0.2989693E-009  0.3768463E+03  0.7561462E-02  0.1052106E+00
         -1   -1    0    0    0  501 -0.00000000000E+00  0.00000000000E+00  0.95558469353E+02  0.95558469353E+02  0.00000000000E+00 0.  1.
          1   -1    0    0  501    0  0.00000000000E+00 -0.00000000000E+00 -0.18834487067E+04  0.18834487067E+04  0.00000000000E+00 0. -1.
         25    2    1    2    0    0 -0.20003293946E+03  0.31280796885E+03 -0.49780986617E+03  0.63350181581E+03  0.12509150867E+03 0.  0.
          5    1    3    3  502    0 -0.19281764674E+03  0.23491783094E+03 -0.44549627500E+03  0.53930458521E+03  0.41800000000E+01 0.  1.
         -5    1    3    3    0  502 -0.72152927197E+01  0.77890137912E+02 -0.52313591164E+02  0.94197230604E+02  0.41800000000E+01 0.  1.
        -11    1    1    2    0    0  0.10763013028E+03 -0.17681815788E+03 -0.87261072593E+03  0.89682684221E+03  0.00000000000E+00 0.  1.
         11    1    1    2    0    0  0.92402809180E+02 -0.13598981098E+03 -0.41746964520E+03  0.44867851798E+03  0.00000000000E+00 0. -1.
</event>
<event>
 7    1  0.2989693E-009  0.1295750E+03  0.7561462E-02  0.1228088E+00
         -2   -1    0    0    0  501 -0.00000000000E+00  0.00000000000E+00  0.11849800327E+03  0.11849800327E+03  0.00000000000E+00 0. -1.
          2   -1    0    0  501    0  0.00000000000E+00 -0.00000000000E+00 -0.20910017807E+03  0.20910017807E+03  0.00000000000E+00 0.  1.
         25    2    1    2    0    0  0.38598948504E+02 -0.10550744308E+03 -0.53570856257E+02  0.17646131114E+03  0.12508820215E+03 0.  0.
          5    1    3    3  502    0  0.33396051494E+02 -0.90575335708E+02 -0.92792021500E+02  0.13396648591E+03  0.41800000000E+01 0. -1.
         -5    1    3    3    0  502  0.52028970095E+01 -0.14932107375E+02  0.39221165243E+02  0.42494825226E+02  0.41800000000E+01 0.  1.
        -11    1    1    2    0    0  0.13738288766E+02 -0.11546570360E+02 -0.81114859727E+01  0.19694163348E+02  0.00000000000E+00 0. -1.
         11    1    1    2    0    0 -0.52337237270E+02  0.11705401344E+03 -0.28919832567E+02  0.13144270685E+03  0.00000000000E+00 0.  1.
</event>
<event>
 7    1  0.2989693E-009  0.1295888E+03  0.7561462E-02  0.1228067E+00
          2   -1    0    0  501    0  0.00000000000E+00  0.00000000000E+00  0.35861352451E+02  0.35861352451E+02  0.00000000000E+00 0. -1.
         -2   -1    0    0    0  501 -0.00000000000E+00 -0.00000000000E+00 -0.62568716000E+03  0.62568716000E+03  0.00000000000E+00 0.  1.
         25    2    1    2    0    0  0.84567235772E+02 -0.55117253026E+02 -0.37940455091E+03  0.41204618255E+03  0.12507883257E+03 0.  0.
          5    1    3    3  502    0  0.31983590916E+02 -0.65103058818E+02 -0.33376667115E+03  0.34158311072E+03  0.41800000000E+01 0.  1.
         -5    1    3    3    0  502  0.52583644856E+02  0.99858057922E+01 -0.45637879756E+02  0.70463071834E+02  0.41800000000E+01 0.  1.
        -11    1    1    2    0    0 -0.71262444111E+02 -0.48335962733E+01 -0.12982965273E+03  0.14818042490E+03  0.00000000000E+00 0.  1.
         11    1    1    2    0    0 -0.13304791661E+02  0.59950849300E+02 -0.80591603909E+02  0.10132190500E+03  0.00000000000E+00 0. -1.
</event>
<event>
 7    1  0.2989693E-009  0.3345470E+03  0.7561462E-02  0.1069142E+00
          2   -1    0    0  501    0  0.00000000000E+00  0.00000000000E+00  0.15345495434E+04  0.15345495434E+04  0.00000000000E+00 0. -1.
         -2   -1    0    0    0  501 -0.00000000000E+00 -0.00000000000E+00 -0.76711526117E+02  0.76711526117E+02  0.00000000000E+00 0.  1.
         25    2    1    2    0    0  0.30334027752E+03 -0.90069669054E+02  0.91817719305E+03  0.97919590473E+03  0.12508953893E+03 0.  0.
          5    1    3    3  502    0  0.25068821823E+03 -0.18877701135E+02  0.69257456487E+03  0.73680251809E+03  0.41800000000E+01 0. -1.
         -5    1    3    3    0  502  0.52652059286E+02 -0.71191967920E+02  0.22560262819E+03  0.24239338664E+03  0.41800000000E+01 0. -1.
        -11    1    1    2    0    0 -0.27722908746E+03  0.50780610899E+02  0.46533886963E+03  0.54403575339E+03  0.00000000000E+00 0.  1.
         11    1    1    2    0    0 -0.26111190061E+02  0.39289058155E+02  0.74321954647E+02  0.88029411447E+02  0.00000000000E+00 0. -1.
</event>
<event>
 7    1  0.2989693E-009  0.7995531E+02  0.7561462E-02  0.1329178E+00
         -2   -1    0    0    0  501 -0.00000000000E+00  0.00000000000E+00  0.15029260777E+02  0.15029260777E+02  0.00000000000E+00 0.  1.
          2   -1    0    0  501    0  0.00000000000E+00 -0.00000000000E+00 -0.81608512166E+03  0.81608512166E+03  0.00000000000E+00 0. -1.
         25    2    1    2    0    0 -0.59033264442E+01 -0.97185375520E+01 -0.53184495378E+03  0.54647557425E+03  0.12508876510E+03 0.  0.
          5    1    3    3  502    0  0.28072844107E+02 -0.29554461409E+02 -0.47749709578E+03  0.47925202102E+03  0.41800000000E+01 0.  1.
         -5    1    3    3    0  502 -0.33976170551E+02  0.19835923857E+02 -0.54347857993E+02  0.67223553231E+02  0.41800000000E+01 0.  1.
        -11    1    1    2    0    0  0.95304840026E+01 -0.34097690895E+02 -0.51264087710E+02  0.62301599806E+02  0.00000000000E+00 0.  1.
         11    1    1    2    0    0 -0.36271575584E+01  0.43816228446E+02 -0.21794681940E+03  0.22233720838E+03  0.00000000000E+00 0. -1.
</event>
<event>
 7    1  0.2989693E-009  0.1919822E+03  0.7561462E-02  0.1156686E+00
         -2   -1    0    0    0  501 -0.00000000000E+00  0.00000000000E+00  0.63046255415E+02  0.63046255415E+02  0.00000000000E+00 0.  1.
          2   -1    0    0  501    0  0.00000000000E+00 -0.00000000000E+00 -0.83163014001E+03  0.83163014001E+03  0.00000000000E+00 0. -1.
         25    2    1    2    0    0 -0.18358154535E+03 -0.32218901894E+02 -0.24326932980E+03  0.33100978719E+03  0.12508905214E+03 0.  0.
          5    1    3    3  502    0 -0.14096918225E+03 -0.50980896573E+02 -0.99848121726E+02  0.18016237668E+03  0.41800000000E+01 0. -1.
         -5    1    3    3    0  502 -0.42612363100E+02  0.18761994678E+02 -0.14342120807E+03  0.15084741051E+03  0.41800000000E+01 0. -1.
        -11    1    1    2    0    0  0.42690237029E+02  0.15308143614E+02 -0.24844840804E+03  0.25255377062E+03  0.00000000000E+00 0. -1.
         11    1    1    2    0    0  0.14089130832E+03  0.16910758280E+02 -0.27686614676E+03  0.31111283761E+03  0.00000000000E+00 0.  1.
</event>
<event>
 7    1  0.2989693E-009  0.1393580E+03  0.7561462E-02  0.1214195E+00
          1   -1    0    0  501    0  0.00000000000E+00  0.00000000000E+00  0.24552080575E+03  0.24552080575E+03  0.00000000000E+00 0. -1.
         -1   -1    0    0    0  501 -0.00000000000E+00 -0.00000000000E+00 -0.84916505274E+02  0.84916505274E+02  0.00000000000E+00 0.  1.
         25    2    1    2    0    0  0.90836849955E+02  0.24897450955E+02  0.67380275682E+02  0.17046612886E+03  0.12508950061E+03 0.  0.
          5    1    3    3  502    0  0.63152566993E+02 -0.44681936254E+02  0.14812682852E+02  0.78877183764E+02  0.41800000000E+01 0.  1.
         -5    1    3    3    0  502  0.27684282962E+02  0.69579387209E+02  0.52567592830E+02  0.91588945094E+02  0.41800000000E+01 0.  1.
        -11    1    1    2    0    0 -0.49357765959E+02  0.29753098499E+02  0.61817929689E+02  0.84515633831E+02  0.00000000000E+00 0. -1.
         11    1    1    2    0    0 -0.41479083995E+02 -0.54650549455E+02  0.31406095106E+02  0.75455548336E+02  0.00000000000E+00 0.  1.
</event>
<event>
 7    1  0.2989693E-009  0.9568026E+02  0.7561462E-02  0.1289651E+00
         -1   -1    0    0    0  501 -0.00000000000E+00  0.00000000000E+00  0.10728844897E+03  0.10728844897E+03  0.00000000000E+00 0.  1.
          1   -1    0    0  501    0  0.00000000000E+00 -0.00000000000E+00 -0.13512491949E+03  0.13512491949E+03  0.00000000000E+00 0. -1.
         25    2    1    2    0    0 -0.39477338402E+02 -0.20620174663E+02 -0.44855178421E+02  0.14014557493E+03  0.12508054721E+03 0.  0.
          5    1    3    3  502    0 -0.61518690899E+02  0.84663691905E+01 -0.71479249599E+02  0.94778606555E+02  0.41800000000E+01 0. -1.
         -5    1    3    3    0  502  0.22041352497E+02 -0.29086543854E+02  0.26624071178E+02  0.45366968373E+02  0.41800000000E+01 0. -1.
        -11    1    1    2    0    0  0.31562166860E+02 -0.28565760919E+02  0.28389691201E+02  0.51167837948E+02  0.00000000000E+00 0.  1.
         11    1    1    2    0    0  0.79151715422E+01  0.49185935582E+02 -0.11370983306E+02  0.51099955586E+02  0.00000000000E+00 0. -1.
</event>
<event>
 7    1  0.2989693E-009  0.9833283E+02  0.7561462E-02  0.1283841E+00
          1   -1    0    0  501    0  0.00000000000E+00  0.00000000000E+00  0.20498672535E+03  0.20498672535E+03  0.00000000000E+00 0. -1.
         -1   -1    0    0    0  501 -0.00000000000E+00 -0.00000000000E+00 -0.78980706988E+02  0.78980706988E+02  0.00000000000E+00 0.  1.
         25    2    1    2    0    0  0.78609326387E+01  0.34354567920E+02  0.13189070773E+03  0.18516162824E+03  0.12509052397E+03 0.  0.
          5    1    3    3  502    0 -0.47093549321E+02  0.25817298879E+02  0.15428126434E+02  0.56034228774E+02  0.41800000000E+01 0. -1.
         -5    1    3    3    0  502  0.54954481960E+02  0.85372690411E+01  0.11646258129E+03  0.12912739946E+03  0.41800000000E+01 0. -1.
        -11    1    1    2    0    0  0.23406012219E+02  0.15575425557E+02 -0.24217805356E+02  0.37107106941E+02  0.00000000000E+00 0.  1.
         11    1    1    2    0    0 -0.31266944857E+02 -0.49929993477E+02  0.18333115989E+02  0.61698697160E+02  0.00000000000E+00 0. -1.
</event>
<event>
 7    1  0.2989693E-009  0.8958003E+02  0.7561462E-02  0.1303872E+00
          2   -1    0    0  501    0  0.00000000000E+00  0.00000000000E+00  0.14143046576E+03  0.14143046576E+03  0.00000000000E+00 0. -1.
         -2   -1    0    0    0  501 -0.00000000000E+00 -0.00000000000E+00 -0.11071500239E+03  0.11071500239E+03  0.00000000000E+00 0.  1.
         25    2    1    2    0    0  0.46387225831E+02 -0.36544866187E+02  0.37214472043E+02  0.14324742899E+03  0.12509039538E+03 0.  0.
          5    1    3    3  502    0 -0.32975344922E+02 -0.42140718480E+01 -0.21020432659E+02  0.39553290172E+02  0.41800000000E+01 0.  1.
         -5    1    3    3    0  502  0.79362570752E+02 -0.32330794339E+02  0.58234904701E+02  0.10369413881E+03  0.41800000000E+01 0.  1.
        -11    1    1    2    0    0 -0.23855204363E+02  0.12600509953E+02 -0.48536050679E+02  0.55530098522E+02  0.00000000000E+00 0.  1.
         11    1    1    2    0    0 -0.22532021467E+02  0.23944356234E+02  0.42037042012E+02  0.53367940638E+02  0.00000000000E+00 0. -1.
</event>
<event>
 7    1  0.2989693E-009  0.9412963E+02  0.7561462E-02  0.1293148E+00
          1   -1    0    0  501    0  0.00000000000E+00  0.00000000000E+00  0.14179262677E+03  0.14179262677E+03  0.00000000000E+00 0. -1.
         -1   -1    0    0    0  501 -0.00000000000E+00 -0.00000000000E+00 -0.11170732820E+03  0.11170732820E+03  0.00000000000E+00 0.  1.
         25    2    1    2    0    0  0.31717550262E+02 -0.40377857926E+02  0.54356291179E+02  0.14573398114E+03  0.12508961772E+03 0.  0.
          5    1    3    3  502    0  0.84411216829E+01 -0.55660037383E+02 -0.24844737143E+02  0.61676783804E+02  0.41800000000E+01 0. -1.
         -5    1    3    3    0  502  0.23276428579E+02  0.15282179456E+02  0.79201028322E+02  0.84057197333E+02  0.41800000000E+01 0. -1.
        -11    1    1    2    0    0  0.19539218502E+02 -0.17576852683E+02  0.12077389385E+01  0.26309417388E+02  0.00000000000E+00 0.  1.
         11    1    1    2    0    0 -0.51256768765E+02  0.57954710610E+02 -0.25478731550E+02  0.81456556442E+02  0.00000000000E+00 0. -1.
</event>
<event>
 7    1  0.2989693E-009  0.2130469E+03  0.7561462E-02  0.1139176E+00
         -2   -1    0    0    0  501 -0.00000000000E+00  0.00000000000E+00  0.11199018294E+03  0.11199018294E+03  0.00000000000E+00 0.  1.
          2   -1    0    0  501    0  0.00000000000E+00 -0.00000000000E+00 -0.44010005393E+03  0.44010005393E+03  0.00000000000E+00 0. -1.
         25    2    1    2    0    0 -0.12661670947E+03 -0.13617059191E+03 -0.10281385976E+03  0.24655645158E+03  0.12508066531E+03 0.  0.
          5    1    3    3  502    0 -0.14253213104E+02 -0.10331383056E+03 -0.67124259923E+02  0.12409689899E+03  0.41800000000E+01 0. -1.
         -5    1    3    3    0  502 -0.11236349637E+03 -0.32856761352E+02 -0.35689599840E+02  0.12245955259E+03  0.41800000000E+01 0. -1.
        -11    1    1    2    0    0  0.10040039112E+03  0.14547348871E+03 -0.17927385999E+03  0.25175760431E+03  0.00000000000E+00 0.  1.
         11    1    1    2    0    0  0.26216318356E+02 -0.93028967938E+01 -0.46022151237E+02  0.53776180985E+02  0.00000000000E+00 0. -1.
</event>
<event>
 7    1  0.2989693E-009  0.9864210E+02  0.7561462E-02  0.1283178E+00
         -3   -1    0    0    0  501 -0.00000000000E+00  0.00000000000E+00  0.86133201334E+02  0.86133201334E+02  0.00000000000E+00 0.  1.
          3   -1    0    0  501    0  0.00000000000E+00 -0.00000000000E+00 -0.14096422840E+03  0.14096422840E+03  0.00000000000E+00 0. -1.
         25    2    1    2    0    0  0.12601884403E+02  0.59926348426E+01 -0.14917581725E+02  0.12675754109E+03  0.12510084259E+03 0.  0.
          5    1    3    3  502    0  0.60116963967E+02 -0.14221058957E+02 -0.35083464946E+02  0.71166071882E+02  0.41800000000E+01 0. -1.
         -5    1    3    3    0  502 -0.47515079564E+02  0.20213693799E+02  0.20165883221E+02  0.55591469211E+02  0.41800000000E+01 0. -1.
        -11    1    1    2    0    0 -0.40060642930E+02  0.20850756472E+02 -0.29096021680E+00  0.45162969513E+02  0.00000000000E+00 0.  1.
         11    1    1    2    0    0  0.27458758527E+02 -0.26843391315E+02 -0.39622485123E+02  0.55176919128E+02  0.00000000000E+00 0. -1.
</event>
<event>
 7    1  0.2989693E-009  0.1044557E+03  0.7561462E-02  0.1271196E+00
          2   -1    0    0  501    0  0.00000000000E+00  0.00000000000E+00  0.61964948837E+03  0.61964948837E+03  0.00000000000E+00 0. -1.
         -2   -1    0    0    0  501 -0.00000000000E+00 -0.00000000000E+00 -0.27505873037E+02  0.27505873037E+02  0.00000000000E+00 0.  1.
         25    2    1    2    0    0 -0.36361897985E+02 -0.62313675039E+02  0.32353606989E+03  0.35430184329E+03  0.12509606676E+03 0.  0.
          5    1    3    3  502    0 -0.21110000324E+02  0.21816093011E+02  0.15014320691E+02  0.34124423127E+02  0.41800000000E+01 0.  1.
         -5    1    3    3    0  502 -0.15251897661E+02 -0.84129768050E+02  0.30852174920E+03  0.32017742017E+03  0.41800000000E+01 0.  1.
        -11    1    1    2    0    0  0.48569015306E+02  0.27591959642E+02  0.23950471172E+03  0.24593245500E+03  0.00000000000E+00 0. -1.
         11    1    1    2    0    0 -0.12207117321E+02  0.34721715397E+02  0.29102833720E+02  0.46921063116E+02  0.00000000000E+00 0.  1.
</event>
<event>
 7    1  0.2989693E-009  0.8783831E+02  0.7561462E-02  0.1308173E+00
          2   -1    0    0  501    0  0.00000000000E+00  0.00000000000E+00  0.37470219590E+03  0.37470219590E+03  0.00000000000E+00 0. -1.
         -2   -1    0    0    0  501 -0.00000000000E+00 -0.00000000000E+00 -0.45157110771E+02  0.45157110771E+02  0.00000000000E+00 0.  1.
         25    2    1    2    0    0  0.22908580196E+02  0.28177882136E+02  0.28166304254E+03  0.31032165918E+03  0.12508663612E+03 0.  0.
          5    1    3    3  502    0  0.35748635894E+02 -0.13105095976E+02  0.25806070939E+03  0.26088792736E+03  0.41800000000E+01 0.  1.
         -5    1    3    3    0  502 -0.12840055698E+02  0.41282978112E+02  0.23602333152E+02  0.49433731827E+02  0.41800000000E+01 0.  1.
        -11    1    1    2    0    0  0.26340158526E+02 -0.35439721254E+02  0.61586413705E+01  0.44583703943E+02  0.00000000000E+00 0.  1.
         11    1    1    2    0    0 -0.49248738723E+02  0.72618391175E+01  0.41723401220E+02  0.64953943548E+02  0.00000000000E+00 0. -1.
</event>
<event>
 7    1  0.2989693E-009  0.1919408E+03  0.7561462E-02  0.1156722E+00
          3   -1    0    0  501    0  0.00000000000E+00  0.00000000000E+00  0.10747649352E+04  0.10747649352E+04  0.00000000000E+00 0. -1.
         -3   -1    0    0    0  501 -0.00000000000E+00 -0.00000000000E+00 -0.49229049785E+02  0.49229049785E+02  0.00000000000E+00 0.  1.
         25    2    1    2    0    0 -0.59879636063E+02 -0.17174377351E+03  0.72386581724E+03  0.75677881267E+03  0.12510377851E+03 0.  0.
          5    1    3    3  502    0 -0.37685691118E+02 -0.84345710989E+02  0.57719146835E+03  0.58455271260E+03  0.41800000000E+01 0.  1.
         -5    1    3    3    0  502 -0.22193944944E+02 -0.87398062519E+02  0.14667434889E+03  0.17222610007E+03  0.41800000000E+01 0.  1.
        -11    1    1    2    0    0  0.16114701904E+02  0.15246344850E+03  0.17975366281E+03  0.23625445189E+03  0.00000000000E+00 0.  1.
         11    1    1    2    0    0  0.43764934158E+02  0.19280325012E+02  0.12191640535E+03  0.13096072040E+03  0.00000000000E+00 0. -1.
</event>
<event>
 7    1  0.2989693E-009  0.9192757E+02  0.7561462E-02  0.1298250E+00
         -1   -1    0    0    0  501 -0.00000000000E+00  0.00000000000E+00  0.20136849549E+02  0.20136849549E+02  0.00000000000E+00 0.  1.
          1   -1    0    0  501    0  0.00000000000E+00 -0.00000000000E+00 -0.71457621600E+03  0.71457621600E+03  0.00000000000E+00 0. -1.
         25    2    1    2    0    0 -0.46093274192E+02 -0.13517112724E+02 -0.44715488584E+03  0.46680077378E+03  0.12509263851E+03 0.  0.
          5    1    3    3  502    0 -0.71114584773E+02 -0.14538518789E+02 -0.43013193180E+03  0.43623342817E+03  0.41800000000E+01 0.  1.
         -5    1    3    3    0  502  0.25021310582E+02  0.10214060652E+01 -0.17022954041E+02  0.30567345613E+02  0.41800000000E+01 0.  1.
        -11    1    1    2    0    0  0.23050354941E+02 -0.29214016085E+02 -0.18621520178E+03  0.18989702203E+03  0.00000000000E+00 0. -1.
         11    1    1    2    0    0  0.23042919251E+02  0.42731128809E+02 -0.61069278825E+02  0.78015269743E+02  0.00000000000E+00 0.  1.
</event>
<event>
 7    1  0.2989693E-009  0.1116345E+03  0.7561462E-02  0.1257573E+00
         -2   -1    0    0    0  501 -0.00000000000E+00  0.00000000000E+00  0.17684137697E+02  0.17684137697E+02  0.00000000000E+00 0.  1.
          2   -1    0    0  501    0  0.00000000000E+00 -0.00000000000E+00 -0.76563823186E+03  0.76563823186E+03  0.00000000000E+00 0. -1.
         25    2    1    2    0    0  0.31875132307E+02 -0.24780334612E+02 -0.36078021677E+03  0.38396967213E+03  0.12506100616E+03 0.  0.
          5    1    3    3  502    0  0.51871498938E+02 -0.64007197895E+02 -0.18237615049E+03  0.20016519791E+03  0.41800000000E+01 0.  1.
         -5    1    3    3    0  502 -0.19996366631E+02  0.39226863282E+02 -0.17840406627E+03  0.18380447422E+03  0.41800000000E+01 0.  1.
        -11    1    1    2    0    0  0.84020003064E+01  0.48890241804E+02 -0.16607373943E+03  0.17332436724E+03  0.00000000000E+00 0.  1.
         11    1    1    2    0    0 -0.40277132613E+02 -0.24109907191E+02 -0.22110013797E+03  0.22602833018E+03  0.00000000000E+00 0. -1.
</event>
<event>
 7    1  0.2989693E-009  0.6224067E+02  0.7561462E-02  0.1388662E+00
         -1   -1    0    0    0  501 -0.00000000000E+00  0.00000000000E+00  0.38224743575E+03  0.38224743575E+03  0.00000000000E+00 0.  1.
          1   -1    0    0  501    0  0.00000000000E+00 -0.00000000000E+00 -0.33896490407E+02  0.33896490407E+02  0.00000000000E+00 0. -1.
         25    2    1    2    0    0  0.34843495269E+02 -0.11740160995E+02  0.28041342262E+03  0.30924297357E+03  0.12509048155E+03 0.  0.
          5    1    3    3  502    0  0.37115133691E+01  0.17588631157E+02 -0.61666792802E+01  0.19458561376E+02  0.41800000000E+01 0.  1.
         -5    1    3    3    0  502  0.31131981900E+02 -0.29328792152E+02  0.28658010190E+03  0.28978441220E+03  0.41800000000E+01 0.  1.
        -11    1    1    2    0    0  0.11215574674E+02 -0.71147065057E+01 -0.84418454907E+01  0.15737627497E+02  0.00000000000E+00 0.  1.
         11    1    1    2    0    0 -0.46059069943E+02  0.18854867501E+02  0.76379368208E+02  0.91163325084E+02  0.00000000000E+00 0. -1.
</event>
<event>
 7    1  0.2989693E-009  0.3822664E+02  0.7561462E-02  0.1521682E+00
         -1   -1    0    0    0  501 -0.00000000000E+00  0.00000000000E+00  0.12397667221E+03  0.12397667221E+03  0.00000000000E+00 0.  1.
          1   -1    0    0  501    0  0.00000000000E+00 -0.00000000000E+00 -0.10279529319E+03  0.10279529319E+03  0.00000000000E+00 0. -1.
         25    2    1    2    0    0  0.15746969318E+02 -0.23788538548E+02  0.39877311618E+02  0.13435020439E+03  0.12508363534E+03 0.  0.
          5    1    3    3  502    0  0.90496940013E+01 -0.65081914337E+01 -0.45424368382E+02  0.46958483367E+02  0.41800000000E+01 0.  1.
         -5    1    3    3    0  502  0.66972753164E+01 -0.17280347115E+02  0.85301679999E+02  0.87391721025E+02  0.41800000000E+01 0.  1.
        -11    1    1    2    0    0 -0.23003305797E+02  0.25955665069E+01  0.30544350758E+02  0.38325532042E+02  0.00000000000E+00 0.  1.
         11    1    1    2    0    0  0.72563364790E+01  0.21192972041E+02 -0.49240283359E+02  0.54096228966E+02  0.00000000000E+00 0. -1.
</event>
<event>
 7    1  0.2989693E-009  0.7861716E+02  0.7561462E-02  0.1333022E+00
         -2   -1    0    0    0  501 -0.00000000000E+00  0.00000000000E+00  0.56123042495E+02  0.56123042495E+02  0.00000000000E+00 0.  1.
          2   -1    0    0  501    0  0.00000000000E+00 -0.00000000000E+00 -0.31947816218E+03  0.31947816218E+03  0.00000000000E+00 0. -1.
         25    2    1    2    0    0  0.47184079036E+02 -0.25695912201E+02 -0.69855327372E+02  0.15300391968E+03  0.12507523918E+03 0.  0.
          5    1    3    3  502    0  0.51948589185E+02 -0.24008063427E+02 -0.10370691538E+03  0.11852273928E+03  0.41800000000E+01 0.  1.
         -5    1    3    3    0  502 -0.47645101488E+01 -0.16878487733E+01  0.33851588013E+02  0.34481180395E+02  0.41800000000E+01 0.  1.
        -11    1    1    2    0    0 -0.60836194621E+02 -0.36325185607E+01 -0.61084817845E+02  0.86287848150E+02  0.00000000000E+00 0.  1.
         11    1    1    2    0    0  0.13652115585E+02  0.29328430762E+02 -0.13241497446E+03  0.13630943685E+03  0.00000000000E+00 0. -1.
</event>
<event>
 7    1  0.2989693E-009  0.1134523E+03  0.7561462E-02  0.1254307E+00
         -1   -1    0    0    0  501 -0.00000000000E+00  0.00000000000E+00  0.19468894393E+03  0.19468894393E+03  0.00000000000E+00 0.  1.
          1   -1    0    0  501    0  0.00000000000E+00 -0.00000000000E+00 -0.11687971698E+03  0.11687971698E+03  0.00000000000E+00 0. -1.
         25    2    1    2    0    0 -0.66443658914E+02 -0.47909292510E+02  0.11528426878E+03  0.18880721246E+03  0.12509053014E+03 0.  0.
          5    1    3    3  502    0  0.27218780342E+01 -0.54519883002E+02  0.71690870923E+00  0.54752284159E+02  0.41800000000E+01 0.  1.
         -5    1    3    3    0  502 -0.69165536948E+02  0.66105904923E+01  0.11456736007E+03  0.13405492830E+03  0.41800000000E+01 0.  1.
        -11    1    1    2    0    0 -0.17034033660E+01  0.32677759284E+02 -0.41462374942E+02  0.52819182791E+02  0.00000000000E+00 0.  1.
         11    1    1    2    0    0  0.68147062280E+02  0.15231533226E+02  0.39873331168E+01  0.69942265670E+02  0.00000000000E+00 0. -1.
</event>
<event>
 7    1  0.2989693E-009  0.1142151E+03  0.7561462E-02  0.1252957E+00
          1   -1    0    0  501    0  0.00000000000E+00  0.00000000000E+00  0.40290923493E+03  0.40290923493E+03  0.00000000000E+00 0. -1.
         -1   -1    0    0    0  501 -0.00000000000E+00 -0.00000000000E+00 -0.45001486964E+02  0.45001486964E+02  0.00000000000E+00 0.  1.
         25    2    1    2    0    0 -0.60466405745E+02  0.46948335225E+02  0.15905040861E+03  0.21634515011E+03  0.12509140296E+03 0.  0.
          5    1    3    3  502    0 -0.28404273454E+02 -0.34879989807E+02  0.15095824371E+02  0.47631636050E+02  0.41800000000E+01 0. -1.
         -5    1    3    3    0  502 -0.32062132291E+02  0.81828325032E+02  0.14395458424E+03  0.16871351406E+03  0.41800000000E+01 0. -1.
        -11    1    1    2    0    0 -0.31483952267E+01 -0.29000688529E+02  0.14017066007E+03  0.14317390221E+03  0.00000000000E+00 0. -1.
         11    1    1    2    0    0  0.63614800972E+02 -0.17947646696E+02  0.58686679284E+02  0.88391669574E+02  0.00000000000E+00 0.  1.
</event>
<event>
 7    1  0.2989693E-009  0.1222991E+03  0.7561462E-02  0.1239352E+00
         -2   -1    0    0    0  501 -0.00000000000E+00  0.00000000000E+00  0.19949610825E+02  0.19949610825E+02  0.00000000000E+00 0.  1.
          2   -1    0    0  501    0  0.00000000000E+00 -0.00000000000E+00 -0.82726770992E+03  0.82726770992E+03  0.00000000000E+00 0. -1.
         25    2    1    2    0    0  0.10992215099E+02 -0.47982542185E+02 -0.32739956758E+03  0.35392327269E+03  0.12509217782E+03 0.  0.
          5    1    3    3  502    0  0.31691401612E+02  0.33515967544E+02 -0.15964820173E+03  0.16623082064E+03  0.41800000000E+01 0.  1.
         -5    1    3    3    0  502 -0.20699186514E+02 -0.81498509729E+02 -0.16775136585E+03  0.18769245204E+03  0.41800000000E+01 0.  1.
        -11    1    1    2    0    0  0.14551151894E+02  0.75300141957E+02 -0.32324205698E+03  0.33221570523E+03  0.00000000000E+00 0.  1.
         11    1    1    2    0    0 -0.25543366993E+02 -0.27317599772E+02 -0.15667647454E+03  0.16107834283E+03  0.00000000000E+00 0. -1.
</event>
<event>
 7    1  0.2989693E-009  0.1014548E+03  0.7561462E-02  0.1277266E+00
         -1   -1    0    0    0  501 -0.00000000000E+00  0.00000000000E+00  0.17369879837E+03  0.17369879837E+03  0.00000000000E+00 0.  1.
          1   -1    0    0  501    0  0.00000000000E+00 -0.00000000000E+00 -0.10497891557E+03  0.10497891557E+03  0.00000000000E+00 0. -1.
         25    2    1    2    0    0 -0.50768974372E+02  0.31076801979E+02  0.89302192052E+02  0.16481979271E+03  0.12508967256E+03 0.  0.
          5    1    3    3  502    0 -0.52724721092E+02  0.66226829315E+02  0.96719750377E+02  0.12860043409E+03  0.41800000000E+01 0. -1.
         -5    1    3    3    0  502  0.19557467196E+01 -0.35150027336E+02 -0.74175583257E+01  0.36219358614E+02  0.41800000000E+01 0. -1.
        -11    1    1    2    0    0  0.34306069461E+01 -0.35032249433E+02  0.28693658531E+02  0.45413143519E+02  0.00000000000E+00 0.  1.
         11    1    1    2    0    0  0.47338367426E+02  0.39554474539E+01 -0.49275967790E+02  0.68444777717E+02  0.00000000000E+00 0. -1.
</event>
<event>
 7    1  0.2989693E-009  0.1094385E+03  0.7561462E-02  0.1261613E+00
          3   -1    0    0  501    0  0.00000000000E+00  0.00000000000E+00  0.46749700810E+02  0.46749700810E+02  0.00000000000E+00 0. -1.
         -3   -1    0    0    0  501 -0.00000000000E+00 -0.00000000000E+00 -0.30814940581E+03  0.30814940581E+03  0.00000000000E+00 0.  1.
         25    2    1    2    0    0  0.23330617965E+02  0.21038148980E+02 -0.16755710352E+03  0.21144778364E+03  0.12509140985E+03 0.  0.
          5    1    3    3  502    0  0.40950621119E+01  0.63458794902E+02 -0.39157268647E+02  0.74796739715E+02  0.41800000000E+01 0.  1.
         -5    1    3    3    0  502  0.19235555854E+02 -0.42420645922E+02 -0.12839983488E+03  0.13665104393E+03  0.41800000000E+01 0.  1.
        -11    1    1    2    0    0  0.24078170895E+02 -0.48103474407E+02 -0.43282876855E+02  0.69044261113E+02  0.00000000000E+00 0. -1.
         11    1    1    2    0    0 -0.47408788861E+02  0.27065325428E+02 -0.50559724616E+02  0.74407061862E+02  0.00000000000E+00 0.  1.
</event>
<event>
 7    1  0.2989693E-009  0.1072516E+03  0.7561462E-02  0.1265746E+00
          3   -1    0    0  501    0  0.00000000000E+00  0.00000000000E+00  0.16748729373E+03  0.16748729373E+03  0.00000000000E+00 0. -1.
         -3   -1    0    0    0  501 -0.00000000000E+00 -0.00000000000E+00 -0.17878461413E+03  0.17878461413E+03  0.00000000000E+00 0.  1.
         25    2    1    2    0    0  0.40935042814E+02  0.12350815160E+02  0.12297361162E+03  0.18054905950E+03  0.12508890186E+03 0.  0.
          5    1    3    3  502    0 -0.33609991026E+02  0.40077891696E+02  0.45819529769E+02  0.69661830350E+02  0.41800000000E+01 0.  1.
         -5    1    3    3    0  502  0.74545033839E+02 -0.27727076537E+02  0.77154081847E+02  0.11088722915E+03  0.41800000000E+01 0.  1.
        -11    1    1    2    0    0 -0.60302387534E+02 -0.16627227151E+02 -0.52754949001E+02  0.81828645774E+02  0.00000000000E+00 0.  1.
         11    1    1    2    0    0  0.19367344720E+02  0.42764119919E+01 -0.81515983011E+02  0.83894202585E+02  0.00000000000E+00 0. -1.
</event>
<event>
 7    1  0.2989693E-009  0.1182929E+03  0.7561462E-02  0.1245940E+00
         -4   -1    0    0    0  501 -0.00000000000E+00  0.00000000000E+00  0.46320184236E+02  0.46320184236E+02  0.00000000000E+00 0.  1.
          4   -1    0    0  501    0  0.00000000000E+00 -0.00000000000E+00 -0.49945324117E+03  0.49945324117E+03  0.00000000000E+00 0. -1.
         25    2    1    2    0    0  0.10350196560E+03  0.23777173932E+02 -0.25400041797E+03  0.30239463497E+03  0.12509313350E+03 0.  0.
          5    1    3    3  502    0  0.90508469179E+02 -0.11740586524E+02 -0.71623155723E+02  0.11609036653E+03  0.41800000000E+01 0. -1.
         -5    1    3    3    0  502  0.12993496423E+02  0.35517760456E+02 -0.18237726224E+03  0.18630426844E+03  0.41800000000E+01 0. -1.
        -11    1    1    2    0    0 -0.43635434006E+02 -0.17366751684E+02 -0.17023465411E+03  0.17659414663E+03  0.00000000000E+00 0. -1.
         11    1    1    2    0    0 -0.59866531597E+02 -0.64104222478E+01 -0.28897984860E+02  0.66784643802E+02  0.00000000000E+00 0.  1.
</event>
<event>
 7    1  0.2989693E-009  0.3277357E+03  0.7561462E-02  0.1072143E+00
         -2   -1    0    0    0  501 -0.00000000000E+00  0.00000000000E+00  0.68828976627E+03  0.68828976627E+03  0.00000000000E+00 0.  1.
          2   -1    0    0  501    0  0.00000000000E+00 -0.00000000000E+00 -0.33261729523E+03  0.33261729523E+03  0.00000000000E+00 0. -1.
         25    2    1    2    0    0 -0.22181679334E+03 -0.23638967705E+03 -0.17765800001E+03  0.39024689986E+03  0.12509000222E+03 0.  0.
          5    1    3    3  502    0 -0.35989229056E+01 -0.21561797119E+02 -0.56816769416E+02  0.61020332906E+02  0.41800000000E+01 0.  1.
         -5    1    3    3    0  502 -0.21821787043E+03 -0.21482787993E+03 -0.12084123059E+03  0.32922656695E+03  0.41800000000E+01 0.  1.
        -11    1    1    2    0    0  0.16471834318E+03  0.14630475524E+03  0.42458830677E+03  0.47834343753E+03  0.00000000000E+00 0.  1.
         11    1    1    2    0    0  0.57098450162E+02  0.90084921817E+02  0.10874216428E+03  0.15231672410E+03  0.00000000000E+00 0. -1.
</event>
<event>
 7    1  0.2989693E-009  0.1226042E+03  0.7561462E-02  0.1238862E+00
         -1   -1    0    0    0  501 -0.00000000000E+00  0.00000000000E+00  0.15883534022E+03  0.15883534022E+03  0.00000000000E+00 0. -1.
          1   -1    0    0  501    0  0.00000000000E+00 -0.00000000000E+00 -0.14776053225E+03  0.14776053225E+03  0.00000000000E+00 0.  1.
         25    2    1    2    0    0 -0.10018495861E+02  0.85129592817E+02  0.72620337747E+02  0.16813475929E+03  0.12509262966E+03 0.  0.
          5    1    3    3  502    0 -0.51613612078E+02  0.85762857883E+02  0.76634519610E+02  0.12613308345E+03  0.41800000000E+01 0.  1.
         -5    1    3    3    0  502  0.41595116217E+02 -0.63326506548E+00 -0.40141818630E+01  0.42001675845E+02  0.41800000000E+01 0.  1.
        -11    1    1    2    0    0 -0.23997766318E+02 -0.29738354080E+02 -0.62724541635E+02  0.73448149159E+02  0.00000000000E+00 0.  1.
         11    1    1    2    0    0  0.34016262179E+02 -0.55391238737E+02  0.11790118663E+01  0.65012964018E+02  0.00000000000E+00 0. -1.
</event>
<event>
 7    1  0.2989693E-009  0.3199512E+03  0.7561462E-02  0.1075672E+00
         -1   -1    0    0    0  501 -0.00000000000E+00  0.00000000000E+00  0.16520186185E+03  0.16520186185E+03  0.00000000000E+00 0.  1.
          1   -1    0    0  501    0  0.00000000000E+00 -0.00000000000E+00 -0.69094779968E+03  0.69094779968E+03  0.00000000000E+00 0. -1.
         25    2    1    2    0    0  0.23906520697E+03  0.21217848714E+03 -0.25870654507E+03  0.42982320253E+03  0.12508807050E+03 0.  0.
          5    1    3    3  502    0  0.30062831102E+02  0.25626594063E+02 -0.10049091155E+03  0.10805735440E+03  0.41800000000E+01 0. -1.
         -5    1    3    3    0  502  0.20900237587E+03  0.18655189308E+03 -0.15821563353E+03  0.32176584813E+03  0.41800000000E+01 0. -1.
        -11    1    1    2    0    0 -0.13537412884E+02 -0.17072631677E+02  0.53536831552E+01  0.22436537685E+02  0.00000000000E+00 0. -1.
         11    1    1    2    0    0 -0.22552779408E+03 -0.19510585546E+03 -0.27239307591E+03  0.40388992132E+03  0.00000000000E+00 0.  1.
</event>
<event>
 7    1  0.2989693E-009  0.1568394E+03  0.7561462E-02  0.1192312E+00
         -2   -1    0    0    0  501 -0.00000000000E+00  0.00000000000E+00  0.22578626104E+02  0.22578626104E+02  0.00000000000E+00 0.  1.
          2   -1    0    0  501    0  0.00000000000E+00 -0.00000000000E+00 -0.14548196494E+04  0.14548196494E+04  0.00000000000E+00 0. -1.
         25    2    1    2    0    0 -0.77552120781E+02 -0.95370592868E+02 -0.10851877423E+04  0.10992677349E+04  0.12508891069E+03 0.  0.
          5    1    3    3  502    0 -0.10109652610E+03 -0.32201635558E+02 -0.58764465197E+03  0.59716091827E+03  0.41800000000E+01 0. -1.
         -5    1    3    3    0  502  0.23544405324E+02 -0.63168957310E+02 -0.49754309030E+03  0.50210681662E+03  0.41800000000E+01 0. -1.
        -11    1    1    2    0    0  0.42111678488E+01  0.57045993168E+02 -0.21340250401E+03  0.22093575534E+03  0.00000000000E+00 0.  1.
         11    1    1    2    0    0  0.73340952932E+02  0.38324599700E+02 -0.13365077702E+03  0.15719478527E+03  0.00000000000E+00 0. -1.
</event>
<event>
 7    1  0.2989693E-009  0.1152637E+03  0.7561462E-02  0.1251121E+00
         -2   -1    0    0    0  501 -0.00000000000E+00  0.00000000000E+00  0.25409627107E+02  0.25409627107E+02  0.00000000000E+00 0.  1.
          2   -1    0    0  501    0  0.00000000000E+00 -0.00000000000E+00 -0.58614713415E+03  0.58614713415E+03  0.00000000000E+00 0. -1.
         25    2    1    2    0    0 -0.20665254402E+02  0.45449767664E+02 -0.25672954995E+03  0.28991302664E+03  0.12508703803E+03 0.  0.
          5    1    3    3  502    0 -0.66203367741E+02  0.49790149700E+02 -0.12163521328E+03  0.14722276460E+03  0.41800000000E+01 0.  1.
         -5    1    3    3    0  502  0.45538113338E+02 -0.43403820358E+01 -0.13509433666E+03  0.14269026204E+03  0.41800000000E+01 0.  1.
        -11    1    1    2    0    0 -0.65985554107E+01  0.25133019723E+02 -0.46715736343E+02  0.53456240383E+02  0.00000000000E+00 0.  1.
         11    1    1    2    0    0  0.27263809813E+02 -0.70582787386E+02 -0.25729222076E+03  0.26818749423E+03  0.00000000000E+00 0. -1.
</event>
<event>
 7    1  0.2989693E-009  0.6623197E+02  0.7561462E-02  0.1373396E+00
         -2   -1    0    0    0  501 -0.00000000000E+00  0.00000000000E+00  0.12539173305E+02  0.12539173305E+02  0.00000000000E+00 0.  1.
          2   -1    0    0  501    0  0.00000000000E+00 -0.00000000000E+00 -0.12347947158E+04  0.12347947158E+04  0.00000000000E+00 0. -1.
         25    2    1    2    0    0 -0.12130362688E+02  0.27048841204E+02 -0.10044284063E+04  0.10126217577E+04  0.12509042858E+03 0.  0.
          5    1    3    3  502    0  0.12666460315E+02  0.49538402313E+01 -0.93917842615E+03  0.93928620148E+03  0.41800000000E+01 0. -1.
         -5    1    3    3    0  502 -0.24796823003E+02  0.22095000973E+02 -0.65249980116E+02  0.73335556207E+02  0.41800000000E+01 0. -1.
        -11    1    1    2    0    0  0.29484576454E+02 -0.48750715405E+02 -0.11712960352E+03  0.13025097513E+03  0.00000000000E+00 0.  1.
         11    1    1    2    0    0 -0.17354213766E+02  0.21701874201E+02 -0.10069753274E+03  0.10446115632E+03  0.00000000000E+00 0. -1.
</event>
<event>
 6    1  0.2989693E-009  0.8662469E+02  0.7561462E-02  0.1311238E+00
         -2   -1    0    0    0  501 -0.00000000000E+00  0.00000000000E+00  0.47035061640E+02  0.47035061640E+02  0.00000000000E+00 0.  1.
          2   -1    0    0  501    0  0.00000000000E+00 -0.00000000000E+00 -0.29591101341E+03  0.29591101341E+03  0.00000000000E+00 0. -1.
          5    1    1    2  502    0  0.38957442529E+02 -0.47682198702E+02 -0.12952367840E+03  0.14347518973E+03  0.41800000000E+01 0.  1.
         -5    1    1    2    0  502 -0.54885886334E+02  0.59989408375E+01 -0.26256528171E+02  0.61280710516E+02  0.41800000000E+01 0.  1.
        -11    1    1    2    0    0 -0.44135295622E+01  0.34208057027E+02 -0.10701306511E+03  0.11243427641E+03  0.00000000000E+00 0. -1.
         11    1    1    2    0    0  0.20341973367E+02  0.74752008372E+01  0.13917319915E+02  0.25755898385E+02  0.00000000000E+00 0.  1.
</event>
<event>
 6    1  0.3575599E-009  0.1107204E+03  0.7561462E-02  0.1259242E+00
         -3   -1    0    0    0  501 -0.00000000000E+00  0.00000000000E+00  0.23791535885E+02  0.23791535885E+02  0.00000000000E+00 0.  1.
          3   -1    0    0  501    0  0.00000000000E+00 -0.00000000000E+00 -0.54328945564E+03  0.54328945564E+03  0.00000000000E+00 0. -1.
          5    1    1    2  502    0 -0.69842120753E+02 -0.19009380270E+02 -0.14278310987E+03  0.16013671420E+03  0.41800000000E+01 0.  1.
         -5    1    1    2    0  502  0.55160762301E+02 -0.86057603241E+01 -0.10818838794E+03  0.12181530484E+03  0.41800000000E+01 0.  1.
        -11    1    1    2    0    0  0.51659463009E+02  0.13719225376E+02 -0.11864043612E+03  0.13012482602E+03  0.00000000000E+00 0.  1.
         11    1    1    2    0    0 -0.36978104557E+02  0.13895915219E+02 -0.14988598583E+03  0.15500414647E+03  0.00000000000E+00 0. -1.
</event>
<event>
 7    1  0.3032841E-009  0.1641154E+03  0.7561462E-02  0.1184127E+00
          1   -1    0    0  501    0  0.00000000000E+00  0.00000000000E+00  0.27367453698E+04  0.27367453698E+04  0.00000000000E+00 0. -1.
         -1   -1    0    0    0  501 -0.00000000000E+00 -0.00000000000E+00 -0.18509235830E+02  0.18509235830E+02  0.00000000000E+00 0.  1.
         25    2    1    2    0    0 -0.15944880111E+03  0.14818631297E+02  0.21103031588E+04  0.21200637739E+04  0.12508985299E+03 0.  0.
          5    1    3    3  502    0 -0.12689368382E+03  0.30374266393E+02  0.92098239307E+03  0.93018849907E+03  0.41800000000E+01 0.  1.
         -5    1    3    3    0  502 -0.32555117298E+02 -0.15555635096E+02  0.11893207658E+04  0.11898752749E+04  0.41800000000E+01 0.  1.
        -11    1    1    2    0    0  0.43286742104E+02 -0.12965186395E+02  0.60197016948E+02  0.75269641621E+02  0.00000000000E+00 0.  1.
         11    1    1    2    0    0  0.11616205901E+03 -0.18534449019E+01  0.54773595820E+03  0.55992119009E+03  0.00000000000E+00 0. -1.
</event>
<event>
 7    1  0.2989693E-009  0.1360823E+03  0.7561462E-02  0.1218700E+00
         -2   -1    0    0    0  501 -0.00000000000E+00  0.00000000000E+00  0.12195804027E+03  0.12195804027E+03  0.00000000000E+00 0.  1.
          2   -1    0    0  501    0  0.00000000000E+00 -0.00000000000E+00 -0.21715507495E+03  0.21715507495E+03  0.00000000000E+00 0. -1.
         25    2    1    2    0    0 -0.93831729697E+02  0.73724423447E+02 -0.94089380236E+02  0.19682353023E+03  0.12508799490E+03 0.  0.
          5    1    3    3  502    0 -0.53540236272E+02  0.76648468403E+02  0.81624871126E+00  0.93593179616E+02  0.41800000000E+01 0. -1.
         -5    1    3    3    0  502 -0.40291493425E+02 -0.29240449563E+01 -0.94905628947E+02  0.10323035061E+03  0.41800000000E+01 0. -1.
        -11    1    1    2    0    0 -0.11264693159E+02 -0.45835036301E+01 -0.10598632060E+02  0.16131733293E+02  0.00000000000E+00 0.  1.
         11    1    1    2    0    0  0.10509642286E+03 -0.69140919817E+02  0.94909776162E+01  0.12615785170E+03  0.00000000000E+00 0. -1.
</event>
<event>
 7    1  0.2989693E-009  0.2500837E+03  0.7561462E-02  0.1113252E+00
          1   -1    0    0  501    0  0.00000000000E+00  0.00000000000E+00  0.88570281192E+03  0.88570281192E+03  0.00000000000E+00 0. -1.
         -1   -1    0    0    0  501 -0.00000000000E+00 -0.00000000000E+00 -0.93580043069E+02  0.93580043069E+02  0.00000000000E+00 0.  1.
         25    2    1    2    0    0 -0.15181760711E+03 -0.17185812061E+03  0.63473346169E+03  0.68638038603E+03  0.12509063711E+03 0.  0.
          5    1    3    3  502    0 -0.84930954130E+02 -0.18632854905E+02  0.29720261573E+03  0.30968906576E+03  0.41800000000E+01 0. -1.
         -5    1    3    3    0  502 -0.66886652984E+02 -0.15322526571E+03  0.33753084596E+03  0.37669132028E+03  0.41800000000E+01 0. -1.
        -11    1    1    2    0    0  0.96859012625E+02  0.43366161491E+02  0.54064673479E+02  0.11910197818E+03  0.00000000000E+00 0.  1.
         11    1    1    2    0    0  0.54958594490E+02  0.12849195912E+03  0.10332463369E+03  0.17380049078E+03  0.00000000000E+00 0. -1.
</event>
<event>
 7    1  0.2989693E-009  0.9603454E+02  0.7561462E-02  0.1288863E+00
          2   -1    0    0  501    0  0.00000000000E+00  0.00000000000E+00  0.21838754156E+03  0.21838754156E+03  0.00000000000E+00 0. -1.
         -2   -1    0    0    0  501 -0.00000000000E+00 -0.00000000000E+00 -0.58327373749E+02  0.58327373749E+02  0.00000000000E+00 0.  1.
         25    2    1    2    0    0 -0.14314897762E+02 -0.23551770484E+02  0.11120546648E+03  0.16962548608E+03  0.12508616055E+03 0.  0.
          5    1    3    3  502    0 -0.65027544464E+02 -0.34034115123E+02  0.81590733295E+02  0.10982450861E+03  0.41800000000E+01 0.  1.
         -5    1    3    3    0  502  0.50712646702E+02  0.10482344640E+02  0.29614733186E+02  0.59800977470E+02  0.41800000000E+01 0.  1.
        -11    1    1    2    0    0  0.38227987446E+02  0.12173911661E+02 -0.11032069094E+02  0.41608769482E+02  0.00000000000E+00 0.  1.
         11    1    1    2    0    0 -0.23913089684E+02  0.11377858822E+02  0.59886770427E+02  0.65480659754E+02  0.00000000000E+00 0. -1.
</event>
<event>
 7    1  0.2989693E-009  0.8049918E+02  0.7561462E-02  0.1327641E+00
         -4   -1    0    0    0  501 -0.00000000000E+00  0.00000000000E+00  0.28353198661E+02  0.28353198661E+02  0.00000000000E+00 0.  1.
          4   -1    0    0  501    0  0.00000000000E+00 -0.00000000000E+00 -0.45142175916E+03  0.45142175916E+03  0.00000000000E+00 0. -1.
         25    2    1    2    0    0 -0.24379464401E+02  0.86531396428E+01 -0.30041364248E+03  0.32644184612E+03  0.12508671872E+03 0.  0.
          5    1    3    3  502    0  0.27377185433E+02  0.41996647849E+02 -0.60317639866E+02  0.78542464895E+02  0.41800000000E+01 0.  1.
         -5    1    3    3    0  502 -0.51756649834E+02 -0.33343508206E+02 -0.24009600261E+03  0.24789938122E+03  0.41800000000E+01 0.  1.
        -11    1    1    2    0    0  0.22994181850E+02 -0.24195646339E+02 -0.13131226541E+03  0.13548827532E+03  0.00000000000E+00 0. -1.
         11    1    1    2    0    0  0.13852825508E+01  0.15542506696E+02  0.86573473831E+01  0.17844836392E+02  0.00000000000E+00 0.  1.
</event>
<event>
 7    1  0.2989693E-009  0.9648177E+02  0.7561462E-02  0.1287873E+00
         -2   -1    0    0    0  501 -0.00000000000E+00  0.00000000000E+00  0.22554604361E+02  0.22554604361E+02  0.00000000000E+00 0.  1.
          2   -1    0    0  501    0  0.00000000000E+00 -0.00000000000E+00 -0.87655719816E+03  0.87655719816E+03  0.00000000000E+00 0. -1.
         25    2    1    2    0    0  0.30829973658E+02 -0.26004652818E+02 -0.73450792110E+03  0.74617220657E+03  0.12507736188E+03 0.  0.
          5    1    3    3  502    0  0.65078259204E+02  0.59073111361E+01 -0.22041383419E+03  0.22993435334E+03  0.41800000000E+01 0. -1.
         -5    1    3    3    0  502 -0.34248285546E+02 -0.31911963954E+02 -0.51409408692E+03  0.51623785323E+03  0.41800000000E+01 0. -1.
        -11    1    1    2    0    0 -0.49406495672E+02  0.11026745892E+01 -0.10977686503E+03  0.12038761482E+03  0.00000000000E+00 0. -1.
         11    1    1    2    0    0  0.18576522014E+02  0.24901978228E+02 -0.97178076698E+01  0.32551981134E+02  0.00000000000E+00 0.  1.
</event>
<event>
 7    1  0.2989693E-009  0.9734738E+02  0.7561462E-02  0.1285975E+00
         -3   -1    0    0    0  501 -0.00000000000E+00  0.00000000000E+00  0.30072904665E+03  0.30072904665E+03  0.00000000000E+00 0.  1.
          3   -1    0    0  501    0  0.00000000000E+00 -0.00000000000E+00 -0.59169801238E+02  0.59169801238E+02  0.00000000000E+00 0. -1.
         25    2    1    2    0    0 -0.42601398743E+02 -0.24533865619E+02  0.53689939769E+02  0.14473003092E+03  0.12508949788E+03 0.  0.
          5    1    3    3  502    0  0.14360456879E+02  0.21059442492E+02 -0.25968054844E+02  0.36626972469E+02  0.41800000000E+01 0.  1.
         -5    1    3    3    0  502 -0.56961855621E+02 -0.45593308111E+02  0.79657994612E+02  0.10810305845E+03  0.41800000000E+01 0.  1.
        -11    1    1    2    0    0  0.18584327609E+02 -0.30511986322E+02  0.31379057896E+02  0.47550013843E+02  0.00000000000E+00 0.  1.
         11    1    1    2    0    0  0.24017071134E+02  0.55045851941E+02  0.15649024775E+03  0.16761880313E+03  0.00000000000E+00 0. -1.
</event>
<event>
 7    1  0.2989693E-009  0.1086353E+03  0.7561462E-02  0.1263118E+00
          1   -1    0    0  501    0  0.00000000000E+00  0.00000000000E+00  0.43252944156E+03  0.43252944156E+03  0.00000000000E+00 0.  1.
         -1   -1    0    0    0  501 -0.00000000000E+00 -0.00000000000E+00 -0.34712506427E+02  0.34712506427E+02  0.00000000000E+00 0. -1.
         25    2    1    2    0    0 -0.81511735348E+01 -0.13889809992E+02  0.32723098365E+03  0.35069460452E+03  0.12508885051E+03 0.  0.
          5    1    3    3  502    0 -0.28859288099E+02  0.49920496108E+02  0.12856765803E+03  0.14096818625E+03  0.41800000000E+01 0. -1.
         -5    1    3    3    0  502  0.20708114564E+02 -0.63810306099E+02  0.19866332562E+03  0.20972641827E+03  0.41800000000E+01 0. -1.
        -11    1    1    2    0    0  0.47152863289E+02 -0.75205793931E+01  0.42566451148E+02  0.63967604254E+02  0.00000000000E+00 0. -1.
         11    1    1    2    0    0 -0.39001689754E+02  0.21410389385E+02  0.28019500327E+02  0.52579739214E+02  0.00000000000E+00 0.  1.
</event>
<event>
 7    1  0.3519857E-009  0.1043565E+03  0.7561462E-02  0.1271393E+00
          2   -1    0    0  501    0  0.00000000000E+00  0.00000000000E+00  0.88788494955E+03  0.88788494955E+03  0.00000000000E+00 0. -1.
         -2   -1    0    0    0  501 -0.00000000000E+00 -0.00000000000E+00 -0.18004611353E+02  0.18004611353E+02  0.00000000000E+00 0.  1.
         25    2    1    2    0    0 -0.42615573896E+02  0.45935089582E+02  0.54747977666E+03  0.56507109573E+03  0.12508044526E+03 0.  0.
          5    1    3    3  502    0  0.93196475173E+01  0.45811552455E+02  0.67173215907E+02  0.81946735771E+02  0.41800000000E+01 0.  1.
         -5    1    3    3    0  502 -0.51935221413E+02  0.12353712677E+00  0.48030656075E+03  0.48312435996E+03  0.41800000000E+01 0.  1.
        -11    1    1    2    0    0  0.65502040451E+02 -0.88534250650E+01  0.21443174588E+03  0.22438777613E+03  0.00000000000E+00 0.  1.
         11    1    1    2    0    0 -0.22886466555E+02 -0.37081664517E+02  0.10796881566E+03  0.11643068904E+03  0.00000000000E+00 0. -1.
</event>
<event>
 7    1  0.2989693E-009  0.1214592E+03  0.7561462E-02  0.1240709E+00
         -2   -1    0    0    0  501 -0.00000000000E+00  0.00000000000E+00  0.22154375490E+02  0.22154375490E+02  0.00000000000E+00 0.  1.
          2   -1    0    0  501    0  0.00000000000E+00 -0.00000000000E+00 -0.97262541657E+03  0.97262541657E+03  0.00000000000E+00 0. -1.
         25    2    1    2    0    0  0.57453885517E+02 -0.53680257085E+02 -0.72284332925E+03  0.73778807787E+03  0.12508497208E+03 0.  0.
          5    1    3    3  502    0  0.18163861759E+02  0.31435690090E+02 -0.77816298379E+02  0.85970792592E+02  0.41800000000E+01 0. -1.
         -5    1    3    3    0  502  0.39290023758E+02 -0.85115947175E+02 -0.64502703087E+03  0.65181728528E+03  0.41800000000E+01 0. -1.
        -11    1    1    2    0    0 -0.15085371119E+02  0.66561386889E+02 -0.17715107869E+03  0.18984333364E+03  0.00000000000E+00 0. -1.
         11    1    1    2    0    0 -0.42368514398E+02 -0.12881129804E+02 -0.50476633132E+02  0.67148380544E+02  0.00000000000E+00 0.  1.
</event>
<event>
 7    1  0.3009479E-009  0.2314484E+03  0.7561462E-02  0.1125624E+00
         -1   -1    0    0    0  501 -0.00000000000E+00  0.00000000000E+00  0.12839256327E+03  0.12839256327E+03  0.00000000000E+00 0.  1.
          1   -1    0    0  501    0  0.00000000000E+00 -0.00000000000E+00 -0.55108089291E+03  0.55108089291E+03  0.00000000000E+00 0. -1.
         25    2    1    2    0    0 -0.16041757596E+03 -0.14247958220E+03 -0.36093518269E+03  0.43812622368E+03  0.12508457839E+03 0.  0.
          5    1    3    3  502    0 -0.14251777424E+03 -0.16543261382E+03 -0.30800794866E+03  0.37757864681E+03  0.41800000000E+01 0.  1.
         -5    1    3    3    0  502 -0.17899801723E+02  0.22953031625E+02 -0.52927234024E+02  0.60547576863E+02  0.41800000000E+01 0.  1.
        -11    1    1    2    0    0  0.92824836461E+02  0.72314158254E+02  0.13225700934E+02  0.11840906601E+03  0.00000000000E+00 0.  1.
         11    1    1    2    0    0  0.67592739498E+02  0.70165423945E+02 -0.74978847887E+02  0.12293816649E+03  0.00000000000E+00 0. -1.
</event>
<event>
 7    1  0.2989693E-009  0.1337579E+03  0.7561462E-02  0.1221984E+00
         -1   -1    0    0    0  501 -0.00000000000E+00  0.00000000000E+00  0.27496122665E+02  0.27496122665E+02  0.00000000000E+00 0.  1.
          1   -1    0    0  501    0  0.00000000000E+00 -0.00000000000E+00 -0.78814297656E+03  0.78814297656E+03  0.00000000000E+00 0. -1.
         25    2    1    2    0    0  0.24491526965E+02 -0.85362601576E+02 -0.28529753326E+03  0.32392961386E+03  0.12509637730E+03 0.  0.
          5    1    3    3  502    0 -0.32125225550E+02  0.72325120480E+01 -0.24010502544E+02  0.40967254968E+02  0.41800000000E+01 0. -1.
         -5    1    3    3    0  502  0.56616752514E+02 -0.92595113624E+02 -0.26128703072E+03  0.28296235890E+03  0.41800000000E+01 0. -1.
        -11    1    1    2    0    0 -0.58097991154E+02  0.60709324937E+02 -0.30974994831E+03  0.32094552371E+03  0.00000000000E+00 0.  1.
         11    1    1    2    0    0  0.33606464189E+02  0.24653276639E+02 -0.16559937233E+03  0.17076396165E+03  0.00000000000E+00 0. -1.
</event>
<event>
 7    1  0.2989693E-009  0.1155357E+03  0.7561462E-02  0.1250649E+00
         -2   -1    0    0    0  501 -0.00000000000E+00  0.00000000000E+00  0.10859970964E+03  0.10859970964E+03  0.00000000000E+00 0.  1.
          2   -1    0    0  501    0  0.00000000000E+00 -0.00000000000E+00 -0.12867228019E+03  0.12867228019E+03  0.00000000000E+00 0. -1.
         25    2    1    2    0    0 -0.22526526528E+02 -0.58835034956E+02  0.33252778710E+00  0.14005612030E+03  0.12508637226E+03 0.  0.
          5    1    3    3  502    0  0.49853372858E+02 -0.28031789637E+02  0.16433494856E+02  0.59654607272E+02  0.41800000000E+01 0. -1.
         -5    1    3    3    0  502 -0.72379899386E+02 -0.30803245319E+02 -0.16100967069E+02  0.80401513032E+02  0.41800000000E+01 0. -1.
        -11    1    1    2    0    0  0.37958028559E+02  0.67362712708E+02 -0.14883778586E+02  0.78740547753E+02  0.00000000000E+00 0. -1.
         11    1    1    2    0    0 -0.15431502031E+02 -0.85276777523E+01 -0.55213197533E+01  0.18475321773E+02  0.00000000000E+00 0.  1.
</event>
<event>
 7    1  0.2989693E-009  0.1908742E+03  0.7561462E-02  0.1157675E+00
         -1   -1    0    0    0  501 -0.00000000000E+00  0.00000000000E+00  0.32039688072E+02  0.32039688072E+02  0.00000000000E+00 0.  1.
          1   -1    0    0  501    0  0.00000000000E+00 -0.00000000000E+00 -0.27404461601E+04  0.27404461601E+04  0.00000000000E+00 0. -1.
         25    2    1    2    0    0 -0.15187116778E+02  0.79177283784E+02 -0.21130846589E+04  0.21183185830E+04  0.12508857879E+03 0.  0.
          5    1    3    3  502    0 -0.50123766049E+02  0.46710635392E+02 -0.51954301742E+03  0.52405791162E+03  0.41800000000E+01 0. -1.
         -5    1    3    3    0  502  0.34936649271E+02  0.32466648392E+02 -0.15935416415E+04  0.15942606714E+04  0.41800000000E+01 0. -1.
        -11    1    1    2    0    0  0.69778023763E+02 -0.15605307732E+03 -0.44521392031E+03  0.47690352313E+03  0.00000000000E+00 0. -1.
         11    1    1    2    0    0 -0.54590906985E+02  0.76875793537E+02 -0.15010789275E+03  0.17726374199E+03  0.00000000000E+00 0.  1.
</event>
<event>
 7    1  0.2989693E-009  0.1444211E+03  0.7561462E-02  0.1207501E+00
          3   -1    0    0  501    0  0.00000000000E+00  0.00000000000E+00  0.22181979343E+02  0.22181979343E+02  0.00000000000E+00 0. -1.
         -3   -1    0    0    0  501 -0.00000000000E+00 -0.00000000000E+00 -0.98926305146E+03  0.98926305146E+03  0.00000000000E+00 0.  1.
         25    2    1    2    0    0  0.95989304710E+02 -0.63155062675E+01 -0.41729622202E+03  0.44614034355E+03  0.12510490396E+03 0.  0.
          5    1    3    3  502    0  0.40435509207E+02 -0.64856517038E+02 -0.18605956944E+03  0.20118905036E+03  0.41800000000E+01 0.  1.
         -5    1    3    3    0  502  0.55553795504E+02  0.58541010771E+02 -0.23123665258E+03  0.24495129319E+03  0.41800000000E+01 0.  1.
        -11    1    1    2    0    0 -0.50469633262E+01  0.35591484753E+02 -0.15843469120E+03  0.16246161701E+03  0.00000000000E+00 0.  1.
         11    1    1    2    0    0 -0.90942341384E+02 -0.29275978486E+02 -0.39135015889E+03  0.40284307024E+03  0.00000000000E+00 0. -1.
</event>
<event>
 7    1  0.2989693E-009  0.1382949E+03  0.7561462E-02  0.1215642E+00
         -1   -1    0    0    0  501 -0.00000000000E+00  0.00000000000E+00  0.25187339796E+03  0.25187339796E+03  0.00000000000E+00 0. -1.
          1   -1    0    0  501    0  0.00000000000E+00 -0.00000000000E+00 -0.11207656614E+03  0.11207656614E+03  0.00000000000E+00 0.  1.
         25    2    1    2    0    0  0.16730238834E+02 -0.11714758820E+03  0.22022638390E+02  0.17359543675E+03  0.12508765226E+03 0.  0.
          5    1    3    3  502    0 -0.39824141320E+02 -0.18178614737E+02 -0.24578521294E+02  0.50378570589E+02  0.41800000000E+01 0. -1.
         -5    1    3    3    0  502  0.56554380154E+02 -0.98968973461E+02  0.46601159684E+02  0.12321686616E+03  0.41800000000E+01 0. -1.
        -11    1    1    2    0    0 -0.13320595695E+02  0.68554515983E+02  0.80448093291E+01  0.70298498479E+02  0.00000000000E+00 0. -1.
         11    1    1    2    0    0 -0.34096431392E+01  0.48593072215E+02  0.10972938410E+03  0.12005602887E+03  0.00000000000E+00 0.  1.
</event>
<event>
 7    1  0.2989693E-009  0.1476595E+03  0.7561462E-02  0.1203379E+00
          2   -1    0    0  501    0  0.00000000000E+00  0.00000000000E+00  0.40862409010E+02  0.40862409010E+02  0.00000000000E+00 0.  1.
         -2   -1    0    0    0  501 -0.00000000000E+00 -0.00000000000E+00 -0.59273879230E+03  0.59273879230E+03  0.00000000000E+00 0. -1.
         25    2    1    2    0    0 -0.10183576024E+03  0.35025167562E+02 -0.23592733533E+03  0.28793625994E+03  0.12509315652E+03 0.  0.
          5    1    3    3  502    0 -0.36266909564E+02 -0.43010125756E+02 -0.47847822237E+02  0.73973279904E+02  0.41800000000E+01 0. -1.
         -5    1    3    3    0  502 -0.65568850675E+02  0.78035293318E+02 -0.18807951309E+03  0.21396298004E+03  0.41800000000E+01 0. -1.
        -11    1    1    2    0    0  0.92391407326E+02  0.81000701926E+01 -0.17634701868E+03  0.19924872467E+03  0.00000000000E+00 0.  1.
         11    1    1    2    0    0  0.94443529135E+01 -0.43125237754E+02 -0.13960202928E+03  0.14641621670E+03  0.00000000000E+00 0. -1.
</event>
<event>
 7    1  0.2989693E-009  0.1379257E+03  0.7561462E-02  0.1216148E+00
          1   -1    0    0  501    0  0.00000000000E+00  0.00000000000E+00  0.14486910553E+03  0.14486910553E+03  0.00000000000E+00 0. -1.
         -1   -1    0    0    0  501 -0.00000000000E+00 -0.00000000000E+00 -0.19991600592E+03  0.19991600592E+03  0.00000000000E+00 0.  1.
         25    2    1    2    0    0  0.73249290610E+02  0.22469798554E+02  0.23546177230E+01  0.14669541281E+03  0.12507457572E+03 0.  0.
          5    1    3    3  502    0  0.23166949379E+02 -0.10984280877E+02 -0.56622014186E+02  0.62296764446E+02  0.41800000000E+01 0. -1.
         -5    1    3    3    0  502  0.50082341231E+02  0.33454079430E+02  0.58976631909E+02  0.84398648361E+02  0.41800000000E+01 0. -1.
        -11    1    1    2    0    0 -0.11908385777E+03 -0.57089378509E+02 -0.37191999530E+02  0.13719842254E+03  0.00000000000E+00 0. -1.
         11    1    1    2    0    0  0.45834567158E+02  0.34619579955E+02 -0.20209518584E+02  0.60891276093E+02  0.00000000000E+00 0.  1.
</event>
<event>
 7    1  0.2989693E-009  0.1353468E+03  0.7561462E-02  0.1219731E+00
         -2   -1    0    0    0  501 -0.00000000000E+00  0.00000000000E+00  0.31798086368E+03  0.31798086368E+03  0.00000000000E+00 0.  1.
          2   -1    0    0  501    0  0.00000000000E+00 -0.00000000000E+00 -0.84359723339E+02  0.84359723339E+02  0.00000000000E+00 0. -1.
         25    2    1    2    0    0  0.27057189269E+02 -0.97457060518E+02  0.20690837073E+03  0.26208280457E+03  0.12508538058E+03 0.  0.
          5    1    3    3  502    0  0.51194700094E+02 -0.19067328763E+02  0.20704640627E+02  0.58571451129E+02  0.41800000000E+01 0. -1.
         -5    1    3    3    0  502 -0.24137510826E+02 -0.78389731754E+02  0.18620373010E+03  0.20351135344E+03  0.41800000000E+01 0. -1.
        -11    1    1    2    0    0  0.25240086767E+02  0.70618745657E+02  0.31372733062E+02  0.81291559205E+02  0.00000000000E+00 0. -1.
         11    1    1    2    0    0 -0.52297276035E+02  0.26838314861E+02 -0.46599634464E+01  0.58966223252E+02  0.00000000000E+00 0.  1.
</event>
<event>
 7    1  0.2989693E-009  0.1703707E+03  0.7561462E-02  0.1177462E+00
          4   -1    0    0  501    0  0.00000000000E+00  0.00000000000E+00  0.87247990606E+03  0.87247990606E+03  0.00000000000E+00 0. -1.
         -4   -1    0    0    0  501 -0.00000000000E+00 -0.00000000000E+00 -0.44176336939E+02  0.44176336939E+02  0.00000000000E+00 0.  1.
         25    2    1    2    0    0 -0.92964651613E+02  0.11215287319E+03  0.39094972250E+03  0.43555723691E+03  0.12509087770E+03 0.  0.
          5    1    3    3  502    0  0.10996081141E+02  0.26087637337E+02  0.19797584015E+03  0.20003345797E+03  0.41800000000E+01 0. -1.
         -5    1    3    3    0  502 -0.10396073275E+03  0.86065235855E+02  0.19297388235E+03  0.23552377894E+03  0.41800000000E+01 0. -1.
        -11    1    1    2    0    0  0.45487282870E+01 -0.84263029451E+02  0.32322819513E+03  0.33406199303E+03  0.00000000000E+00 0.  1.
         11    1    1    2    0    0  0.88415923326E+02 -0.27889843741E+02  0.11412565148E+03  0.14703701305E+03  0.00000000000E+00 0. -1.
</event>
<event>
 7    1  0.2989693E-009  0.9976684E+02  0.7561462E-02  0.1280787E+00
         -2   -1    0    0    0  501 -0.00000000000E+00  0.00000000000E+00  0.31710875975E+02  0.31710875975E+02  0.00000000000E+00 0.  1.
          2   -1    0    0  501    0  0.00000000000E+00 -0.00000000000E+00 -0.94694564702E+03  0.94694564702E+03  0.00000000000E+00 0. -1.
         25    2    1    2    0    0  0.53311961696E+02  0.31423727598E+02 -0.82102899581E+03  0.83280626787E+03  0.12509217376E+03 0.  0.
          5    1    3    3  502    0 -0.73739884922E+01  0.30978919224E+02 -0.65823440896E+03  0.65901751015E+03  0.41800000000E+01 0. -1.
         -5    1    3    3    0  502  0.60685950188E+02  0.44480837399E+00 -0.16279458684E+03  0.17378875772E+03  0.41800000000E+01 0. -1.
        -11    1    1    2    0    0 -0.31661786372E+02  0.28667821222E+02 -0.59243138662E+02  0.73034664156E+02  0.00000000000E+00 0. -1.
         11    1    1    2    0    0 -0.21650175324E+02 -0.60091548820E+02 -0.34962636571E+02  0.72815590962E+02  0.00000000000E+00 0.  1.
</event>
<event>
 7    1  0.2989693E-009  0.1130755E+03  0.7561462E-02  0.1254978E+00
          3   -1    0    0  501    0  0.00000000000E+00  0.00000000000E+00  0.10143454774E+03  0.10143454774E+03  0.00000000000E+00 0. -1.
         -3   -1    0    0    0  501 -0.00000000000E+00 -0.00000000000E+00 -0.12958451919E+03  0.12958451919E+03  0.00000000000E+00 0.  1.
         25    2    1    2    0    0  0.69021993847E+01  0.39485206530E+02 -0.24036304401E+02  0.13353475486E+03  0.12508822860E+03 0.  0.
          5    1    3    3  502    0  0.62437955485E+02  0.18296961986E+01 -0.21725004107E+02  0.66266841458E+02  0.41800000000E+01 0. -1.
         -5    1    3    3    0  502 -0.55535756100E+02  0.37655510331E+02 -0.23113002948E+01  0.67267913399E+02  0.41800000000E+01 0. -1.
        -11    1    1    2    0    0  0.38512996697E+02 -0.40710446221E+01  0.54356093585E+01  0.39107162618E+02  0.00000000000E+00 0.  1.
         11    1    1    2    0    0 -0.45415196082E+02 -0.35414161908E+02 -0.95492764113E+01  0.58377149457E+02  0.00000000000E+00 0. -1.
</event>
<event>
 7    1  0.2989693E-009  0.1519716E+03  0.7561462E-02  0.1198071E+00
          1   -1    0    0  501    0  0.00000000000E+00  0.00000000000E+00  0.16928280377E+03  0.16928280377E+03  0.00000000000E+00 0. -1.
         -1   -1    0    0    0  501 -0.00000000000E+00 -0.00000000000E+00 -0.15787051050E+03  0.15787051050E+03  0.00000000000E+00 0.  1.
         25    2    1    2    0    0  0.11752409195E+03  0.21166208558E+02 -0.18402109891E+02  0.17391424810E+03  0.12509039720E+03 0.  0.
          5    1    3    3  502    0  0.13995134105E+03  0.37108006629E+02 -0.18918336957E+02  0.14607791719E+03  0.41800000000E+01 0. -1.
         -5    1    3    3    0  502 -0.22427249105E+02 -0.15941798071E+02  0.51622706655E+00  0.27836330910E+02  0.41800000000E+01 0. -1.
        -11    1    1    2    0    0 -0.11816197141E+03 -0.83765949781E+01 -0.24947207243E+01  0.11848477735E+03  0.00000000000E+00 0.  1.
         11    1    1    2    0    0  0.63787946341E+00 -0.12789613580E+02  0.32309123885E+02  0.34754288828E+02  0.00000000000E+00 0. -1.
</event>
<event>
 7    1  0.4051332E-009  0.1806753E+03  0.7561462E-02  0.1167151E+00
          1   -1    0    0  501    0  0.00000000000E+00  0.00000000000E+00  0.12298278271E+04  0.12298278271E+04  0.00000000000E+00 0. -1.
         -1   -1    0    0    0  501 -0.00000000000E+00 -0.00000000000E+00 -0.32558670273E+02  0.32558670273E+02  0.00000000000E+00 0.  1.
         25    2    1    2    0    0  0.12149741678E+03 -0.95055990069E+02  0.83427887779E+03  0.85759485496E+03  0.12510166181E+03 0.  0.
          5    1    3    3  502    0  0.60017644807E+00 -0.76037090581E+02  0.31702144320E+03  0.32603997792E+03  0.41800000000E+01 0.  1.
         -5    1    3    3    0  502  0.12089724033E+03 -0.19018899488E+02  0.51725743460E+03  0.53155487704E+03  0.41800000000E+01 0.  1.
        -11    1    1    2    0    0 -0.42864845582E+02  0.66431299952E+02  0.92653751208E+02  0.12179995982E+03  0.00000000000E+00 0.  1.
         11    1    1    2    0    0 -0.78632571199E+02  0.28624690117E+02  0.27033652781E+03  0.28299168257E+03  0.00000000000E+00 0. -1.
</event>
<event>
 7    1  0.2989693E-009  0.1910840E+03  0.7561462E-02  0.1157487E+00
         -1   -1    0    0    0  501 -0.00000000000E+00  0.00000000000E+00  0.17723682904E+03  0.17723682904E+03  0.00000000000E+00 0.  1.
          1   -1    0    0  501    0  0.00000000000E+00 -0.00000000000E+00 -0.22306210237E+03  0.22306210237E+03  0.00000000000E+00 0. -1.
         25    2    1    2    0    0  0.10605389858E+03  0.12597120990E+03 -0.47495803385E+01  0.20684739319E+03  0.12508841045E+03 0.  0.
          5    1    3    3  502    0  0.10840808470E+03  0.46573798650E+02  0.27154043250E+02  0.12114555714E+03  0.41800000000E+01 0.  1.
         -5    1    3    3    0  502 -0.23541861215E+01  0.79397411246E+02 -0.31903623589E+02  0.85701836053E+02  0.41800000000E+01 0.  1.
        -11    1    1    2    0    0 -0.55773964642E+02 -0.80273059466E+01  0.64413531184E+01  0.56715639841E+02  0.00000000000E+00 0.  1.
         11    1    1    2    0    0 -0.50279933937E+02 -0.11794390395E+03 -0.47517046108E+02  0.13673589838E+03  0.00000000000E+00 0. -1.
</event>
<event>
 7    1  0.2989693E-009  0.1555474E+03  0.7561462E-02  0.1193817E+00
          2   -1    0    0  501    0  0.00000000000E+00  0.00000000000E+00  0.95791876760E+03  0.95791876760E+03  0.00000000000E+00 0. -1.
         -2   -1    0    0    0  501 -0.00000000000E+00 -0.00000000000E+00 -0.32668763063E+02  0.32668763063E+02  0.00000000000E+00 0.  1.
         25    2    1    2    0    0 -0.72881834232E+02 -0.88321018162E+02  0.71150815204E+03  0.73143967177E+03  0.12509108281E+03 0.  0.
          5    1    3    3  502    0 -0.94076125549E+01 -0.99742419551E+02  0.34497899937E+03  0.35925622589E+03  0.41800000000E+01 0. -1.
         -5    1    3    3    0  502 -0.63474221677E+02  0.11421401389E+02  0.36652915267E+03  0.37218344588E+03  0.41800000000E+01 0. -1.
        -11    1    1    2    0    0  0.94103448939E+02  0.63435003909E+02  0.15829218500E+03  0.19477133941E+03  0.00000000000E+00 0.  1.
         11    1    1    2    0    0 -0.21221614707E+02  0.24886014253E+02  0.55449667488E+02  0.64376519483E+02  0.00000000000E+00 0. -1.
</event>
<event>
 7    1  0.2989693E-009  0.3237798E+03  0.7561462E-02  0.1073923E+00
         -1   -1    0    0    0  501 -0.00000000000E+00  0.00000000000E+00  0.33171970529E+03  0.33171970529E+03  0.00000000000E+00 0.  1.
          1   -1    0    0  501    0  0.00000000000E+00 -0.00000000000E+00 -0.43377834880E+03  0.43377834880E+03  0.00000000000E+00 0. -1.
         25    2    1    2    0    0 -0.97834691763E+01  0.31440712827E+03  0.13414471480E+03  0.36413067714E+03  0.12509511161E+03 0.  0.
          5    1    3    3  502    0 -0.54057364946E+02  0.10414071650E+03  0.81305027827E+02  0.14281270073E+03  0.41800000000E+01 0. -1.
         -5    1    3    3    0  502  0.44273895770E+02  0.21026641177E+03  0.52839686977E+02  0.22131797642E+03  0.41800000000E+01 0. -1.
        -11    1    1    2    0    0 -0.53564880216E+01 -0.15888456696E+03 -0.71432194141E+02  0.17428584550E+03  0.00000000000E+00 0. -1.
         11    1    1    2    0    0  0.15139957198E+02 -0.15552256131E+03 -0.16477116418E+03  0.22708153145E+03  0.00000000000E+00 0.  1.
</event>
<event>
 7    1  0.2989693E-009  0.1358046E+03  0.7561462E-02  0.1219088E+00
          2   -1    0    0  501    0  0.00000000000E+00  0.00000000000E+00  0.15291980654E+04  0.15291980654E+04  0.00000000000E+00 0. -1.
         -2   -1    0    0    0  501 -0.00000000000E+00 -0.00000000000E+00 -0.17359401481E+02  0.17359401481E+02  0.00000000000E+00 0.  1.
         25    2    1    2    0    0 -0.21603498913E+00  0.12036066216E+03  0.73461860718E+03  0.75484887404E+03  0.12508232871E+03 0.  0.
          5    1    3    3  502    0 -0.50278764351E+00  0.10649944081E+03  0.27395629292E+03  0.29395902184E+03  0.41800000000E+01 0.  1.
         -5    1    3    3    0  502  0.28675265439E+00  0.13861221350E+02  0.46066231426E+03  0.46088985220E+03  0.41800000000E+01 0.  1.
        -11    1    1    2    0    0  0.25534932106E+02  0.19812581996E+01  0.11677110364E+03  0.11954684767E+03  0.00000000000E+00 0.  1.
         11    1    1    2    0    0 -0.25318897117E+02 -0.12234192036E+03  0.66044895311E+03  0.67216174519E+03  0.00000000000E+00 0. -1.
</event>
<event>
 7    1  0.2989693E-009  0.9658566E+02  0.7561462E-02  0.1287644E+00
          3   -1    0    0  501    0  0.00000000000E+00  0.00000000000E+00  0.69451600354E+02  0.69451600354E+02  0.00000000000E+00 0. -1.
         -3   -1    0    0    0  501 -0.00000000000E+00 -0.00000000000E+00 -0.19546092328E+03  0.19546092328E+03  0.00000000000E+00 0.  1.
         25    2    1    2    0    0  0.10790601215E+02  0.38518161871E+02 -0.54938314130E+02  0.14236120987E+03  0.12509360434E+03 0.  0.
          5    1    3    3  502    0  0.59152256495E+02  0.47470333043E+02 -0.11927329637E+02  0.76890542721E+02  0.41800000000E+01 0.  1.
         -5    1    3    3    0  502 -0.48361655279E+02 -0.89521711716E+01 -0.43010984493E+02  0.65470667151E+02  0.41800000000E+01 0.  1.
        -11    1    1    2    0    0 -0.32986363833E+02 -0.17772528416E+02  0.75869196350E+01  0.38229887715E+02  0.00000000000E+00 0. -1.
         11    1    1    2    0    0  0.22195762617E+02 -0.20745633455E+02 -0.78657928435E+02  0.84321426052E+02  0.00000000000E+00 0.  1.
</event>
<event>
 7    1  0.2989693E-009  0.6101884E+02  0.7561462E-02  0.1393605E+00
          1   -1    0    0  501    0  0.00000000000E+00  0.00000000000E+00  0.43613529024E+03  0.43613529024E+03  0.00000000000E+00 0. -1.
         -1   -1    0    0    0  501 -0.00000000000E+00 -0.00000000000E+00 -0.30433843889E+02  0.30433843889E+02  0.00000000000E+00 0.  1.
         25    2    1    2    0    0 -0.29934504817E+02  0.16709526382E+02  0.17913181309E+03  0.22115697209E+03  0.12508763724E+03 0.  0.
          5    1    3    3  502    0 -0.39380758169E+02  0.22982443230E+02  0.19551144682E+03  0.20080148169E+03  0.41800000000E+01 0. -1.
         -5    1    3    3    0  502  0.94462533529E+01 -0.62729168483E+01 -0.16379633729E+02  0.20355490397E+02  0.41800000000E+01 0. -1.
        -11    1    1    2    0    0  0.44631533281E+02 -0.41352196458E+01  0.22069054660E+03  0.22519633915E+03  0.00000000000E+00 0. -1.
         11    1    1    2    0    0 -0.14697028464E+02 -0.12574306736E+02  0.58790866588E+01  0.20215822900E+02  0.00000000000E+00 0.  1.
</event>
<event>
 7    1  0.2989693E-009  0.7364856E+02  0.7561462E-02  0.1348108E+00
          3   -1    0    0  501    0  0.00000000000E+00  0.00000000000E+00  0.76489268284E+02  0.76489268284E+02  0.00000000000E+00 0. -1.
         -3   -1    0    0    0  501 -0.00000000000E+00 -0.00000000000E+00 -0.17066202495E+03  0.17066202495E+03  0.00000000000E+00 0.  1.
         25    2    1    2    0    0  0.21958654632E+02 -0.99633303819E+01 -0.68676525425E+02  0.14471948152E+03  0.12508322318E+03 0.  0.
          5    1    3    3  502    0  0.46496221640E+02 -0.41481954502E+02  0.30380071981E+01  0.62524819582E+02  0.41800000000E+01 0.  1.
         -5    1    3    3    0  502 -0.24537567008E+02  0.31518624120E+02 -0.71714532623E+02  0.82194661934E+02  0.41800000000E+01 0.  1.
        -11    1    1    2    0    0 -0.24233572445E+02  0.21821034874E+02 -0.58672988017E+02  0.67126322104E+02  0.00000000000E+00 0.  1.
         11    1    1    2    0    0  0.22749178129E+01 -0.11857704492E+02  0.33176756775E+02  0.35305489615E+02  0.00000000000E+00 0. -1.
</event>
<event>
 7    1  0.2989693E-009  0.1520175E+03  0.7561462E-02  0.1198016E+00
         -1   -1    0    0    0  501 -0.00000000000E+00  0.00000000000E+00  0.41220313035E+02  0.41220313035E+02  0.00000000000E+00 0.  1.
          1   -1    0    0  501    0  0.00000000000E+00 -0.00000000000E+00 -0.60060246884E+03  0.60060246884E+03  0.00000000000E+00 0. -1.
         25    2    1    2    0    0  0.51419501549E+02 -0.10071394309E+03 -0.26509680393E+03  0.31418591294E+03  0.12509679837E+03 0.  0.
          5    1    3    3  502    0 -0.31083389417E+02  0.73548786111E+01 -0.59565898845E+02  0.67718830780E+02  0.41800000000E+01 0. -1.
         -5    1    3    3    0  502  0.82502890966E+02 -0.10806882170E+03 -0.20553090509E+03  0.24646708216E+03  0.41800000000E+01 0. -1.
        -11    1    1    2    0    0 -0.61923443872E+02  0.38973225891E+02 -0.10286982379E+03  0.12623638890E+03  0.00000000000E+00 0.  1.
         11    1    1    2    0    0  0.10503942322E+02  0.61740717201E+02 -0.19141552808E+03  0.20140048003E+03  0.00000000000E+00 0. -1.
</event>
<event>
 7    1  0.2989693E-009  0.1215995E+03  0.7561462E-02  0.1240481E+00
          1   -1    0    0  501    0  0.00000000000E+00  0.00000000000E+00  0.82520875913E+02  0.82520875913E+02  0.00000000000E+00 0. -1.
         -1   -1    0    0    0  501 -0.00000000000E+00 -0.00000000000E+00 -0.22483017291E+03  0.22483017291E+03  0.00000000000E+00 0.  1.
         25    2    1    2    0    0 -0.29441919140E+02 -0.50611958196E+02 -0.15392109302E+02  0.13897017953E+03  0.12508955533E+03 0.  0.
          5    1    3    3  502    0 -0.72677559957E+02 -0.63345140424E+01 -0.22693346809E+02  0.76515450589E+02  0.41800000000E+01 0. -1.
         -5    1    3    3    0  502  0.43235640817E+02 -0.44277444153E+02  0.73012375068E+01  0.62454728938E+02  0.41800000000E+01 0. -1.
        -11    1    1    2    0    0  0.27494910261E+02  0.76937242479E+02 -0.11001886835E+03  0.13703817265E+03  0.00000000000E+00 0.  1.
         11    1    1    2    0    0  0.19470088792E+01 -0.26325284283E+02 -0.16898319339E+02  0.31342696640E+02  0.00000000000E+00 0. -1.
</event>
<event>
 7    1  0.2989693E-009  0.9913412E+02  0.7561462E-02  0.1282127E+00
          2   -1    0    0  501    0  0.00000000000E+00  0.00000000000E+00  0.11079612769E+03  0.11079612769E+03  0.00000000000E+00 0.  1.
         -2   -1    0    0    0  501 -0.00000000000E+00 -0.00000000000E+00 -0.15980146821E+03  0.15980146821E+03  0.00000000000E+00 0. -1.
         25    2    1    2    0    0 -0.32705354392E+02 -0.33047721113E+02  0.36040813404E+02  0.13823626355E+03  0.12509409360E+03 0.  0.
          5    1    3    3  502    0 -0.66329259697E+02  0.19452336319E+02  0.29974949584E+02  0.75458161141E+02  0.41800000000E+01 0.  1.
         -5    1    3    3    0  502  0.33623905305E+02 -0.52500057432E+02  0.60658638193E+01  0.62778102410E+02  0.41800000000E+01 0.  1.
        -11    1    1    2    0    0 -0.12033212668E+02  0.23058035531E+01  0.14496080973E+02  0.18980287160E+02  0.00000000000E+00 0.  1.
         11    1    1    2    0    0  0.44738567059E+02  0.30741917559E+02 -0.99542234896E+02  0.11338104518E+03  0.00000000000E+00 0. -1.
</event>
<event>
 7    1  0.2989693E-009  0.1051092E+03  0.7561462E-02  0.1269905E+00
         -1   -1    0    0    0  501 -0.00000000000E+00  0.00000000000E+00  0.63860941510E+03  0.63860941510E+03  0.00000000000E+00 0.  1.
          1   -1    0    0  501    0  0.00000000000E+00 -0.00000000000E+00 -0.23467697452E+02  0.23467697452E+02  0.00000000000E+00 0. -1.
         25    2    1    2    0    0 -0.29778870821E+02  0.44137964599E+02  0.40547845081E+03  0.42766258835E+03  0.12509026475E+03 0.  0.
          5    1    3    3  502    0 -0.56146882060E+02  0.75595118555E+02  0.26581007727E+03  0.28202759421E+03  0.41800000000E+01 0.  1.
         -5    1    3    3    0  502  0.26368011239E+02 -0.31457153956E+02  0.13966837354E+03  0.14563499414E+03  0.41800000000E+01 0.  1.
        -11    1    1    2    0    0  0.39341211748E+02 -0.11939237543E+02  0.19221818386E+03  0.19656578171E+03  0.00000000000E+00 0.  1.
         11    1    1    2    0    0 -0.95623409273E+01 -0.32198727057E+02  0.17445082980E+02  0.37848742493E+02  0.00000000000E+00 0. -1.
</event>
<event>
 7    1  0.2989693E-009  0.1321523E+03  0.7561462E-02  0.1224297E+00
         -2   -1    0    0    0  501 -0.00000000000E+00  0.00000000000E+00  0.39055007356E+02  0.39055007356E+02  0.00000000000E+00 0.  1.
          2   -1    0    0  501    0  0.00000000000E+00 -0.00000000000E+00 -0.11426999747E+04  0.11426999747E+04  0.00000000000E+00 0. -1.
         25    2    1    2    0    0  0.12804540239E+02 -0.86528255766E+02 -0.10173109401E+04  0.10286979815E+04  0.12508754121E+03 0.  0.
          5    1    3    3  502    0 -0.26464310859E+02  0.15404953305E+02 -0.94276366683E+02  0.99212791768E+02  0.41800000000E+01 0. -1.
         -5    1    3    3    0  502  0.39268851098E+02 -0.10193320907E+03 -0.92303457341E+03  0.92948518971E+03  0.41800000000E+01 0. -1.
        -11    1    1    2    0    0  0.36868671384E+02  0.51351932597E+02 -0.29422788176E+02  0.69728189243E+02  0.00000000000E+00 0. -1.
         11    1    1    2    0    0 -0.49673211623E+02  0.35176323169E+02 -0.56911239059E+02  0.83328811319E+02  0.00000000000E+00 0.  1.
</event>
<event>
 7    1  0.2989693E-009  0.1484174E+03  0.7561462E-02  0.1202431E+00
         -2   -1    0    0    0  501 -0.00000000000E+00  0.00000000000E+00  0.15567465524E+03  0.15567465524E+03  0.00000000000E+00 0.  1.
          2   -1    0    0  501    0  0.00000000000E+00 -0.00000000000E+00 -0.18190488723E+03  0.18190488723E+03  0.00000000000E+00 0. -1.
         25    2    1    2    0    0  0.10937943056E+03 -0.64680542435E+02 -0.31625324826E+02  0.18109400526E+03  0.12508974847E+03 0.  0.
          5    1    3    3  502    0 -0.72064823479E+01 -0.36759086666E+02  0.28175656604E+02  0.47058515333E+02  0.41800000000E+01 0. -1.
         -5    1    3    3    0  502  0.11658591291E+03 -0.27921455769E+02 -0.59800981430E+02  0.13403548993E+03  0.41800000000E+01 0. -1.
        -11    1    1    2    0    0 -0.64995998410E+02  0.55209412258E+01  0.38185077879E+02  0.75584791948E+02  0.00000000000E+00 0. -1.
         11    1    1    2    0    0 -0.44383432149E+02  0.59159601209E+02 -0.32789985045E+02  0.80900745261E+02  0.00000000000E+00 0.  1.
</event>
<event>
 7    1  0.2989693E-009  0.3073395E+03  0.7561462E-02  0.1081628E+00
          2   -1    0    0  501    0  0.00000000000E+00  0.00000000000E+00  0.51942804350E+03  0.51942804350E+03  0.00000000000E+00 0. -1.
         -2   -1    0    0    0  501 -0.00000000000E+00 -0.00000000000E+00 -0.20492463054E+03  0.20492463054E+03  0.00000000000E+00 0.  1.
         25    2    1    2    0    0 -0.27998819134E+03  0.12444283159E+03  0.12750270341E+03  0.35465995875E+03  0.12508933343E+03 0.  0.
          5    1    3    3  502    0 -0.12845038453E+03  0.47150898257E+02 -0.80128245317E+01  0.13712908608E+03  0.41800000000E+01 0. -1.
         -5    1    3    3    0  502 -0.15153780682E+03  0.77291933331E+02  0.13551552794E+03  0.21753087267E+03  0.41800000000E+01 0. -1.
        -11    1    1    2    0    0  0.13610660005E+03 -0.75494681488E+02  0.45795146648E+02  0.16223948029E+03  0.00000000000E+00 0.  1.
         11    1    1    2    0    0  0.14388159130E+03 -0.48948150100E+02  0.14120556291E+03  0.20745323499E+03  0.00000000000E+00 0. -1.
</event>
<event>
 7    1  0.2989693E-009  0.1578085E+03  0.7561462E-02  0.1191193E+00
         -1   -1    0    0    0  501 -0.00000000000E+00  0.00000000000E+00  0.16218118961E+04  0.16218118961E+04  0.00000000000E+00 0.  1.
          1   -1    0    0  501    0  0.00000000000E+00 -0.00000000000E+00 -0.25845590112E+02  0.25845590112E+02  0.00000000000E+00 0. -1.
         25    2    1    2    0    0 -0.24669557721E+02  0.11647918801E+03  0.13297497949E+04  0.13409190420E+04  0.12511343562E+03 0.  0.
          5    1    3    3  502    0  0.45634219609E+02  0.81833052861E+02  0.67637069784E+03  0.68284253224E+03  0.41800000000E+01 0.  1.
         -5    1    3    3    0  502 -0.70303777330E+02  0.34646135148E+02  0.65337909708E+03  0.65807650976E+03  0.41800000000E+01 0.  1.
        -11    1    1    2    0    0 -0.17751673376E+02 -0.93347187084E+02  0.22100671277E+03  0.24056763360E+03  0.00000000000E+00 0.  1.
         11    1    1    2    0    0  0.42421231096E+02 -0.23132000925E+02  0.45209798250E+02  0.66170810576E+02  0.00000000000E+00 0. -1.
</event>
<event>
 7    1  0.2989693E-009  0.1096551E+03  0.7561462E-02  0.1261210E+00
         -2   -1    0    0    0  501 -0.00000000000E+00  0.00000000000E+00  0.13961340451E+03  0.13961340451E+03  0.00000000000E+00 0.  1.
          2   -1    0    0  501    0  0.00000000000E+00 -0.00000000000E+00 -0.15155744793E+03  0.15155744793E+03  0.00000000000E+00 0. -1.
         25    2    1    2    0    0 -0.55849302566E+02  0.72788235547E+02 -0.39506208477E+02  0.16008233379E+03  0.12509333017E+03 0.  0.
          5    1    3    3  502    0 -0.37162899268E+02  0.77311995336E+02 -0.78533919538E+02  0.11637557571E+03  0.41800000000E+01 0.  1.
         -5    1    3    3    0  502 -0.18686403298E+02 -0.45237597887E+01  0.39027711061E+02  0.43706758076E+02  0.41800000000E+01 0.  1.
        -11    1    1    2    0    0 -0.35438037011E+01 -0.50020085990E+02  0.42519970869E+02  0.65745839943E+02  0.00000000000E+00 0.  1.
         11    1    1    2    0    0  0.59393106267E+02 -0.22768149558E+02 -0.14957805812E+02  0.65342678711E+02  0.00000000000E+00 0. -1.
</event>
<event>
 7    1  0.2989693E-009  0.7584985E+02  0.7561462E-02  0.1341259E+00
          4   -1    0    0  501    0  0.00000000000E+00  0.00000000000E+00  0.19668789974E+03  0.19668789974E+03  0.00000000000E+00 0. -1.
         -4   -1    0    0    0  501 -0.00000000000E+00 -0.00000000000E+00 -0.61013993895E+02  0.61013993895E+02  0.00000000000E+00 0.  1.
         25    2    1    2    0    0  0.18041115499E+02  0.30584438217E+01  0.12059012101E+03  0.17472269793E+03  0.12510478792E+03 0.  0.
          5    1    3    3  502    0  0.38233593387E+02  0.21996480335E+02 -0.63248139843E+01  0.44756323378E+02  0.41800000000E+01 0. -1.
         -5    1    3    3    0  502 -0.20192477887E+02 -0.18938036513E+02  0.12691493499E+03  0.12996637455E+03  0.41800000000E+01 0. -1.
        -11    1    1    2    0    0 -0.36151073936E+02  0.26435126154E+02 -0.10411709179E+01  0.44797322223E+02  0.00000000000E+00 0.  1.
         11    1    1    2    0    0  0.18109958437E+02 -0.29493569975E+02  0.16124955755E+02  0.38181873482E+02  0.00000000000E+00 0. -1.
</event>
<event>
 7    1  0.2989693E-009  0.9212581E+02  0.7561462E-02  0.1297784E+00
         -1   -1    0    0    0  501 -0.00000000000E+00  0.00000000000E+00  0.10434619911E+03  0.10434619911E+03  0.00000000000E+00 0.  1.
          1   -1    0    0  501    0  0.00000000000E+00 -0.00000000000E+00 -0.14420917992E+03  0.14420917992E+03  0.00000000000E+00 0. -1.
         25    2    1    2    0    0 -0.46748732520E+02 -0.97153789763E+01 -0.56499973277E+02  0.14531900505E+03  0.12508210771E+03 0.  0.
          5    1    3    3  502    0 -0.81201143725E+02  0.23732726076E+02 -0.44356933914E+02  0.95613168630E+02  0.41800000000E+01 0.  1.
         -5    1    3    3    0  502  0.34452411205E+02 -0.33448105052E+02 -0.12143039364E+02  0.49705836422E+02  0.41800000000E+01 0.  1.
        -11    1    1    2    0    0  0.30941787614E+02 -0.29682102586E+01  0.53094641220E+02  0.61524348181E+02  0.00000000000E+00 0.  1.
         11    1    1    2    0    0  0.15806944906E+02  0.12683589235E+02 -0.36457648753E+02  0.41712025793E+02  0.00000000000E+00 0. -1.
</event>
<event>
 7    1  0.2989693E-009  0.2226392E+03  0.7561462E-02  0.1131931E+00
          1   -1    0    0  501    0  0.00000000000E+00  0.00000000000E+00  0.49326726258E+02  0.49326726258E+02  0.00000000000E+00 0. -1.
         -1   -1    0    0    0  501 -0.00000000000E+00 -0.00000000000E+00 -0.14817549859E+04  0.14817549859E+04  0.00000000000E+00 0.  1.
         25    2    1    2    0    0 -0.91220852301E+01  0.20979010365E+03 -0.10696003367E+04  0.10971714818E+04  0.12508109477E+03 0.  0.
          5    1    3    3  502    0  0.17136059669E+02  0.41500454214E+02 -0.51549975327E+03  0.51746826015E+03  0.41800000000E+01 0.  1.
         -5    1    3    3    0  502 -0.26258144899E+02  0.16828964944E+03 -0.55410058340E+03  0.57970322166E+03  0.41800000000E+01 0.  1.
        -11    1    1    2    0    0  0.51413452339E+02 -0.12043219948E+03 -0.14918645199E+03  0.19850404331E+03  0.00000000000E+00 0. -1.
         11    1    1    2    0    0 -0.42291367109E+02 -0.89357904171E+02 -0.21364147096E+03  0.23540618702E+03  0.00000000000E+00 0.  1.
</event>
<event>
 7    1  0.2989693E-009  0.1220635E+03  0.7561462E-02  0.1239731E+00
          1   -1    0    0  501    0  0.00000000000E+00  0.00000000000E+00  0.47416267331E+02  0.47416267331E+02  0.00000000000E+00 0. -1.
         -1   -1    0    0    0  501 -0.00000000000E+00 -0.00000000000E+00 -0.38919975444E+03  0.38919975444E+03  0.00000000000E+00 0.  1.
         25    2    1    2    0    0 -0.77068480949E+02 -0.27692357716E+02 -0.18944711470E+03  0.24133794724E+03  0.12508948028E+03 0.  0.
          5    1    3    3  502    0  0.94862614114E+01  0.30185557724E+02 -0.93355670149E+01  0.33253304530E+02  0.41800000000E+01 0.  1.
         -5    1    3    3    0  502 -0.86554742360E+02 -0.57877915440E+02 -0.18011154769E+03  0.20808464271E+03  0.41800000000E+01 0.  1.
        -11    1    1    2    0    0 -0.31889817307E+01 -0.16212166897E+02 -0.70902275053E+02  0.72802036837E+02  0.00000000000E+00 0.  1.
         11    1    1    2    0    0  0.80257462680E+02  0.43904524613E+02 -0.81434097351E+02  0.12247603769E+03  0.00000000000E+00 0. -1.
</event>
<event>
 7    1  0.2989693E-009  0.7180971E+02  0.7561462E-02  0.1354045E+00
          3   -1    0    0  501    0  0.00000000000E+00  0.00000000000E+00  0.60307042956E+03  0.60307042956E+03  0.00000000000E+00 0. -1.
         -3   -1    0    0    0  501 -0.00000000000E+00 -0.00000000000E+00 -0.18402618715E+02  0.18402618715E+02  0.00000000000E+00 0.  1.
         25    2    1    2    0    0  0.66751201882E+01  0.56969850781E+02  0.41044725378E+03  0.43290301851E+03  0.12509178300E+03 0.  0.
          5    1    3    3  502    0 -0.27823175117E+01  0.61770052468E+02  0.75131372089E+02  0.97393409144E+02  0.41800000000E+01 0.  1.
         -5    1    3    3    0  502  0.94574376999E+01 -0.48002016866E+01  0.33531588169E+03  0.33550960937E+03  0.41800000000E+01 0.  1.
        -11    1    1    2    0    0 -0.10885771070E+02  0.20489318906E+01  0.14533376306E+02  0.18273400355E+02  0.00000000000E+00 0.  1.
         11    1    1    2    0    0  0.42106508821E+01 -0.59018782672E+02  0.15968718076E+03  0.17029662941E+03  0.00000000000E+00 0. -1.
</event>
<event>
 7    1  0.3423940E-009  0.1056241E+03  0.7561462E-02  0.1268895E+00
         -2   -1    0    0    0  501 -0.00000000000E+00  0.00000000000E+00  0.14666554104E+02  0.14666554104E+02  0.00000000000E+00 0.  1.
          2   -1    0    0  501    0  0.00000000000E+00 -0.00000000000E+00 -0.12028624651E+04  0.12028624651E+04  0.00000000000E+00 0. -1.
         25    2    1    2    0    0 -0.39939835402E+02  0.37485138702E+02 -0.89151116903E+03  0.90190826380E+03  0.12508407465E+03 0.  0.
          5    1    3    3  502    0 -0.48271394287E+01 -0.43675407107E+02 -0.40594620537E+03  0.40833887461E+03  0.41800000000E+01 0.  1.
         -5    1    3    3    0  502 -0.35112695973E+02  0.81160545809E+02 -0.48556496366E+03  0.49356938919E+03  0.41800000000E+01 0.  1.
        -11    1    1    2    0    0 -0.13595045150E+02 -0.15735459115E+02 -0.98254175463E+01  0.22999320776E+02  0.00000000000E+00 0.  1.
         11    1    1    2    0    0  0.53534880552E+02 -0.21749679587E+02 -0.28685932446E+03  0.29262143467E+03  0.00000000000E+00 0. -1.
</event>
<event>
 7    1  0.2989693E-009  0.7825962E+02  0.7561462E-02  0.1334064E+00
         -2   -1    0    0    0  501 -0.00000000000E+00  0.00000000000E+00  0.14039405757E+02  0.14039405757E+02  0.00000000000E+00 0.  1.
          2   -1    0    0  501    0  0.00000000000E+00 -0.00000000000E+00 -0.10499687781E+04  0.10499687781E+04  0.00000000000E+00 0. -1.
         25    2    1    2    0    0  0.20914863504E+02  0.35413835132E+02 -0.71040583830E+03  0.72251325723E+03  0.12512945515E+03 0.  0.
          5    1    3    3  502    0 -0.16732185776E+01 -0.50871762102E+01 -0.62663505202E+03  0.62667187574E+03  0.41800000000E+01 0. -1.
         -5    1    3    3    0  502  0.22588082081E+02  0.40501011342E+02 -0.83770786282E+02  0.95841381491E+02  0.41800000000E+01 0. -1.
        -11    1    1    2    0    0  0.24261989595E+02 -0.50095143446E+02 -0.18095589088E+03  0.18932300964E+03  0.00000000000E+00 0. -1.
         11    1    1    2    0    0 -0.45176853099E+02  0.14681308314E+02 -0.14456764318E+03  0.15217191700E+03  0.00000000000E+00 0.  1.
</event>
<event>
 7    1  0.2989693E-009  0.1425378E+03  0.7561462E-02  0.1209954E+00
          1   -1    0    0  501    0  0.00000000000E+00  0.00000000000E+00  0.62403280861E+03  0.62403280861E+03  0.00000000000E+00 0. -1.
         -1   -1    0    0    0  501 -0.00000000000E+00 -0.00000000000E+00 -0.39342182393E+02  0.39342182393E+02  0.00000000000E+00 0.  1.
         25    2    1    2    0    0  0.51787455733E+02 -0.77650112447E+02  0.38139937139E+03  0.41210063026E+03  0.12509983387E+03 0.  0.
          5    1    3    3  502    0 -0.18122899503E+02 -0.83033884780E+02  0.18869383418E+03  0.20699251427E+03  0.41800000000E+01 0. -1.
         -5    1    3    3    0  502  0.69910355236E+02  0.53837723332E+01  0.19270553721E+03  0.20510811599E+03  0.41800000000E+01 0. -1.
        -11    1    1    2    0    0  0.25951865912E+02  0.15636212037E+02  0.68002621820E+01  0.31052118075E+02  0.00000000000E+00 0. -1.
         11    1    1    2    0    0 -0.77739321645E+02  0.62013900410E+02  0.19649099265E+03  0.22022224267E+03  0.00000000000E+00 0.  1.
</event>
<event>
 6    1  0.2989693E-009  0.1882365E+03  0.7561462E-02  0.1160062E+00
          2   -1    0    0  501    0  0.00000000000E+00  0.00000000000E+00  0.75632290253E+03  0.75632290253E+03  0.00000000000E+00 0. -1.
         -2   -1    0    0    0  501 -0.00000000000E+00 -0.00000000000E+00 -0.48684202977E+02  0.48684202977E+02  0.00000000000E+00 0.  1.
          5    1    1    2  502    0  0.13972393631E+02 -0.53805745164E+02  0.89282748135E+02  0.10525762448E+03  0.41800000000E+01 0. -1.
         -5    1    1    2    0  502 -0.13697613511E+03 -0.50656607194E+02  0.34787569894E+03  0.37731091656E+03  0.41800000000E+01 0. -1.
        -11    1    1    2    0    0  0.45890333496E+02  0.82564331488E+02  0.12998078575E+03  0.16067917166E+03  0.00000000000E+00 0. -1.
         11    1    1    2    0    0  0.77113407987E+02  0.21898020870E+02  0.14049946674E+03  0.16175939281E+03  0.00000000000E+00 0.  1.
</event>
<event>
 7    1  0.2989693E-009  0.1548004E+03  0.7561462E-02  0.1194695E+00
         -1   -1    0    0    0  501 -0.00000000000E+00  0.00000000000E+00  0.55526277220E+02  0.55526277220E+02  0.00000000000E+00 0.  1.
          1   -1    0    0  501    0  0.00000000000E+00 -0.00000000000E+00 -0.62834461939E+03  0.62834461939E+03  0.00000000000E+00 0. -1.
         25    2    1    2    0    0  0.51589733973E+02 -0.13778852345E+03 -0.36708182871E+03  0.41478101653E+03  0.12508814836E+03 0.  0.
          5    1    3    3  502    0  0.62538706570E+02 -0.85934395710E+02 -0.11295019392E+03  0.15514840925E+03  0.41800000000E+01 0.  1.
         -5    1    3    3    0  502 -0.10948972597E+02 -0.51854127744E+02 -0.25413163479E+03  0.25963260728E+03  0.41800000000E+01 0.  1.
        -11    1    1    2    0    0 -0.17466567891E+02  0.87990250898E+02 -0.18439958745E+03  0.20506236392E+03  0.00000000000E+00 0. -1.
         11    1    1    2    0    0 -0.34123166082E+02  0.49798272556E+02 -0.21336926011E+02  0.64027516152E+02  0.00000000000E+00 0.  1.
</event>
<event>
 7    1  0.2989693E-009  0.1297397E+03  0.7561462E-02  0.1227842E+00
         -1   -1    0    0    0  501 -0.00000000000E+00  0.00000000000E+00  0.66111353927E+02  0.66111353927E+02  0.00000000000E+00 0.  1.
          1   -1    0    0  501    0  0.00000000000E+00 -0.00000000000E+00 -0.27997617936E+03  0.27997617936E+03  0.00000000000E+00 0. -1.
         25    2    1    2    0    0 -0.53651669057E+02 -0.62269530254E+02 -0.10544730868E+03  0.18309004187E+03  0.12508729965E+03 0.  0.
          5    1    3    3  502    0 -0.85728471805E+00 -0.82441133275E+02 -0.94308014419E+02  0.12533454981E+03  0.41800000000E+01 0. -1.
         -5    1    3    3    0  502 -0.52794384339E+02  0.20171603020E+02 -0.11139294261E+02  0.57755492057E+02  0.41800000000E+01 0. -1.
        -11    1    1    2    0    0 -0.54740901419E+01 -0.18989982653E+02 -0.28085717147E+02  0.34342286059E+02  0.00000000000E+00 0. -1.
         11    1    1    2    0    0  0.59125759199E+02  0.81259512908E+02 -0.80331799611E+02  0.12865520537E+03  0.00000000000E+00 0.  1.
</event>
<event>
 7    1  0.2989693E-009  0.1340168E+03  0.7561462E-02  0.1221614E+00
         -2   -1    0    0    0  501 -0.00000000000E+00  0.00000000000E+00  0.12033456314E+03  0.12033456314E+03  0.00000000000E+00 0.  1.
          2   -1    0    0  501    0  0.00000000000E+00 -0.00000000000E+00 -0.17487246318E+03  0.17487246318E+03  0.00000000000E+00 0. -1.
         25    2    1    2    0    0  0.66298140666E+02 -0.62072863357E+02 -0.61967161057E+02  0.16650864812E+03  0.12504685932E+03 0.  0.
          5    1    3    3  502    0  0.94942253224E+02 -0.68728712124E+02 -0.26485888176E+02  0.12023577666E+03  0.41800000000E+01 0. -1.
         -5    1    3    3    0  502 -0.28644112559E+02  0.66558487674E+01 -0.35481272880E+02  0.46272871451E+02  0.41800000000E+01 0. -1.
        -11    1    1    2    0    0 -0.73518361661E+02  0.17075210811E+02  0.25509568777E+02  0.79669633015E+02  0.00000000000E+00 0.  1.
         11    1    1    2    0    0  0.72202209952E+01  0.44997652546E+02 -0.18080307764E+02  0.49028745188E+02  0.00000000000E+00 0. -1.
</event>
<event>
 7    1  0.4428103E-009  0.1029908E+03  0.7561462E-02  0.1274130E+00
         -2   -1    0    0    0  501 -0.00000000000E+00  0.00000000000E+00  0.18103111331E+03  0.18103111331E+03  0.00000000000E+00 0.  1.
          2   -1    0    0  501    0  0.00000000000E+00 -0.00000000000E+00 -0.92388084912E+02  0.92388084912E+02  0.00000000000E+00 0. -1.
         25    2    1    2    0    0 -0.14904855078E+02  0.63190594981E+02  0.76502394195E+02  0.16035966925E+03  0.12508957273E+03 0.  0.
          5    1    3    3  502    0  0.17840262043E+02 -0.30640332922E+02  0.41893914107E+02  0.55042505307E+02  0.41800000000E+01 0. -1.
         -5    1    3    3    0  502 -0.32745117122E+02  0.93830927903E+02  0.34608480088E+02  0.10531716394E+03  0.41800000000E+01 0. -1.
        -11    1    1    2    0    0 -0.65946292950E+01 -0.33568487354E+02 -0.37903342615E+02  0.51058749105E+02  0.00000000000E+00 0. -1.
         11    1    1    2    0    0  0.21499484373E+02 -0.29622107628E+02  0.50043976823E+02  0.62000779873E+02  0.00000000000E+00 0.  1.
</event>
<event>
 7    1  0.2989693E-009  0.1082678E+03  0.7561462E-02  0.1263812E+00
          2   -1    0    0  501    0  0.00000000000E+00  0.00000000000E+00  0.45134724080E+03  0.45134724080E+03  0.00000000000E+00 0. -1.
         -2   -1    0    0    0  501 -0.00000000000E+00 -0.00000000000E+00 -0.45248980809E+02  0.45248980809E+02  0.00000000000E+00 0.  1.
         25    2    1    2    0    0 -0.42770468111E+02  0.17929843376E+01  0.36937788453E+03  0.39232561464E+03  0.12508732384E+03 0.  0.
          5    1    3    3  502    0 -0.85351959071E+02 -0.12813091868E+02  0.25956707964E+03  0.27357206267E+03  0.41800000000E+01 0.  1.
         -5    1    3    3    0  502  0.42581490960E+02  0.14606076206E+02  0.10981080490E+03  0.11875355198E+03  0.41800000000E+01 0.  1.
        -11    1    1    2    0    0  0.27544197432E+02 -0.37249878418E+02  0.45240850862E+02  0.64753153136E+02  0.00000000000E+00 0.  1.
         11    1    1    2    0    0  0.15226270679E+02  0.35456894080E+02 -0.85204754000E+01  0.39517453836E+02  0.00000000000E+00 0. -1.
</event>
<event>
 7    1  0.2989693E-009  0.6677081E+02  0.7561462E-02  0.1371432E+00
          1   -1    0    0  501    0  0.00000000000E+00  0.00000000000E+00  0.12070176507E+03  0.12070176507E+03  0.00000000000E+00 0. -1.
         -1   -1    0    0    0  501 -0.00000000000E+00 -0.00000000000E+00 -0.17969634837E+03  0.17969634837E+03  0.00000000000E+00 0.  1.
         25    2    1    2    0    0  0.32161284471E+02 -0.50914576805E+02  0.46757872997E+02  0.14648509104E+03  0.12507973800E+03 0.  0.
          5    1    3    3  502    0  0.25808955919E+02 -0.54651533216E+01 -0.40087669177E+02  0.48171191873E+02  0.41800000000E+01 0.  1.
         -5    1    3    3    0  502  0.63523285515E+01 -0.45449423484E+02  0.86845542174E+02  0.98313899162E+02  0.41800000000E+01 0.  1.
        -11    1    1    2    0    0 -0.86512465063E+01  0.20931153896E+02  0.15084032711E+02  0.27211859774E+02  0.00000000000E+00 0. -1.
         11    1    1    2    0    0 -0.23510037965E+02  0.29983422910E+02 -0.12083648901E+03  0.12670116263E+03  0.00000000000E+00 0.  1.
</event>
<event>
 7    1  0.2989693E-009  0.1303608E+03  0.7561462E-02  0.1226921E+00
         -1   -1    0    0    0  501 -0.00000000000E+00  0.00000000000E+00  0.11273397563E+03  0.11273397563E+03  0.00000000000E+00 0. -1.
          1   -1    0    0  501    0  0.00000000000E+00 -0.00000000000E+00 -0.25828663068E+03  0.25828663068E+03  0.00000000000E+00 0.  1.
         25    2    1    2    0    0  0.21147057231E+02 -0.73272627447E+02  0.38937392405E+02  0.15158874251E+03  0.12508777065E+03 0.  0.
          5    1    3    3  502    0  0.73407435118E+02 -0.34072572370E+02  0.22044233114E+02  0.83982214380E+02  0.41800000000E+01 0.  1.
         -5    1    3    3    0  502 -0.52260377887E+02 -0.39200055076E+02  0.16893159291E+02  0.67606528129E+02  0.41800000000E+01 0.  1.
        -11    1    1    2    0    0  0.29338434568E+02  0.51439472936E+02 -0.12553927981E+03  0.13880516523E+03  0.00000000000E+00 0.  1.
         11    1    1    2    0    0 -0.50485491799E+02  0.21833154510E+02 -0.58950767649E+02  0.80626698583E+02  0.00000000000E+00 0. -1.
</event>
<event>
 7    1  0.2989693E-009  0.1202087E+03  0.7561462E-02  0.1242753E+00
          1   -1    0    0  501    0  0.00000000000E+00  0.00000000000E+00  0.15198463057E+04  0.15198463057E+04  0.00000000000E+00 0. -1.
         -1   -1    0    0    0  501 -0.00000000000E+00 -0.00000000000E+00 -0.10848710945E+02  0.10848710945E+02  0.00000000000E+00 0.  1.
         25    2    1    2    0    0 -0.42532012449E+02 -0.48367408310E+02  0.98199813985E+03  0.99202626921E+03  0.12508954339E+03 0.  0.
          5    1    3    3  502    0  0.38171195722E+02 -0.21204085014E+02  0.54676950404E+03  0.54852622212E+03  0.41800000000E+01 0. -1.
         -5    1    3    3    0  502 -0.80703208171E+02 -0.27163323296E+02  0.43522863581E+03  0.44350004709E+03  0.41800000000E+01 0. -1.
        -11    1    1    2    0    0  0.62632879536E+02  0.61103962359E+02  0.39995845776E+03  0.40941829435E+03  0.00000000000E+00 0.  1.
         11    1    1    2    0    0 -0.20100867087E+02 -0.12736554048E+02  0.12704099712E+03  0.12925045306E+03  0.00000000000E+00 0. -1.
</event>
<event>
 7    1  0.2989693E-009  0.1440865E+03  0.7561462E-02  0.1207934E+00
          2   -1    0    0  501    0  0.00000000000E+00  0.00000000000E+00  0.90399594553E+03  0.90399594553E+03  0.00000000000E+00 0. -1.
         -2   -1    0    0    0  501 -0.00000000000E+00 -0.00000000000E+00 -0.34936334588E+02  0.34936334588E+02  0.00000000000E+00 0.  1.
         25    2    1    2    0    0  0.78398423668E+01 -0.13909212729E+03  0.52468407260E+03  0.55708968158E+03  0.12508978486E+03 0.  0.
          5    1    3    3  502    0  0.16156123530E+02 -0.47484073467E+02  0.41569205342E+02  0.65278088156E+02  0.41800000000E+01 0. -1.
         -5    1    3    3    0  502 -0.83162811630E+01 -0.91608053827E+02  0.48311486726E+03  0.49181159343E+03  0.41800000000E+01 0. -1.
        -11    1    1    2    0    0 -0.18776763733E+02  0.25619604973E+02  0.17380915553E+03  0.17668772895E+03  0.00000000000E+00 0. -1.
         11    1    1    2    0    0  0.10936921366E+02  0.11347252232E+03  0.17056638280E+03  0.20515486958E+03  0.00000000000E+00 0.  1.
</event>
<event>
 7    1  0.2989693E-009  0.1012309E+03  0.7561462E-02  0.1277729E+00
          2   -1    0    0  501    0  0.00000000000E+00  0.00000000000E+00  0.18738291190E+03  0.18738291190E+03  0.00000000000E+00 0. -1.
         -2   -1    0    0    0  501 -0.00000000000E+00 -0.00000000000E+00 -0.71755075290E+02  0.71755075290E+02  0.00000000000E+00 0.  1.
         25    2    1    2    0    0 -0.75028651306E+01  0.26582040154E+02  0.33673789509E+02  0.13247303026E+03  0.12510907962E+03 0.  0.
          5    1    3    3  502    0 -0.44703368935E+01  0.74821542385E+02  0.37290963367E+02  0.83823239413E+02  0.41800000000E+01 0.  1.
         -5    1    3    3    0  502 -0.30325282370E+01 -0.48239502230E+02 -0.36171738578E+01  0.48649790849E+02  0.41800000000E+01 0.  1.
        -11    1    1    2    0    0 -0.23249000762E+02 -0.39247929379E+02  0.90121805695E+01  0.46498767678E+02  0.00000000000E+00 0.  1.
         11    1    1    2    0    0  0.30751865893E+02  0.12665889225E+02  0.72941866535E+02  0.80166189253E+02  0.00000000000E+00 0. -1.
</event>
<event>
 7    1  0.2989693E-009  0.1782366E+03  0.7561462E-02  0.1169521E+00
          2   -1    0    0  501    0  0.00000000000E+00  0.00000000000E+00  0.22714658997E+03  0.22714658997E+03  0.00000000000E+00 0. -1.
         -2   -1    0    0    0  501 -0.00000000000E+00 -0.00000000000E+00 -0.20070343545E+03  0.20070343545E+03  0.00000000000E+00 0.  1.
         25    2    1    2    0    0  0.98313782744E+01 -0.15289025725E+03 -0.87739715277E+02  0.21637380531E+03  0.12508908516E+03 0.  0.
          5    1    3    3  502    0  0.49349717620E+02 -0.62414908020E+02  0.63455584424E+01  0.79929680872E+02  0.41800000000E+01 0.  1.
         -5    1    3    3    0  502 -0.39518339345E+02 -0.90475349230E+02 -0.94085273719E+02  0.13644412444E+03  0.41800000000E+01 0.  1.
        -11    1    1    2    0    0  0.40577255685E+02  0.72790706689E+02  0.55176067052E+02  0.99946981118E+02  0.00000000000E+00 0.  1.
         11    1    1    2    0    0 -0.50408633960E+02  0.80099550561E+02  0.59006802745E+02  0.11152923898E+03  0.00000000000E+00 0. -1.
</event>
<event>
 7    1  0.2989693E-009  0.1040497E+03  0.7561462E-02  0.1272003E+00
         -2   -1    0    0    0  501 -0.00000000000E+00  0.00000000000E+00  0.50884803925E+02  0.50884803925E+02  0.00000000000E+00 0.  1.
          2   -1    0    0  501    0  0.00000000000E+00 -0.00000000000E+00 -0.22661072229E+03  0.22661072229E+03  0.00000000000E+00 0. -1.
         25    2    1    2    0    0 -0.37364691513E+01  0.20192606409E+02 -0.12085543324E+03  0.17514408837E+03  0.12509082058E+03 0.  0.
          5    1    3    3  502    0  0.31316534222E+02 -0.42617707410E+02 -0.37511847074E+02  0.64973882225E+02  0.41800000000E+01 0.  1.
         -5    1    3    3    0  502 -0.35053003373E+02  0.62810313819E+02 -0.83343586165E+02  0.11017020615E+03  0.41800000000E+01 0.  1.
        -11    1    1    2    0    0  0.41514966973E+02 -0.33985221585E+01 -0.41752050385E+02  0.58976911983E+02  0.00000000000E+00 0. -1.
         11    1    1    2    0    0 -0.37778497822E+02 -0.16794084251E+02 -0.13118434741E+02  0.43374525860E+02  0.00000000000E+00 0.  1.
</event>
<event>
 6    1  0.2989693E-009  0.8477955E+02  0.7561462E-02  0.1316010E+00
          2   -1    0    0  501    0  0.00000000000E+00  0.00000000000E+00  0.87302168806E+02  0.87302168806E+02  0.00000000000E+00 0. -1.
         -2   -1    0    0    0  501 -0.00000000000E+00 -0.00000000000E+00 -0.14543939850E+03  0.14543939850E+03  0.00000000000E+00 0.  1.
          5    1    1    2  502    0 -0.13834956581E+02  0.58664701429E+02 -0.33422262427E+02  0.69046891625E+02  0.41800000000E+01 0. -1.
         -5    1    1    2    0  502 -0.75212280621E+01 -0.51316970953E+02  0.25998832202E+02  0.58167104580E+02  0.41800000000E+01 0. -1.
        -11    1    1    2    0    0  0.87190697519E+01  0.22804040831E+02  0.17396000992E+02  0.29977780205E+02  0.00000000000E+00 0. -1.
         11    1    1    2    0    0  0.12637114891E+02 -0.30151771307E+02 -0.68109800459E+02  0.75549790895E+02  0.00000000000E+00 0.  1.
</event>
<event>
 7    1  0.2989693E-009  0.1045045E+03  0.7561462E-02  0.1271099E+00
         -2   -1    0    0    0  501 -0.00000000000E+00  0.00000000000E+00  0.48668413514E+02  0.48668413514E+02  0.00000000000E+00 0.  1.
          2   -1    0    0  501    0  0.00000000000E+00 -0.00000000000E+00 -0.28781395673E+03  0.28781395673E+03  0.00000000000E+00 0. -1.
         25    2    1    2    0    0  0.50447263535E+02 -0.60378122979E+01 -0.13809162208E+03  0.19312577172E+03  0.12508751352E+03 0.  0.
          5    1    3    3  502    0 -0.14692017002E+02 -0.48328120218E+02 -0.84974651947E+02  0.98942541108E+02  0.41800000000E+01 0. -1.
         -5    1    3    3    0  502  0.65139280537E+02  0.42290307920E+02 -0.53116970131E+02  0.94183230614E+02  0.41800000000E+01 0. -1.
        -11    1    1    2    0    0 -0.17841297727E+02 -0.28135479568E+02 -0.17140893861E+01  0.33359484672E+02  0.00000000000E+00 0.  1.
         11    1    1    2    0    0 -0.32605965808E+02  0.34173291866E+02 -0.99339831755E+02  0.10999711385E+03  0.00000000000E+00 0. -1.
</event>
<event>
 7    1  0.2989693E-009  0.9833185E+02  0.7561462E-02  0.1283843E+00
          3   -1    0    0  501    0  0.00000000000E+00  0.00000000000E+00  0.11744857747E+03  0.11744857747E+03  0.00000000000E+00 0. -1.
         -3   -1    0    0    0  501 -0.00000000000E+00 -0.00000000000E+00 -0.18162365307E+03  0.18162365307E+03  0.00000000000E+00 0.  1.
         25    2    1    2    0    0 -0.20036756520E+02 -0.40306584266E+02 -0.12255823214E+03  0.18081085299E+03  0.12508377971E+03 0.  0.
          5    1    3    3  502    0 -0.22883564376E+02  0.41712070093E+02 -0.64225500158E+02  0.80037126264E+02  0.41800000000E+01 0. -1.
         -5    1    3    3    0  502  0.28468078561E+01 -0.82018654359E+02 -0.58332731986E+02  0.10077372673E+03  0.41800000000E+01 0. -1.
        -11    1    1    2    0    0  0.36380062799E+02  0.23637777508E+02  0.77014329109E+02  0.88393780227E+02  0.00000000000E+00 0. -1.
         11    1    1    2    0    0 -0.16343306279E+02  0.16668806758E+02 -0.18631172562E+02  0.29867597324E+02  0.00000000000E+00 0.  1.
</event>
<event>
 7    1  0.2989693E-009  0.2018834E+03  0.7561462E-02  0.1148160E+00
         -1   -1    0    0    0  501 -0.00000000000E+00  0.00000000000E+00  0.16115655371E+03  0.16115655371E+03  0.00000000000E+00 0.  1.
          1   -1    0    0  501    0  0.00000000000E+00 -0.00000000000E+00 -0.42795986431E+03  0.42795986431E+03  0.00000000000E+00 0. -1.
         25    2    1    2    0    0  0.46069730044E+02  0.19136357336E+03  0.23381826074E+02  0.23438693402E+03  0.12509231715E+03 0.  0.
          5    1    3    3  502    0  0.38697948195E+02  0.18579411290E+03  0.57859049268E+02  0.19844930226E+03  0.41800000000E+01 0. -1.
         -5    1    3    3    0  502  0.73717818481E+01  0.55694604599E+01 -0.34477223194E+02  0.35937631761E+02  0.41800000000E+01 0. -1.
        -11    1    1    2    0    0 -0.72381030107E+01 -0.13590046326E+03 -0.18583077644E+03  0.23033541526E+03  0.00000000000E+00 0.  1.
         11    1    1    2    0    0 -0.38831627033E+02 -0.55463110102E+02 -0.10435436023E+03  0.12439406874E+03  0.00000000000E+00 0. -1.
</event>
<event>
 7    1  0.2989693E-009  0.1088785E+03  0.7561462E-02  0.1262661E+00
          2   -1    0    0  501    0  0.00000000000E+00  0.00000000000E+00  0.28284395201E+04  0.28284395201E+04  0.00000000000E+00 0. -1.
         -2   -1    0    0    0  501 -0.00000000000E+00 -0.00000000000E+00 -0.73349947129E+01  0.73349947129E+01  0.00000000000E+00 0.  1.
         25    2    1    2    0    0  0.24768876571E+02 -0.27049704202E+02  0.24140156400E+04  0.24175326561E+04  0.12508976477E+03 0.  0.
          5    1    3    3  502    0 -0.48342609481E+02 -0.16610486849E+02  0.67557607272E+03  0.67752005033E+03  0.41800000000E+01 0. -1.
         -5    1    3    3    0  502  0.73111486052E+02 -0.10439217352E+02  0.17384395673E+04  0.17400126058E+04  0.41800000000E+01 0. -1.
        -11    1    1    2    0    0 -0.47162434440E+02 -0.10926361796E+02  0.15692184110E+03  0.16421980642E+03  0.00000000000E+00 0.  1.
         11    1    1    2    0    0  0.22393557869E+02  0.37976065998E+02  0.25016704427E+03  0.25402205231E+03  0.00000000000E+00 0. -1.
</event>
<event>
 7    1  0.2989693E-009  0.8041042E+02  0.7561462E-02  0.1327891E+00
         -1   -1    0    0    0  501 -0.00000000000E+00  0.00000000000E+00  0.21782130117E+02  0.21782130117E+02  0.00000000000E+00 0.  1.
          1   -1    0    0  501    0  0.00000000000E+00 -0.00000000000E+00 -0.99572175851E+03  0.99572175851E+03  0.00000000000E+00 0. -1.
         25    2    1    2    0    0 -0.19737085038E+02  0.53800189226E+02 -0.79647056027E+03  0.80826816144E+03  0.12509218412E+03 0.  0.
          5    1    3    3  502    0 -0.48602773778E+01  0.27769853205E+02 -0.30663334335E+02  0.41862865595E+02  0.41800000000E+01 0.  1.
         -5    1    3    3    0  502 -0.14876807660E+02  0.26030336021E+02 -0.76580722594E+03  0.76640529584E+03  0.41800000000E+01 0.  1.
        -11    1    1    2    0    0  0.53150892752E+02 -0.35939517068E+02 -0.14775955322E+03  0.16108864595E+03  0.00000000000E+00 0. -1.
         11    1    1    2    0    0 -0.33413807714E+02 -0.17860672158E+02 -0.29709514899E+02  0.48147081235E+02  0.00000000000E+00 0.  1.
</event>
<event>
 7    1  0.2989693E-009  0.1137139E+03  0.7561462E-02  0.1253843E+00
          2   -1    0    0  501    0  0.00000000000E+00  0.00000000000E+00  0.28520411300E+03  0.28520411300E+03  0.00000000000E+00 0.  1.
         -2   -1    0    0    0  501 -0.00000000000E+00 -0.00000000000E+00 -0.47849542214E+02  0.47849542214E+02  0.00000000000E+00 0. -1.
         25    2    1    2    0    0  0.43760846209E+02 -0.15515212947E+01  0.14567062488E+03  0.19693465436E+03  0.12508360507E+03 0.  0.
          5    1    3    3  502    0  0.66977767209E+02 -0.42851161912E+02  0.11659842820E+03  0.14119103808E+03  0.41800000000E+01 0. -1.
         -5    1    3    3    0  502 -0.23216921000E+02  0.41299640618E+02  0.29072196682E+02  0.55743616278E+02  0.41800000000E+01 0. -1.
        -11    1    1    2    0    0 -0.24391187162E+02 -0.44242973617E+02  0.52011454393E+02  0.72509048495E+02  0.00000000000E+00 0.  1.
         11    1    1    2    0    0 -0.19369659047E+02  0.45794494911E+02  0.39672491517E+02  0.63609952357E+02  0.00000000000E+00 0. -1.
</event>
<event>
 7    1  0.2989693E-009  0.2125550E+03  0.7561462E-02  0.1139559E+00
         -2   -1    0    0    0  501 -0.00000000000E+00  0.00000000000E+00  0.83568915188E+02  0.83568915188E+02  0.00000000000E+00 0.  1.
          2   -1    0    0  501    0  0.00000000000E+00 -0.00000000000E+00 -0.84114936768E+03  0.84114936768E+03  0.00000000000E+00 0. -1.
         25    2    1    2    0    0 -0.41333935596E+01  0.19831305295E+03 -0.14805028104E+03  0.27731845468E+03  0.12506593334E+03 0.  0.
          5    1    3    3  502    0  0.10311232881E+02 -0.94584410632E+01  0.83539539176E+01  0.16823928701E+02  0.41800000000E+01 0.  1.
         -5    1    3    3    0  502 -0.14444626441E+02  0.20777149401E+03 -0.15640423495E+03  0.26049452598E+03  0.41800000000E+01 0.  1.
        -11    1    1    2    0    0  0.12333238647E+02 -0.19039162413E+03 -0.60621054037E+03  0.63552521474E+03  0.00000000000E+00 0. -1.
         11    1    1    2    0    0 -0.81998450874E+01 -0.79214288178E+01 -0.33196310914E+01  0.11874613449E+02  0.00000000000E+00 0.  1.
</event>
<event>
 7    1  0.2989693E-009  0.7324580E+02  0.7561462E-02  0.1349391E+00
         -2   -1    0    0    0  501 -0.00000000000E+00  0.00000000000E+00  0.27280613143E+03  0.27280613143E+03  0.00000000000E+00 0.  1.
          2   -1    0    0  501    0  0.00000000000E+00 -0.00000000000E+00 -0.60184545251E+02  0.60184545251E+02  0.00000000000E+00 0. -1.
         25    2    1    2    0    0  0.43226555880E+01 -0.27629915394E+02  0.19634477815E+03  0.23448276458E+03  0.12509515340E+03 0.  0.
          5    1    3    3  502    0 -0.31888977053E+02  0.18451003828E+02  0.16250014421E+03  0.16667668003E+03  0.41800000000E+01 0.  1.
         -5    1    3    3    0  502  0.36211632641E+02 -0.46080919222E+02  0.33844633939E+02  0.67806084545E+02  0.41800000000E+01 0.  1.
        -11    1    1    2    0    0 -0.20936642895E+02  0.32982996590E+01 -0.34098786810E+02  0.40149085398E+02  0.00000000000E+00 0. -1.
         11    1    1    2    0    0  0.16613987307E+02  0.24331615735E+02  0.50375594839E+02  0.58358826701E+02  0.00000000000E+00 0.  1.
</event>
<event>
 7    1  0.2989693E-009  0.1102285E+03  0.7561462E-02  0.1260147E+00
          2   -1    0    0  501    0  0.00000000000E+00  0.00000000000E+00  0.24737944974E+03  0.24737944974E+03  0.00000000000E+00 0. -1.
         -2   -1    0    0    0  501 -0.00000000000E+00 -0.00000000000E+00 -0.54496157811E+02  0.54496157811E+02  0.00000000000E+00 0.  1.
         25    2    1    2    0    0  0.28616949609E+02  0.49348903821E+01  0.14246141945E+03  0.19179192749E+03  0.12508239073E+03 0.  0.
          5    1    3    3  502    0  0.68319976493E+02 -0.24831025589E+02  0.55390080139E+02  0.91486241575E+02  0.41800000000E+01 0. -1.
         -5    1    3    3    0  502 -0.39703026884E+02  0.29765915971E+02  0.87071339309E+02  0.10030568591E+03  0.41800000000E+01 0. -1.
        -11    1    1    2    0    0 -0.39737000775E+02  0.37101088418E+02  0.27206692735E+02  0.60792467642E+02  0.00000000000E+00 0.  1.
         11    1    1    2    0    0  0.11120051166E+02 -0.42035978800E+02  0.23215179747E+02  0.49291212425E+02  0.00000000000E+00 0. -1.
</event>
<event>
 7    1  0.2989693E-009  0.2583819E+03  0.7561462E-02  0.1108119E+00
          1   -1    0    0  501    0  0.00000000000E+00  0.00000000000E+00  0.14364815867E+04  0.14364815867E+04  0.00000000000E+00 0. -1.
         -1   -1    0    0    0  501 -0.00000000000E+00 -0.00000000000E+00 -0.49474772714E+02  0.49474772714E+02  0.00000000000E+00 0.  1.
         25    2    1    2    0    0  0.21951181078E+03  0.97147829158E+02  0.60692017641E+03  0.66454781295E+03  0.12509420207E+03 0.  0.
          5    1    3    3  502    0  0.13623698972E+03  0.38758768459E+01  0.22971420195E+03  0.26713597056E+03  0.41800000000E+01 0. -1.
         -5    1    3    3    0  502  0.83274821060E+02  0.93271952312E+02  0.37720597445E+03  0.39741184239E+03  0.41800000000E+01 0. -1.
        -11    1    1    2    0    0 -0.15479127601E+03 -0.22362399035E+02  0.52573474190E+03  0.54850472638E+03  0.00000000000E+00 0.  1.
         11    1    1    2    0    0 -0.64720534765E+02 -0.74785430123E+02  0.25435189569E+03  0.27290382009E+03  0.00000000000E+00 0. -1.
</event>
<event>
 7    1  0.2989693E-009  0.8929676E+02  0.7561462E-02  0.1304564E+00
         -4   -1    0    0    0  501 -0.00000000000E+00  0.00000000000E+00  0.79061730957E+03  0.79061730957E+03  0.00000000000E+00 0.  1.
          4   -1    0    0  501    0  0.00000000000E+00 -0.00000000000E+00 -0.20074414379E+02  0.20074414379E+02  0.00000000000E+00 0. -1.
         25    2    1    2    0    0 -0.51614128274E+02 -0.37626343664E+01  0.55767057381E+03  0.57386566051E+03  0.12508857571E+03 0.  0.
          5    1    3    3  502    0 -0.43212334673E+02  0.37914750645E+02  0.11023081828E+03  0.12439107638E+03  0.41800000000E+01 0. -1.
         -5    1    3    3    0  502 -0.84017936014E+01 -0.41677385011E+02  0.44743975552E+03  0.44947458413E+03  0.41800000000E+01 0. -1.
        -11    1    1    2    0    0  0.14279671084E+02 -0.26547378250E+02  0.16920517843E+03  0.17186932451E+03  0.00000000000E+00 0.  1.
         11    1    1    2    0    0  0.37334457190E+02  0.30310012616E+02  0.43667142950E+02  0.64956738925E+02  0.00000000000E+00 0. -1.
</event>
<event>
 7    1  0.2989693E-009  0.7835708E+02  0.7561462E-02  0.1333780E+00
          2   -1    0    0  501    0  0.00000000000E+00  0.00000000000E+00  0.89309493032E+02  0.89309493032E+02  0.00000000000E+00 0.  1.
         -2   -1    0    0    0  501 -0.00000000000E+00 -0.00000000000E+00 -0.21223901599E+03  0.21223901599E+03  0.00000000000E+00 0. -1.
         25    2    1    2    0    0 -0.43587021507E+02 -0.46979155560E+02 -0.51528551260E+01  0.14061945021E+03  0.12506161825E+03 0.  0.
          5    1    3    3  502    0 -0.42033764460E+02 -0.23759184723E+02  0.56588543408E+02  0.74505515624E+02  0.41800000000E+01 0.  1.
         -5    1    3    3    0  502 -0.15532570467E+01 -0.23219970837E+02 -0.61741398534E+02  0.66113934583E+02  0.41800000000E+01 0.  1.
        -11    1    1    2    0    0 -0.12712856892E+02  0.27422947313E+01  0.86612992590E+01  0.15625460493E+02  0.00000000000E+00 0.  1.
         11    1    1    2    0    0  0.56299878400E+02  0.44236860828E+02 -0.12643796710E+03  0.14530359833E+03  0.00000000000E+00 0. -1.
</event>
<event>
 7    1  0.2989693E-009  0.1420981E+03  0.7561462E-02  0.1210533E+00
         -3   -1    0    0    0  501 -0.00000000000E+00  0.00000000000E+00  0.19656945377E+03  0.19656945377E+03  0.00000000000E+00 0.  1.
          3   -1    0    0  501    0  0.00000000000E+00 -0.00000000000E+00 -0.12659596027E+03  0.12659596027E+03  0.00000000000E+00 0. -1.
         25    2    1    2    0    0  0.61066028850E+02  0.91939767790E+02  0.87928863506E+01  0.16704889208E+03  0.12508411855E+03 0.  0.
          5    1    3    3  502    0  0.88446709198E+02  0.55600007815E+02 -0.28164505963E+02  0.10828154521E+03  0.41800000000E+01 0.  1.
         -5    1    3    3    0  502 -0.27380680348E+02  0.36339759975E+02  0.36957392313E+02  0.58767346868E+02  0.41800000000E+01 0.  1.
        -11    1    1    2    0    0 -0.57852737858E+02 -0.10533384544E+03  0.70647206470E+02  0.13940296287E+03  0.00000000000E+00 0.  1.
         11    1    1    2    0    0 -0.32132909919E+01  0.13394077653E+02 -0.94665993213E+01  0.16713559103E+02  0.00000000000E+00 0. -1.
</event>
<event>
 7    1  0.4340352E-009  0.1643135E+03  0.7561462E-02  0.1183911E+00
          2   -1    0    0  501    0  0.00000000000E+00  0.00000000000E+00  0.11746306579E+04  0.11746306579E+04  0.00000000000E+00 0.  1.
         -2   -1    0    0    0  501 -0.00000000000E+00 -0.00000000000E+00 -0.29678317886E+02  0.29678317886E+02  0.00000000000E+00 0. -1.
         25    2    1    2    0    0  0.59351826266E+02  0.13195693590E+03  0.74723508042E+03  0.77132468784E+03  0.12508491694E+03 0.  0.
          5    1    3    3  502    0  0.73917727845E+02  0.78212162701E+02  0.65273201054E+03  0.66155689315E+03  0.41800000000E+01 0. -1.
         -5    1    3    3    0  502 -0.14565901578E+02  0.53744773203E+02  0.94503069884E+02  0.10976779470E+03  0.41800000000E+01 0. -1.
        -11    1    1    2    0    0  0.10858283467E+02 -0.71850880980E+02  0.11995231719E+03  0.14024624707E+03  0.00000000000E+00 0. -1.
         11    1    1    2    0    0 -0.70210109733E+02 -0.60106054924E+02  0.27776494238E+03  0.29273804085E+03  0.00000000000E+00 0.  1.
</event>
<event>
 7    1  0.2989693E-009  0.1130297E+03  0.7561462E-02  0.1255060E+00
         -4   -1    0    0    0  501 -0.00000000000E+00  0.00000000000E+00  0.46758980705E+02  0.46758980705E+02  0.00000000000E+00 0.  1.
          4   -1    0    0  501    0  0.00000000000E+00 -0.00000000000E+00 -0.35920559557E+03  0.35920559557E+03  0.00000000000E+00 0. -1.
         25    2    1    2    0    0  0.42071963994E+02  0.42372230960E+02 -0.23560115729E+03  0.27335177705E+03  0.12509129703E+03 0.  0.
          5    1    3    3  502    0  0.78563534448E+02  0.26279915013E+02 -0.90284025483E+02  0.12260318322E+03  0.41800000000E+01 0.  1.
         -5    1    3    3    0  502 -0.36491570454E+02  0.16092315947E+02 -0.14531713180E+03  0.15074859383E+03  0.41800000000E+01 0.  1.
        -11    1    1    2    0    0 -0.35716168317E+02 -0.67890899376E+02 -0.37756408644E+02  0.85500674214E+02  0.00000000000E+00 0.  1.
         11    1    1    2    0    0 -0.63557956772E+01  0.25518668416E+02 -0.39089048937E+02  0.47112125012E+02  0.00000000000E+00 0. -1.
</event>
<event>
 7    1  0.2989693E-009  0.1093710E+03  0.7561462E-02  0.1261739E+00
          1   -1    0    0  501    0  0.00000000000E+00  0.00000000000E+00  0.20011647983E+02  0.20011647983E+02  0.00000000000E+00 0. -1.
         -1   -1    0    0    0  501 -0.00000000000E+00 -0.00000000000E+00 -0.80136954905E+03  0.80136954905E+03  0.00000000000E+00 0.  1.
         25    2    1    2    0    0  0.86724576619E+01 -0.67788731381E+02 -0.56671005772E+03  0.58436153883E+03  0.12509034705E+03 0.  0.
          5    1    3    3  502    0 -0.42817376831E+02 -0.99672343542E+01 -0.37460433270E+03  0.37719829267E+03  0.41800000000E+01 0.  1.
         -5    1    3    3    0  502  0.51489834492E+02 -0.57821497026E+02 -0.19210572502E+03  0.20716324616E+03  0.41800000000E+01 0.  1.
        -11    1    1    2    0    0 -0.37249754341E+02  0.22574523422E+02 -0.12783624682E+03  0.13505280192E+03  0.00000000000E+00 0.  1.
         11    1    1    2    0    0  0.28577296679E+02  0.45214207959E+02 -0.86811596533E+02  0.10196685628E+03  0.00000000000E+00 0. -1.
</event>
<event>
 7    1  0.2989693E-009  0.1459231E+03  0.7561462E-02  0.1205574E+00
          2   -1    0    0  501    0  0.00000000000E+00  0.00000000000E+00  0.88833509951E+03  0.88833509951E+03  0.00000000000E+00 0. -1.
         -2   -1    0    0    0  501 -0.00000000000E+00 -0.00000000000E+00 -0.29566403429E+02  0.29566403429E+02  0.00000000000E+00 0.  1.
         25    2    1    2    0    0 -0.11003000290E+03  0.21055832165E+02  0.61083472186E+03  0.63349727895E+03  0.12509914226E+03 0.  0.
          5    1    3    3  502    0 -0.99372576092E+02 -0.38062511832E+02  0.42555908668E+03  0.43868174380E+03  0.41800000000E+01 0. -1.
         -5    1    3    3    0  502 -0.10657426809E+02  0.59118343997E+02  0.18527563518E+03  0.19481553514E+03  0.41800000000E+01 0. -1.
        -11    1    1    2    0    0  0.40061981530E+02 -0.35688880195E+02  0.17175218645E+03  0.17993741157E+03  0.00000000000E+00 0. -1.
         11    1    1    2    0    0  0.69968021371E+02  0.14633048030E+02  0.76181787772E+02  0.10446681242E+03  0.00000000000E+00 0.  1.
</event>
<event>
 7    1  0.2989693E-009  0.1249600E+03  0.7561462E-02  0.1235132E+00
          1   -1    0    0  501    0  0.00000000000E+00  0.00000000000E+00  0.90321866601E+02  0.90321866601E+02  0.00000000000E+00 0. -1.
         -1   -1    0    0    0  501 -0.00000000000E+00 -0.00000000000E+00 -0.27228265117E+03  0.27228265117E+03  0.00000000000E+00 0.  1.
         25    2    1    2    0    0 -0.72338861554E+02 -0.26636989824E+02 -0.19079020277E+03  0.24081268521E+03  0.12508959896E+03 0.  0.
          5    1    3    3  502    0 -0.10002598627E+03 -0.13807007754E+02 -0.89675624292E+02  0.13511114456E+03  0.41800000000E+01 0. -1.
         -5    1    3    3    0  502  0.27687124715E+02 -0.12829982070E+02 -0.10111457848E+03  0.10570154065E+03  0.41800000000E+01 0. -1.
        -11    1    1    2    0    0 -0.41476823172E+01  0.40170633601E+02  0.16738255513E+02  0.43715583836E+02  0.00000000000E+00 0.  1.
         11    1    1    2    0    0  0.76486543871E+02 -0.13533643777E+02 -0.79088373102E+01  0.78076248724E+02  0.00000000000E+00 0. -1.
</event>
<event>
 7    1  0.2989693E-009  0.9778583E+02  0.7561462E-02  0.1285022E+00
          2   -1    0    0  501    0  0.00000000000E+00  0.00000000000E+00  0.23173709728E+03  0.23173709728E+03  0.00000000000E+00 0. -1.
         -2   -1    0    0    0  501 -0.00000000000E+00 -0.00000000000E+00 -0.62674503673E+02  0.62674503673E+02  0.00000000000E+00 0.  1.
         25    2    1    2    0    0 -0.35125885917E+02 -0.25981178218E+02  0.50931727315E+02  0.14195061378E+03  0.12508831449E+03 0.  0.
          5    1    3    3  502    0 -0.60794258747E+02 -0.46620732494E+02 -0.50194090113E+01  0.76890190933E+02  0.41800000000E+01 0.  1.
         -5    1    3    3    0  502  0.25668372831E+02  0.20639554276E+02  0.55951136326E+02  0.65060422844E+02  0.41800000000E+01 0.  1.
        -11    1    1    2    0    0 -0.10575101068E+02 -0.18857313258E+02  0.45734586197E+01  0.22098587051E+02  0.00000000000E+00 0.  1.
         11    1    1    2    0    0  0.45700986984E+02  0.44838491477E+02  0.11355740768E+03  0.13036240013E+03  0.00000000000E+00 0. -1.
</event>
<event>
 7    1  0.2989693E-009  0.1272033E+03  0.7561462E-02  0.1231666E+00
          2   -1    0    0  501    0  0.00000000000E+00  0.00000000000E+00  0.77849657107E+02  0.77849657107E+02  0.00000000000E+00 0. -1.
         -2   -1    0    0    0  501 -0.00000000000E+00 -0.00000000000E+00 -0.23104705505E+03  0.23104705505E+03  0.00000000000E+00 0.  1.
         25    2    1    2    0    0  0.33402521198E+02  0.73327980046E+02 -0.91899078189E+02  0.17488732393E+03  0.12508962555E+03 0.  0.
          5    1    3    3  502    0  0.40416870183E+02 -0.26025425281E+02 -0.21375436455E+02  0.52775257840E+02  0.41800000000E+01 0. -1.
         -5    1    3    3    0  502 -0.70143489856E+01  0.99353405327E+02 -0.70523641734E+02  0.12211206609E+03  0.41800000000E+01 0. -1.
        -11    1    1    2    0    0  0.20794106422E+02 -0.98814248209E+01  0.91798814985E+01  0.24785230334E+02  0.00000000000E+00 0. -1.
         11    1    1    2    0    0 -0.54196627620E+02 -0.63446555225E+02 -0.70478201253E+02  0.10922415789E+03  0.00000000000E+00 0.  1.
</event>
<event>
 7    1  0.2989693E-009  0.9752955E+02  0.7561462E-02  0.1285578E+00
         -4   -1    0    0    0  501 -0.00000000000E+00  0.00000000000E+00  0.30447327965E+02  0.30447327965E+02  0.00000000000E+00 0.  1.
          4   -1    0    0  501    0  0.00000000000E+00 -0.00000000000E+00 -0.39880874669E+03  0.39880874669E+03  0.00000000000E+00 0. -1.
         25    2    1    2    0    0 -0.10866474906E+02  0.11869931488E+02 -0.22511889156E+03  0.25804222296E+03  0.12509315707E+03 0.  0.
          5    1    3    3  502    0 -0.51679106910E+02  0.35606766729E+02 -0.62550839356E+02  0.88705421661E+02  0.41800000000E+01 0.  1.
         -5    1    3    3    0  502  0.40812632004E+02 -0.23736835241E+02 -0.16256805220E+03  0.16933680130E+03  0.41800000000E+01 0.  1.
        -11    1    1    2    0    0  0.42598550628E+01  0.36095304455E+02 -0.99619339723E+02  0.10604258680E+03  0.00000000000E+00 0. -1.
         11    1    1    2    0    0  0.66066198435E+01 -0.47965235943E+02 -0.43623187450E+02  0.65171264896E+02  0.00000000000E+00 0.  1.
</event>
<event>
 7    1  0.2989693E-009  0.1942760E+03  0.7561462E-02  0.1154660E+00
          3   -1    0    0  501    0  0.00000000000E+00  0.00000000000E+00  0.12919466335E+03  0.12919466335E+03  0.00000000000E+00 0. -1.
         -3   -1    0    0    0  501 -0.00000000000E+00 -0.00000000000E+00 -0.38101186657E+03  0.38101186657E+03  0.00000000000E+00 0.  1.
         25    2    1    2    0    0 -0.57052859466E+02 -0.16127295511E+03 -0.24274638962E+02  0.21330919536E+03  0.12509020708E+03 0.  0.
          5    1    3    3  502    0 -0.90829462748E+02 -0.12285503034E+03 -0.42834696033E+02  0.15873132447E+03  0.41800000000E+01 0.  1.
         -5    1    3    3    0  502  0.33776603282E+02 -0.38417924771E+02  0.18560057071E+02  0.54577870896E+02  0.41800000000E+01 0.  1.
        -11    1    1    2    0    0  0.39686227625E+02  0.24771599529E+02 -0.94746530329E+02  0.10566708956E+03  0.00000000000E+00 0.  1.
         11    1    1    2    0    0  0.17366631841E+02  0.13650135558E+03 -0.13279603393E+03  0.19123024500E+03  0.00000000000E+00 0. -1.
</event>
<event>
 7    1  0.2989693E-009  0.1052083E+03  0.7561462E-02  0.1269710E+00
         -1   -1    0    0    0  501 -0.00000000000E+00  0.00000000000E+00  0.23147108572E+03  0.23147108572E+03  0.00000000000E+00 0.  1.
          1   -1    0    0  501    0  0.00000000000E+00 -0.00000000000E+00 -0.57145096066E+02  0.57145096066E+02  0.00000000000E+00 0. -1.
         25    2    1    2    0    0 -0.15228575510E+02  0.18505241259E+02  0.61516731500E+02  0.14144266909E+03  0.12508943568E+03 0.  0.
          5    1    3    3  502    0  0.50713819263E+02  0.30739848944E+02  0.36375514433E+02  0.69695625599E+02  0.41800000000E+01 0. -1.
         -5    1    3    3    0  502 -0.65942394773E+02 -0.12234607685E+02  0.25141217068E+02  0.71747043488E+02  0.41800000000E+01 0. -1.
        -11    1    1    2    0    0  0.48290820887E+02 -0.71861360694E+01  0.97459986555E+02  0.10900501325E+03  0.00000000000E+00 0.  1.
         11    1    1    2    0    0 -0.33062245377E+02 -0.11319105190E+02  0.15349271595E+02  0.38168499449E+02  0.00000000000E+00 0. -1.
</event>
<event>
 7    1  0.2989693E-009  0.1088791E+03  0.7561462E-02  0.1262660E+00
          2   -1    0    0  501    0  0.00000000000E+00  0.00000000000E+00  0.34626858041E+03  0.34626858041E+03  0.00000000000E+00 0. -1.
         -2   -1    0    0    0  501 -0.00000000000E+00 -0.00000000000E+00 -0.44468034049E+02  0.44468034049E+02  0.00000000000E+00 0.  1.
         25    2    1    2    0    0 -0.30246969021E+02 -0.17172428293E+02  0.24713442775E+03  0.27916368148E+03  0.12508862559E+03 0.  0.
          5    1    3    3  502    0 -0.77031771777E+02  0.12919634256E+01  0.17362020420E+03  0.18999213336E+03  0.41800000000E+01 0. -1.
         -5    1    3    3    0  502  0.46784802756E+02 -0.18464391719E+02  0.73514223551E+02  0.89171548124E+02  0.41800000000E+01 0. -1.
        -11    1    1    2    0    0  0.51616266941E+02 -0.12934773436E+02  0.10905326497E+02  0.54318261411E+02  0.00000000000E+00 0.  1.
         11    1    1    2    0    0 -0.21369297920E+02  0.30107201729E+02  0.43760792119E+02  0.57254671568E+02  0.00000000000E+00 0. -1.
</event>
<event>
 7    1  0.2989693E-009  0.1156491E+03  0.7561462E-02  0.1250452E+00
         -3   -1    0    0    0  501 -0.00000000000E+00  0.00000000000E+00  0.38144692541E+03  0.38144692541E+03  0.00000000000E+00 0.  1.
          3   -1    0    0  501    0  0.00000000000E+00 -0.00000000000E+00 -0.45367306812E+02  0.45367306812E+02  0.00000000000E+00 0. -1.
         25    2    1    2    0    0  0.50904956405E+02  0.48991065067E+02  0.22888204184E+03  0.27023273544E+03  0.12508918092E+03 0.  0.
          5    1    3    3  502    0  0.69977421407E+02  0.62096314131E+02  0.22824295036E+03  0.24670854976E+03  0.41800000000E+01 0. -1.
         -5    1    3    3    0  502 -0.19072465001E+02 -0.13105249064E+02  0.63909148623E+00  0.23524185686E+02  0.41800000000E+01 0. -1.
        -11    1    1    2    0    0 -0.50279022720E+02  0.13164842743E+02  0.48602913579E+02  0.71158530188E+02  0.00000000000E+00 0. -1.
         11    1    1    2    0    0 -0.62593368516E+00 -0.62155907810E+02  0.58594663174E+02  0.85422966591E+02  0.00000000000E+00 0.  1.
</event>
<event>
 7    1  0.2989693E-009  0.8752098E+02  0.7561462E-02  0.1308969E+00
         -2   -1    0    0    0  501 -0.00000000000E+00  0.00000000000E+00  0.97139402875E+02  0.97139402875E+02  0.00000000000E+00 0.  1.
          2   -1    0    0  501    0  0.00000000000E+00 -0.00000000000E+00 -0.17126187841E+03  0.17126187841E+03  0.00000000000E+00 0. -1.
         25    2    1    2    0    0  0.34781972516E+02 -0.31888874333E+02 -0.20810023644E+00  0.13369748518E+03  0.12509311859E+03 0.  0.
          5    1    3    3  502    0  0.33606184508E+02 -0.34742064892E+01  0.58866181610E+02  0.68001069736E+02  0.41800000000E+01 0.  1.
         -5    1    3    3    0  502  0.11757880079E+01 -0.28414667844E+02 -0.59074281846E+02  0.65696415441E+02  0.41800000000E+01 0.  1.
        -11    1    1    2    0    0  0.35955159922E+02  0.38411357687E+01 -0.18869769066E+02  0.40787204287E+02  0.00000000000E+00 0.  1.
         11    1    1    2    0    0 -0.70737132438E+02  0.28047738565E+02 -0.55044606236E+02  0.93916591823E+02  0.00000000000E+00 0. -1.
</event>
<event>
 7    1  0.2989693E-009  0.7175091E+02  0.7561462E-02  0.1354238E+00
         -2   -1    0    0    0  501 -0.00000000000E+00  0.00000000000E+00  0.67531853782E+02  0.67531853782E+02  0.00000000000E+00 0. -1.
          2   -1    0    0  501    0  0.00000000000E+00 -0.00000000000E+00 -0.21078718730E+03  0.21078718730E+03  0.00000000000E+00 0.  1.
         25    2    1    2    0    0 -0.17716453572E+02 -0.47829087442E+02 -0.82596124698E+02  0.15834500823E+03  0.12509807146E+03 0.  0.
          5    1    3    3  502    0 -0.17387246883E+01 -0.52120888105E+02  0.18747569058E+02  0.55574759432E+02  0.41800000000E+01 0.  1.
         -5    1    3    3    0  502 -0.15977728884E+02  0.42918006623E+01 -0.10134369376E+03  0.10277024879E+03  0.41800000000E+01 0.  1.
        -11    1    1    2    0    0  0.30592504481E+02  0.71011441832E+01  0.13664864044E+02  0.34249906401E+02  0.00000000000E+00 0. -1.
         11    1    1    2    0    0 -0.12876050908E+02  0.40727943259E+02 -0.74324072865E+02  0.85724126454E+02  0.00000000000E+00 0.  1.
</event>
<event>
 7    1  0.2989693E-009  0.1211703E+03  0.7561462E-02  0.1241179E+00
          2   -1    0    0  501    0  0.00000000000E+00  0.00000000000E+00  0.26191647874E+03  0.26191647874E+03  0.00000000000E+00 0. -1.
         -2   -1    0    0    0  501 -0.00000000000E+00 -0.00000000000E+00 -0.63860750156E+02  0.63860750156E+02  0.00000000000E+00 0.  1.
         25    2    1    2    0    0 -0.41143034207E+02  0.51928839985E+02  0.74128575859E+02  0.15978610877E+03  0.12508877292E+03 0.  0.
          5    1    3    3  502    0 -0.41314236727E+02  0.90848640976E+02  0.39137829626E+02  0.10728272849E+03  0.41800000000E+01 0. -1.
         -5    1    3    3    0  502  0.17120252059E+00 -0.38919800991E+02  0.34990746233E+02  0.52503380286E+02  0.41800000000E+01 0. -1.
        -11    1    1    2    0    0  0.35256363065E+02  0.13397802891E+02  0.18954622869E+02  0.42211254269E+02  0.00000000000E+00 0.  1.
         11    1    1    2    0    0  0.58866711419E+01 -0.65326642877E+02  0.10497252986E+03  0.12377986585E+03  0.00000000000E+00 0. -1.
</event>
<event>
 7    1  0.2989693E-009  0.9637526E+02  0.7561462E-02  0.1288108E+00
          2   -1    0    0  501    0  0.00000000000E+00  0.00000000000E+00  0.73867345596E+03  0.73867345596E+03  0.00000000000E+00 0. -1.
         -2   -1    0    0    0  501 -0.00000000000E+00 -0.00000000000E+00 -0.18938031787E+02  0.18938031787E+02  0.00000000000E+00 0.  1.
         25    2    1    2    0    0  0.32197413080E+02  0.11522432361E+02  0.50328773980E+03  0.51972588741E+03  0.12508800563E+03 0.  0.
          5    1    3    3  502    0  0.77412388979E+02 -0.81517615831E+01  0.25902160420E+03  0.27049730687E+03  0.41800000000E+01 0.  1.
         -5    1    3    3    0  502 -0.45214975899E+02  0.19674193944E+02  0.24426613560E+03  0.24922858054E+03  0.41800000000E+01 0.  1.
        -11    1    1    2    0    0 -0.11568877459E+02  0.22628053132E+02  0.95069141438E+01  0.27133911084E+02  0.00000000000E+00 0.  1.
         11    1    1    2    0    0 -0.20628535621E+02 -0.34150485493E+02  0.20694077022E+03  0.21075168925E+03  0.00000000000E+00 0. -1.
</event>
<event>
 7    1  0.2989693E-009  0.1084833E+03  0.7561462E-02  0.1263405E+00
         -2   -1    0    0    0  501 -0.00000000000E+00  0.00000000000E+00  0.10269276784E+03  0.10269276784E+03  0.00000000000E+00 0.  1.
          2   -1    0    0  501    0  0.00000000000E+00 -0.00000000000E+00 -0.12331723385E+03  0.12331723385E+03  0.00000000000E+00 0. -1.
         25    2    1    2    0    0  0.20207078078E+02  0.18566708345E+00 -0.35225733002E+02  0.13151533726E+03  0.12508825362E+03 0.  0.
          5    1    3    3  502    0  0.71378471037E+02 -0.15148566962E+02 -0.21941302940E+02  0.76310277049E+02  0.41800000000E+01 0.  1.
         -5    1    3    3    0  502 -0.51171392959E+02  0.15334234045E+02 -0.13284430062E+02  0.55205060213E+02  0.41800000000E+01 0.  1.
        -11    1    1    2    0    0 -0.60762528992E+01 -0.43918496350E+02  0.19180792911E+02  0.48307949528E+02  0.00000000000E+00 0.  1.
         11    1    1    2    0    0 -0.14130825179E+02  0.43732829266E+02 -0.45795259218E+01  0.46186714903E+02  0.00000000000E+00 0. -1.
</event>
<event>
 7    1  0.2989693E-009  0.1036717E+03  0.7561462E-02  0.1272759E+00
         -2   -1    0    0    0  501 -0.00000000000E+00  0.00000000000E+00  0.23066266806E+03  0.23066266806E+03  0.00000000000E+00 0.  1.
          2   -1    0    0  501    0  0.00000000000E+00 -0.00000000000E+00 -0.65599092414E+02  0.65599092414E+02  0.00000000000E+00 0. -1.
         25    2    1    2    0    0 -0.22260674119E+02  0.53323651976E+02  0.86936184420E+02  0.16292542124E+03  0.12509133964E+03 0.  0.
          5    1    3    3  502    0 -0.44283106656E+02 -0.10374457572E+02 -0.80546433249E+01  0.46378578936E+02  0.41800000000E+01 0. -1.
         -5    1    3    3    0  502  0.22022432537E+02  0.63698109549E+02  0.94990827745E+02  0.11654684230E+03  0.41800000000E+01 0. -1.
        -11    1    1    2    0    0  0.23359753333E+02 -0.71866239935E+02  0.84813296054E+02  0.11359458484E+03  0.00000000000E+00 0.  1.
         11    1    1    2    0    0 -0.10990792139E+01  0.18542587958E+02 -0.66859048240E+01  0.19741754396E+02  0.00000000000E+00 0. -1.
</event>
<event>
 7    1  0.2989693E-009  0.2908785E+03  0.7561462E-02  0.1089891E+00
          1   -1    0    0  501    0  0.00000000000E+00  0.00000000000E+00  0.16112159528E+04  0.16112159528E+04  0.00000000000E+00 0. -1.
         -1   -1    0    0    0  501 -0.00000000000E+00 -0.00000000000E+00 -0.57425428630E+02  0.57425428630E+02  0.00000000000E+00 0.  1.
         25    2    1    2    0    0 -0.28065547005E+03  0.39729538191E+02  0.86130142311E+03  0.91533507776E+03  0.12510888875E+03 0.  0.
          5    1    3    3  502    0 -0.22978777036E+03  0.44262922577E+02  0.80875766270E+03  0.84194302367E+03  0.41800000000E+01 0.  1.
         -5    1    3    3    0  502 -0.50867699687E+02 -0.45333843862E+01  0.52543760409E+02  0.73392054088E+02  0.41800000000E+01 0.  1.
        -11    1    1    2    0    0  0.13373808803E+03 -0.62801705952E+02  0.33746899452E+03  0.36839551127E+03  0.00000000000E+00 0.  1.
         11    1    1    2    0    0  0.14691738202E+03  0.23072167761E+02  0.35502010657E+03  0.38491079243E+03  0.00000000000E+00 0. -1.
</event>
<event>
 6    1  0.2989693E-009  0.1123088E+03  0.7561462E-02  0.1256353E+00
         -2   -1    0    0    0  501 -0.00000000000E+00  0.00000000000E+00  0.33825137992E+02  0.33825137992E+02  0.00000000000E+00 0. -1.
          2   -1    0    0  501    0  0.00000000000E+00 -0.00000000000E+00 -0.48563535614E+03  0.48563535614E+03  0.00000000000E+00 0.  1.
          5    1    1    2  502    0 -0.62202231335E+02  0.12482845533E+02 -0.49996891948E+02  0.80883253026E+02  0.41800000000E+01 0. -1.
         -5    1    1    2    0  502  0.32629061615E+02  0.48712791838E+02 -0.18403544426E+03  0.19319448464E+03  0.41800000000E+01 0. -1.
        -11    1    1    2    0    0  0.54652323680E+02 -0.52308012388E+02 -0.10441912157E+03  0.12894323399E+03  0.00000000000E+00 0. -1.
         11    1    1    2    0    0 -0.25079153959E+02 -0.88876249829E+01 -0.11335876037E+03  0.11643952247E+03  0.00000000000E+00 0.  1.
</event>
<event>
 7    1  0.2989693E-009  0.8312117E+02  0.7561462E-02  0.1320420E+00
          3   -1    0    0  501    0  0.00000000000E+00  0.00000000000E+00  0.69794699781E+02  0.69794699781E+02  0.00000000000E+00 0. -1.
         -3   -1    0    0    0  501 -0.00000000000E+00 -0.00000000000E+00 -0.33488483355E+03  0.33488483355E+03  0.00000000000E+00 0.  1.
         25    2    1    2    0    0  0.47818596323E+02 -0.38747747231E+01 -0.22730253278E+02  0.13588945450E+03  0.12509055679E+03 0.  0.
          5    1    3    3  502    0  0.41365092850E+02 -0.60822759249E+01  0.48523674134E+02  0.64187883112E+02  0.41800000000E+01 0. -1.
         -5    1    3    3    0  502  0.64535034725E+01  0.22075012019E+01 -0.71253927412E+02  0.71701571393E+02  0.41800000000E+01 0. -1.
        -11    1    1    2    0    0  0.28133304086E+02 -0.22288789645E+02 -0.73472417209E+02  0.81770832411E+02  0.00000000000E+00 0.  1.
         11    1    1    2    0    0 -0.75951900409E+02  0.26163564368E+02 -0.16888746329E+03  0.18701924642E+03  0.00000000000E+00 0. -1.
</event>
<event>
 7    1  0.2989693E-009  0.1571611E+03  0.7561462E-02  0.1191940E+00
          2   -1    0    0  501    0  0.00000000000E+00  0.00000000000E+00  0.63142685165E+03  0.63142685165E+03  0.00000000000E+00 0. -1.
         -2   -1    0    0    0  501 -0.00000000000E+00 -0.00000000000E+00 -0.39330130682E+02  0.39330130682E+02  0.00000000000E+00 0.  1.
         25    2    1    2    0    0 -0.36739043633E+02  0.10716761163E+03  0.30965859699E+03  0.35266196421E+03  0.12508940802E+03 0.  0.
          5    1    3    3  502    0 -0.58010484304E+02 -0.12772543723E+01  0.10727393637E+03  0.12203285415E+03  0.41800000000E+01 0.  1.
         -5    1    3    3    0  502  0.21271440671E+02  0.10844486601E+03  0.20238466063E+03  0.23062911006E+03  0.41800000000E+01 0.  1.
        -11    1    1    2    0    0  0.40346576101E+02 -0.12293273896E+03  0.26025605056E+03  0.29064328027E+03  0.00000000000E+00 0. -1.
         11    1    1    2    0    0 -0.36075324684E+01  0.15765127328E+02  0.22182073413E+02  0.27451737852E+02  0.00000000000E+00 0.  1.
</event>
<event>
 7    1  0.2989693E-009  0.9415257E+02  0.7561462E-02  0.1293096E+00
          2   -1    0    0  501    0  0.00000000000E+00  0.00000000000E+00  0.12622900944E+03  0.12622900944E+03  0.00000000000E+00 0. -1.
         -2   -1    0    0    0  501 -0.00000000000E+00 -0.00000000000E+00 -0.10904656996E+03  0.10904656996E+03  0.00000000000E+00 0.  1.
         25    2    1    2    0    0 -0.22598802911E+02  0.74019397978E+01 -0.29167747673E+02  0.13062861591E+03  0.12509030012E+03 0.  0.
          5    1    3    3  502    0 -0.47012018294E+02  0.43484978399E+02 -0.50762198947E+02  0.81825096715E+02  0.41800000000E+01 0.  1.
         -5    1    3    3    0  502  0.24413215383E+02 -0.36083038602E+02  0.21594451273E+02  0.48803519196E+02  0.41800000000E+01 0.  1.
        -11    1    1    2    0    0 -0.26374347074E+02 -0.15697736861E+02 -0.72846630961E+01  0.31545070020E+02  0.00000000000E+00 0.  1.
         11    1    1    2    0    0  0.48973149985E+02  0.82957970636E+01  0.53634850243E+02  0.73101893470E+02  0.00000000000E+00 0. -1.
</event>
<event>
 7    1  0.2989693E-009  0.1424586E+03  0.7561462E-02  0.1210059E+00
          2   -1    0    0  501    0  0.00000000000E+00  0.00000000000E+00  0.31370385318E+03  0.31370385318E+03  0.00000000000E+00 0.  1.
         -2   -1    0    0    0  501 -0.00000000000E+00 -0.00000000000E+00 -0.83344128358E+02  0.83344128358E+02  0.00000000000E+00 0. -1.
         25    2    1    2    0    0  0.11098248006E+03  0.26658548723E+02  0.16475958470E+03  0.23626422635E+03  0.12508906748E+03 0.  0.
          5    1    3    3  502    0  0.83675343745E+01  0.58119640836E+02  0.37777243670E+02  0.69946413930E+02  0.41800000000E+01 0.  1.
         -5    1    3    3    0  502  0.10261494568E+03 -0.31461092113E+02  0.12698234103E+03  0.16631781242E+03  0.41800000000E+01 0.  1.
        -11    1    1    2    0    0 -0.63784428286E+02  0.12691854909E+01  0.81671748847E+02  0.10363560529E+03  0.00000000000E+00 0.  1.
         11    1    1    2    0    0 -0.47198051772E+02 -0.27927734214E+02 -0.16071608729E+02  0.57148149896E+02  0.00000000000E+00 0. -1.
</event>
<event>
 7    1  0.2989693E-009  0.1500338E+03  0.7561462E-02  0.1200431E+00
          2   -1    0    0  501    0  0.00000000000E+00  0.00000000000E+00  0.46477363924E+03  0.46477363924E+03  0.00000000000E+00 0. -1.
         -2   -1    0    0    0  501 -0.00000000000E+00 -0.00000000000E+00 -0.68850179404E+02  0.68850179404E+02  0.00000000000E+00 0.  1.
         25    2    1    2    0    0  0.89945033050E+02 -0.84557195710E+02  0.31390523566E+03  0.35975737527E+03  0.12509533874E+03 0.  0.
          5    1    3    3  502    0  0.10582260233E+03 -0.97627523702E+02  0.30431968313E+03  0.33668605330E+03  0.41800000000E+01 0. -1.
         -5    1    3    3    0  502 -0.15877569283E+02  0.13070327992E+02  0.95855525265E+01  0.23071321969E+02  0.41800000000E+01 0. -1.
        -11    1    1    2    0    0 -0.34241959906E+02  0.54976185112E+00  0.62396989366E+02  0.71177231880E+02  0.00000000000E+00 0. -1.
         11    1    1    2    0    0 -0.55703073144E+02  0.84007433859E+02  0.19621234816E+02  0.10268921149E+03  0.00000000000E+00 0.  1.
</event>
<event>
 7    1  0.2989693E-009  0.9526645E+02  0.7561462E-02  0.1290577E+00
         -2   -1    0    0    0  501 -0.00000000000E+00  0.00000000000E+00  0.46988620790E+02  0.46988620790E+02  0.00000000000E+00 0.  1.
          2   -1    0    0  501    0  0.00000000000E+00 -0.00000000000E+00 -0.35377509527E+03  0.35377509527E+03  0.00000000000E+00 0. -1.
         25    2    1    2    0    0  0.66682419445E+02 -0.19186663299E+02 -0.16623096562E+03  0.21930481567E+03  0.12508874904E+03 0.  0.
          5    1    3    3  502    0  0.59847405581E+02 -0.40701578764E+02 -0.25710057171E+02  0.76920802832E+02  0.41800000000E+01 0.  1.
         -5    1    3    3    0  502  0.68350138644E+01  0.21514915464E+02 -0.14052090845E+03  0.14238401284E+03  0.41800000000E+01 0.  1.
        -11    1    1    2    0    0 -0.78091547931E+02  0.25359209687E+02 -0.64788112294E+02  0.10458909536E+03  0.00000000000E+00 0.  1.
         11    1    1    2    0    0  0.11409128486E+02 -0.61725463876E+01 -0.75767396568E+02  0.76869805024E+02  0.00000000000E+00 0. -1.
</event>
<event>
 7    1  0.2989693E-009  0.1072289E+03  0.7561462E-02  0.1265789E+00
         -1   -1    0    0    0  501 -0.00000000000E+00  0.00000000000E+00  0.10491532060E+03  0.10491532060E+03  0.00000000000E+00 0.  1.
          1   -1    0    0  501    0  0.00000000000E+00 -0.00000000000E+00 -0.14595901827E+03  0.14595901827E+03  0.00000000000E+00 0. -1.
         25    2    1    2    0    0 -0.10337072884E+02 -0.38826762100E+02 -0.67002693721E+02  0.14748987451E+03  0.12509807987E+03 0.  0.
          5    1    3    3  502    0 -0.30669464215E+02  0.30219494060E+02 -0.61487961867E+02  0.75180288048E+02  0.41800000000E+01 0.  1.
         -5    1    3    3    0  502  0.20332391331E+02 -0.69046256160E+02 -0.55147318541E+01  0.72309586462E+02  0.41800000000E+01 0.  1.
        -11    1    1    2    0    0 -0.13785466412E+02  0.63272277538E+02  0.10037910809E+02  0.65529991931E+02  0.00000000000E+00 0.  1.
         11    1    1    2    0    0  0.24122539296E+02 -0.24445515438E+02  0.15921085241E+02  0.37854472423E+02  0.00000000000E+00 0. -1.
</event>
<event>
 7    1  0.2989693E-009  0.1469590E+03  0.7561462E-02  0.1204260E+00
         -2   -1    0    0    0  501 -0.00000000000E+00  0.00000000000E+00  0.54901193412E+02  0.54901193412E+02  0.00000000000E+00 0.  1.
          2   -1    0    0  501    0  0.00000000000E+00 -0.00000000000E+00 -0.51509526883E+03  0.51509526883E+03  0.00000000000E+00 0. -1.
         25    2    1    2    0    0  0.78240216504E+02 -0.10292852102E+03 -0.27872729899E+03  0.33174184635E+03  0.12509170036E+03 0.  0.
          5    1    3    3  502    0  0.76079279698E+02 -0.20443953730E+02 -0.20981513291E+03  0.22415591547E+03  0.41800000000E+01 0.  1.
         -5    1    3    3    0  502  0.21609368066E+01 -0.82484567289E+02 -0.68912166078E+02  0.10758593087E+03  0.41800000000E+01 0.  1.
        -11    1    1    2    0    0 -0.45922442892E+02  0.36950640091E+02 -0.14439811152E+03  0.15596485237E+03  0.00000000000E+00 0. -1.
         11    1    1    2    0    0 -0.32317773612E+02  0.65977880928E+02 -0.37068664914E+02  0.82289763528E+02  0.00000000000E+00 0.  1.
</event>
<event>
 7    1  0.2989693E-009  0.1233385E+03  0.7561462E-02  0.1237689E+00
          2   -1    0    0  501    0  0.00000000000E+00  0.00000000000E+00  0.46644174877E+03  0.46644174877E+03  0.00000000000E+00 0. -1.
         -2   -1    0    0    0  501 -0.00000000000E+00 -0.00000000000E+00 -0.49757747087E+02  0.49757747087E+02  0.00000000000E+00 0.  1.
         25    2    1    2    0    0 -0.60716245993E+02 -0.53983832876E+02  0.10752140188E+03  0.18387408270E+03  0.12509240459E+03 0.  0.
          5    1    3    3  502    0 -0.38041869541E+02  0.29070059648E+02  0.26592903933E+01  0.48133111592E+02  0.41800000000E+01 0. -1.
         -5    1    3    3    0  502 -0.22674376452E+02 -0.83053892524E+02  0.10486211149E+03  0.13574097111E+03  0.41800000000E+01 0. -1.
        -11    1    1    2    0    0 -0.16554627795E+02  0.24813584828E+02  0.34972642281E+02  0.45965806874E+02  0.00000000000E+00 0.  1.
         11    1    1    2    0    0  0.77270873788E+02  0.29170248048E+02  0.27418995752E+03  0.28635960628E+03  0.00000000000E+00 0. -1.
</event>
<event>
 7    1  0.2989693E-009  0.1072450E+03  0.7561462E-02  0.1265758E+00
          2   -1    0    0  501    0  0.00000000000E+00  0.00000000000E+00  0.89622637421E+03  0.89622637421E+03  0.00000000000E+00 0.  1.
         -2   -1    0    0    0  501 -0.00000000000E+00 -0.00000000000E+00 -0.14967219046E+02  0.14967219046E+02  0.00000000000E+00 0. -1.
         25    2    1    2    0    0 -0.20339828964E+02 -0.17380948605E+02  0.50211067966E+03  0.51815134666E+03  0.12509947003E+03 0.  0.
          5    1    3    3  502    0 -0.54250909978E+02  0.22482114480E+02  0.38924084438E+03  0.39366802517E+03  0.41800000000E+01 0.  1.
         -5    1    3    3    0  502  0.33911081015E+02 -0.39863063084E+02  0.11286983528E+03  0.12448332149E+03  0.41800000000E+01 0.  1.
        -11    1    1    2    0    0  0.39279718533E+02 -0.31719235595E+02  0.20427350500E+03  0.21042022488E+03  0.00000000000E+00 0.  1.
         11    1    1    2    0    0 -0.18939889570E+02  0.49100184200E+02  0.17487497050E+03  0.18262202171E+03  0.00000000000E+00 0. -1.
</event>
<event>
 7    1  0.2989693E-009  0.1011337E+03  0.7561462E-02  0.1277930E+00
         -1   -1    0    0    0  501 -0.00000000000E+00  0.00000000000E+00  0.12431537804E+03  0.12431537804E+03  0.00000000000E+00 0.  1.
          1   -1    0    0  501    0  0.00000000000E+00 -0.00000000000E+00 -0.93854202817E+02  0.93854202817E+02  0.00000000000E+00 0. -1.
         25    2    1    2    0    0 -0.51707625025E+00 -0.36541975552E+01  0.17965642792E+02  0.12642882435E+03  0.12509141768E+03 0.  0.
          5    1    3    3  502    0  0.45308962496E+02  0.33706935985E+02  0.32648169633E+02  0.65363866137E+02  0.41800000000E+01 0. -1.
         -5    1    3    3    0  502 -0.45826038747E+02 -0.37361133541E+02 -0.14682526841E+02  0.61064958209E+02  0.41800000000E+01 0. -1.
        -11    1    1    2    0    0 -0.15999680180E+02  0.41822734524E+02 -0.78179023241E+01  0.45456028045E+02  0.00000000000E+00 0.  1.
         11    1    1    2    0    0  0.16516756430E+02 -0.38168536969E+02  0.20313434750E+02  0.46284728460E+02  0.00000000000E+00 0. -1.
</event>
<event>
 7    1  0.2989693E-009  0.1065195E+03  0.7561462E-02  0.1267154E+00
         -3   -1    0    0    0  501 -0.00000000000E+00  0.00000000000E+00  0.17249783201E+03  0.17249783201E+03  0.00000000000E+00 0.  1.
          3   -1    0    0  501    0  0.00000000000E+00 -0.00000000000E+00 -0.11299080726E+03  0.11299080726E+03  0.00000000000E+00 0. -1.
         25    2    1    2    0    0  0.50347017636E+02  0.47019682195E+01 -0.40189008382E+02  0.14078255368E+03  0.12509052857E+03 0.  0.
          5    1    3    3  502    0  0.75333907200E+02  0.36011832462E+02 -0.52435293883E+02  0.98686281194E+02  0.41800000000E+01 0.  1.
         -5    1    3    3    0  502 -0.24986889563E+02 -0.31309864243E+02  0.12246285500E+02  0.42096272489E+02  0.41800000000E+01 0.  1.
        -11    1    1    2    0    0 -0.15344714753E+02 -0.37918376460E+02  0.88682455614E+01  0.41855815887E+02  0.00000000000E+00 0. -1.
         11    1    1    2    0    0 -0.35002302883E+02  0.33216408240E+02  0.90827787568E+02  0.10285026970E+03  0.00000000000E+00 0.  1.
</event>
<event>
 7    1  0.2989693E-009  0.1087129E+03  0.7561462E-02  0.1262972E+00
         -2   -1    0    0    0  501 -0.00000000000E+00  0.00000000000E+00  0.59910690688E+03  0.59910690688E+03  0.00000000000E+00 0.  1.
          2   -1    0    0  501    0  0.00000000000E+00 -0.00000000000E+00 -0.32784812330E+02  0.32784812330E+02  0.00000000000E+00 0. -1.
         25    2    1    2    0    0  0.67646786408E+02  0.51527850782E+02  0.25501086142E+03  0.29649432777E+03  0.12508852801E+03 0.  0.
          5    1    3    3  502    0 -0.77737656575E+00  0.38243873796E+02  0.20982104941E+03  0.21332028354E+03  0.41800000000E+01 0. -1.
         -5    1    3    3    0  502  0.68424162974E+02  0.13283976986E+02  0.45189812015E+02  0.83174044228E+02  0.41800000000E+01 0. -1.
        -11    1    1    2    0    0 -0.51132966447E+02  0.39022837864E+01  0.67222647329E+02  0.84549940214E+02  0.00000000000E+00 0. -1.
         11    1    1    2    0    0 -0.16513819961E+02 -0.55430134568E+02  0.24408858580E+03  0.25084745122E+03  0.00000000000E+00 0.  1.
</event>
<event>
 7    1  0.2989693E-009  0.1384073E+03  0.7561462E-02  0.1215488E+00
         -1   -1    0    0    0  501 -0.00000000000E+00  0.00000000000E+00  0.13225243712E+03  0.13225243712E+03  0.00000000000E+00 0.  1.
          1   -1    0    0  501    0  0.00000000000E+00 -0.00000000000E+00 -0.19111661424E+03  0.19111661424E+03  0.00000000000E+00 0. -1.
         25    2    1    2    0    0 -0.70442865052E+02 -0.73577764264E+02 -0.91335622559E+02  0.18537814893E+03  0.12508787919E+03 0.  0.
          5    1    3    3  502    0 -0.75760329719E+02 -0.10476467876E+03 -0.71424326907E+02  0.14776390746E+03  0.41800000000E+01 0. -1.
         -5    1    3    3    0  502  0.53174646666E+01  0.31186914496E+02 -0.19911295652E+02  0.37614241462E+02  0.41800000000E+01 0. -1.
        -11    1    1    2    0    0  0.22442238309E+02 -0.54407054311E+01  0.38980139681E+02  0.45306805509E+02  0.00000000000E+00 0.  1.
         11    1    1    2    0    0  0.48000626744E+02  0.79018469695E+02 -0.65086942410E+01  0.92684096918E+02  0.00000000000E+00 0. -1.
</event>
<event>
 7    1  0.2989693E-009  0.8863660E+02  0.7561462E-02  0.1306187E+00
          1   -1    0    0  501    0  0.00000000000E+00  0.00000000000E+00  0.50752475477E+02  0.50752475477E+02  0.00000000000E+00 0. -1.
         -1   -1    0    0    0  501 -0.00000000000E+00 -0.00000000000E+00 -0.27208982782E+03  0.27208982782E+03  0.00000000000E+00 0.  1.
         25    2    1    2    0    0 -0.48938383121E+01 -0.28376411770E+02 -0.87507237930E+02  0.15535045862E+03  0.12508828045E+03 0.  0.
          5    1    3    3  502    0 -0.37659784925E+02 -0.49061954155E+02 -0.27378248252E+01  0.62050808463E+02  0.41800000000E+01 0. -1.
         -5    1    3    3    0  502  0.32765946613E+02  0.20685542385E+02 -0.84769413105E+02  0.93299650157E+02  0.41800000000E+01 0. -1.
        -11    1    1    2    0    0  0.25243081853E+02 -0.14312214929E+02 -0.11146305345E+03  0.11517840493E+03  0.00000000000E+00 0.  1.
         11    1    1    2    0    0 -0.20349243541E+02  0.42688626699E+02 -0.22367060961E+02  0.52313439747E+02  0.00000000000E+00 0. -1.
</event>
<event>
 7    1  0.2989693E-009  0.3218339E+03  0.7561462E-02  0.1074808E+00
          1   -1    0    0  501    0  0.00000000000E+00  0.00000000000E+00  0.12154450614E+03  0.12154450614E+03  0.00000000000E+00 0. -1.
         -1   -1    0    0    0  501 -0.00000000000E+00 -0.00000000000E+00 -0.94982806350E+03  0.94982806350E+03  0.00000000000E+00 0.  1.
         25    2    1    2    0    0 -0.24908936143E+03  0.19924699322E+03 -0.35930411448E+03  0.49648172685E+03  0.12509909724E+03 0.  0.
          5    1    3    3  502    0 -0.18880624824E+03  0.15281957642E+03 -0.33999346828E+03  0.41786918191E+03  0.41800000000E+01 0. -1.
         -5    1    3    3    0  502 -0.60283113184E+02  0.46427416799E+02 -0.19310646198E+02  0.78612544943E+02  0.41800000000E+01 0. -1.
        -11    1    1    2    0    0  0.83268093799E+02 -0.32565152888E+02 -0.77943365711E+02  0.11861379720E+03  0.00000000000E+00 0.  1.
         11    1    1    2    0    0  0.16582126763E+03 -0.16668184033E+03 -0.39103607717E+03  0.45627704560E+03  0.00000000000E+00 0. -1.
</event>
<event>
 7    1  0.2989693E-009  0.1184489E+03  0.7561462E-02  0.1245678E+00
          1   -1    0    0  501    0  0.00000000000E+00  0.00000000000E+00  0.63994799109E+03  0.63994799109E+03  0.00000000000E+00 0.  1.
         -1   -1    0    0    0  501 -0.00000000000E+00 -0.00000000000E+00 -0.38053844357E+02  0.38053844357E+02  0.00000000000E+00 0. -1.
         25    2    1    2    0    0 -0.33845735680E+02  0.74393458255E+02  0.15859589073E+03  0.21789897255E+03  0.12508950885E+03 0.  0.
          5    1    3    3  502    0  0.19462240523E+02  0.53693325169E+02  0.93567136260E+01  0.58023895627E+02  0.41800000000E+01 0.  1.
         -5    1    3    3    0  502 -0.53307976202E+02  0.20700133086E+02  0.14923917711E+03  0.15987507692E+03  0.41800000000E+01 0.  1.
        -11    1    1    2    0    0 -0.27518634868E+02 -0.48349826093E+02  0.22986692787E+03  0.23650324622E+03  0.00000000000E+00 0. -1.
         11    1    1    2    0    0  0.61364370548E+02 -0.26043632162E+02  0.21343132814E+03  0.22359961668E+03  0.00000000000E+00 0.  1.
</event>
<event>
 7    1  0.2989693E-009  0.1068889E+03  0.7561462E-02  0.1266442E+00
         -1   -1    0    0    0  501 -0.00000000000E+00  0.00000000000E+00  0.43497582940E+02  0.43497582940E+02  0.00000000000E+00 0.  1.
          1   -1    0    0  501    0  0.00000000000E+00 -0.00000000000E+00 -0.31970077910E+03  0.31970077910E+03  0.00000000000E+00 0. -1.
         25    2    1    2    0    0  0.11215967925E+02 -0.16482216887E+02 -0.90036662782E+02  0.15540625965E+03  0.12508814285E+03 0.  0.
          5    1    3    3  502    0 -0.96110167086E+01 -0.66911186385E+02 -0.29703442636E+02  0.73954346796E+02  0.41800000000E+01 0.  1.
         -5    1    3    3    0  502  0.20826984634E+02  0.50428969498E+02 -0.60333220146E+02  0.81451912849E+02  0.41800000000E+01 0.  1.
        -11    1    1    2    0    0 -0.68323528287E+01 -0.37021874145E+02 -0.91884397402E+02  0.99297747691E+02  0.00000000000E+00 0.  1.
         11    1    1    2    0    0 -0.43836150967E+01  0.53504091032E+02 -0.94282135975E+02  0.10849435470E+03  0.00000000000E+00 0. -1.
</event>
<event>
 7    1  0.2989693E-009  0.8358878E+02  0.7561462E-02  0.1319165E+00
          2   -1    0    0  501    0  0.00000000000E+00  0.00000000000E+00  0.19784571943E+03  0.19784571943E+03  0.00000000000E+00 0.  1.
         -2   -1    0    0    0  501 -0.00000000000E+00 -0.00000000000E+00 -0.63405301314E+02  0.63405301314E+02  0.00000000000E+00 0. -1.
         25    2    1    2    0    0  0.19569436578E+02 -0.23716524416E+01  0.97481216568E+02  0.15980949115E+03  0.12509155964E+03 0.  0.
          5    1    3    3  502    0 -0.13572164885E+02  0.47235277189E+02  0.48663166042E+01  0.49563378699E+02  0.41800000000E+01 0. -1.
         -5    1    3    3    0  502  0.33141601463E+02 -0.49606929630E+02  0.92614899964E+02  0.11024611245E+03  0.41800000000E+01 0. -1.
        -11    1    1    2    0    0 -0.33094363546E+02 -0.14747101596E+02 -0.19334920729E+02  0.41067664453E+02  0.00000000000E+00 0. -1.
         11    1    1    2    0    0  0.13524926968E+02  0.17118754038E+02  0.56294122273E+02  0.60373865138E+02  0.00000000000E+00 0.  1.
</event>
<event>
 7    1  0.2989693E-009  0.1062936E+03  0.7561462E-02  0.1267592E+00
          2   -1    0    0  501    0  0.00000000000E+00  0.00000000000E+00  0.95695027411E+03  0.95695027411E+03  0.00000000000E+00 0. -1.
         -2   -1    0    0    0  501 -0.00000000000E+00 -0.00000000000E+00 -0.16502991563E+02  0.16502991563E+02  0.00000000000E+00 0.  1.
         25    2    1    2    0    0  0.62630249680E+01 -0.32223168151E+02  0.73637549732E+03  0.74764481145E+03  0.12508530281E+03 0.  0.
          5    1    3    3  502    0 -0.59227161748E+02 -0.14273969351E+02  0.32657850375E+03  0.33223876114E+03  0.41800000000E+01 0.  1.
         -5    1    3    3    0  502  0.65490186716E+02 -0.17949198800E+02  0.40979699357E+03  0.41540605031E+03  0.41800000000E+01 0.  1.
        -11    1    1    2    0    0 -0.16079796970E+02  0.55734973867E+02  0.78100703527E+02  0.97286520515E+02  0.00000000000E+00 0.  1.
         11    1    1    2    0    0  0.98167720019E+01 -0.23511805716E+02  0.12597108170E+03  0.12852193372E+03  0.00000000000E+00 0. -1.
</event>
<event>
 7    1  0.2989693E-009  0.7424331E+02  0.7561462E-02  0.1346230E+00
          2   -1    0    0  501    0  0.00000000000E+00  0.00000000000E+00  0.65595427104E+03  0.65595427104E+03  0.00000000000E+00 0. -1.
         -2   -1    0    0    0  501 -0.00000000000E+00 -0.00000000000E+00 -0.24091317522E+02  0.24091317522E+02  0.00000000000E+00 0.  1.
         25    2    1    2    0    0  0.19992746754E+02 -0.27552996928E+02  0.21030792607E+03  0.24704202570E+03  0.12506582718E+03 0.  0.
          5    1    3    3  502    0 -0.55755426369E+01  0.88843946646E+01 -0.14190743625E+02  0.18134738732E+02  0.41800000000E+01 0. -1.
         -5    1    3    3    0  502  0.25568289390E+02 -0.36437391592E+02  0.22449866970E+03  0.22890728696E+03  0.41800000000E+01 0. -1.
        -11    1    1    2    0    0 -0.20431913873E+02 -0.29251231586E+02  0.93698322289E+02  0.10026202299E+03  0.00000000000E+00 0.  1.
         11    1    1    2    0    0  0.43916711983E+00  0.56804228514E+02  0.32785670516E+03  0.33274153988E+03  0.00000000000E+00 0. -1.
</event>
<event>
 7    1  0.3039952E-009  0.1355584E+03  0.7561462E-02  0.1219434E+00
          2   -1    0    0  501    0  0.00000000000E+00  0.00000000000E+00  0.79783697038E+03  0.79783697038E+03  0.00000000000E+00 0. -1.
         -2   -1    0    0    0  501 -0.00000000000E+00 -0.00000000000E+00 -0.34080865369E+02  0.34080865369E+02  0.00000000000E+00 0.  1.
         25    2    1    2    0    0 -0.82226628805E+02 -0.54124218821E+02  0.59605670365E+03  0.61694564871E+03  0.12509072687E+03 0.  0.
          5    1    3    3  502    0 -0.79976700069E+02 -0.78419545059E+02  0.57034334722E+03  0.58125287416E+03  0.41800000000E+01 0.  1.
         -5    1    3    3    0  502 -0.22499287362E+01  0.24295326238E+02  0.25713356433E+02  0.35692774554E+02  0.41800000000E+01 0.  1.
        -11    1    1    2    0    0  0.94744056483E+02  0.18522679476E+02  0.12601306502E+03  0.15874135709E+03  0.00000000000E+00 0. -1.
         11    1    1    2    0    0 -0.12517427679E+02  0.35601539345E+02  0.41686336341E+02  0.56230829951E+02  0.00000000000E+00 0.  1.
</event>
<event>
 7    1  0.2989693E-009  0.9158346E+02  0.7561462E-02  0.1299062E+00
         -2   -1    0    0    0  501 -0.00000000000E+00  0.00000000000E+00  0.41896634307E+03  0.41896634307E+03  0.00000000000E+00 0.  1.
          2   -1    0    0  501    0  0.00000000000E+00 -0.00000000000E+00 -0.45605634825E+02  0.45605634825E+02  0.00000000000E+00 0. -1.
         25    2    1    2    0    0  0.19629272984E+01 -0.50340854445E+02  0.29236261908E+03  0.32196022300E+03  0.12507769365E+03 0.  0.
          5    1    3    3  502    0  0.41238975818E+02 -0.30822014374E+02  0.38812047132E+02  0.64610348236E+02  0.41800000000E+01 0. -1.
         -5    1    3    3    0  502 -0.39276048519E+02 -0.19518840070E+02  0.25355057195E+03  0.25734987477E+03  0.41800000000E+01 0. -1.
        -11    1    1    2    0    0 -0.25942054992E+02  0.56951682993E+02  0.95231147443E+02  0.11395374437E+03  0.00000000000E+00 0.  1.
         11    1    1    2    0    0  0.23979127693E+02 -0.66108285484E+01 -0.14233058281E+02  0.28658010522E+02  0.00000000000E+00 0. -1.
</event>
<event>
 7    1  0.2989693E-009  0.1083767E+03  0.7561462E-02  0.1263606E+00
          3   -1    0    0  501    0  0.00000000000E+00  0.00000000000E+00  0.65039751500E+02  0.65039751500E+02  0.00000000000E+00 0. -1.
         -3   -1    0    0    0  501 -0.00000000000E+00 -0.00000000000E+00 -0.20921152834E+03  0.20921152834E+03  0.00000000000E+00 0.  1.
         25    2    1    2    0    0  0.49375621421E-01  0.42255842824E+02 -0.96007204299E+02  0.16325075859E+03  0.12509143940E+03 0.  0.
          5    1    3    3  502    0 -0.53965763387E+02  0.40593242681E+02 -0.83777725688E+02  0.10768609330E+03  0.41800000000E+01 0.  1.
         -5    1    3    3    0  502  0.54015139008E+02  0.16626001437E+01 -0.12229478611E+02  0.55564665286E+02  0.41800000000E+01 0.  1.
        -11    1    1    2    0    0  0.28855241899E+02  0.13677692692E+02 -0.33797897549E+00  0.31934597105E+02  0.00000000000E+00 0.  1.
         11    1    1    2    0    0 -0.28904617521E+02 -0.55933535517E+02 -0.47826593569E+02  0.79065924151E+02  0.00000000000E+00 0. -1.
</event>
<event>
 7    1  0.2989693E-009  0.1715456E+03  0.7561462E-02  0.1176246E+00
          4   -1    0    0  501    0  0.00000000000E+00  0.00000000000E+00  0.46079003594E+03  0.46079003594E+03  0.00000000000E+00 0. -1.
         -4   -1    0    0    0  501 -0.00000000000E+00 -0.00000000000E+00 -0.10849948755E+03  0.10849948755E+03  0.00000000000E+00 0.  1.
         25    2    1    2    0    0  0.10241376690E+03  0.90480247207E+02  0.50941588954E+01  0.18533442673E+03  0.12509054517E+03 0.  0.
          5    1    3    3  502    0  0.12430032330E+03  0.42229171254E+02 -0.40459620585E+01  0.13140667976E+03  0.41800000000E+01 0.  1.
         -5    1    3    3    0  502 -0.21886556403E+02  0.48251075952E+02  0.91401209539E+01  0.53927746966E+02  0.41800000000E+01 0.  1.
        -11    1    1    2    0    0 -0.25178103304E+02 -0.75942391872E+02  0.22364645042E+03  0.23752666914E+03  0.00000000000E+00 0.  1.
         11    1    1    2    0    0 -0.77235663593E+02 -0.14537855335E+02  0.12354993908E+03  0.14642842762E+03  0.00000000000E+00 0. -1.
</event>
<event>
 6    1  0.2989693E-009  0.1432127E+03  0.7561462E-02  0.1209070E+00
          2   -1    0    0  501    0  0.00000000000E+00  0.00000000000E+00  0.41007127038E+03  0.41007127038E+03  0.00000000000E+00 0. -1.
         -2   -1    0    0    0  501 -0.00000000000E+00 -0.00000000000E+00 -0.63121775964E+02  0.63121775964E+02  0.00000000000E+00 0.  1.
          5    1    1    2  502    0 -0.10237329699E+03 -0.21242579339E+02  0.11408501069E+03  0.15480439651E+03  0.41800000000E+01 0.  1.
         -5    1    1    2    0  502 -0.32500283318E+01  0.49212919205E+02  0.52477085154E+01  0.49774340232E+02  0.41800000000E+01 0.  1.
        -11    1    1    2    0    0  0.15537589291E+02  0.23774626637E+02  0.15341307394E+02  0.32280106340E+02  0.00000000000E+00 0. -1.
         11    1    1    2    0    0  0.90085736035E+02 -0.51744966504E+02  0.21227546782E+03  0.23633420327E+03  0.00000000000E+00 0.  1.
</event>
<event>
 7    1  0.2989693E-009  0.6676372E+02  0.7561462E-02  0.1371457E+00
         -4   -1    0    0    0  501 -0.00000000000E+00  0.00000000000E+00  0.63832478986E+02  0.63832478986E+02  0.00000000000E+00 0.  1.
          4   -1    0    0  501    0  0.00000000000E+00 -0.00000000000E+00 -0.17421272311E+03  0.17421272311E+03  0.00000000000E+00 0. -1.
         25    2    1    2    0    0  0.89773352687E+00  0.25605830166E+02 -0.58403368828E+02  0.14040444391E+03  0.12508393148E+03 0.  0.
          5    1    3    3  502    0 -0.30660481565E+02  0.23918202333E+02 -0.88379101163E+02  0.96646176618E+02  0.41800000000E+01 0. -1.
         -5    1    3    3    0  502  0.31558215092E+02  0.16876278324E+01  0.29975732334E+02  0.43758267293E+02  0.41800000000E+01 0. -1.
        -11    1    1    2    0    0 -0.16624611070E+02  0.12836516403E+02  0.98174417783E+01  0.23184822830E+02  0.00000000000E+00 0. -1.
         11    1    1    2    0    0  0.15726877543E+02 -0.38442346569E+02 -0.61794317072E+02  0.74455935354E+02  0.00000000000E+00 0.  1.
</event>
<event>
 7    1  0.2989693E-009  0.1181196E+03  0.7561462E-02  0.1246232E+00
         -3   -1    0    0    0  501 -0.00000000000E+00  0.00000000000E+00  0.70414724299E+02  0.70414724299E+02  0.00000000000E+00 0.  1.
          3   -1    0    0  501    0  0.00000000000E+00 -0.00000000000E+00 -0.28331921496E+03  0.28331921496E+03  0.00000000000E+00 0. -1.
         25    2    1    2    0    0 -0.48698517470E+02  0.72780764549E+02 -0.14543829489E+03  0.21087484912E+03  0.12508924446E+03 0.  0.
          5    1    3    3  502    0 -0.34878148550E+02  0.84663147345E+02 -0.16184453040E+03  0.18599854350E+03  0.41800000000E+01 0. -1.
         -5    1    3    3    0  502 -0.13820368919E+02 -0.11882382796E+02  0.16406235506E+02  0.24876305623E+02  0.41800000000E+01 0. -1.
        -11    1    1    2    0    0 -0.26689053698E+02 -0.25362585621E+02 -0.21503892919E+02  0.42637820621E+02  0.00000000000E+00 0. -1.
         11    1    1    2    0    0  0.75387571168E+02 -0.47418178928E+02 -0.45962302850E+02  0.10022126951E+03  0.00000000000E+00 0.  1.
</event>
<event>
 7    1  0.2989693E-009  0.9384694E+02  0.7561462E-02  0.1293794E+00
         -1   -1    0    0    0  501 -0.00000000000E+00  0.00000000000E+00  0.84047742735E+02  0.84047742735E+02  0.00000000000E+00 0.  1.
          1   -1    0    0  501    0  0.00000000000E+00 -0.00000000000E+00 -0.14434759666E+03  0.14434759666E+03  0.00000000000E+00 0. -1.
         25    2    1    2    0    0 -0.19985328888E+02 -0.55315251928E+00 -0.45076617975E+02  0.13445453360E+03  0.12508557378E+03 0.  0.
          5    1    3    3  502    0 -0.20597523357E+01 -0.46619606343E+02 -0.65730331900E+02  0.80719137798E+02  0.41800000000E+01 0.  1.
         -5    1    3    3    0  502 -0.17925576552E+02  0.46066453824E+02  0.20653713925E+02  0.53735395797E+02  0.41800000000E+01 0.  1.
        -11    1    1    2    0    0 -0.35227378170E+02  0.60706732127E+01 -0.14142489795E+02  0.38442570981E+02  0.00000000000E+00 0. -1.
         11    1    1    2    0    0  0.55212707058E+02 -0.55175206934E+01 -0.10807461511E+01  0.55498234815E+02  0.00000000000E+00 0.  1.
</event>
<event>
 7    1  0.2989693E-009  0.1144940E+03  0.7561462E-02  0.1252467E+00
         -2   -1    0    0    0  501 -0.00000000000E+00  0.00000000000E+00  0.48606156939E+03  0.48606156939E+03  0.00000000000E+00 0.  1.
          2   -1    0    0  501    0  0.00000000000E+00 -0.00000000000E+00 -0.35307764395E+02  0.35307764395E+02  0.00000000000E+00 0. -1.
         25    2    1    2    0    0 -0.17980956656E+02 -0.33611474110E+02  0.37297582310E+03  0.39523597044E+03  0.12508981460E+03 0.  0.
          5    1    3    3  502    0  0.29710900108E+02  0.35033423161E+02  0.15611772936E+03  0.16278911556E+03  0.41800000000E+01 0. -1.
         -5    1    3    3    0  502 -0.47691856764E+02 -0.68644897271E+02  0.21685809374E+03  0.23244685488E+03  0.41800000000E+01 0. -1.
        -11    1    1    2    0    0 -0.32493629005E+02  0.36183358965E+02  0.34960545200E+02  0.59894165931E+02  0.00000000000E+00 0.  1.
         11    1    1    2    0    0  0.50474585661E+02 -0.25718848549E+01  0.42817436697E+02  0.66239197418E+02  0.00000000000E+00 0. -1.
</event>
<event>
 7    1  0.2989693E-009  0.1329679E+03  0.7561462E-02  0.1223117E+00
          2   -1    0    0  501    0  0.00000000000E+00  0.00000000000E+00  0.18000470691E+03  0.18000470691E+03  0.00000000000E+00 0.  1.
         -2   -1    0    0    0  501 -0.00000000000E+00 -0.00000000000E+00 -0.17197798324E+03  0.17197798324E+03  0.00000000000E+00 0. -1.
         25    2    1    2    0    0 -0.55014786059E+02 -0.93965541064E+02 -0.80299738037E+02  0.18425982787E+03  0.12508991425E+03 0.  0.
          5    1    3    3  502    0 -0.70070119147E+02 -0.11244103848E+03 -0.42167440966E+02  0.13909843353E+03  0.41800000000E+01 0. -1.
         -5    1    3    3    0  502  0.15055333088E+02  0.18475497419E+02 -0.38132297071E+02  0.45161394345E+02  0.41800000000E+01 0. -1.
        -11    1    1    2    0    0  0.34700412576E+02  0.51334896624E+02  0.10130166036E+03  0.11874938583E+03  0.00000000000E+00 0.  1.
         11    1    1    2    0    0  0.20314373483E+02  0.42630644440E+02 -0.12975198649E+02  0.48973476447E+02  0.00000000000E+00 0. -1.
</event>
<event>
 7    1  0.2989693E-009  0.1154715E+03  0.7561462E-02  0.1250760E+00
         -2   -1    0    0    0  501 -0.00000000000E+00  0.00000000000E+00  0.33730712346E+02  0.33730712346E+02  0.00000000000E+00 0.  1.
          2   -1    0    0  501    0  0.00000000000E+00 -0.00000000000E+00 -0.45681759032E+03  0.45681759032E+03  0.00000000000E+00 0. -1.
         25    2    1    2    0    0  0.48324079641E+02  0.22276024094E+02 -0.18132652314E+03  0.22662620869E+03  0.12509473430E+03 0.  0.
          5    1    3    3  502    0  0.64106036505E+02 -0.31694999348E+02 -0.62369414894E+02  0.94981962573E+02  0.41800000000E+01 0.  1.
         -5    1    3    3    0  502 -0.15781956863E+02  0.53971023443E+02 -0.11895710824E+03  0.13164424612E+03  0.41800000000E+01 0.  1.
        -11    1    1    2    0    0 -0.23257579911E+01 -0.49444256779E+02 -0.14739103550E+03  0.15548074166E+03  0.00000000000E+00 0. -1.
         11    1    1    2    0    0 -0.45998321650E+02  0.27168232685E+02 -0.94369319332E+02  0.10844135232E+03  0.00000000000E+00 0.  1.
</event>
<event>
 7    1  0.2989693E-009  0.8955184E+02  0.7561462E-02  0.1303941E+00
         -2   -1    0    0    0  501 -0.00000000000E+00  0.00000000000E+00  0.57551015494E+02  0.57551015494E+02  0.00000000000E+00 0.  1.
          2   -1    0    0  501    0  0.00000000000E+00 -0.00000000000E+00 -0.21316264781E+03  0.21316264781E+03  0.00000000000E+00 0. -1.
         25    2    1    2    0    0 -0.18145425972E+02 -0.16509623708E+02 -0.10609342337E+03  0.16584539249E+03  0.12508819117E+03 0.  0.
          5    1    3    3  502    0 -0.26607438109E+02 -0.47629756602E+02  0.16933991826E+00  0.54717918022E+02  0.41800000000E+01 0.  1.
         -5    1    3    3    0  502  0.84620121371E+01  0.31120132894E+02 -0.10626276329E+03  0.11112747447E+03  0.41800000000E+01 0.  1.
        -11    1    1    2    0    0 -0.26115529655E+02  0.35192324966E+02 -0.29467412916E+02  0.52809554530E+02  0.00000000000E+00 0. -1.
         11    1    1    2    0    0  0.44260955628E+02 -0.18682701258E+02 -0.20050796031E+02  0.52058716281E+02  0.00000000000E+00 0.  1.
</event>
<event>
 7    1  0.2989693E-009  0.1958629E+03  0.7561462E-02  0.1153277E+00
          1   -1    0    0  501    0  0.00000000000E+00  0.00000000000E+00  0.31810870993E+03  0.31810870993E+03  0.00000000000E+00 0. -1.
         -1   -1    0    0    0  501 -0.00000000000E+00 -0.00000000000E+00 -0.13739859925E+03  0.13739859925E+03  0.00000000000E+00 0.  1.
         25    2    1    2    0    0  0.29656716966E+02 -0.17578513407E+03  0.10074480487E+03  0.23995288152E+03  0.12509170804E+03 0.  0.
          5    1    3    3  502    0 -0.29118387085E+02 -0.14257014054E+03  0.45200646614E+02  0.15242931573E+03  0.41800000000E+01 0.  1.
         -5    1    3    3    0  502  0.58775104051E+02 -0.33214993525E+02  0.55544158258E+02  0.87523565785E+02  0.41800000000E+01 0.  1.
        -11    1    1    2    0    0 -0.71650409707E+01  0.23290297159E+02 -0.20261237546E+02  0.31690590098E+02  0.00000000000E+00 0.  1.
         11    1    1    2    0    0 -0.22491675995E+02  0.15249483691E+03  0.10022654336E+03  0.18386383757E+03  0.00000000000E+00 0. -1.
</event>
<event>
 7    1  0.2989693E-009  0.1131110E+03  0.7561462E-02  0.1254915E+00
          2   -1    0    0  501    0  0.00000000000E+00  0.00000000000E+00  0.43816332698E+03  0.43816332698E+03  0.00000000000E+00 0. -1.
         -2   -1    0    0    0  501 -0.00000000000E+00 -0.00000000000E+00 -0.35950699798E+02  0.35950699798E+02  0.00000000000E+00 0.  1.
         25    2    1    2    0    0 -0.53412101882E+02 -0.20723408202E+02  0.18281819715E+03  0.22880618040E+03  0.12508981857E+03 0.  0.
          5    1    3    3  502    0  0.13190279358E+02 -0.59035698842E+02  0.80193215666E+02  0.10053666717E+03  0.41800000000E+01 0. -1.
         -5    1    3    3    0  502 -0.66602381240E+02  0.38312290640E+02  0.10262498148E+03  0.12826951323E+03  0.41800000000E+01 0. -1.
        -11    1    1    2    0    0  0.51502421866E+02  0.42502003143E+02  0.21193887466E+03  0.22220937497E+03  0.00000000000E+00 0. -1.
         11    1    1    2    0    0  0.19096800154E+01 -0.21778594941E+02  0.74555553695E+01  0.23098471405E+02  0.00000000000E+00 0.  1.
</event>
<event>
 7    1  0.2989693E-009  0.9590898E+02  0.7561462E-02  0.1289142E+00
         -1   -1    0    0    0  501 -0.00000000000E+00  0.00000000000E+00  0.46970268096E+02  0.46970268096E+02  0.00000000000E+00 0.  1.
          1   -1    0    0  501    0  0.00000000000E+00 -0.00000000000E+00 -0.26625820473E+03  0.26625820473E+03  0.00000000000E+00 0. -1.
         25    2    1    2    0    0  0.18109476536E+02 -0.42199181093E+01 -0.10208956079E+03  0.16252748340E+03  0.12508854300E+03 0.  0.
          5    1    3    3  502    0 -0.25115998246E+02 -0.49219511632E+02 -0.77624936195E+02  0.95375451834E+02  0.41800000000E+01 0. -1.
         -5    1    3    3    0  502  0.43225474782E+02  0.44999593523E+02 -0.24464624591E+02  0.67152031568E+02  0.41800000000E+01 0. -1.
        -11    1    1    2    0    0 -0.86860055402E+01 -0.33695383272E+02 -0.94044047145E+01  0.36045365501E+02  0.00000000000E+00 0.  1.
         11    1    1    2    0    0 -0.94234709957E+01  0.37915301381E+02 -0.10779397114E+03  0.11465562393E+03  0.00000000000E+00 0. -1.
</event>
<event>
 7    1  0.2989693E-009  0.1413357E+03  0.7561462E-02  0.1211543E+00
          2   -1    0    0  501    0  0.00000000000E+00  0.00000000000E+00  0.14563884871E+04  0.14563884871E+04  0.00000000000E+00 0. -1.
         -2   -1    0    0    0  501 -0.00000000000E+00 -0.00000000000E+00 -0.20179511356E+02  0.20179511356E+02  0.00000000000E+00 0.  1.
         25    2    1    2    0    0 -0.73106724318E+02 -0.55737340982E+02  0.11706718119E+04  0.11809197288E+04  0.12509064798E+03 0.  0.
          5    1    3    3  502    0 -0.60741534050E+02  0.29810976357E+02  0.57837723630E+03  0.58233661068E+03  0.41800000000E+01 0.  1.
         -5    1    3    3    0  502 -0.12365190268E+02 -0.85548317338E+02  0.59229457563E+03  0.59858311808E+03  0.41800000000E+01 0.  1.
        -11    1    1    2    0    0 -0.17231043836E+01  0.53448953563E+02  0.13436214672E+03  0.14461309138E+03  0.00000000000E+00 0. -1.
         11    1    1    2    0    0  0.74829828701E+02  0.22883874183E+01  0.13117501710E+03  0.15103517832E+03  0.00000000000E+00 0.  1.
</event>
<event>
 6    1  0.2989693E-009  0.8074449E+02  0.7561462E-02  0.1326952E+00
          3   -1    0    0  501    0  0.00000000000E+00  0.00000000000E+00  0.70131643324E+02  0.70131643324E+02  0.00000000000E+00 0. -1.
         -3   -1    0    0    0  501 -0.00000000000E+00 -0.00000000000E+00 -0.38458255139E+03  0.38458255139E+03  0.00000000000E+00 0.  1.
          5    1    1    2  502    0 -0.48436758903E+02  0.90605522464E+01 -0.26857040115E+02  0.56275982655E+02  0.41800000000E+01 0. -1.
         -5    1    1    2    0  502 -0.14003459623E+02 -0.64214647775E-01 -0.28806902571E+03  0.28843948582E+03  0.41800000000E+01 0. -1.
        -11    1    1    2    0    0  0.10886365286E+02  0.30559383951E+02  0.24570044537E+02  0.40694913504E+02  0.00000000000E+00 0. -1.
         11    1    1    2    0    0  0.51553853240E+02 -0.39555721549E+02 -0.24094886780E+02  0.69303812739E+02  0.00000000000E+00 0.  1.
</event>
<event>
 7    1  0.2989693E-009  0.1337924E+03  0.7561462E-02  0.1221935E+00
          1   -1    0    0  501    0  0.00000000000E+00  0.00000000000E+00  0.73670421921E+02  0.73670421921E+02  0.00000000000E+00 0. -1.
         -1   -1    0    0    0  501 -0.00000000000E+00 -0.00000000000E+00 -0.28110056845E+03  0.28110056845E+03  0.00000000000E+00 0.  1.
         25    2    1    2    0    0 -0.19740749801E+02 -0.88130299217E+02 -0.14964180069E+03  0.21493470702E+03  0.12509041900E+03 0.  0.
          5    1    3    3  502    0  0.31358111770E+02 -0.93442093239E+02 -0.12046776940E+03  0.15570713480E+03  0.41800000000E+01 0.  1.
         -5    1    3    3    0  502 -0.51098861571E+02  0.53117940222E+01 -0.29174031290E+02  0.59227572221E+02  0.41800000000E+01 0.  1.
        -11    1    1    2    0    0  0.41403469747E+02  0.20161660637E+02  0.29480180081E+01  0.46145754701E+02  0.00000000000E+00 0. -1.
         11    1    1    2    0    0 -0.21662719946E+02  0.67968638579E+02 -0.60736363851E+02  0.93690528655E+02  0.00000000000E+00 0.  1.
</event>
<event>
 7    1  0.3177686E-009  0.1266062E+03  0.7561462E-02  0.1232580E+00
         -4   -1    0    0    0  501 -0.00000000000E+00  0.00000000000E+00  0.14684206832E+03  0.14684206832E+03  0.00000000000E+00 0.  1.
          4   -1    0    0  501    0  0.00000000000E+00 -0.00000000000E+00 -0.21083444285E+03  0.21083444285E+03  0.00000000000E+00 0. -1.
         25    2    1    2    0    0 -0.68848945328E+02 -0.99795119380E+02  0.33756281748E+02  0.17743832079E+03  0.12508248479E+03 0.  0.
          5    1    3    3  502    0 -0.44913346870E+02 -0.27398902705E+02 -0.43808838934E+02  0.68590052962E+02  0.41800000000E+01 0.  1.
         -5    1    3    3    0  502 -0.23935598458E+02 -0.72396216675E+02  0.77565120682E+02  0.10884826783E+03  0.41800000000E+01 0.  1.
        -11    1    1    2    0    0  0.34800068108E+02  0.28199469024E+02 -0.90063747139E+02  0.10058694419E+03  0.00000000000E+00 0. -1.
         11    1    1    2    0    0  0.34048877220E+02  0.71595650356E+02 -0.76849091410E+01  0.79651246182E+02  0.00000000000E+00 0.  1.
</event>
<event>
 7    1  0.2989693E-009  0.1053086E+03  0.7561462E-02  0.1269513E+00
          2   -1    0    0  501    0  0.00000000000E+00  0.00000000000E+00  0.18979005323E+03  0.18979005323E+03  0.00000000000E+00 0. -1.
         -2   -1    0    0    0  501 -0.00000000000E+00 -0.00000000000E+00 -0.76457822934E+02  0.76457822934E+02  0.00000000000E+00 0.  1.
         25    2    1    2    0    0 -0.33949332848E+02  0.39321508065E+02  0.93695799060E+02  0.16469026155E+03  0.12508093896E+03 0.  0.
          5    1    3    3  502    0 -0.37379120591E+02  0.82799977033E+02  0.70817235592E+02  0.11526312554E+03  0.41800000000E+01 0.  1.
         -5    1    3    3    0  502  0.34297877427E+01 -0.43478468969E+02  0.22878563468E+02  0.49427136010E+02  0.41800000000E+01 0.  1.
        -11    1    1    2    0    0  0.29304917980E+02  0.63246080586E+01 -0.23874992369E+02  0.38324850235E+02  0.00000000000E+00 0.  1.
         11    1    1    2    0    0  0.46444148681E+01 -0.45646116123E+02  0.43511423606E+02  0.63232764378E+02  0.00000000000E+00 0. -1.
</event>
<event>
 7    1  0.2989693E-009  0.1145738E+03  0.7561462E-02  0.1252327E+00
          1   -1    0    0  501    0  0.00000000000E+00  0.00000000000E+00  0.21503150920E+02  0.21503150920E+02  0.00000000000E+00 0. -1.
         -1   -1    0    0    0  501 -0.00000000000E+00 -0.00000000000E+00 -0.63471321225E+03  0.63471321225E+03  0.00000000000E+00 0.  1.
         25    2    1    2    0    0 -0.22683813858E+02  0.36028831350E+02 -0.39020300278E+03  0.41196974618E+03  0.12509219115E+03 0.  0.
          5    1    3    3  502    0  0.34202393001E+02 -0.28779204253E+02 -0.11142034024E+03  0.12012498035E+03  0.41800000000E+01 0. -1.
         -5    1    3    3    0  502 -0.56886206858E+02  0.64808035603E+02 -0.27878266254E+03  0.29184476583E+03  0.41800000000E+01 0. -1.
        -11    1    1    2    0    0  0.24035540705E+02  0.26269344723E+02 -0.60467997550E+02  0.70172390702E+02  0.00000000000E+00 0. -1.
         11    1    1    2    0    0 -0.13517268470E+01 -0.62298176073E+02 -0.16253906100E+03  0.17407422629E+03  0.00000000000E+00 0.  1.
</event>
<event>
 7    1  0.2989693E-009  0.7385502E+02  0.7561462E-02  0.1347454E+00
          1   -1    0    0  501    0  0.00000000000E+00  0.00000000000E+00  0.73729444137E+02  0.73729444137E+02  0.00000000000E+00 0. -1.
         -1   -1    0    0    0  501 -0.00000000000E+00 -0.00000000000E+00 -0.16936613713E+03  0.16936613713E+03  0.00000000000E+00 0.  1.
         25    2    1    2    0    0 -0.13166911400E+01 -0.17409328972E+02 -0.84375101601E+02  0.15189255542E+03  0.12508945683E+03 0.  0.
          5    1    3    3  502    0 -0.25624215081E+02 -0.40287207020E+02  0.12341808487E+02  0.49491939594E+02  0.41800000000E+01 0. -1.
         -5    1    3    3    0  502  0.24307523941E+02  0.22877878048E+02 -0.96716910088E+02  0.10240061582E+03  0.41800000000E+01 0. -1.
        -11    1    1    2    0    0 -0.16722272172E+02 -0.19119363338E+02 -0.35610551327E+02  0.43741236914E+02  0.00000000000E+00 0.  1.
         11    1    1    2    0    0  0.18038963312E+02  0.36528692310E+02  0.24348959932E+02  0.47461788936E+02  0.00000000000E+00 0. -1.
</event>
<event>
 7    1  0.2989693E-009  0.6673949E+02  0.7561462E-02  0.1371545E+00
          2   -1    0    0  501    0  0.00000000000E+00  0.00000000000E+00  0.41899153451E+02  0.41899153451E+02  0.00000000000E+00 0. -1.
         -2   -1    0    0    0  501 -0.00000000000E+00 -0.00000000000E+00 -0.30653892202E+03  0.30653892202E+03  0.00000000000E+00 0.  1.
         25    2    1    2    0    0  0.93021241330E+01  0.77992472031E+01 -0.10337345487E+03  0.16272881730E+03  0.12508892452E+03 0.  0.
          5    1    3    3  502    0  0.11401351633E+02 -0.14704940994E+02  0.25488291226E+02  0.31833182347E+02  0.41800000000E+01 0. -1.
         -5    1    3    3    0  502 -0.20992274998E+01  0.22504188198E+02 -0.12886174609E+03  0.13089563495E+03  0.41800000000E+01 0. -1.
        -11    1    1    2    0    0  0.37308558916E+02 -0.21216802094E+02 -0.86939009811E+02  0.96956034812E+02  0.00000000000E+00 0.  1.
         11    1    1    2    0    0 -0.46610683048E+02  0.13417554891E+02 -0.74327303886E+02  0.88753223358E+02  0.00000000000E+00 0. -1.
</event>
<event>
 7    1  0.2989693E-009  0.1312543E+03  0.7561462E-02  0.1225606E+00
          2   -1    0    0  501    0  0.00000000000E+00  0.00000000000E+00  0.51249110621E+03  0.51249110621E+03  0.00000000000E+00 0. -1.
         -2   -1    0    0    0  501 -0.00000000000E+00 -0.00000000000E+00 -0.36192095050E+02  0.36192095050E+02  0.00000000000E+00 0.  1.
         25    2    1    2    0    0  0.75322174100E+02 -0.17164365868E+02  0.31776960405E+03  0.35013368834E+03  0.12509209842E+03 0.  0.
          5    1    3    3  502    0 -0.27284791589E+02  0.23466789210E+02  0.68374666194E+02  0.77380342627E+02  0.41800000000E+01 0. -1.
         -5    1    3    3    0  502  0.10260696569E+03 -0.40631155078E+02  0.24939493786E+03  0.27275334572E+03  0.41800000000E+01 0. -1.
        -11    1    1    2    0    0 -0.94935121962E+02  0.14897978474E+02  0.10946268606E+03  0.14565955782E+03  0.00000000000E+00 0.  1.
         11    1    1    2    0    0  0.19612947861E+02  0.22663873949E+01  0.49066721051E+02  0.52889955099E+02  0.00000000000E+00 0. -1.
</event>
<event>
 7    1  0.2989693E-009  0.1683120E+03  0.7561462E-02  0.1179620E+00
         -1   -1    0    0    0  501 -0.00000000000E+00  0.00000000000E+00  0.89407752537E+02  0.89407752537E+02  0.00000000000E+00 0.  1.
          1   -1    0    0  501    0  0.00000000000E+00 -0.00000000000E+00 -0.41566064083E+03  0.41566064083E+03  0.00000000000E+00 0. -1.
         25    2    1    2    0    0 -0.37718473048E+02 -0.15422099021E+03 -0.16748337862E+03  0.26249720204E+03  0.12508917592E+03 0.  0.
          5    1    3    3  502    0 -0.85408741794E+01 -0.19274049138E+02  0.20179191559E+02  0.29480632183E+02  0.41800000000E+01 0. -1.
         -5    1    3    3    0  502 -0.29177598869E+02 -0.13494694107E+03 -0.18766257018E+03  0.23301656986E+03  0.41800000000E+01 0. -1.
        -11    1    1    2    0    0  0.60149826869E+02  0.13367548660E+03 -0.10335972352E+03  0.17936100422E+03  0.00000000000E+00 0.  1.
         11    1    1    2    0    0 -0.22431353821E+02  0.20545503610E+02 -0.55409786153E+02  0.63210187110E+02  0.00000000000E+00 0. -1.
</event>
<event>
 7    1  0.2989693E-009  0.1130227E+03  0.7561462E-02  0.1255073E+00
          1   -1    0    0  501    0  0.00000000000E+00  0.00000000000E+00  0.15508000987E+03  0.15508000987E+03  0.00000000000E+00 0. -1.
         -1   -1    0    0    0  501 -0.00000000000E+00 -0.00000000000E+00 -0.11618562553E+03  0.11618562553E+03  0.00000000000E+00 0.  1.
         25    2    1    2    0    0 -0.50980828541E+02 -0.36103713593E+02  0.68581796353E+02  0.15573236991E+03  0.12508631114E+03 0.  0.
          5    1    3    3  502    0 -0.82016222055E+02  0.24537752514E+01  0.16573506420E+02  0.83814290000E+02  0.41800000000E+01 0. -1.
         -5    1    3    3    0  502  0.31035393514E+02 -0.38557488844E+02  0.52008289933E+02  0.71918079913E+02  0.41800000000E+01 0. -1.
        -11    1    1    2    0    0 -0.56791933628E+01  0.37112568466E+02 -0.43241117863E+02  0.57265960652E+02  0.00000000000E+00 0.  1.
         11    1    1    2    0    0  0.56660021904E+02 -0.10088548733E+01  0.13553705849E+02  0.58267304833E+02  0.00000000000E+00 0. -1.
</event>
<event>
 7    1  0.2989693E-009  0.8432190E+02  0.7561462E-02  0.1317215E+00
          1   -1    0    0  501    0  0.00000000000E+00  0.00000000000E+00  0.13860191782E+03  0.13860191782E+03  0.00000000000E+00 0. -1.
         -1   -1    0    0    0  501 -0.00000000000E+00 -0.00000000000E+00 -0.11725987307E+03  0.11725987307E+03  0.00000000000E+00 0.  1.
         25    2    1    2    0    0  0.31297552521E+02 -0.16018024649E+01  0.72548794166E+02  0.14796692684E+03  0.12509508918E+03 0.  0.
          5    1    3    3  502    0  0.23214324100E+02  0.31594560964E+02 -0.23524952467E+02  0.45913145335E+02  0.41800000000E+01 0. -1.
         -5    1    3    3    0  502  0.80832284209E+01 -0.33196363429E+02  0.96073746633E+02  0.10205378150E+03  0.41800000000E+01 0. -1.
        -11    1    1    2    0    0 -0.55059727462E+02  0.25866015611E+02 -0.29695400366E+02  0.67693730542E+02  0.00000000000E+00 0.  1.
         11    1    1    2    0    0  0.23762174941E+02 -0.24264213146E+02 -0.21511349058E+02  0.40201133514E+02  0.00000000000E+00 0. -1.
</event>
<event>
 7    1  0.4310266E-009  0.1924671E+03  0.7561462E-02  0.1156255E+00
          1   -1    0    0  501    0  0.00000000000E+00  0.00000000000E+00  0.99615981235E+03  0.99615981235E+03  0.00000000000E+00 0. -1.
         -1   -1    0    0    0  501 -0.00000000000E+00 -0.00000000000E+00 -0.49775732012E+02  0.49775732012E+02  0.00000000000E+00 0.  1.
         25    2    1    2    0    0 -0.16052214688E+03 -0.99996809013E+02  0.38970534780E+03  0.45087097113E+03  0.12509057938E+03 0.  0.
          5    1    3    3  502    0 -0.95967382859E+02 -0.38843417825E+02  0.86837531182E+02  0.13519163770E+03  0.41800000000E+01 0. -1.
         -5    1    3    3    0  502 -0.64554764020E+02 -0.61153391188E+02  0.30286781662E+03  0.31567933343E+03  0.41800000000E+01 0. -1.
        -11    1    1    2    0    0  0.61446026241E+02  0.18964008227E+02  0.86554129980E+02  0.10782794241E+03  0.00000000000E+00 0.  1.
         11    1    1    2    0    0  0.99076120638E+02  0.81032800786E+02  0.47012460255E+03  0.48723663082E+03  0.00000000000E+00 0. -1.
</event>
<event>
 7    1  0.2989693E-009  0.6754138E+02  0.7561462E-02  0.1368659E+00
          4   -1    0    0  501    0  0.00000000000E+00  0.00000000000E+00  0.30428287658E+03  0.30428287658E+03  0.00000000000E+00 0. -1.
         -4   -1    0    0    0  501 -0.00000000000E+00 -0.00000000000E+00 -0.40389252798E+02  0.40389252798E+02  0.00000000000E+00 0.  1.
         25    2    1    2    0    0 -0.34190639021E+01 -0.23904488682E+02  0.16414418602E+03  0.20777989557E+03  0.12508419813E+03 0.  0.
          5    1    3    3  502    0 -0.77467325599E+01  0.81744225213E+01 -0.18601115852E+02  0.22142876052E+02  0.41800000000E+01 0.  1.
         -5    1    3    3    0  502  0.43276686577E+01 -0.32078911203E+02  0.18274530187E+03  0.18563701952E+03  0.41800000000E+01 0.  1.
        -11    1    1    2    0    0  0.37415127952E+02  0.38273835140E+02  0.40631068432E+02  0.67198675418E+02  0.00000000000E+00 0.  1.
         11    1    1    2    0    0 -0.33996064050E+02 -0.14369346458E+02  0.59118369332E+02  0.69693558390E+02  0.00000000000E+00 0. -1.
</event>
<event>
 7    1  0.2989693E-009  0.1242176E+03  0.7561462E-02  0.1236297E+00
         -2   -1    0    0    0  501 -0.00000000000E+00  0.00000000000E+00  0.44465471323E+03  0.44465471323E+03  0.00000000000E+00 0.  1.
          2   -1    0    0  501    0  0.00000000000E+00 -0.00000000000E+00 -0.60833838373E+02  0.60833838373E+02  0.00000000000E+00 0. -1.
         25    2    1    2    0    0  0.12115173270E+03  0.71013463435E+01  0.17216248244E+03  0.24498000007E+03  0.12508840321E+03 0.  0.
          5    1    3    3  502    0  0.56981619741E+02 -0.11033227354E+02 -0.22232936779E+01  0.58232744474E+02  0.41800000000E+01 0.  1.
         -5    1    3    3    0  502  0.64170112957E+02  0.18134573698E+02  0.17438577612E+03  0.18674725560E+03  0.41800000000E+01 0.  1.
        -11    1    1    2    0    0 -0.37438880432E+02  0.82113927017E+01  0.15154440909E+03  0.15631636083E+03  0.00000000000E+00 0.  1.
         11    1    1    2    0    0 -0.83712852266E+02 -0.15312739045E+02  0.60113983329E+02  0.10419219070E+03  0.00000000000E+00 0. -1.
</event>
<event>
 7    1  0.2989693E-009  0.1002951E+03  0.7561462E-02  0.1279677E+00
         -2   -1    0    0    0  501 -0.00000000000E+00  0.00000000000E+00  0.39454554618E+02  0.39454554618E+02  0.00000000000E+00 0.  1.
          2   -1    0    0  501    0  0.00000000000E+00 -0.00000000000E+00 -0.33822391785E+03  0.33822391785E+03  0.00000000000E+00 0. -1.
         25    2    1    2    0    0  0.21349942152E+02 -0.18809301995E+02 -0.14137538369E+03  0.19090335656E+03  0.12508989792E+03 0.  0.
          5    1    3    3  502    0  0.45035482157E+02  0.29142274047E+02 -0.12290671928E+03  0.13416780849E+03  0.41800000000E+01 0. -1.
         -5    1    3    3    0  502 -0.23685540005E+02 -0.47951576042E+02 -0.18468664413E+02  0.56735548076E+02  0.41800000000E+01 0. -1.
        -11    1    1    2    0    0 -0.39337167407E+01  0.53858625474E+02 -0.12428922230E+03  0.13551397141E+03  0.00000000000E+00 0. -1.
         11    1    1    2    0    0 -0.17416225411E+02 -0.35049323479E+02 -0.33104757235E+02  0.51261144501E+02  0.00000000000E+00 0.  1.
</event>
<event>
 7    1  0.2989693E-009  0.1083917E+03  0.7561462E-02  0.1263577E+00
          4   -1    0    0  501    0  0.00000000000E+00  0.00000000000E+00  0.16038913814E+03  0.16038913814E+03  0.00000000000E+00 0. -1.
         -4   -1    0    0    0  501 -0.00000000000E+00 -0.00000000000E+00 -0.12669217081E+03  0.12669217081E+03  0.00000000000E+00 0.  1.
         25    2    1    2    0    0  0.13867592282E+02 -0.86478913767E+02 -0.91122735171E+01  0.15296906250E+03  0.12508232453E+03 0.  0.
          5    1    3    3  502    0  0.73028839189E+01 -0.84860208907E+02  0.46269148711E+02  0.97020068500E+02  0.41800000000E+01 0. -1.
         -5    1    3    3    0  502  0.65647083626E+01 -0.16187048599E+01 -0.55381422228E+02  0.55948993997E+02  0.41800000000E+01 0. -1.
        -11    1    1    2    0    0  0.24269531545E+02  0.81572853750E+02  0.14427932135E+02  0.86320946798E+02  0.00000000000E+00 0.  1.
         11    1    1    2    0    0 -0.38137123826E+02  0.49060600167E+01  0.28381308713E+02  0.47791299657E+02  0.00000000000E+00 0. -1.
</event>
<event>
 7    1  0.2989693E-009  0.1196697E+03  0.7561462E-02  0.1243643E+00
         -1   -1    0    0    0  501 -0.00000000000E+00  0.00000000000E+00  0.43129553020E+02  0.43129553020E+02  0.00000000000E+00 0.  1.
          1   -1    0    0  501    0  0.00000000000E+00 -0.00000000000E+00 -0.41666928638E+03  0.41666928638E+03  0.00000000000E+00 0. -1.
         25    2    1    2    0    0  0.26867785458E+02  0.73591600416E+02 -0.18797067032E+03  0.23899432408E+03  0.12509081699E+03 0.  0.
          5    1    3    3  502    0  0.22122357900E+02 -0.26143241254E+02 -0.10025027881E+03  0.10602102897E+03  0.41800000000E+01 0.  1.
         -5    1    3    3    0  502  0.47454275581E+01  0.99734841670E+02 -0.87720391508E+02  0.13297329511E+03  0.41800000000E+01 0.  1.
        -11    1    1    2    0    0 -0.33196790901E+02 -0.22412373831E+01 -0.11702143034E+03  0.12165962859E+03  0.00000000000E+00 0.  1.
         11    1    1    2    0    0  0.63290054432E+01 -0.71350363033E+02 -0.68547632696E+02  0.99144886722E+02  0.00000000000E+00 0. -1.
</event>
<event>
 7    1  0.2989693E-009  0.1644094E+03  0.7561462E-02  0.1183807E+00
         -1   -1    0    0    0  501 -0.00000000000E+00  0.00000000000E+00  0.15977247838E+03  0.15977247838E+03  0.00000000000E+00 0.  1.
          1   -1    0    0  501    0  0.00000000000E+00 -0.00000000000E+00 -0.22360406606E+03  0.22360406606E+03  0.00000000000E+00 0. -1.
         25    2    1    2    0    0 -0.79805329609E+02  0.12887298017E+03 -0.12166068538E+02  0.19690813747E+03  0.12509063005E+03 0.  0.
          5    1    3    3  502    0 -0.50461228792E+02  0.58135210588E+02 -0.67392118063E+02  0.10239730611E+03  0.41800000000E+01 0. -1.
         -5    1    3    3    0  502 -0.29344100817E+02  0.70737769586E+02  0.55226049526E+02  0.94510831363E+02  0.41800000000E+01 0. -1.
        -11    1    1    2    0    0  0.39221655451E+02 -0.12859501133E+03 -0.56026378173E+02  0.14565016391E+03  0.00000000000E+00 0. -1.
         11    1    1    2    0    0  0.40583674158E+02 -0.27796884046E+00  0.43608590305E+01  0.40818243058E+02  0.00000000000E+00 0.  1.
</event>
<event>
 7    1  0.3085574E-009  0.1353598E+03  0.7561462E-02  0.1219713E+00
          1   -1    0    0  501    0  0.00000000000E+00  0.00000000000E+00  0.19781941269E+03  0.19781941269E+03  0.00000000000E+00 0. -1.
         -1   -1    0    0    0  501 -0.00000000000E+00 -0.00000000000E+00 -0.12908143712E+03  0.12908143712E+03  0.00000000000E+00 0.  1.
         25    2    1    2    0    0  0.80572165040E+02  0.70621064631E+02  0.84908655466E+02  0.18530170637E+03  0.12509210231E+03 0.  0.
          5    1    3    3  502    0  0.13170090419E+02  0.68360875757E+02  0.94080984538E+02  0.11711261532E+03  0.41800000000E+01 0. -1.
         -5    1    3    3    0  502  0.67402074621E+02  0.22601888734E+01 -0.91723290725E+01  0.68189091045E+02  0.41800000000E+01 0. -1.
        -11    1    1    2    0    0 -0.14094719472E+02 -0.65203080308E+02 -0.30545498956E+02  0.73369818762E+02  0.00000000000E+00 0.  1.
         11    1    1    2    0    0 -0.66477445567E+02 -0.54179843224E+01  0.14374819053E+02  0.68229324678E+02  0.00000000000E+00 0. -1.
</event>
<event>
 7    1  0.2989693E-009  0.1935742E+03  0.7561462E-02  0.1155277E+00
         -1   -1    0    0    0  501 -0.00000000000E+00  0.00000000000E+00  0.43381043592E+02  0.43381043592E+02  0.00000000000E+00 0.  1.
          1   -1    0    0  501    0  0.00000000000E+00 -0.00000000000E+00 -0.95398849851E+03  0.95398849851E+03  0.00000000000E+00 0. -1.
         25    2    1    2    0    0 -0.96886650387E+02  0.12705905184E+03 -0.47646444247E+03  0.51787719303E+03  0.12508955371E+03 0.  0.
          5    1    3    3  502    0  0.12827430282E+01  0.10017681527E+03 -0.25909128341E+03  0.27781793550E+03  0.41800000000E+01 0. -1.
         -5    1    3    3    0  502 -0.98169393416E+02  0.26882236570E+02 -0.21737315905E+03  0.24005925753E+03  0.41800000000E+01 0. -1.
        -11    1    1    2    0    0  0.37059757077E+02 -0.11900311671E+03 -0.37423247853E+03  0.39444279100E+03  0.00000000000E+00 0.  1.
         11    1    1    2    0    0  0.59826893310E+02 -0.80559351247E+01 -0.59910533916E+02  0.85049558070E+02  0.00000000000E+00 0. -1.
</event>
<event>
 7    1  0.2989693E-009  0.1383033E+03  0.7561462E-02  0.1215630E+00
         -1   -1    0    0    0  501 -0.00000000000E+00  0.00000000000E+00  0.19721233172E+03  0.19721233172E+03  0.00000000000E+00 0.  1.
          1   -1    0    0  501    0  0.00000000000E+00 -0.00000000000E+00 -0.14886116884E+03  0.14886116884E+03  0.00000000000E+00 0. -1.
         25    2    1    2    0    0 -0.72845252439E+02  0.95716607780E+02  0.86214810233E+02  0.19377583915E+03  0.12509189633E+03 0.  0.
          5    1    3    3  502    0  0.64513871798E+01  0.87936100575E+01  0.74557945398E+02  0.75467261752E+02  0.41800000000E+01 0. -1.
         -5    1    3    3    0  502 -0.79296639618E+02  0.86922997723E+02  0.11656864835E+02  0.11830857740E+03  0.41800000000E+01 0. -1.
        -11    1    1    2    0    0  0.87031258886E+02 -0.52342596618E+02 -0.21439230435E+02  0.10379705220E+03  0.00000000000E+00 0. -1.
         11    1    1    2    0    0 -0.14186006447E+02 -0.43374011162E+02 -0.16424416919E+02  0.48500609216E+02  0.00000000000E+00 0.  1.
</event>
<event>
 7    1  0.2989693E-009  0.6698373E+02  0.7561462E-02  0.1370661E+00
          2   -1    0    0  501    0  0.00000000000E+00  0.00000000000E+00  0.76510004599E+02  0.76510004599E+02  0.00000000000E+00 0. -1.
         -2   -1    0    0    0  501 -0.00000000000E+00 -0.00000000000E+00 -0.23101852560E+03  0.23101852560E+03  0.00000000000E+00 0.  1.
         25    2    1    2    0    0  0.27492213072E+02 -0.33329877671E+02 -0.15764095770E+03  0.20582711641E+03  0.12508967895E+03 0.  0.
          5    1    3    3  502    0  0.25174952096E+02 -0.48075578972E+02 -0.17457889618E+03  0.18286689940E+03  0.41800000000E+01 0.  1.
         -5    1    3    3    0  502  0.23172609756E+01  0.14745701301E+02  0.16937938476E+02  0.22960217009E+02  0.41800000000E+01 0.  1.
        -11    1    1    2    0    0 -0.17486372604E+02 -0.96060722812E+01 -0.37030767215E+02  0.42063375662E+02  0.00000000000E+00 0.  1.
         11    1    1    2    0    0 -0.10005840468E+02  0.42935949952E+02  0.40163203920E+02  0.59638038121E+02  0.00000000000E+00 0. -1.
</event>
<event>
 7    1  0.2989693E-009  0.1355520E+03  0.7561462E-02  0.1219443E+00
         -1   -1    0    0    0  501 -0.00000000000E+00  0.00000000000E+00  0.41456776445E+02  0.41456776445E+02  0.00000000000E+00 0.  1.
          1   -1    0    0  501    0  0.00000000000E+00 -0.00000000000E+00 -0.49486203982E+03  0.49486203982E+03  0.00000000000E+00 0. -1.
         25    2    1    2    0    0 -0.44498859735E+02 -0.69076780288E+02 -0.33106043021E+03  0.36331987058E+03  0.12509424374E+03 0.  0.
          5    1    3    3  502    0 -0.54802328641E+02  0.20434340771E+02 -0.11213042562E+03  0.12653680199E+03  0.41800000000E+01 0.  1.
         -5    1    3    3    0  502  0.10303468906E+02 -0.89511121059E+02 -0.21893000458E+03  0.23678306859E+03  0.41800000000E+01 0.  1.
        -11    1    1    2    0    0 -0.92110397291E+01 -0.17849909216E+02 -0.21868846990E+02  0.29693584838E+02  0.00000000000E+00 0. -1.
         11    1    1    2    0    0  0.53709899464E+02  0.86926689504E+02 -0.10047598618E+03  0.14330536085E+03  0.00000000000E+00 0.  1.
</event>
<event>
 7    1  0.2989693E-009  0.1138127E+03  0.7561462E-02  0.1253668E+00
         -2   -1    0    0    0  501 -0.00000000000E+00  0.00000000000E+00  0.21361112648E+02  0.21361112648E+02  0.00000000000E+00 0. -1.
          2   -1    0    0  501    0  0.00000000000E+00 -0.00000000000E+00 -0.66455395405E+03  0.66455395405E+03  0.00000000000E+00 0.  1.
         25    2    1    2    0    0  0.36356783594E+02  0.35375247799E+02 -0.38221872303E+03  0.40535405390E+03  0.12509009917E+03 0.  0.
          5    1    3    3  502    0  0.74366943104E+02  0.54223020552E+02 -0.27187684586E+03  0.28706283267E+03  0.41800000000E+01 0.  1.
         -5    1    3    3    0  502 -0.38010159510E+02 -0.18847772753E+02 -0.11034187717E+03  0.11829122123E+03  0.41800000000E+01 0.  1.
        -11    1    1    2    0    0  0.12087324093E+02 -0.42239401115E+02 -0.18537343343E+03  0.19050874057E+03  0.00000000000E+00 0. -1.
         11    1    1    2    0    0 -0.48444107687E+02  0.68641533164E+01 -0.75600684948E+02  0.90052272237E+02  0.00000000000E+00 0.  1.
</event>
<event>
 7    1  0.2989693E-009  0.1268439E+03  0.7561462E-02  0.1232215E+00
         -2   -1    0    0    0  501 -0.00000000000E+00  0.00000000000E+00  0.61989262009E+02  0.61989262009E+02  0.00000000000E+00 0.  1.
          2   -1    0    0  501    0  0.00000000000E+00 -0.00000000000E+00 -0.26643795222E+03  0.26643795222E+03  0.00000000000E+00 0. -1.
         25    2    1    2    0    0  0.54792804567E+02  0.36178185138E+02 -0.88960224125E+02  0.16694979849E+03  0.12508877339E+03 0.  0.
          5    1    3    3  502    0 -0.40660231787E+02  0.94444512972E+01 -0.29452117001E+02  0.51257698984E+02  0.41800000000E+01 0.  1.
         -5    1    3    3    0  502  0.95453036355E+02  0.26733733841E+02 -0.59508107124E+02  0.11569209951E+03  0.41800000000E+01 0.  1.
        -11    1    1    2    0    0  0.22585229167E+02 -0.26060578236E+02 -0.29769436025E+02  0.45557278625E+02  0.00000000000E+00 0.  1.
         11    1    1    2    0    0 -0.77378033734E+02 -0.10117606902E+02 -0.85719030063E+02  0.11592013712E+03  0.00000000000E+00 0. -1.
</event>
<event>
 7    1  0.2989693E-009  0.1970232E+03  0.7561462E-02  0.1152275E+00
         -1   -1    0    0    0  501 -0.00000000000E+00  0.00000000000E+00  0.56595082319E+02  0.56595082319E+02  0.00000000000E+00 0.  1.
          1   -1    0    0  501    0  0.00000000000E+00 -0.00000000000E+00 -0.77643153001E+03  0.77643153001E+03  0.00000000000E+00 0. -1.
         25    2    1    2    0    0  0.57796471810E+02 -0.15601277947E+03 -0.50815602275E+03  0.54913716117E+03  0.12509459943E+03 0.  0.
          5    1    3    3  502    0  0.54604000281E+02 -0.17594915666E+03 -0.48063199417E+03  0.51474682009E+03  0.41800000000E+01 0.  1.
         -5    1    3    3    0  502  0.31924715284E+01  0.19936377190E+02 -0.27524028580E+02  0.34390341074E+02  0.41800000000E+01 0.  1.
        -11    1    1    2    0    0 -0.72195239249E+02  0.65430448350E+02 -0.11082895968E+03  0.14756813492E+03  0.00000000000E+00 0.  1.
         11    1    1    2    0    0  0.14398767439E+02  0.90582331121E+02 -0.10085146526E+03  0.13632131624E+03  0.00000000000E+00 0. -1.
</event>
<event>
 6    1  0.2989693E-009  0.1328615E+03  0.7561462E-02  0.1223271E+00
          1   -1    0    0  501    0  0.00000000000E+00  0.00000000000E+00  0.96590315256E+03  0.96590315256E+03  0.00000000000E+00 0. -1.
         -1   -1    0    0    0  501 -0.00000000000E+00 -0.00000000000E+00 -0.40079501220E+02  0.40079501220E+02  0.00000000000E+00 0.  1.
          5    1    1    2  502    0  0.36812546545E+02  0.10671785118E+03  0.28544163720E+03  0.30698251414E+03  0.41800000000E+01 0. -1.
         -5    1    1    2    0  502  0.78972964921E+01  0.15850471651E+02  0.44508238983E+03  0.44545416249E+03  0.41800000000E+01 0. -1.
        -11    1    1    2    0    0 -0.27655423587E+01 -0.54752686450E+02  0.15457613820E+03  0.16401002225E+03  0.00000000000E+00 0. -1.
         11    1    1    2    0    0 -0.41944300679E+02 -0.67815636386E+02  0.40723486115E+02  0.89535954896E+02  0.00000000000E+00 0.  1.
</event>
<event>
 7    1  0.2989693E-009  0.1000881E+03  0.7561462E-02  0.1280111E+00
         -1   -1    0    0    0  501 -0.00000000000E+00  0.00000000000E+00  0.61333276260E+02  0.61333276260E+02  0.00000000000E+00 0.  1.
          1   -1    0    0  501    0  0.00000000000E+00 -0.00000000000E+00 -0.23566335222E+03  0.23566335222E+03  0.00000000000E+00 0. -1.
         25    2    1    2    0    0 -0.12356753063E+02  0.44274144108E+02 -0.12740025319E+03  0.18436666780E+03  0.12508938604E+03 0.  0.
          5    1    3    3  502    0 -0.99327856516E+01 -0.36351711120E+02 -0.57574544049E+01  0.38350069275E+02  0.41800000000E+01 0.  1.
         -5    1    3    3    0  502 -0.24239674110E+01  0.80625855228E+02 -0.12164279879E+03  0.14601659853E+03  0.41800000000E+01 0.  1.
        -11    1    1    2    0    0  0.28798967116E+02 -0.54842786610E+02 -0.62232281146E+02  0.87806426683E+02  0.00000000000E+00 0. -1.
         11    1    1    2    0    0 -0.16442214053E+02  0.10568642502E+02  0.15302458381E+02  0.24823533991E+02  0.00000000000E+00 0.  1.
</event>
<event>
 6    1  0.2989693E-009  0.1080656E+03  0.7561462E-02  0.1264195E+00
         -1   -1    0    0    0  501 -0.00000000000E+00  0.00000000000E+00  0.10613138392E+03  0.10613138392E+03  0.00000000000E+00 0.  1.
          1   -1    0    0  501    0  0.00000000000E+00 -0.00000000000E+00 -0.12960889690E+03  0.12960889690E+03  0.00000000000E+00 0. -1.
          5    1    1    2  502    0  0.40338179654E+02 -0.71533114196E+02  0.14713693741E+02  0.83535144388E+02  0.41800000000E+01 0. -1.
         -5    1    1    2    0  502 -0.45416147652E+02  0.17624240456E+02 -0.19971463855E+02  0.52816399799E+02  0.41800000000E+01 0. -1.
        -11    1    1    2    0    0  0.56841312703E+01 -0.15028266784E+02  0.15780388400E+02  0.22520630739E+02  0.00000000000E+00 0.  1.
         11    1    1    2    0    0 -0.60616327159E+00  0.68937140524E+02 -0.34000131263E+02  0.76868105892E+02  0.00000000000E+00 0. -1.
</event>
<event>
 7    1  0.2989693E-009  0.2012862E+03  0.7561462E-02  0.1148658E+00
         -2   -1    0    0    0  501 -0.00000000000E+00  0.00000000000E+00  0.16004113481E+03  0.16004113481E+03  0.00000000000E+00 0.  1.
          2   -1    0    0  501    0  0.00000000000E+00 -0.00000000000E+00 -0.47947357409E+03  0.47947357409E+03  0.00000000000E+00 0. -1.
         25    2    1    2    0    0 -0.14918625728E+03  0.12139694227E+03 -0.35563957484E+03  0.42322665539E+03  0.12509011827E+03 0.  0.
          5    1    3    3  502    0 -0.13029527924E+03  0.12919765236E+03 -0.22235533034E+03  0.28831971576E+03  0.41800000000E+01 0. -1.
         -5    1    3    3    0  502 -0.18890978044E+02 -0.78007100865E+01 -0.13328424450E+03  0.13490693963E+03  0.41800000000E+01 0. -1.
        -11    1    1    2    0    0  0.68111781074E+02 -0.86007472653E+02 -0.19945395447E+02  0.11150927707E+03  0.00000000000E+00 0.  1.
         11    1    1    2    0    0  0.81074476207E+02 -0.35389469620E+02  0.56152531008E+02  0.10477877643E+03  0.00000000000E+00 0. -1.
</event>
<event>
 7    1  0.2989693E-009  0.7564925E+02  0.7561462E-02  0.1341872E+00
          1   -1    0    0  501    0  0.00000000000E+00  0.00000000000E+00  0.38290238763E+03  0.38290238763E+03  0.00000000000E+00 0. -1.
         -1   -1    0    0    0  501 -0.00000000000E+00 -0.00000000000E+00 -0.99198190443E+02  0.99198190443E+02  0.00000000000E+00 0.  1.
         25    2    1    2    0    0  0.29857889226E+02 -0.31351209880E+02 -0.43802266482E+02  0.13943466491E+03  0.12509594446E+03 0.  0.
          5    1    3    3  502    0 -0.12856824355E+02 -0.35036650874E+02  0.33899201817E+02  0.50591433275E+02  0.41800000000E+01 0. -1.
         -5    1    3    3    0  502  0.42714713581E+02  0.36854409945E+01 -0.77701468298E+02  0.88843231635E+02  0.41800000000E+01 0. -1.
        -11    1    1    2    0    0  0.26307869144E+01 -0.14353213810E+02  0.51589931127E+01  0.15477435071E+02  0.00000000000E+00 0.  1.
         11    1    1    2    0    0 -0.32488676140E+02  0.45704423690E+02  0.32234747055E+03  0.32718847809E+03  0.00000000000E+00 0. -1.
</event>
<event>
 7    1  0.2989693E-009  0.6671763E+02  0.7561462E-02  0.1371624E+00
          2   -1    0    0  501    0  0.00000000000E+00  0.00000000000E+00  0.11745951996E+03  0.11745951996E+03  0.00000000000E+00 0. -1.
         -2   -1    0    0    0  501 -0.00000000000E+00 -0.00000000000E+00 -0.10879334199E+03  0.10879334199E+03  0.00000000000E+00 0.  1.
         25    2    1    2    0    0  0.20539482451E+02 -0.12638231393E+02  0.25779822045E+02  0.12996119936E+03  0.12507485312E+03 0.  0.
          5    1    3    3  502    0  0.26945179060E+02  0.55872872478E+01  0.73347095702E+02  0.78450808162E+02  0.41800000000E+01 0.  1.
         -5    1    3    3    0  502 -0.64056966090E+01 -0.18225518641E+02 -0.47567273657E+02  0.51510391203E+02  0.41800000000E+01 0.  1.
        -11    1    1    2    0    0 -0.31919226192E+02 -0.28721508423E+02  0.11835742476E+02  0.44540395674E+02  0.00000000000E+00 0. -1.
         11    1    1    2    0    0  0.11379743741E+02  0.41359739817E+02 -0.28949386557E+02  0.51751266915E+02  0.00000000000E+00 0.  1.
</event>
<event>
 7    1  0.2989693E-009  0.1128146E+03  0.7561462E-02  0.1255445E+00
          1   -1    0    0  501    0  0.00000000000E+00  0.00000000000E+00  0.67726815595E+02  0.67726815595E+02  0.00000000000E+00 0. -1.
         -1   -1    0    0    0  501 -0.00000000000E+00 -0.00000000000E+00 -0.21768806611E+03  0.21768806611E+03  0.00000000000E+00 0.  1.
         25    2    1    2    0    0  0.50804705054E+02 -0.12568690441E+02 -0.99041552985E+02  0.16791609344E+03  0.12508994837E+03 0.  0.
          5    1    3    3  502    0  0.86111285177E+02  0.18203734331E+02 -0.57873257942E+02  0.10541971240E+03  0.41800000000E+01 0. -1.
         -5    1    3    3    0  502 -0.35306580123E+02 -0.30772424772E+02 -0.41168295043E+02  0.62496381039E+02  0.41800000000E+01 0. -1.
        -11    1    1    2    0    0  0.85239248799E+01  0.27936512384E+02 -0.47943526205E+02  0.56139894233E+02  0.00000000000E+00 0.  1.
         11    1    1    2    0    0 -0.59328629934E+02 -0.15367821943E+02 -0.29761713295E+01  0.61358894033E+02  0.00000000000E+00 0. -1.
</event>
<event>
 7    1  0.2989693E-009  0.1132549E+03  0.7561462E-02  0.1254658E+00
         -4   -1    0    0    0  501 -0.00000000000E+00  0.00000000000E+00  0.41303335678E+02  0.41303335678E+02  0.00000000000E+00 0. -1.
          4   -1    0    0  501    0  0.00000000000E+00 -0.00000000000E+00 -0.49893379902E+03  0.49893379902E+03  0.00000000000E+00 0.  1.
         25    2    1    2    0    0 -0.74734916818E+02 -0.23334308072E+02 -0.15142306295E+03  0.21143470185E+03  0.12508353780E+03 0.  0.
          5    1    3    3  502    0 -0.86085087802E+02  0.14750756412E+02 -0.46232179760E+02  0.98909625426E+02  0.41800000000E+01 0.  1.
         -5    1    3    3    0  502  0.11350170984E+02 -0.38085064483E+02 -0.10519088319E+03  0.11252507642E+03  0.41800000000E+01 0.  1.
        -11    1    1    2    0    0  0.84558206477E+02  0.26784382268E+02 -0.30577706013E+03  0.31838200942E+03  0.00000000000E+00 0.  1.
         11    1    1    2    0    0 -0.98232896593E+01 -0.34500741966E+01 -0.43034025764E+00  0.10420423429E+02  0.00000000000E+00 0. -1.
</event>
<event>
 7    1  0.2989693E-009  0.1241336E+03  0.7561462E-02  0.1236430E+00
          1   -1    0    0  501    0  0.00000000000E+00  0.00000000000E+00  0.11491939219E+03  0.11491939219E+03  0.00000000000E+00 0. -1.
         -1   -1    0    0    0  501 -0.00000000000E+00 -0.00000000000E+00 -0.16342163862E+03  0.16342163862E+03  0.00000000000E+00 0.  1.
         25    2    1    2    0    0 -0.48772411615E+02 -0.42363792710E+02 -0.79701764595E+02  0.16178295836E+03  0.12509162749E+03 0.  0.
          5    1    3    3  502    0 -0.23346862369E+02  0.42235847222E+02 -0.47000105644E+02  0.67493889379E+02  0.41800000000E+01 0.  1.
         -5    1    3    3    0  502 -0.25425549246E+02 -0.84599639932E+02 -0.32701658952E+02  0.94289068981E+02  0.41800000000E+01 0.  1.
        -11    1    1    2    0    0  0.71836064091E+02  0.11328142516E+02  0.27362589412E+02  0.77701082465E+02  0.00000000000E+00 0.  1.
         11    1    1    2    0    0 -0.23063652476E+02  0.31035650194E+02  0.38369287564E+01  0.38856989986E+02  0.00000000000E+00 0. -1.
</event>
<event>
 7    1  0.2989693E-009  0.1062325E+03  0.7561462E-02  0.1267710E+00
          2   -1    0    0  501    0  0.00000000000E+00  0.00000000000E+00  0.25546539804E+03  0.25546539804E+03  0.00000000000E+00 0. -1.
         -2   -1    0    0    0  501 -0.00000000000E+00 -0.00000000000E+00 -0.58190509100E+02  0.58190509100E+02  0.00000000000E+00 0.  1.
         25    2    1    2    0    0  0.28602358978E+02  0.40526622393E+02  0.74787185072E+02  0.15395352031E+03  0.12509221121E+03 0.  0.
          5    1    3    3  502    0 -0.58556555087E+01 -0.34724111163E+02  0.60114031797E+02  0.69794138840E+02  0.41800000000E+01 0.  1.
         -5    1    3    3    0  502  0.34458014486E+02  0.75250733556E+02  0.14673153275E+02  0.84159381474E+02  0.41800000000E+01 0.  1.
        -11    1    1    2    0    0 -0.14767125539E+02 -0.64654763006E+02  0.11163101017E+03  0.12984524946E+03  0.00000000000E+00 0.  1.
         11    1    1    2    0    0 -0.13835233439E+02  0.24128140613E+02  0.10856693703E+02  0.29857137370E+02  0.00000000000E+00 0. -1.
</event>
<event>
 7    1  0.2989693E-009  0.1303687E+03  0.7561462E-02  0.1226910E+00
          2   -1    0    0  501    0  0.00000000000E+00  0.00000000000E+00  0.92203018983E+02  0.92203018983E+02  0.00000000000E+00 0. -1.
         -2   -1    0    0    0  501 -0.00000000000E+00 -0.00000000000E+00 -0.31749280213E+03  0.31749280213E+03  0.00000000000E+00 0.  1.
         25    2    1    2    0    0  0.34154532843E+02  0.12500258610E+03 -0.14728687243E+03  0.23266609692E+03  0.12509161131E+03 0.  0.
          5    1    3    3  502    0  0.10517709490E+02  0.16420531554E+02 -0.11521744520E+03  0.11693069806E+03  0.41800000000E+01 0.  1.
         -5    1    3    3    0  502  0.23636823353E+02  0.10858205454E+03 -0.32069427230E+02  0.11573539886E+03  0.41800000000E+01 0.  1.
        -11    1    1    2    0    0 -0.12201275583E+02 -0.46939750260E+02 -0.82624417980E+02  0.95807127746E+02  0.00000000000E+00 0.  1.
         11    1    1    2    0    0 -0.21953257260E+02 -0.78062835838E+02  0.46215072676E+01  0.81222596442E+02  0.00000000000E+00 0. -1.
</event>
<event>
 7    1  0.2989693E-009  0.1345143E+03  0.7561462E-02  0.1220907E+00
          1   -1    0    0  501    0  0.00000000000E+00  0.00000000000E+00  0.12945721106E+03  0.12945721106E+03  0.00000000000E+00 0. -1.
         -1   -1    0    0    0  501 -0.00000000000E+00 -0.00000000000E+00 -0.16166296545E+03  0.16166296545E+03  0.00000000000E+00 0.  1.
         25    2    1    2    0    0 -0.86739144940E+02 -0.74842596791E+00  0.23437607285E+02  0.15402098510E+03  0.12509557550E+03 0.  0.
          5    1    3    3  502    0  0.24516797053E+02 -0.28090387598E+02  0.77451151515E+01  0.38309299417E+02  0.41800000000E+01 0. -1.
         -5    1    3    3    0  502 -0.11125594199E+03  0.27341961630E+02  0.15692492134E+02  0.11571168568E+03  0.41800000000E+01 0. -1.
        -11    1    1    2    0    0 -0.12717697192E+02 -0.10875706447E+02 -0.28999544359E+02  0.33481254242E+02  0.00000000000E+00 0.  1.
         11    1    1    2    0    0  0.99456842133E+02  0.11624132415E+02 -0.26643817321E+02  0.10361793717E+03  0.00000000000E+00 0. -1.
</event>
<event>
 7    1  0.2989693E-009  0.1671526E+03  0.7561462E-02  0.1180850E+00
         -2   -1    0    0    0  501 -0.00000000000E+00  0.00000000000E+00  0.17817189558E+03  0.17817189558E+03  0.00000000000E+00 0.  1.
          2   -1    0    0  501    0  0.00000000000E+00 -0.00000000000E+00 -0.18828327034E+03  0.18828327034E+03  0.00000000000E+00 0. -1.
         25    2    1    2    0    0  0.13300131288E+03  0.40961042589E+01 -0.69126497935E+02  0.19527615059E+03  0.12509266556E+03 0.  0.
          5    1    3    3  502    0  0.14013851542E+03 -0.30177367792E+02 -0.70887216894E+02  0.15997483224E+03  0.41800000000E+01 0. -1.
         -5    1    3    3    0  502 -0.71372025406E+01  0.34273472051E+02  0.17607189594E+01  0.35301318358E+02  0.41800000000E+01 0. -1.
        -11    1    1    2    0    0 -0.91067275585E+02 -0.40910912676E+02  0.57810448708E+02  0.11536463686E+03  0.00000000000E+00 0.  1.
         11    1    1    2    0    0 -0.41934037291E+02  0.36814808417E+02  0.12046744630E+01  0.55814378460E+02  0.00000000000E+00 0. -1.
</event>
<event>
 7    1  0.2989693E-009  0.1633110E+03  0.7561462E-02  0.1185009E+00
         -2   -1    0    0    0  501 -0.00000000000E+00  0.00000000000E+00  0.13758315388E+03  0.13758315388E+03  0.00000000000E+00 0.  1.
          2   -1    0    0  501    0  0.00000000000E+00 -0.00000000000E+00 -0.32433045045E+03  0.32433045045E+03  0.00000000000E+00 0. -1.
         25    2    1    2    0    0 -0.15336127745E+03  0.19822803624E+02  0.44305899285E+01  0.19896137991E+03  0.12511345093E+03 0.  0.
          5    1    3    3  502    0 -0.10753621776E+03 -0.21940208349E+02 -0.45858438984E+02  0.11902050117E+03  0.41800000000E+01 0. -1.
         -5    1    3    3    0  502 -0.45825059688E+02  0.41763011973E+02  0.50289028912E+02  0.79940878738E+02  0.41800000000E+01 0. -1.
        -11    1    1    2    0    0  0.88260779628E+02 -0.10432527562E+02 -0.17334936352E+03  0.19480452943E+03  0.00000000000E+00 0.  1.
         11    1    1    2    0    0  0.65100497824E+02 -0.93902760619E+01 -0.17828522976E+02  0.68147694994E+02  0.00000000000E+00 0. -1.
</event>
<event>
 7    1  0.2989693E-009  0.2007043E+03  0.7561462E-02  0.1149146E+00
          1   -1    0    0  501    0  0.00000000000E+00  0.00000000000E+00  0.16326811049E+04  0.16326811049E+04  0.00000000000E+00 0. -1.
         -1   -1    0    0    0  501 -0.00000000000E+00 -0.00000000000E+00 -0.62756508672E+02  0.62756508672E+02  0.00000000000E+00 0.  1.
         25    2    1    2    0    0 -0.17424305046E+03  0.50026819636E+02  0.14349543498E+04  0.14517587164E+04  0.12508421612E+03 0.  0.
          5    1    3    3  502    0 -0.66348503465E+02 -0.40886383510E+02  0.58070028022E+03  0.58592158871E+03  0.41800000000E+01 0.  1.
         -5    1    3    3    0  502 -0.10789454699E+03  0.90913203146E+02  0.85425406960E+03  0.86583712765E+03  0.41800000000E+01 0.  1.
        -11    1    1    2    0    0  0.84044185719E+02 -0.14598970175E+02  0.11751667500E+03  0.14521268535E+03  0.00000000000E+00 0.  1.
         11    1    1    2    0    0  0.90198864739E+02 -0.35427849462E+02  0.17453571363E+02  0.98466211824E+02  0.00000000000E+00 0. -1.
</event>
<event>
 7    1  0.2989693E-009  0.1131537E+03  0.7561462E-02  0.1254839E+00
         -1   -1    0    0    0  501 -0.00000000000E+00  0.00000000000E+00  0.15803926559E+03  0.15803926559E+03  0.00000000000E+00 0.  1.
          1   -1    0    0  501    0  0.00000000000E+00 -0.00000000000E+00 -0.13035713697E+03  0.13035713697E+03  0.00000000000E+00 0. -1.
         25    2    1    2    0    0  0.60909176636E+02 -0.49820354446E+02  0.67965222844E+02  0.16266149797E+03  0.12508995119E+03 0.  0.
          5    1    3    3  502    0 -0.22065880658E+01  0.36045993972E+02  0.29668454059E+00  0.36355785427E+02  0.41800000000E+01 0.  1.
         -5    1    3    3    0  502  0.63115764702E+02 -0.85866348418E+02  0.67668538303E+02  0.12630571254E+03  0.41800000000E+01 0.  1.
        -11    1    1    2    0    0 -0.38362405606E+02  0.13722884321E+02  0.25001581278E+02  0.47802414001E+02  0.00000000000E+00 0.  1.
         11    1    1    2    0    0 -0.22546771030E+02  0.36097470125E+02 -0.65284675510E+02  0.77932490591E+02  0.00000000000E+00 0. -1.
</event>
<event>
 7    1  0.2989693E-009  0.2501003E+03  0.7561462E-02  0.1113241E+00
         -1   -1    0    0    0  501 -0.00000000000E+00  0.00000000000E+00  0.54426919770E+02  0.54426919770E+02  0.00000000000E+00 0.  1.
          1   -1    0    0  501    0  0.00000000000E+00 -0.00000000000E+00 -0.15240921279E+04  0.15240921279E+04  0.00000000000E+00 0. -1.
         25    2    1    2    0    0 -0.23670250191E+03 -0.45080167358E+02 -0.10619292687E+04  0.10960843518E+04  0.12508732416E+03 0.  0.
          5    1    3    3  502    0 -0.17436384840E+03 -0.63059711716E+02 -0.93776341794E+03  0.95592728766E+03  0.41800000000E+01 0. -1.
         -5    1    3    3    0  502 -0.62338653506E+02  0.17979544357E+02 -0.12416585078E+03  0.14015706416E+03  0.41800000000E+01 0. -1.
        -11    1    1    2    0    0  0.20218191427E+03  0.61731393380E+02 -0.38095746516E+03  0.43567979257E+03  0.00000000000E+00 0. -1.
         11    1    1    2    0    0  0.34520587636E+02 -0.16651226022E+02 -0.26778474291E+02  0.46754903316E+02  0.00000000000E+00 0.  1.
</event>
<event>
 7    1  0.2989693E-009  0.2450857E+03  0.7561462E-02  0.1116451E+00
          1   -1    0    0  501    0  0.00000000000E+00  0.00000000000E+00  0.52432695883E+03  0.52432695883E+03  0.00000000000E+00 0. -1.
         -1   -1    0    0    0  501 -0.00000000000E+00 -0.00000000000E+00 -0.14165264152E+03  0.14165264152E+03  0.00000000000E+00 0.  1.
         25    2    1    2    0    0  0.24082348180E+03 -0.31678591620E+02  0.26517593020E+03  0.38074305647E+03  0.12509004173E+03 0.  0.
          5    1    3    3  502    0  0.20746217646E+03 -0.15036345382E+02  0.27217182471E+03  0.34258082391E+03  0.41800000000E+01 0.  1.
         -5    1    3    3    0  502  0.33361305348E+02 -0.16642246238E+02 -0.69958945134E+01  0.38162232566E+02  0.41800000000E+01 0.  1.
        -11    1    1    2    0    0 -0.73391601679E+02  0.23159339075E+02 -0.57286068918E+01  0.77171880373E+02  0.00000000000E+00 0.  1.
         11    1    1    2    0    0 -0.16743188012E+03  0.85192525449E+01  0.12322699401E+03  0.20806466350E+03  0.00000000000E+00 0. -1.
</event>
<event>
 7    1  0.2989693E-009  0.9625580E+02  0.7561462E-02  0.1288372E+00
         -1   -1    0    0    0  501 -0.00000000000E+00  0.00000000000E+00  0.20598978625E+02  0.20598978625E+02  0.00000000000E+00 0.  1.
          1   -1    0    0  501    0  0.00000000000E+00 -0.00000000000E+00 -0.88509829853E+03  0.88509829853E+03  0.00000000000E+00 0. -1.
         25    2    1    2    0    0 -0.32387663343E+02 -0.40097644252E+02 -0.67506262397E+03  0.68848623791E+03  0.12508785589E+03 0.  0.
          5    1    3    3  502    0  0.21436438521E+02 -0.39250747223E+02 -0.86638715162E+02  0.97590375647E+02  0.41800000000E+01 0. -1.
         -5    1    3    3    0  502 -0.53824101864E+02 -0.84689702966E+00 -0.58842390881E+03  0.59089586226E+03  0.41800000000E+01 0. -1.
        -11    1    1    2    0    0  0.10161236977E+02 -0.23837323762E+02 -0.14631366067E+02  0.29758118455E+02  0.00000000000E+00 0.  1.
         11    1    1    2    0    0  0.22226426366E+02  0.63934968014E+02 -0.17480532986E+03  0.18745292079E+03  0.00000000000E+00 0. -1.
</event>
<event>
 7    1  0.2989693E-009  0.1601210E+03  0.7561462E-02  0.1188560E+00
          1   -1    0    0  501    0  0.00000000000E+00  0.00000000000E+00  0.71007912086E+03  0.71007912086E+03  0.00000000000E+00 0.  1.
         -1   -1    0    0    0  501 -0.00000000000E+00 -0.00000000000E+00 -0.47495150886E+02  0.47495150886E+02  0.00000000000E+00 0. -1.
         25    2    1    2    0    0 -0.67698902174E+02 -0.11603523722E+03  0.47913972018E+03  0.51309915004E+03  0.12509415927E+03 0.  0.
          5    1    3    3  502    0 -0.92295086958E+02 -0.12245910071E+03  0.36203146891E+03  0.39319062973E+03  0.41800000000E+01 0.  1.
         -5    1    3    3    0  502  0.24596184784E+02  0.64238634899E+01  0.11710825126E+03  0.11990852031E+03  0.41800000000E+01 0.  1.
        -11    1    1    2    0    0  0.44694077418E+02  0.34789995302E+02  0.19213540825E+02  0.59808565276E+02  0.00000000000E+00 0.  1.
         11    1    1    2    0    0  0.23004824756E+02  0.81245241916E+02  0.16423070897E+03  0.18466655643E+03  0.00000000000E+00 0. -1.
</event>
<event>
 7    1  0.3385703E-009  0.1072673E+03  0.7561462E-02  0.1265716E+00
         -3   -1    0    0    0  501 -0.00000000000E+00  0.00000000000E+00  0.13155084061E+03  0.13155084061E+03  0.00000000000E+00 0.  1.
          3   -1    0    0  501    0  0.00000000000E+00 -0.00000000000E+00 -0.13040988347E+03  0.13040988347E+03  0.00000000000E+00 0. -1.
         25    2    1    2    0    0  0.42333220970E+02  0.46308038960E+02 -0.37485212046E+02  0.14487550286E+03  0.12508890493E+03 0.  0.
          5    1    3    3  502    0 -0.98688368454E+01 -0.29956769091E+02 -0.41478138541E+02  0.52275331963E+02  0.41800000000E+01 0. -1.
         -5    1    3    3    0  502  0.52202057815E+02  0.76264808051E+02  0.39929264953E+01  0.92600170892E+02  0.41800000000E+01 0. -1.
        -11    1    1    2    0    0  0.12720324384E+02 -0.30313715467E+02  0.48819368239E+02  0.58856254664E+02  0.00000000000E+00 0.  1.
         11    1    1    2    0    0 -0.55053545354E+02 -0.15994323494E+02 -0.10193199048E+02  0.58228966562E+02  0.00000000000E+00 0. -1.
</event>
<event>
 7    1  0.2989693E-009  0.2478301E+03  0.7561462E-02  0.1114684E+00
         -2   -1    0    0    0  501 -0.00000000000E+00  0.00000000000E+00  0.17111109881E+03  0.17111109881E+03  0.00000000000E+00 0.  1.
          2   -1    0    0  501    0  0.00000000000E+00 -0.00000000000E+00 -0.45658744330E+03  0.45658744330E+03  0.00000000000E+00 0. -1.
         25    2    1    2    0    0  0.65531959441E+02  0.22641495876E+03 -0.29853803635E+02  0.26852047489E+03  0.12511524521E+03 0.  0.
          5    1    3    3  502    0 -0.28833094557E+02  0.79530103828E+02  0.19762941699E+02  0.86973737538E+02  0.41800000000E+01 0. -1.
         -5    1    3    3    0  502  0.94365053998E+02  0.14688485494E+03 -0.49616745333E+02  0.18154673735E+03  0.41800000000E+01 0. -1.
        -11    1    1    2    0    0 -0.54978670066E+02 -0.20757203505E+03 -0.17894677117E+03  0.27951878436E+03  0.00000000000E+00 0. -1.
         11    1    1    2    0    0 -0.10553289375E+02 -0.18842923709E+02 -0.76675769678E+02  0.79659282863E+02  0.00000000000E+00 0.  1.
</event>
<event>
 7    1  0.2989693E-009  0.2702651E+03  0.7561462E-02  0.1101128E+00
         -2   -1    0    0    0  501 -0.00000000000E+00  0.00000000000E+00  0.23213233353E+03  0.23213233353E+03  0.00000000000E+00 0.  1.
          2   -1    0    0  501    0  0.00000000000E+00 -0.00000000000E+00 -0.35533188341E+03  0.35533188341E+03  0.00000000000E+00 0. -1.
         25    2    1    2    0    0 -0.13904325650E+03  0.21414817064E+03 -0.13651020684E+03  0.31539617465E+03  0.12508894535E+03 0.  0.
          5    1    3    3  502    0  0.11219297474E+02  0.12602287083E+02 -0.44303974949E+02  0.47592067320E+02  0.41800000000E+01 0. -1.
         -5    1    3    3    0  502 -0.15026255398E+03  0.20154588355E+03 -0.92206231891E+02  0.26780410733E+03  0.41800000000E+01 0. -1.
        -11    1    1    2    0    0  0.13382143986E+03 -0.12725445145E+03  0.10762331385E+02  0.18498027181E+03  0.00000000000E+00 0. -1.
         11    1    1    2    0    0  0.52218166386E+01 -0.86893719181E+02  0.25483255747E+01  0.87087770470E+02  0.00000000000E+00 0.  1.
</event>
<event>
 7    1  0.2989693E-009  0.1826044E+03  0.7561462E-02  0.1165306E+00
         -1   -1    0    0    0  501 -0.00000000000E+00  0.00000000000E+00  0.27576730989E+03  0.27576730989E+03  0.00000000000E+00 0. -1.
          1   -1    0    0  501    0  0.00000000000E+00 -0.00000000000E+00 -0.13841770151E+03  0.13841770151E+03  0.00000000000E+00 0.  1.
         25    2    1    2    0    0 -0.80317717442E+02  0.13982552675E+03  0.61829560456E+02  0.21324632439E+03  0.12509590981E+03 0.  0.
          5    1    3    3  502    0 -0.66260940583E+02  0.16141193879E+03  0.39609139810E+02  0.17897117809E+03  0.41800000000E+01 0. -1.
         -5    1    3    3    0  502 -0.14056776858E+02 -0.21586412033E+02  0.22220420647E+02  0.34275146299E+02  0.41800000000E+01 0. -1.
        -11    1    1    2    0    0  0.33242131917E+02 -0.28789405924E+02 -0.18806947900E+02  0.47828553367E+02  0.00000000000E+00 0.  1.
         11    1    1    2    0    0  0.47075585525E+02 -0.11103612083E+03  0.94326995833E+02  0.15311013364E+03  0.00000000000E+00 0. -1.
</event>
<event>
 7    1  0.2989693E-009  0.1368916E+03  0.7561462E-02  0.1217574E+00
          2   -1    0    0  501    0  0.00000000000E+00  0.00000000000E+00  0.69935349500E+03  0.69935349500E+03  0.00000000000E+00 0. -1.
         -2   -1    0    0    0  501 -0.00000000000E+00 -0.00000000000E+00 -0.46342596179E+02  0.46342596179E+02  0.00000000000E+00 0.  1.
         25    2    1    2    0    0 -0.86348918574E+02  0.34694956992E+02  0.11954969155E+03  0.19646538005E+03  0.12508653417E+03 0.  0.
          5    1    3    3  502    0  0.97533808992E+01  0.47527185191E+02  0.92801941298E+01  0.49573744807E+02  0.41800000000E+01 0.  1.
         -5    1    3    3    0  502 -0.96102299474E+02 -0.12832228199E+02  0.11026949742E+03  0.14689163525E+03  0.41800000000E+01 0.  1.
        -11    1    1    2    0    0  0.59436429514E+02 -0.64617424529E+02  0.31083267338E+03  0.32299388778E+03  0.00000000000E+00 0.  1.
         11    1    1    2    0    0  0.26912489061E+02  0.29922467537E+02  0.22262853390E+03  0.22623682334E+03  0.00000000000E+00 0. -1.
</event>
<event>
 7    1  0.2989693E-009  0.1313829E+03  0.7561462E-02  0.1225418E+00
         -1   -1    0    0    0  501 -0.00000000000E+00  0.00000000000E+00  0.62073246509E+02  0.62073246509E+02  0.00000000000E+00 0.  1.
          1   -1    0    0  501    0  0.00000000000E+00 -0.00000000000E+00 -0.31640684265E+03  0.31640684265E+03  0.00000000000E+00 0. -1.
         25    2    1    2    0    0  0.31755128183E+02 -0.81979452394E+02 -0.89092879115E+02  0.17696104078E+03  0.12509456449E+03 0.  0.
          5    1    3    3  502    0  0.43056623596E+01 -0.11147832845E+03 -0.72901193106E+02  0.13333421466E+03  0.41800000000E+01 0.  1.
         -5    1    3    3    0  502  0.27449465823E+02  0.29498876052E+02 -0.16191686008E+02  0.43626826129E+02  0.41800000000E+01 0.  1.
        -11    1    1    2    0    0 -0.52547856865E+02  0.50441175362E+02 -0.13392238537E+03  0.15244931858E+03  0.00000000000E+00 0. -1.
         11    1    1    2    0    0  0.20792728683E+02  0.31538277032E+02 -0.31318331660E+02  0.49069729795E+02  0.00000000000E+00 0.  1.
</event>
<event>
 7    1  0.2989693E-009  0.1074674E+03  0.7561462E-02  0.1265333E+00
         -2   -1    0    0    0  501 -0.00000000000E+00  0.00000000000E+00  0.53399195090E+02  0.53399195090E+02  0.00000000000E+00 0.  1.
          2   -1    0    0  501    0  0.00000000000E+00 -0.00000000000E+00 -0.42731976107E+03  0.42731976107E+03  0.00000000000E+00 0. -1.
         25    2    1    2    0    0  0.69106465311E+02  0.62195292078E+02 -0.10328475351E+03  0.18697317584E+03  0.12508904936E+03 0.  0.
          5    1    3    3  502    0  0.59572330869E+02  0.28909604338E+02  0.11206372125E+02  0.67288059894E+02  0.41800000000E+01 0. -1.
         -5    1    3    3    0  502  0.95341344427E+01  0.33285687740E+02 -0.11449112564E+03  0.11968511594E+03  0.41800000000E+01 0. -1.
        -11    1    1    2    0    0  0.12518033818E+02 -0.14567472344E+02 -0.56751439941E+02  0.59913590750E+02  0.00000000000E+00 0.  1.
         11    1    1    2    0    0 -0.81624499129E+02 -0.47627819734E+02 -0.21388437253E+03  0.23383218958E+03  0.00000000000E+00 0. -1.
</event>
<event>
 7    1  0.2989693E-009  0.1095869E+03  0.7561462E-02  0.1261337E+00
          2   -1    0    0  501    0  0.00000000000E+00  0.00000000000E+00  0.26758802085E+03  0.26758802085E+03  0.00000000000E+00 0. -1.
         -2   -1    0    0    0  501 -0.00000000000E+00 -0.00000000000E+00 -0.47401635214E+02  0.47401635214E+02  0.00000000000E+00 0.  1.
         25    2    1    2    0    0  0.20068821632E+02 -0.98126616084E+01  0.15955857241E+03  0.20397237714E+03  0.12508695647E+03 0.  0.
          5    1    3    3  502    0  0.53874099345E+02 -0.49912229405E+02  0.10473406764E+03  0.12798572791E+03  0.41800000000E+01 0.  1.
         -5    1    3    3    0  502 -0.33805277713E+02  0.40099567796E+02  0.54824504761E+02  0.75986649229E+02  0.41800000000E+01 0.  1.
        -11    1    1    2    0    0 -0.56138144203E+02  0.24835903247E+01  0.36897431707E+02  0.67224102240E+02  0.00000000000E+00 0. -1.
         11    1    1    2    0    0  0.36069322571E+02  0.73290712837E+01  0.23730381524E+02  0.43793176682E+02  0.00000000000E+00 0.  1.
</event>
<event>
 7    1  0.2989693E-009  0.1176895E+03  0.7561462E-02  0.1246958E+00
         -2   -1    0    0    0  501 -0.00000000000E+00  0.00000000000E+00  0.17118350094E+03  0.17118350094E+03  0.00000000000E+00 0.  1.
          2   -1    0    0  501    0  0.00000000000E+00 -0.00000000000E+00 -0.12479806154E+03  0.12479806154E+03  0.00000000000E+00 0. -1.
         25    2    1    2    0    0 -0.77515685386E+02  0.52387344768E+02  0.46037156011E+02  0.16285095095E+03  0.12509155495E+03 0.  0.
          5    1    3    3  502    0  0.22569418122E+02  0.20139610345E+02 -0.21912682359E+02  0.37584845182E+02  0.41800000000E+01 0. -1.
         -5    1    3    3    0  502 -0.10008510351E+03  0.32247734423E+02  0.67949838370E+02  0.12526610577E+03  0.41800000000E+01 0. -1.
        -11    1    1    2    0    0  0.92029450101E+01 -0.23868151996E+02  0.41263168840E+02  0.48549273725E+02  0.00000000000E+00 0.  1.
         11    1    1    2    0    0  0.68312740376E+02 -0.28519192773E+02 -0.40914885455E+02  0.84581337811E+02  0.00000000000E+00 0. -1.
</event>
<event>
 7    1  0.2989693E-009  0.9382429E+02  0.7561462E-02  0.1293846E+00
          3   -1    0    0  501    0  0.00000000000E+00  0.00000000000E+00  0.83204020763E+02  0.83204020763E+02  0.00000000000E+00 0. -1.
         -3   -1    0    0    0  501 -0.00000000000E+00 -0.00000000000E+00 -0.17056467452E+03  0.17056467452E+03  0.00000000000E+00 0.  1.
         25    2    1    2    0    0  0.43402591112E+02 -0.67827821815E+01 -0.24757288068E+02  0.13487191950E+03  0.12509084822E+03 0.  0.
          5    1    3    3  502    0  0.73090506792E+02 -0.19419865271E+01  0.24311547937E+02  0.77165518581E+02  0.41800000000E+01 0.  1.
         -5    1    3    3    0  502 -0.29687915679E+02 -0.48407956544E+01 -0.49068836005E+02  0.57706400917E+02  0.41800000000E+01 0.  1.
        -11    1    1    2    0    0 -0.61512580995E+02  0.16230243155E+02 -0.72284454090E+02  0.96292578720E+02  0.00000000000E+00 0.  1.
         11    1    1    2    0    0  0.18109989882E+02 -0.94474609731E+01  0.96810883995E+01  0.22604197065E+02  0.00000000000E+00 0. -1.
</event>
<event>
 7    1  0.2989693E-009  0.1431882E+03  0.7561462E-02  0.1209102E+00
         -2   -1    0    0    0  501 -0.00000000000E+00  0.00000000000E+00  0.14230666954E+03  0.14230666954E+03  0.00000000000E+00 0.  1.
          2   -1    0    0  501    0  0.00000000000E+00 -0.00000000000E+00 -0.19342418633E+03  0.19342418633E+03  0.00000000000E+00 0. -1.
         25    2    1    2    0    0  0.10445299042E+03 -0.59698804066E+02  0.71474203529E+01  0.17370296166E+03  0.12508900374E+03 0.  0.
          5    1    3    3  502    0  0.22338813521E+02  0.27803602120E+02  0.35322994059E+02  0.50371114636E+02  0.41800000000E+01 0.  1.
         -5    1    3    3    0  502  0.82114176901E+02 -0.87502406186E+02 -0.28175573706E+02  0.12333184702E+03  0.41800000000E+01 0.  1.
        -11    1    1    2    0    0 -0.46039618299E+02  0.55098442086E+02  0.95180320509E+01  0.72429812284E+02  0.00000000000E+00 0.  1.
         11    1    1    2    0    0 -0.58413372123E+02  0.46003619804E+01 -0.67782969187E+02  0.89598081927E+02  0.00000000000E+00 0. -1.
</event>
<event>
 7    1  0.2989693E-009  0.1545522E+03  0.7561462E-02  0.1194988E+00
         -1   -1    0    0    0  501 -0.00000000000E+00  0.00000000000E+00  0.15700316676E+04  0.15700316676E+04  0.00000000000E+00 0.  1.
          1   -1    0    0  501    0  0.00000000000E+00 -0.00000000000E+00 -0.17002108950E+02  0.17002108950E+02  0.00000000000E+00 0. -1.
         25    2    1    2    0    0 -0.58479514888E+01 -0.11198573177E+03  0.10601079790E+04  0.10733378755E+04  0.12510101986E+03 0.  0.
          5    1    3    3  502    0  0.16116632987E+02 -0.13374600827E+03  0.78748903966E+03  0.79893942234E+03  0.41800000000E+01 0.  1.
         -5    1    3    3    0  502 -0.21964584475E+02  0.21760276500E+02  0.27261893934E+03  0.27439845315E+03  0.41800000000E+01 0.  1.
        -11    1    1    2    0    0 -0.35055413895E+02  0.90222601753E+02  0.36596227700E+03  0.37854641472E+03  0.00000000000E+00 0.  1.
         11    1    1    2    0    0  0.40903365384E+02  0.21763130016E+02  0.12695930263E+03  0.13514948631E+03  0.00000000000E+00 0. -1.
</event>
<event>
 7    1  0.2989693E-009  0.8560478E+02  0.7561462E-02  0.1313859E+00
          1   -1    0    0  501    0  0.00000000000E+00  0.00000000000E+00  0.80392852192E+03  0.80392852192E+03  0.00000000000E+00 0. -1.
         -1   -1    0    0    0  501 -0.00000000000E+00 -0.00000000000E+00 -0.20655062569E+02  0.20655062569E+02  0.00000000000E+00 0.  1.
         25    2    1    2    0    0 -0.64412106660E+02 -0.18048498909E+02  0.36675605158E+03  0.39323247207E+03  0.12508840043E+03 0.  0.
          5    1    3    3  502    0 -0.13918757971E+02 -0.11062081909E+01 -0.66526809893E+01  0.16021425790E+02  0.41800000000E+01 0.  1.
         -5    1    3    3    0  502 -0.50493348689E+02 -0.16942290718E+02  0.37340873257E+03  0.37721104628E+03  0.41800000000E+01 0.  1.
        -11    1    1    2    0    0 -0.16760607503E+02  0.14166319912E+02  0.35279946794E+02  0.41548492506E+02  0.00000000000E+00 0.  1.
         11    1    1    2    0    0  0.81172714163E+02  0.38821789964E+01  0.38123746097E+03  0.38980261991E+03  0.00000000000E+00 0. -1.
</event>
<event>
 7    1  0.2989693E-009  0.1241838E+03  0.7561462E-02  0.1236350E+00
          2   -1    0    0  501    0  0.00000000000E+00  0.00000000000E+00  0.45652421789E+03  0.45652421789E+03  0.00000000000E+00 0.  1.
         -2   -1    0    0    0  501 -0.00000000000E+00 -0.00000000000E+00 -0.39268162085E+02  0.39268162085E+02  0.00000000000E+00 0. -1.
         25    2    1    2    0    0 -0.41625248880E+02  0.63686739035E+02  0.25252965178E+03  0.29190220622E+03  0.12508801259E+03 0.  0.
          5    1    3    3  502    0 -0.14575637134E+02 -0.34507903473E+02  0.33979394075E+02  0.50747573555E+02  0.41800000000E+01 0.  1.
         -5    1    3    3    0  502 -0.27049611745E+02  0.98194642508E+02  0.21855025770E+03  0.24115463266E+03  0.41800000000E+01 0.  1.
        -11    1    1    2    0    0 -0.22166028778E+02 -0.65884286197E+01  0.80639181978E+02  0.83889319306E+02  0.00000000000E+00 0.  1.
         11    1    1    2    0    0  0.63791277657E+02 -0.57098310415E+02  0.84087222047E+02  0.12000085445E+03  0.00000000000E+00 0. -1.
</event>
<event>
 7    1  0.2989693E-009  0.9301600E+02  0.7561462E-02  0.1295708E+00
          2   -1    0    0  501    0  0.00000000000E+00  0.00000000000E+00  0.63599217644E+03  0.63599217644E+03  0.00000000000E+00 0. -1.
         -2   -1    0    0    0  501 -0.00000000000E+00 -0.00000000000E+00 -0.13655168259E+02  0.13655168259E+02  0.00000000000E+00 0.  1.
         25    2    1    2    0    0 -0.99001530552E+01  0.17257624292E+02  0.40780533979E+03  0.42702247143E+03  0.12508859791E+03 0.  0.
          5    1    3    3  502    0  0.43332020171E+02 -0.31902227893E+02  0.16517348433E+03  0.17376757016E+03  0.41800000000E+01 0. -1.
         -5    1    3    3    0  502 -0.53232173227E+02  0.49159852185E+02  0.24263185546E+03  0.25325490127E+03  0.41800000000E+01 0. -1.
        -11    1    1    2    0    0  0.33352515939E+02 -0.12007849527E+02  0.12800081230E+03  0.13281862339E+03  0.00000000000E+00 0. -1.
         11    1    1    2    0    0 -0.23452362884E+02 -0.52497747653E+01  0.86530856091E+02  0.89806249870E+02  0.00000000000E+00 0.  1.
</event>
<event>
 7    1  0.2989693E-009  0.1143876E+03  0.7561462E-02  0.1252654E+00
         -2   -1    0    0    0  501 -0.00000000000E+00  0.00000000000E+00  0.94781646744E+02  0.94781646744E+02  0.00000000000E+00 0.  1.
          2   -1    0    0  501    0  0.00000000000E+00 -0.00000000000E+00 -0.22193149571E+03  0.22193149571E+03  0.00000000000E+00 0. -1.
         25    2    1    2    0    0  0.17304012923E+02  0.88759785518E+02 -0.11190196575E+03  0.19065002427E+03  0.12509058090E+03 0.  0.
          5    1    3    3  502    0 -0.12219730956E+02  0.65844123783E+02  0.55465993233E+01  0.67327614137E+02  0.41800000000E+01 0. -1.
         -5    1    3    3    0  502  0.29523743880E+02  0.22915661735E+02 -0.11744856507E+03  0.12332241014E+03  0.41800000000E+01 0. -1.
        -11    1    1    2    0    0 -0.23010798554E+02  0.10039733177E+02 -0.97951926788E+01  0.26948819863E+02  0.00000000000E+00 0.  1.
         11    1    1    2    0    0  0.57067856313E+01 -0.98799518695E+02 -0.54526905416E+01  0.99114298316E+02  0.00000000000E+00 0. -1.
</event>
<event>
 6    1  0.2989693E-009  0.1593491E+03  0.7561462E-02  0.1189434E+00
          1   -1    0    0  501    0  0.00000000000E+00  0.00000000000E+00  0.69055912988E+03  0.69055912988E+03  0.00000000000E+00 0. -1.
         -1   -1    0    0    0  501 -0.00000000000E+00 -0.00000000000E+00 -0.45220148773E+02  0.45220148773E+02  0.00000000000E+00 0.  1.
          5    1    1    2  502    0 -0.98549823731E+02  0.10292935638E+03  0.29175092279E+03  0.32471925338E+03  0.41800000000E+01 0.  1.
         -5    1    1    2    0  502  0.20100065725E+02  0.87550346598E+01  0.20055303150E+01  0.22408878283E+02  0.41800000000E+01 0.  1.
        -11    1    1    2    0    0 -0.80041215836E+01 -0.42055611136E+02  0.42861240818E+02  0.60579091730E+02  0.00000000000E+00 0.  1.
         11    1    1    2    0    0  0.86453879589E+02 -0.69628779905E+02  0.30872128718E+03  0.32807205527E+03  0.00000000000E+00 0. -1.
</event>
<event>
 7    1  0.2989693E-009  0.8975743E+02  0.7561462E-02  0.1303440E+00
         -2   -1    0    0    0  501 -0.00000000000E+00  0.00000000000E+00  0.49236389972E+02  0.49236389972E+02  0.00000000000E+00 0.  1.
          2   -1    0    0  501    0  0.00000000000E+00 -0.00000000000E+00 -0.31524629891E+03  0.31524629891E+03  0.00000000000E+00 0. -1.
         25    2    1    2    0    0 -0.10599361793E+02  0.64259555465E+02 -0.15577363730E+03  0.21012996895E+03  0.12509013085E+03 0.  0.
          5    1    3    3  502    0 -0.25746684830E+02  0.64690955683E+01  0.13858094574E+02  0.30236735313E+02  0.41800000000E+01 0.  1.
         -5    1    3    3    0  502  0.15147323037E+02  0.57790459897E+02 -0.16963173188E+03  0.17989323364E+03  0.41800000000E+01 0.  1.
        -11    1    1    2    0    0 -0.20275876326E+02  0.12675198445E+01  0.23771118313E+01  0.20454056517E+02  0.00000000000E+00 0.  1.
         11    1    1    2    0    0  0.30875238119E+02 -0.65527075310E+02 -0.11261338347E+03  0.13389866341E+03  0.00000000000E+00 0. -1.
</event>
<event>
 7    1  0.2989693E-009  0.1224082E+03  0.7561462E-02  0.1239176E+00
         -2   -1    0    0    0  501 -0.00000000000E+00  0.00000000000E+00  0.18082109806E+02  0.18082109806E+02  0.00000000000E+00 0.  1.
          2   -1    0    0  501    0  0.00000000000E+00 -0.00000000000E+00 -0.14088171485E+04  0.14088171485E+04  0.00000000000E+00 0. -1.
         25    2    1    2    0    0 -0.26665909502E+02 -0.91850591636E+02 -0.10387624946E+04  0.10506301908E+04  0.12509466735E+03 0.  0.
          5    1    3    3  502    0 -0.46003753283E+02 -0.64925416531E+02 -0.97838360652E+03  0.98162294642E+03  0.41800000000E+01 0. -1.
         -5    1    3    3    0  502  0.19337843781E+02 -0.26925175105E+02 -0.60378888076E+02  0.69007244416E+02  0.41800000000E+01 0. -1.
        -11    1    1    2    0    0 -0.24243634851E+02  0.73844766236E+02 -0.23283754890E+03  0.24546716177E+03  0.00000000000E+00 0. -1.
         11    1    1    2    0    0  0.50909544353E+02  0.18005825399E+02 -0.11913499522E+03  0.13080190573E+03  0.00000000000E+00 0.  1.
</event>
<event>
 7    1  0.2989693E-009  0.8117075E+02  0.7561462E-02  0.1325761E+00
         -3   -1    0    0    0  501 -0.00000000000E+00  0.00000000000E+00  0.58178715693E+03  0.58178715693E+03  0.00000000000E+00 0.  1.
          3   -1    0    0  501    0  0.00000000000E+00 -0.00000000000E+00 -0.27198589623E+02  0.27198589623E+02  0.00000000000E+00 0. -1.
         25    2    1    2    0    0 -0.54238852945E+02  0.76072007849E+01  0.22629798837E+03  0.26430609988E+03  0.12508881733E+03 0.  0.
          5    1    3    3  502    0 -0.53359646831E+02  0.32587683240E+02  0.23027864939E+03  0.23865233662E+03  0.41800000000E+01 0. -1.
         -5    1    3    3    0  502 -0.87920611452E+00 -0.24980482456E+02 -0.39806610224E+01  0.25653763258E+02  0.41800000000E+01 0. -1.
        -11    1    1    2    0    0 -0.78173516809E+01 -0.94341592445E+01  0.18536424121E+01  0.12391543009E+02  0.00000000000E+00 0. -1.
         11    1    1    2    0    0  0.62056204626E+02  0.18269584597E+01  0.32643693653E+03  0.33228810367E+03  0.00000000000E+00 0.  1.
</event>
<event>
 7    1  0.2989693E-009  0.1085374E+03  0.7561462E-02  0.1263303E+00
          2   -1    0    0  501    0  0.00000000000E+00  0.00000000000E+00  0.38741415521E+03  0.38741415521E+03  0.00000000000E+00 0. -1.
         -2   -1    0    0    0  501 -0.00000000000E+00 -0.00000000000E+00 -0.59171616802E+02  0.59171616802E+02  0.00000000000E+00 0.  1.
         25    2    1    2    0    0 -0.70740385314E+02 -0.73503333492E+02  0.21899479701E+03  0.27205224664E+03  0.12508701626E+03 0.  0.
          5    1    3    3  502    0 -0.22065010075E+02 -0.99967418633E-01 -0.11526404705E+02  0.25242921157E+02  0.41800000000E+01 0. -1.
         -5    1    3    3    0  502 -0.48675375239E+02 -0.73403366073E+02  0.23052120171E+03  0.24680932548E+03  0.41800000000E+01 0. -1.
        -11    1    1    2    0    0  0.61467387962E+02  0.44206954192E+02  0.17407165209E+02  0.77688506116E+02  0.00000000000E+00 0.  1.
         11    1    1    2    0    0  0.92729973519E+01  0.29296379299E+02  0.91840576195E+02  0.96845019262E+02  0.00000000000E+00 0. -1.
</event>
<event>
 7    1  0.2989693E-009  0.1182927E+03  0.7561462E-02  0.1245940E+00
          1   -1    0    0  501    0  0.00000000000E+00  0.00000000000E+00  0.12702463401E+03  0.12702463401E+03  0.00000000000E+00 0. -1.
         -1   -1    0    0    0  501 -0.00000000000E+00 -0.00000000000E+00 -0.11571152618E+03  0.11571152618E+03  0.00000000000E+00 0.  1.
         25    2    1    2    0    0  0.45762609714E+02  0.27430208030E+02  0.11874098949E+02  0.13651044648E+03  0.12508986775E+03 0.  0.
          5    1    3    3  502    0  0.68214112678E+02 -0.26042190943E+02 -0.11134742288E+02  0.73978481759E+02  0.41800000000E+01 0.  1.
         -5    1    3    3    0  502 -0.22451502965E+02  0.53472398973E+02  0.23008841237E+02  0.62531964725E+02  0.41800000000E+01 0.  1.
        -11    1    1    2    0    0 -0.63905684623E+02 -0.46462076492E+02 -0.64726286408E+01  0.79275191583E+02  0.00000000000E+00 0.  1.
         11    1    1    2    0    0  0.18143074909E+02  0.19031868463E+02  0.59116375184E+01  0.26950522119E+02  0.00000000000E+00 0. -1.
</event>
<event>
 7    1  0.2989693E-009  0.1391999E+03  0.7561462E-02  0.1214410E+00
          1   -1    0    0  501    0  0.00000000000E+00  0.00000000000E+00  0.21148464204E+03  0.21148464204E+03  0.00000000000E+00 0.  1.
         -1   -1    0    0    0  501 -0.00000000000E+00 -0.00000000000E+00 -0.11675679957E+03  0.11675679957E+03  0.00000000000E+00 0. -1.
         25    2    1    2    0    0  0.10709345301E+03 -0.39199205058E+02  0.48658257138E+02  0.17613654999E+03  0.12510344879E+03 0.  0.
          5    1    3    3  502    0  0.10234422206E+02 -0.39142413661E+02  0.66118802746E+02  0.77627575137E+02  0.41800000000E+01 0. -1.
         -5    1    3    3    0  502  0.96859030809E+02 -0.56791396807E-01 -0.17460545608E+02  0.98508974857E+02  0.41800000000E+01 0. -1.
        -11    1    1    2    0    0 -0.39369136590E+02  0.58356942720E+02  0.48977948827E+01  0.70565218586E+02  0.00000000000E+00 0. -1.
         11    1    1    2    0    0 -0.67724316425E+02 -0.19157737661E+02  0.41171790450E+02  0.81539673021E+02  0.00000000000E+00 0.  1.
</event>
<event>
 7    1  0.2989693E-009  0.1642227E+03  0.7561462E-02  0.1184010E+00
          1   -1    0    0  501    0  0.00000000000E+00  0.00000000000E+00  0.11673626728E+04  0.11673626728E+04  0.00000000000E+00 0. -1.
         -1   -1    0    0    0  501 -0.00000000000E+00 -0.00000000000E+00 -0.25749320724E+02  0.25749320724E+02  0.00000000000E+00 0.  1.
         25    2    1    2    0    0 -0.22567702163E+02 -0.13206635269E+03  0.63710099617E+03  0.66294537479E+03  0.12509223773E+03 0.  0.
          5    1    3    3  502    0  0.50533894796E+02 -0.49885260467E+02  0.30055021350E+03  0.30885290507E+03  0.41800000000E+01 0. -1.
         -5    1    3    3    0  502 -0.73101596960E+02 -0.82181092222E+02  0.33655078267E+03  0.35409246972E+03  0.41800000000E+01 0. -1.
        -11    1    1    2    0    0  0.43624411270E+02  0.96709483286E+02  0.44718605395E+03  0.45959893414E+03  0.00000000000E+00 0. -1.
         11    1    1    2    0    0 -0.21056709106E+02  0.35356869403E+02  0.57326301940E+02  0.70567684577E+02  0.00000000000E+00 0.  1.
</event>
<event>
 7    1  0.2989693E-009  0.1933110E+03  0.7561462E-02  0.1155508E+00
         -2   -1    0    0    0  501 -0.00000000000E+00  0.00000000000E+00  0.13168108040E+03  0.13168108040E+03  0.00000000000E+00 0.  1.
          2   -1    0    0  501    0  0.00000000000E+00 -0.00000000000E+00 -0.44127341072E+03  0.44127341072E+03  0.00000000000E+00 0. -1.
         25    2    1    2    0    0  0.16740788298E+03  0.11674868127E+02 -0.31916688590E+03  0.38167637794E+03  0.12509058555E+03 0.  0.
          5    1    3    3  502    0  0.12773401089E+01  0.38243697278E+02 -0.38646054030E+02  0.54545411093E+02  0.41800000000E+01 0.  1.
         -5    1    3    3    0  502  0.16613054287E+03 -0.26568829151E+02 -0.28052083187E+03  0.32713096685E+03  0.41800000000E+01 0.  1.
        -11    1    1    2    0    0 -0.41907999023E+02 -0.31963847271E+02  0.32751409272E+02  0.62053386078E+02  0.00000000000E+00 0. -1.
         11    1    1    2    0    0 -0.12549988396E+03  0.20288979144E+02 -0.23176853683E+02  0.12922472710E+03  0.00000000000E+00 0.  1.
</event>
<event>
 7    1  0.2989693E-009  0.1445910E+03  0.7561462E-02  0.1207282E+00
          2   -1    0    0  501    0  0.00000000000E+00  0.00000000000E+00  0.13807402697E+03  0.13807402697E+03  0.00000000000E+00 0. -1.
         -2   -1    0    0    0  501 -0.00000000000E+00 -0.00000000000E+00 -0.16472205564E+03  0.16472205564E+03  0.00000000000E+00 0.  1.
         25    2    1    2    0    0 -0.55249091949E+01  0.10025120738E+03 -0.42017549482E+02  0.16581305334E+03  0.12509062711E+03 0.  0.
          5    1    3    3  502    0  0.56508282646E+02  0.26403713429E+02 -0.60877666720E+01  0.62808243038E+02  0.41800000000E+01 0.  1.
         -5    1    3    3    0  502 -0.62033191841E+02  0.73847493948E+02 -0.35929782810E+02  0.10300481030E+03  0.41800000000E+01 0.  1.
        -11    1    1    2    0    0  0.36043999356E+02 -0.91564063387E+02  0.28793277816E+02  0.10252902243E+03  0.00000000000E+00 0. -1.
         11    1    1    2    0    0 -0.30519090161E+02 -0.86871439902E+01 -0.13423757001E+02  0.34454006835E+02  0.00000000000E+00 0.  1.
</event>
<event>
 7    1  0.2989693E-009  0.1083791E+03  0.7561462E-02  0.1263601E+00
          2   -1    0    0  501    0  0.00000000000E+00  0.00000000000E+00  0.51984328677E+03  0.51984328677E+03  0.00000000000E+00 0.  1.
         -2   -1    0    0    0  501 -0.00000000000E+00 -0.00000000000E+00 -0.36654874473E+02  0.36654874473E+02  0.00000000000E+00 0. -1.
         25    2    1    2    0    0  0.80473279874E+02 -0.27819374787E+02  0.25720014634E+03  0.29841134873E+03  0.12509017302E+03 0.  0.
          5    1    3    3  502    0  0.62564009110E+02 -0.44432049234E+00  0.31237962061E+02  0.70055230571E+02  0.41800000000E+01 0. -1.
         -5    1    3    3    0  502  0.17909270764E+02 -0.27375054295E+02  0.22596218428E+03  0.22835611816E+03  0.41800000000E+01 0. -1.
        -11    1    1    2    0    0 -0.93215958848E+02  0.31044204366E+01  0.14450828081E+03  0.17199271971E+03  0.00000000000E+00 0. -1.
         11    1    1    2    0    0  0.12742678974E+02  0.24714954350E+02  0.81479985151E+02  0.86094092806E+02  0.00000000000E+00 0.  1.
</event>
<event>
 7    1  0.3737645E-009  0.8430447E+02  0.7561462E-02  0.1317262E+00
         -1   -1    0    0    0  501 -0.00000000000E+00  0.00000000000E+00  0.54573965519E+02  0.54573965519E+02  0.00000000000E+00 0.  1.
          1   -1    0    0  501    0  0.00000000000E+00 -0.00000000000E+00 -0.28025636063E+03  0.28025636063E+03  0.00000000000E+00 0. -1.
         25    2    1    2    0    0  0.17925823069E+02  0.47991632688E+02 -0.87230233928E+02  0.16084408042E+03  0.12504868074E+03 0.  0.
          5    1    3    3  502    0  0.29380372738E+02 -0.27757922229E+02  0.49232286708E+01  0.40931884017E+02  0.41800000000E+01 0. -1.
         -5    1    3    3    0  502 -0.11454549669E+02  0.75749554917E+02 -0.92153462598E+02  0.11991219641E+03  0.41800000000E+01 0. -1.
        -11    1    1    2    0    0 -0.75693966134E+01 -0.22270793881E+02  0.80667710518E+01  0.24866781464E+02  0.00000000000E+00 0.  1.
         11    1    1    2    0    0 -0.10356426456E+02 -0.25720838807E+02 -0.14651893223E+03  0.14911946426E+03  0.00000000000E+00 0. -1.
</event>
<event>
 7    1  0.2989693E-009  0.8980487E+02  0.7561462E-02  0.1303325E+00
         -2   -1    0    0    0  501 -0.00000000000E+00  0.00000000000E+00  0.32333558705E+03  0.32333558705E+03  0.00000000000E+00 0. -1.
          2   -1    0    0  501    0  0.00000000000E+00 -0.00000000000E+00 -0.45732009391E+02  0.45732009391E+02  0.00000000000E+00 0.  1.
         25    2    1    2    0    0 -0.16296654558E+02  0.52376901473E+02  0.16756065802E+03  0.21615615282E+03  0.12505193932E+03 0.  0.
          5    1    3    3  502    0  0.14359380218E+02  0.65442390736E+02  0.28211122091E+02  0.72816468708E+02  0.41800000000E+01 0.  1.
         -5    1    3    3    0  502 -0.30656034776E+02 -0.13065489263E+02  0.13934953593E+03  0.14333968411E+03  0.41800000000E+01 0.  1.
        -11    1    1    2    0    0  0.11410886900E+02 -0.64668708609E+02  0.11970302512E+03  0.13653228350E+03  0.00000000000E+00 0. -1.
         11    1    1    2    0    0  0.48857676576E+01  0.12291807135E+02 -0.96601054867E+01  0.16379160121E+02  0.00000000000E+00 0.  1.
</event>
<event>
 7    1  0.2989693E-009  0.1333269E+03  0.7561462E-02  0.1222601E+00
         -4   -1    0    0    0  501 -0.00000000000E+00  0.00000000000E+00  0.40169362012E+02  0.40169362012E+02  0.00000000000E+00 0.  1.
          4   -1    0    0  501    0  0.00000000000E+00 -0.00000000000E+00 -0.78938301316E+03  0.78938301316E+03  0.00000000000E+00 0. -1.
         25    2    1    2    0    0  0.69746754267E+01 -0.11864008091E+03 -0.21976953669E+03  0.27940782705E+03  0.12508385052E+03 0.  0.
          5    1    3    3  502    0  0.76836417991E+01 -0.12542922299E+03 -0.10347338303E+03  0.16283654911E+03  0.41800000000E+01 0.  1.
         -5    1    3    3    0  502 -0.70896637237E+00  0.67891420721E+01 -0.11629615367E+03  0.11657127794E+03  0.41800000000E+01 0.  1.
        -11    1    1    2    0    0 -0.18662033761E+02  0.11973181649E+03 -0.52279275832E+03  0.53665281844E+03  0.00000000000E+00 0. -1.
         11    1    1    2    0    0  0.11687358334E+02 -0.10917355765E+01 -0.66513561300E+01  0.13491729680E+02  0.00000000000E+00 0.  1.
</event>
<event>
 7    1  0.2989693E-009  0.1846483E+03  0.7561462E-02  0.1163379E+00
         -2   -1    0    0    0  501 -0.00000000000E+00  0.00000000000E+00  0.18807720958E+03  0.18807720958E+03  0.00000000000E+00 0.  1.
          2   -1    0    0  501    0  0.00000000000E+00 -0.00000000000E+00 -0.23985630938E+03  0.23985630938E+03  0.00000000000E+00 0. -1.
         25    2    1    2    0    0 -0.14066103906E+03  0.10311336411E+03 -0.83853893352E+02  0.23042700330E+03  0.12508890700E+03 0.  0.
          5    1    3    3  502    0 -0.40370882956E+02 -0.94337706745E+01 -0.66703688438E+02  0.78648958486E+02  0.41800000000E+01 0.  1.
         -5    1    3    3    0  502 -0.10029015610E+03  0.11254713479E+03 -0.17150204915E+02  0.15177804482E+03  0.41800000000E+01 0.  1.
        -11    1    1    2    0    0  0.53588509513E+02 -0.57218768903E+02  0.55842491904E+02  0.96250193603E+02  0.00000000000E+00 0.  1.
         11    1    1    2    0    0  0.87072529547E+02 -0.45894595210E+02 -0.23767698344E+02  0.10125632205E+03  0.00000000000E+00 0. -1.
</event>
<event>
 7    1  0.2989693E-009  0.1049163E+03  0.7561462E-02  0.1270285E+00
          1   -1    0    0  501    0  0.00000000000E+00  0.00000000000E+00  0.71563431357E+02  0.71563431357E+02  0.00000000000E+00 0. -1.
         -1   -1    0    0    0  501 -0.00000000000E+00 -0.00000000000E+00 -0.22830223416E+03  0.22830223416E+03  0.00000000000E+00 0.  1.
         25    2    1    2    0    0  0.12239527855E+02 -0.16123096007E+02 -0.16769715099E+03  0.21019067445E+03  0.12509206572E+03 0.  0.
          5    1    3    3  502    0 -0.47616378386E+02 -0.39383847806E+02 -0.73583113066E+02  0.96178760062E+02  0.41800000000E+01 0.  1.
         -5    1    3    3    0  502  0.59855906241E+02  0.23260751799E+02 -0.94114037928E+02  0.11401191438E+03  0.41800000000E+01 0.  1.
        -11    1    1    2    0    0  0.34571717187E+02  0.19115780401E+01 -0.10605424659E+02  0.36212329283E+02  0.00000000000E+00 0.  1.
         11    1    1    2    0    0 -0.46811245042E+02  0.14211517967E+02  0.21563772855E+02  0.53462661784E+02  0.00000000000E+00 0. -1.
</event>
<event>
 7    1  0.2989693E-009  0.1275941E+03  0.7561462E-02  0.1231070E+00
          1   -1    0    0  501    0  0.00000000000E+00  0.00000000000E+00  0.26419321364E+03  0.26419321364E+03  0.00000000000E+00 0. -1.
         -1   -1    0    0    0  501 -0.00000000000E+00 -0.00000000000E+00 -0.82269276113E+02  0.82269276113E+02  0.00000000000E+00 0.  1.
         25    2    1    2    0    0  0.27136575062E+02 -0.70677871678E+02  0.22671612226E+02  0.14796895592E+03  0.12509618165E+03 0.  0.
          5    1    3    3  502    0  0.31643029993E+02  0.30395652146E+02 -0.55523548963E+00  0.44078993897E+02  0.41800000000E+01 0.  1.
         -5    1    3    3    0  502 -0.45064549309E+01 -0.10107352382E+03  0.23226847716E+02  0.10388996202E+03  0.41800000000E+01 0.  1.
        -11    1    1    2    0    0 -0.52900913615E+02  0.27625507913E+02  0.12261590701E+03  0.13636838343E+03  0.00000000000E+00 0. -1.
         11    1    1    2    0    0  0.25764338553E+02  0.43052363765E+02  0.36636418291E+02  0.62125150398E+02  0.00000000000E+00 0.  1.
</event>
<event>
 7    1  0.2989693E-009  0.1216222E+03  0.7561462E-02  0.1240445E+00
         -1   -1    0    0    0  501 -0.00000000000E+00  0.00000000000E+00  0.10556849803E+03  0.10556849803E+03  0.00000000000E+00 0.  1.
          1   -1    0    0  501    0  0.00000000000E+00 -0.00000000000E+00 -0.18969990526E+03  0.18969990526E+03  0.00000000000E+00 0. -1.
         25    2    1    2    0    0  0.15001503583E+02  0.86396631971E+02 -0.25258272074E+02  0.15483939530E+03  0.12509130626E+03 0.  0.
          5    1    3    3  502    0  0.17287918317E+02 -0.96046686789E+01  0.35696133458E+02  0.41022044367E+02  0.41800000000E+01 0.  1.
         -5    1    3    3    0  502 -0.22864147339E+01  0.96001300650E+02 -0.60954405532E+02  0.11381735093E+03  0.41800000000E+01 0.  1.
        -11    1    1    2    0    0  0.24419192911E+02 -0.83933583996E+02 -0.46654186861E+02  0.99084593436E+02  0.00000000000E+00 0. -1.
         11    1    1    2    0    0 -0.39420696494E+02 -0.24630479755E+01 -0.12218948292E+02  0.41344414553E+02  0.00000000000E+00 0.  1.
</event>
<event>
 7    1  0.2989693E-009  0.1558977E+03  0.7561462E-02  0.1193408E+00
         -1   -1    0    0    0  501 -0.00000000000E+00  0.00000000000E+00  0.35822095780E+03  0.35822095780E+03  0.00000000000E+00 0.  1.
          1   -1    0    0  501    0  0.00000000000E+00 -0.00000000000E+00 -0.80700790433E+02  0.80700790433E+02  0.00000000000E+00 0. -1.
         25    2    1    2    0    0  0.26272068083E+02 -0.12744944867E+03  0.15672714125E+03  0.23905559056E+03  0.12510233830E+03 0.  0.
          5    1    3    3  502    0  0.61447046819E+01 -0.13141894469E+03  0.68515123596E+02  0.14839302875E+03  0.41800000000E+01 0.  1.
         -5    1    3    3    0  502  0.20127363401E+02  0.39694960228E+01  0.88212017655E+02  0.90662561815E+02  0.41800000000E+01 0.  1.
        -11    1    1    2    0    0 -0.57748752122E+02  0.52932002858E+02  0.58694593859E+02  0.97886519228E+02  0.00000000000E+00 0. -1.
         11    1    1    2    0    0  0.31476684039E+02  0.74517445811E+02  0.62098432257E+02  0.10197963844E+03  0.00000000000E+00 0.  1.
</event>
<event>
 7    1  0.2989693E-009  0.8453960E+02  0.7561462E-02  0.1316641E+00
         -2   -1    0    0    0  501 -0.00000000000E+00  0.00000000000E+00  0.27254957254E+02  0.27254957254E+02  0.00000000000E+00 0.  1.
          2   -1    0    0  501    0  0.00000000000E+00 -0.00000000000E+00 -0.67219530530E+03  0.67219530530E+03  0.00000000000E+00 0. -1.
         25    2    1    2    0    0 -0.17301021639E+02  0.62741873054E+02 -0.50219435435E+03  0.52161473092E+03  0.12508752930E+03 0.  0.
          5    1    3    3  502    0 -0.10465967918E+02 -0.10172694590E+02 -0.37096514417E+03  0.37127568031E+03  0.41800000000E+01 0. -1.
         -5    1    3    3    0  502 -0.68350537204E+01  0.72914567644E+02 -0.13122921018E+03  0.15033905061E+03  0.41800000000E+01 0. -1.
        -11    1    1    2    0    0 -0.14051301970E+02 -0.38280557422E+02 -0.14041427822E+02  0.43127738857E+02  0.00000000000E+00 0.  1.
         11    1    1    2    0    0  0.31352323609E+02 -0.24461315632E+02 -0.12870456587E+03  0.13470779278E+03  0.00000000000E+00 0. -1.
</event>
<event>
 7    1  0.2989693E-009  0.1791606E+03  0.7561462E-02  0.1168618E+00
         -2   -1    0    0    0  501 -0.00000000000E+00  0.00000000000E+00  0.63062256807E+02  0.63062256807E+02  0.00000000000E+00 0.  1.
          2   -1    0    0  501    0  0.00000000000E+00 -0.00000000000E+00 -0.57398821895E+03  0.57398821895E+03  0.00000000000E+00 0. -1.
         25    2    1    2    0    0 -0.84479772856E+02  0.12862551239E+03 -0.25199595187E+03  0.32067491864E+03  0.12509631978E+03 0.  0.
          5    1    3    3  502    0 -0.74286486818E+02  0.14138917187E+03 -0.15631627551E+03  0.22352098432E+03  0.41800000000E+01 0. -1.
         -5    1    3    3    0  502 -0.10193286038E+02 -0.12763659473E+02 -0.95679676362E+02  0.97153934311E+02  0.41800000000E+01 0. -1.
        -11    1    1    2    0    0  0.76652065827E+02 -0.29308568030E+02 -0.12229122950E+03  0.14727415309E+03  0.00000000000E+00 0. -1.
         11    1    1    2    0    0  0.78277070288E+01 -0.99316944362E+02 -0.13663878077E+03  0.16910140403E+03  0.00000000000E+00 0.  1.
</event>
<event>
 7    1  0.2989693E-009  0.1205724E+03  0.7561462E-02  0.1242156E+00
         -2   -1    0    0    0  501 -0.00000000000E+00  0.00000000000E+00  0.73675173413E+02  0.73675173413E+02  0.00000000000E+00 0. -1.
          2   -1    0    0  501    0  0.00000000000E+00 -0.00000000000E+00 -0.31912344723E+03  0.31912344723E+03  0.00000000000E+00 0.  1.
         25    2    1    2    0    0 -0.50406412937E+02 -0.17971983124E+02 -0.25092266095E+03  0.28543774803E+03  0.12509487430E+03 0.  0.
          5    1    3    3  502    0  0.17279112832E+02  0.41282082979E+02 -0.67425879401E+02  0.81033941829E+02  0.41800000000E+01 0. -1.
         -5    1    3    3    0  502 -0.67685525769E+02 -0.59254066103E+02 -0.18349678155E+03  0.20440380620E+03  0.41800000000E+01 0. -1.
        -11    1    1    2    0    0 -0.25003455190E+02  0.17870339265E+02 -0.52948305219E+01  0.31185846584E+02  0.00000000000E+00 0. -1.
         11    1    1    2    0    0  0.75409868127E+02  0.10164385988E+00  0.10769217655E+02  0.76175026034E+02  0.00000000000E+00 0.  1.
</event>
<event>
 7    1  0.2989693E-009  0.1872453E+03  0.7561462E-02  0.1160970E+00
         -1   -1    0    0    0  501 -0.00000000000E+00  0.00000000000E+00  0.55491734451E+02  0.55491734451E+02  0.00000000000E+00 0.  1.
          1   -1    0    0  501    0  0.00000000000E+00 -0.00000000000E+00 -0.79059948376E+03  0.79059948376E+03  0.00000000000E+00 0. -1.
         25    2    1    2    0    0 -0.13135733615E+01  0.17414221858E+03 -0.33258005181E+03  0.39570504145E+03  0.12508297726E+03 0.  0.
          5    1    3    3  502    0 -0.39623981380E+02  0.63650233268E+02 -0.50990514230E+02  0.90768480415E+02  0.41800000000E+01 0.  1.
         -5    1    3    3    0  502  0.38310408018E+02  0.11049198531E+03 -0.28158953758E+03  0.30493656103E+03  0.41800000000E+01 0.  1.
        -11    1    1    2    0    0  0.25317008658E+02 -0.51231153993E+02 -0.48808595205E+02  0.75152252346E+02  0.00000000000E+00 0.  1.
         11    1    1    2    0    0 -0.24003435296E+02 -0.12291106459E+03 -0.35371910230E+03  0.37523392442E+03  0.00000000000E+00 0. -1.
</event>
<event>
 7    1  0.2989693E-009  0.1136013E+03  0.7561462E-02  0.1254042E+00
         -2   -1    0    0    0  501 -0.00000000000E+00  0.00000000000E+00  0.12687103138E+03  0.12687103138E+03  0.00000000000E+00 0. -1.
          2   -1    0    0  501    0  0.00000000000E+00 -0.00000000000E+00 -0.11904061023E+03  0.11904061023E+03  0.00000000000E+00 0.  1.
         25    2    1    2    0    0 -0.53218648392E+02  0.14208232707E+02 -0.24601560739E+02  0.13887628480E+03  0.12508911734E+03 0.  0.
          5    1    3    3  502    0 -0.82943531057E+02  0.34519651132E+02 -0.41305189575E+02  0.98968817030E+02  0.41800000000E+01 0.  1.
         -5    1    3    3    0  502  0.29724882665E+02 -0.20311418425E+02  0.16703628836E+02  0.39907467775E+02  0.41800000000E+01 0.  1.
        -11    1    1    2    0    0 -0.23359957500E+02 -0.16257060937E+01  0.13959657675E+02  0.27261742004E+02  0.00000000000E+00 0.  1.
         11    1    1    2    0    0  0.76578605892E+02 -0.12582526613E+02  0.18472324222E+02  0.79773614802E+02  0.00000000000E+00 0. -1.
</event>
<event>
 7    1  0.3422990E-009  0.1350505E+03  0.7561462E-02  0.1220148E+00
         -2   -1    0    0    0  501 -0.00000000000E+00  0.00000000000E+00  0.32540765092E+02  0.32540765092E+02  0.00000000000E+00 0.  1.
          2   -1    0    0  501    0  0.00000000000E+00 -0.00000000000E+00 -0.69313542207E+03  0.69313542207E+03  0.00000000000E+00 0. -1.
         25    2    1    2    0    0 -0.17733204374E+02  0.10081882269E+03 -0.38987917297E+03  0.42205636325E+03  0.12508758010E+03 0.  0.
          5    1    3    3  502    0  0.34938341978E+02  0.39349295146E+02 -0.50222533046E+02  0.72861718304E+02  0.41800000000E+01 0. -1.
         -5    1    3    3    0  502 -0.52671546352E+02  0.61469527542E+02 -0.33965663992E+03  0.34919464494E+03  0.41800000000E+01 0. -1.
        -11    1    1    2    0    0 -0.36907198080E+02 -0.43958451046E+02 -0.13429917336E+03  0.14605052090E+03  0.00000000000E+00 0.  1.
         11    1    1    2    0    0  0.54640402454E+02 -0.56860371642E+02 -0.13641631064E+03  0.15756930302E+03  0.00000000000E+00 0. -1.
</event>
<event>
 7    1  0.2989693E-009  0.2027321E+03  0.7561462E-02  0.1147454E+00
         -2   -1    0    0    0  501 -0.00000000000E+00  0.00000000000E+00  0.42618985257E+02  0.42618985257E+02  0.00000000000E+00 0.  1.
          2   -1    0    0  501    0  0.00000000000E+00 -0.00000000000E+00 -0.12246480361E+04  0.12246480361E+04  0.00000000000E+00 0. -1.
         25    2    1    2    0    0 -0.68665182470E+02 -0.18759040641E+03 -0.54578770512E+03  0.59450583180E+03  0.12509155495E+03 0.  0.
          5    1    3    3  502    0 -0.53620559406E+02 -0.78036325285E+02 -0.40224264680E+03  0.41325712548E+03  0.41800000000E+01 0. -1.
         -5    1    3    3    0  502 -0.15044623064E+02 -0.10955408112E+03 -0.14354505832E+03  0.18124870632E+03  0.41800000000E+01 0. -1.
        -11    1    1    2    0    0  0.45973670910E+02  0.11091742721E+03 -0.23799420524E+03  0.26656611901E+03  0.00000000000E+00 0. -1.
         11    1    1    2    0    0  0.22691511560E+02  0.76672979195E+02 -0.39824714046E+03  0.40619507053E+03  0.00000000000E+00 0.  1.
</event>
<event>
 7    1  0.2989693E-009  0.6240808E+02  0.7561462E-02  0.1387995E+00
          2   -1    0    0  501    0  0.00000000000E+00  0.00000000000E+00  0.11379861307E+03  0.11379861307E+03  0.00000000000E+00 0. -1.
         -2   -1    0    0    0  501 -0.00000000000E+00 -0.00000000000E+00 -0.12974610048E+03  0.12974610048E+03  0.00000000000E+00 0.  1.
         25    2    1    2    0    0  0.47928601921E+02  0.17915699581E+02  0.12611711144E+02  0.13573658656E+03  0.12508893836E+03 0.  0.
          5    1    3    3  502    0  0.31884890529E+02 -0.15980627151E+02  0.63161797543E+02  0.72656119887E+02  0.41800000000E+01 0. -1.
         -5    1    3    3    0  502  0.16043711393E+02  0.33896326732E+02 -0.50550086399E+02  0.63080466676E+02  0.41800000000E+01 0. -1.
        -11    1    1    2    0    0 -0.33600746405E+02 -0.12916913627E+02 -0.61657587711E+02  0.71396883258E+02  0.00000000000E+00 0.  1.
         11    1    1    2    0    0 -0.14327855517E+02 -0.49987859541E+01  0.33098389165E+02  0.36411243731E+02  0.00000000000E+00 0. -1.
</event>
<event>
 7    1  0.2989693E-009  0.1299045E+03  0.7561462E-02  0.1227597E+00
          2   -1    0    0  501    0  0.00000000000E+00  0.00000000000E+00  0.44356384778E+03  0.44356384778E+03  0.00000000000E+00 0. -1.
         -2   -1    0    0    0  501 -0.00000000000E+00 -0.00000000000E+00 -0.49643928359E+02  0.49643928359E+02  0.00000000000E+00 0.  1.
         25    2    1    2    0    0 -0.61436221762E+02  0.76636100673E+02  0.26388807019E+03  0.30811128267E+03  0.12509255632E+03 0.  0.
          5    1    3    3  502    0 -0.19334002554E+02 -0.27249118347E+02  0.18777894730E+02  0.38553856304E+02  0.41800000000E+01 0. -1.
         -5    1    3    3    0  502 -0.42102219208E+02  0.10388521902E+03  0.24511017546E+03  0.26955742637E+03  0.41800000000E+01 0. -1.
        -11    1    1    2    0    0  0.18155049931E+02 -0.67279326921E+02  0.30323371090E+02  0.75997503269E+02  0.00000000000E+00 0.  1.
         11    1    1    2    0    0  0.43281171830E+02 -0.93567737519E+01  0.99708478134E+02  0.10909899020E+03  0.00000000000E+00 0. -1.
</event>
<event>
 7    1  0.2989693E-009  0.1171230E+03  0.7561462E-02  0.1247920E+00
          1   -1    0    0  501    0  0.00000000000E+00  0.00000000000E+00  0.67897958660E+02  0.67897958660E+02  0.00000000000E+00 0. -1.
         -1   -1    0    0    0  501 -0.00000000000E+00 -0.00000000000E+00 -0.32354316414E+03  0.32354316414E+03  0.00000000000E+00 0.  1.
         25    2    1    2    0    0 -0.66030362659E+02  0.64445269314E+02 -0.18941742554E+03  0.24502894221E+03  0.12508804856E+03 0.  0.
          5    1    3    3  502    0 -0.93339265981E+02  0.51345858491E+02 -0.85363928123E+02  0.13657630974E+03  0.41800000000E+01 0. -1.
         -5    1    3    3    0  502  0.27308903323E+02  0.13099410823E+02 -0.10405349742E+03  0.10845263247E+03  0.41800000000E+01 0. -1.
        -11    1    1    2    0    0  0.37035425464E+02 -0.55487342863E+02 -0.87002477936E+02  0.10963530054E+03  0.00000000000E+00 0.  1.
         11    1    1    2    0    0  0.28994937195E+02 -0.89579264507E+01  0.20774697998E+02  0.36776880049E+02  0.00000000000E+00 0. -1.
</event>
<event>
 7    1  0.2989693E-009  0.1718134E+03  0.7561462E-02  0.1175970E+00
         -1   -1    0    0    0  501 -0.00000000000E+00  0.00000000000E+00  0.29877468869E+03  0.29877468869E+03  0.00000000000E+00 0.  1.
          1   -1    0    0  501    0  0.00000000000E+00 -0.00000000000E+00 -0.12673844755E+03  0.12673844755E+03  0.00000000000E+00 0. -1.
         25    2    1    2    0    0  0.11307626563E+03  0.10722921527E+03  0.13395206318E+03  0.24057309148E+03  0.12509160906E+03 0.  0.
          5    1    3    3  502    0  0.10421304223E+03  0.11627662774E+03  0.15212114103E+03  0.21803423189E+03  0.41800000000E+01 0.  1.
         -5    1    3    3    0  502  0.88632233948E+01 -0.90474124645E+01 -0.18169077852E+02  0.22538859582E+02  0.41800000000E+01 0.  1.
        -11    1    1    2    0    0 -0.26486221550E+02 -0.78517502608E+02  0.43433231698E+02  0.93557275310E+02  0.00000000000E+00 0.  1.
         11    1    1    2    0    0 -0.86590044079E+02 -0.28711712665E+02 -0.53490537334E+01  0.91382769457E+02  0.00000000000E+00 0. -1.
</event>
<event>
 7    1  0.2989693E-009  0.5988178E+02  0.7561462E-02  0.1398329E+00
          1   -1    0    0  501    0  0.00000000000E+00  0.00000000000E+00  0.91203470404E+02  0.91203470404E+02  0.00000000000E+00 0. -1.
         -1   -1    0    0    0  501 -0.00000000000E+00 -0.00000000000E+00 -0.22127296185E+03  0.22127296185E+03  0.00000000000E+00 0.  1.
         25    2    1    2    0    0 -0.47829844095E+02  0.40783355072E+01  0.14249725700E+02  0.13474315153E+03  0.12509330675E+03 0.  0.
          5    1    3    3  502    0 -0.52580093301E+02 -0.11856105320E+02 -0.46692891247E+02  0.71434809008E+02  0.41800000000E+01 0.  1.
         -5    1    3    3    0  502  0.47502492062E+01  0.15934440828E+02  0.60942616947E+02  0.63308342518E+02  0.41800000000E+01 0.  1.
        -11    1    1    2    0    0  0.35723542584E+02  0.17799866437E+00 -0.15620733832E+03  0.16024024377E+03  0.00000000000E+00 0.  1.
         11    1    1    2    0    0  0.12106301511E+02 -0.42563341716E+01  0.11888121177E+02  0.17493036957E+02  0.00000000000E+00 0. -1.
</event>
<event>
 7    1  0.2989693E-009  0.7017388E+02  0.7561462E-02  0.1359503E+00
          1   -1    0    0  501    0  0.00000000000E+00  0.00000000000E+00  0.85461199756E+02  0.85461199756E+02  0.00000000000E+00 0. -1.
         -1   -1    0    0    0  501 -0.00000000000E+00 -0.00000000000E+00 -0.18518539035E+03  0.18518539035E+03  0.00000000000E+00 0.  1.
         25    2    1    2    0    0  0.41226955363E+02 -0.11443067243E+02 -0.28969807387E+01  0.13223602150E+03  0.12508943700E+03 0.  0.
          5    1    3    3  502    0  0.15008309623E+01  0.21491975465E+02 -0.54736103167E+02  0.58971780480E+02  0.41800000000E+01 0. -1.
         -5    1    3    3    0  502  0.39726124401E+02 -0.32935042708E+02  0.51839122429E+02  0.73264241020E+02  0.41800000000E+01 0. -1.
        -11    1    1    2    0    0  0.71966758545E+01 -0.11089587815E+02  0.11571045846E+02  0.17568727992E+02  0.00000000000E+00 0. -1.
         11    1    1    2    0    0 -0.48423631218E+02  0.22532655058E+02 -0.10839825570E+03  0.12084184061E+03  0.00000000000E+00 0.  1.
</event>
<event>
 7    1  0.2989693E-009  0.9258362E+02  0.7561462E-02  0.1296713E+00
         -3   -1    0    0    0  501 -0.00000000000E+00  0.00000000000E+00  0.15777942371E+03  0.15777942371E+03  0.00000000000E+00 0.  1.
          3   -1    0    0  501    0  0.00000000000E+00 -0.00000000000E+00 -0.12811736208E+03  0.12811736208E+03  0.00000000000E+00 0. -1.
         25    2    1    2    0    0 -0.31667613660E+01  0.60194987824E+01  0.10836562374E+03  0.16564225466E+03  0.12509190773E+03 0.  0.
          5    1    3    3  502    0  0.18074767454E+02 -0.50215829584E+02  0.86132373664E+02  0.10141294273E+03  0.41800000000E+01 0. -1.
         -5    1    3    3    0  502 -0.21241528820E+02  0.56235328367E+02  0.22233250073E+02  0.64229311937E+02  0.41800000000E+01 0. -1.
        -11    1    1    2    0    0 -0.13386234308E+02  0.29386208512E+02  0.99378200765E-01  0.32291645912E+02  0.00000000000E+00 0.  1.
         11    1    1    2    0    0  0.16552995674E+02 -0.35405707294E+02 -0.78802940302E+02  0.87962885213E+02  0.00000000000E+00 0. -1.
</event>
<event>
 7    1  0.2989693E-009  0.1488424E+03  0.7561462E-02  0.1201903E+00
          2   -1    0    0  501    0  0.00000000000E+00  0.00000000000E+00  0.95609297480E+03  0.95609297480E+03  0.00000000000E+00 0. -1.
         -2   -1    0    0    0  501 -0.00000000000E+00 -0.00000000000E+00 -0.29639100056E+02  0.29639100056E+02  0.00000000000E+00 0.  1.
         25    2    1    2    0    0 -0.12047979647E+03 -0.34412302569E+02  0.41401388673E+03  0.45027094819E+03  0.12504735283E+03 0.  0.
          5    1    3    3  502    0 -0.79556266404E+02 -0.68405855299E+02  0.35724631558E+03  0.37235864830E+03  0.41800000000E+01 0. -1.
         -5    1    3    3    0  502 -0.40923530067E+02  0.33993552731E+02  0.56767571145E+02  0.77912299890E+02  0.41800000000E+01 0. -1.
        -11    1    1    2    0    0  0.62235704895E+02  0.49071675683E+02  0.16716393492E+03  0.18500025258E+03  0.00000000000E+00 0.  1.
         11    1    1    2    0    0  0.58244091576E+02 -0.14659373114E+02  0.34527605310E+03  0.35046087409E+03  0.00000000000E+00 0. -1.
</event>
<event>
 7    1  0.2989693E-009  0.9372148E+02  0.7561462E-02  0.1294082E+00
         -1   -1    0    0    0  501 -0.00000000000E+00  0.00000000000E+00  0.10023640483E+04  0.10023640483E+04  0.00000000000E+00 0.  1.
          1   -1    0    0  501    0  0.00000000000E+00 -0.00000000000E+00 -0.22965831794E+02  0.22965831794E+02  0.00000000000E+00 0. -1.
         25    2    1    2    0    0 -0.34768503176E+02  0.35538955733E+02  0.84162531960E+03  0.85232207866E+03  0.12509149046E+03 0.  0.
          5    1    3    3  502    0 -0.55094403646E+01 -0.42435136547E+02  0.16231632818E+03  0.16791413741E+03  0.41800000000E+01 0.  1.
         -5    1    3    3    0  502 -0.29259062812E+02  0.77974092280E+02  0.67930899142E+03  0.68440794125E+03  0.41800000000E+01 0.  1.
        -11    1    1    2    0    0  0.20947483081E+01 -0.27277987922E+02 -0.36716811564E+01  0.27603583790E+02  0.00000000000E+00 0. -1.
         11    1    1    2    0    0  0.32673754868E+02 -0.82609678118E+01  0.14144457808E+03  0.14540421766E+03  0.00000000000E+00 0.  1.
</event>
<event>
 7    1  0.2989693E-009  0.1127167E+03  0.7561462E-02  0.1255620E+00
          4   -1    0    0  501    0  0.00000000000E+00  0.00000000000E+00  0.41194624360E+03  0.41194624360E+03  0.00000000000E+00 0.  1.
         -4   -1    0    0    0  501 -0.00000000000E+00 -0.00000000000E+00 -0.43167583629E+02  0.43167583629E+02  0.00000000000E+00 0. -1.
         25    2    1    2    0    0  0.19862084520E+02 -0.73511880829E+02  0.18586549487E+03  0.23664909035E+03  0.12513317209E+03 0.  0.
          5    1    3    3  502    0 -0.46879145642E+02 -0.18990074563E+02  0.31286562988E+02  0.59620454977E+02  0.41800000000E+01 0.  1.
         -5    1    3    3    0  502  0.66741230162E+02 -0.54521806265E+02  0.15457893188E+03  0.17702863538E+03  0.41800000000E+01 0.  1.
        -11    1    1    2    0    0 -0.34406368276E+02  0.48453488466E+02  0.37670782249E+02  0.70360689008E+02  0.00000000000E+00 0. -1.
         11    1    1    2    0    0  0.14544283756E+02  0.25058392363E+02  0.14524238285E+03  0.14810404786E+03  0.00000000000E+00 0.  1.
</event>
<event>
 7    1  0.2989693E-009  0.1518225E+03  0.7561462E-02  0.1198251E+00
          1   -1    0    0  501    0  0.00000000000E+00  0.00000000000E+00  0.11883429312E+04  0.11883429312E+04  0.00000000000E+00 0. -1.
         -1   -1    0    0    0  501 -0.00000000000E+00 -0.00000000000E+00 -0.22014584609E+02  0.22014584609E+02  0.00000000000E+00 0.  1.
         25    2    1    2    0    0  0.62737568350E+02 -0.93627542328E+02  0.77940072503E+03  0.79737960215E+03  0.12508645244E+03 0.  0.
          5    1    3    3  502    0  0.45446001445E+02  0.16273429136E+02  0.13498363556E+03  0.14341623971E+03  0.41800000000E+01 0.  1.
         -5    1    3    3    0  502  0.17291566905E+02 -0.10990097146E+03  0.64441708947E+03  0.65396336245E+03  0.41800000000E+01 0.  1.
        -11    1    1    2    0    0  0.21416344534E+02  0.35925858125E+02  0.12852249393E+03  0.13515679243E+03  0.00000000000E+00 0. -1.
         11    1    1    2    0    0 -0.84153912884E+02  0.57701684204E+02  0.25840512766E+03  0.27782112125E+03  0.00000000000E+00 0.  1.
</event>
<event>
 7    1  0.2989693E-009  0.1195598E+03  0.7561462E-02  0.1243825E+00
          2   -1    0    0  501    0  0.00000000000E+00  0.00000000000E+00  0.29807174125E+03  0.29807174125E+03  0.00000000000E+00 0. -1.
         -2   -1    0    0    0  501 -0.00000000000E+00 -0.00000000000E+00 -0.78168237740E+02  0.78168237740E+02  0.00000000000E+00 0.  1.
         25    2    1    2    0    0 -0.53968001260E+02  0.90708107187E+02  0.10368987288E+03  0.19375211063E+03  0.12509110586E+03 0.  0.
          5    1    3    3  502    0 -0.67993020525E+02  0.54340388206E+02  0.12245125315E+03  0.15029208372E+03  0.41800000000E+01 0. -1.
         -5    1    3    3    0  502  0.14025019265E+02  0.36367718981E+02 -0.18761380269E+02  0.43460026908E+02  0.41800000000E+01 0. -1.
        -11    1    1    2    0    0  0.59250896877E+02 -0.71517565425E+02  0.35615065711E+02  0.99467903621E+02  0.00000000000E+00 0.  1.
         11    1    1    2    0    0 -0.52828956177E+01 -0.19190541763E+02  0.80598564920E+02  0.83019964746E+02  0.00000000000E+00 0. -1.
</event>
<event>
 7    1  0.2989693E-009  0.6738854E+02  0.7561462E-02  0.1369206E+00
          1   -1    0    0  501    0  0.00000000000E+00  0.00000000000E+00  0.99279582054E+02  0.99279582054E+02  0.00000000000E+00 0. -1.
         -1   -1    0    0    0  501 -0.00000000000E+00 -0.00000000000E+00 -0.14969976415E+03  0.14969976415E+03  0.00000000000E+00 0.  1.
         25    2    1    2    0    0  0.40499741261E+02 -0.35395683396E+02 -0.32329999732E+02  0.13994912012E+03  0.12508974336E+03 0.  0.
          5    1    3    3  502    0  0.44296042169E+02 -0.48189236691E+02  0.32801575201E+02  0.73333195896E+02  0.41800000000E+01 0.  1.
         -5    1    3    3    0  502 -0.37963009083E+01  0.12793553294E+02 -0.65131574933E+02  0.66615924220E+02  0.41800000000E+01 0.  1.
        -11    1    1    2    0    0 -0.68012270603E+01  0.13211955164E+02  0.37503357869E+02  0.40339983890E+02  0.00000000000E+00 0. -1.
         11    1    1    2    0    0 -0.33698514200E+02  0.22183728232E+02 -0.55593540238E+02  0.68690242202E+02  0.00000000000E+00 0.  1.
</event>
<event>
 7    1  0.3344008E-009  0.8519138E+02  0.7561462E-02  0.1314933E+00
         -3   -1    0    0    0  501 -0.00000000000E+00  0.00000000000E+00  0.97711003835E+02  0.97711003835E+02  0.00000000000E+00 0.  1.
          3   -1    0    0  501    0  0.00000000000E+00 -0.00000000000E+00 -0.18713696857E+03  0.18713696857E+03  0.00000000000E+00 0. -1.
         25    2    1    2    0    0 -0.62325494706E+01 -0.78965203915E+02 -0.36555280425E+02  0.15250597466E+03  0.12508971052E+03 0.  0.
          5    1    3    3  502    0  0.14124952656E+02 -0.19768224880E+02 -0.74984364690E+02  0.78933037129E+02  0.41800000000E+01 0. -1.
         -5    1    3    3    0  502 -0.20357502127E+02 -0.59196979035E+02  0.38429084265E+02  0.73572937533E+02  0.41800000000E+01 0. -1.
        -11    1    1    2    0    0  0.12345823710E+02  0.18647061669E+02 -0.66536037514E+02  0.70193849874E+02  0.00000000000E+00 0. -1.
         11    1    1    2    0    0 -0.61132742396E+01  0.60318142246E+02  0.13665353201E+02  0.62148147873E+02  0.00000000000E+00 0.  1.
</event>
<event>
 7    1  0.2989693E-009  0.1322443E+03  0.7561462E-02  0.1224163E+00
          1   -1    0    0  501    0  0.00000000000E+00  0.00000000000E+00  0.12016063448E+03  0.12016063448E+03  0.00000000000E+00 0. -1.
         -1   -1    0    0    0  501 -0.00000000000E+00 -0.00000000000E+00 -0.17575208828E+03  0.17575208828E+03  0.00000000000E+00 0.  1.
         25    2    1    2    0    0 -0.55000184979E+02 -0.72621281244E+02  0.40315613559E+01  0.15479797756E+03  0.12508912635E+03 0.  0.
          5    1    3    3  502    0 -0.85633835576E+02 -0.50248254922E+02 -0.29852819140E+02  0.10376272996E+03  0.41800000000E+01 0. -1.
         -5    1    3    3    0  502  0.30633650597E+02 -0.22373026322E+02  0.33884380496E+02  0.51035247598E+02  0.41800000000E+01 0. -1.
        -11    1    1    2    0    0  0.11936016703E+01 -0.19891570800E+02 -0.15949803079E+02  0.25524409731E+02  0.00000000000E+00 0.  1.
         11    1    1    2    0    0  0.53806583309E+02  0.92512852044E+02 -0.43673212074E+02  0.11559033547E+03  0.00000000000E+00 0. -1.
</event>
<event>
 6    1  0.2989693E-009  0.2035785E+03  0.7561462E-02  0.1146754E+00
          1   -1    0    0  501    0  0.00000000000E+00  0.00000000000E+00  0.97179433035E+02  0.97179433035E+02  0.00000000000E+00 0. -1.
         -1   -1    0    0    0  501 -0.00000000000E+00 -0.00000000000E+00 -0.52182339221E+03  0.52182339221E+03  0.00000000000E+00 0.  1.
          5    1    1    2  502    0 -0.15597017042E+03  0.10122744284E+03 -0.12288823857E+03  0.22291855199E+03  0.41800000000E+01 0.  1.
         -5    1    1    2    0  502 -0.30243934105E+01  0.14427304978E+02 -0.94753045122E+02  0.95983884295E+02  0.41800000000E+01 0.  1.
        -11    1    1    2    0    0 -0.32860631101E+01 -0.13947429799E+02 -0.51334495530E+02  0.53296898972E+02  0.00000000000E+00 0.  1.
         11    1    1    2    0    0  0.16228062694E+03 -0.10170731802E+03 -0.15566817996E+03  0.24680348999E+03  0.00000000000E+00 0. -1.
</event>
<event>
 7    1  0.2989693E-009  0.7937201E+02  0.7561462E-02  0.1330843E+00
         -2   -1    0    0    0  501 -0.00000000000E+00  0.00000000000E+00  0.15623594946E+03  0.15623594946E+03  0.00000000000E+00 0.  1.
          2   -1    0    0  501    0  0.00000000000E+00 -0.00000000000E+00 -0.10131274962E+03  0.10131274962E+03  0.00000000000E+00 0. -1.
         25    2    1    2    0    0  0.58862400003E+02  0.14044729167E+02  0.70272539626E+01  0.13913511761E+03  0.12508861700E+03 0.  0.
          5    1    3    3  502    0  0.72488052045E+02  0.38101716564E+01 -0.44129776785E+02  0.85052599587E+02  0.41800000000E+01 0.  1.
         -5    1    3    3    0  502 -0.13625652042E+02  0.10234557510E+02  0.51157030748E+02  0.54082518025E+02  0.41800000000E+01 0.  1.
        -11    1    1    2    0    0 -0.58348259565E+01  0.89553501267E+01 -0.23936002638E+02  0.26214036548E+02  0.00000000000E+00 0. -1.
         11    1    1    2    0    0 -0.53027574047E+02 -0.23000079293E+02  0.71831948518E+02  0.92199544927E+02  0.00000000000E+00 0.  1.
</event>
<event>
 7    1  0.3695677E-009  0.1296403E+03  0.7561462E-02  0.1227990E+00
          3   -1    0    0  501    0  0.00000000000E+00  0.00000000000E+00  0.61824324946E+02  0.61824324946E+02  0.00000000000E+00 0. -1.
         -3   -1    0    0    0  501 -0.00000000000E+00 -0.00000000000E+00 -0.41798011829E+03  0.41798011829E+03  0.00000000000E+00 0.  1.
         25    2    1    2    0    0  0.59207545158E+02  0.79800886553E+02 -0.95071018323E+02  0.18590737493E+03  0.12509731664E+03 0.  0.
          5    1    3    3  502    0 -0.37710788101E+02  0.39326685732E+02 -0.32348692840E+02  0.63502772210E+02  0.41800000000E+01 0.  1.
         -5    1    3    3    0  502  0.96918333260E+02  0.40474200821E+02 -0.62722325483E+02  0.12240460272E+03  0.41800000000E+01 0.  1.
        -11    1    1    2    0    0 -0.31670165645E+02 -0.47295146182E+02 -0.23943883086E+03  0.24611132433E+03  0.00000000000E+00 0. -1.
         11    1    1    2    0    0 -0.27537379513E+02 -0.32505740372E+02 -0.21645944163E+02  0.47785743965E+02  0.00000000000E+00 0.  1.
</event>
<event>
 7    1  0.2989693E-009  0.1112488E+03  0.7561462E-02  0.1258275E+00
          1   -1    0    0  501    0  0.00000000000E+00  0.00000000000E+00  0.84210391430E+02  0.84210391430E+02  0.00000000000E+00 0. -1.
         -1   -1    0    0    0  501 -0.00000000000E+00 -0.00000000000E+00 -0.19385393778E+03  0.19385393778E+03  0.00000000000E+00 0.  1.
         25    2    1    2    0    0  0.61659392704E+02 -0.11761615176E+02 -0.81145860496E+02  0.16177746430E+03  0.12508829274E+03 0.  0.
          5    1    3    3  502    0  0.91411267636E+02 -0.15602373870E+02 -0.90934739031E+02  0.12994634694E+03  0.41800000000E+01 0.  1.
         -5    1    3    3    0  502 -0.29751874932E+02  0.38407586940E+01  0.97888785349E+01  0.31831117358E+02  0.41800000000E+01 0.  1.
        -11    1    1    2    0    0 -0.79815004173E+02  0.48746697588E+01  0.21647796177E+01  0.79993021991E+02  0.00000000000E+00 0. -1.
         11    1    1    2    0    0  0.18155611469E+02  0.68869454169E+01 -0.30662465471E+02  0.36293842918E+02  0.00000000000E+00 0.  1.
</event>
<event>
 7    1  0.2989693E-009  0.1214704E+03  0.7561462E-02  0.1240691E+00
         -1   -1    0    0    0  501 -0.00000000000E+00  0.00000000000E+00  0.11855910950E+03  0.11855910950E+03  0.00000000000E+00 0.  1.
          1   -1    0    0  501    0  0.00000000000E+00 -0.00000000000E+00 -0.14408537332E+03  0.14408537332E+03  0.00000000000E+00 0. -1.
         25    2    1    2    0    0  0.51760675290E+02 -0.37897590154E+02 -0.48917998348E+02  0.14884322382E+03  0.12508373144E+03 0.  0.
          5    1    3    3  502    0  0.94227195169E+01  0.42778740009E+02 -0.35741332530E+02  0.56689712390E+02  0.41800000000E+01 0.  1.
         -5    1    3    3    0  502  0.42337955773E+02 -0.80676330163E+02 -0.13176665818E+02  0.92153511435E+02  0.41800000000E+01 0.  1.
        -11    1    1    2    0    0  0.10829895633E+02  0.43558735387E+02 -0.43688617890E+01  0.45096973527E+02  0.00000000000E+00 0. -1.
         11    1    1    2    0    0 -0.62590570924E+02 -0.56611452332E+01  0.27760596310E+02  0.68704285466E+02  0.00000000000E+00 0.  1.
</event>
<event>
 7    1  0.2989693E-009  0.1228250E+03  0.7561462E-02  0.1238508E+00
          3   -1    0    0  501    0  0.00000000000E+00  0.00000000000E+00  0.36643911235E+02  0.36643911235E+02  0.00000000000E+00 0. -1.
         -3   -1    0    0    0  501 -0.00000000000E+00 -0.00000000000E+00 -0.73972962970E+03  0.73972962970E+03  0.00000000000E+00 0.  1.
         25    2    1    2    0    0  0.98656261704E+02 -0.33262852437E+02 -0.52601055100E+03  0.55061253574E+03  0.12509032504E+03 0.  0.
          5    1    3    3  502    0  0.61954354020E+02  0.87166600076E+01 -0.45932526128E+03  0.46358547237E+03  0.41800000000E+01 0. -1.
         -5    1    3    3    0  502  0.36701907684E+02 -0.41979512445E+02 -0.66685289723E+02  0.87027063367E+02  0.41800000000E+01 0. -1.
        -11    1    1    2    0    0  0.10213612081E+02 -0.53297631921E+01  0.29257874971E+01  0.11886314816E+02  0.00000000000E+00 0. -1.
         11    1    1    2    0    0 -0.10886987379E+03  0.38592615630E+02 -0.18000095496E+03  0.21387469038E+03  0.00000000000E+00 0.  1.
</event>
<event>
 7    1  0.2989693E-009  0.6473891E+02  0.7561462E-02  0.1378956E+00
          2   -1    0    0  501    0  0.00000000000E+00  0.00000000000E+00  0.47407279930E+03  0.47407279930E+03  0.00000000000E+00 0.  1.
         -2   -1    0    0    0  501 -0.00000000000E+00 -0.00000000000E+00 -0.31994915802E+02  0.31994915802E+02  0.00000000000E+00 0. -1.
         25    2    1    2    0    0 -0.16130252469E+02 -0.36879478231E+02  0.33593841600E+03  0.36072485007E+03  0.12509003618E+03 0.  0.
          5    1    3    3  502    0 -0.17391278797E+02 -0.10131557545E+02 -0.29387321588E+01  0.20765682824E+02  0.41800000000E+01 0. -1.
         -5    1    3    3    0  502  0.12610263271E+01 -0.26747920686E+02  0.33887714816E+03  0.33995916724E+03  0.41800000000E+01 0. -1.
        -11    1    1    2    0    0  0.37899742929E+02 -0.12416831790E+01  0.91534093068E+02  0.99077860720E+02  0.00000000000E+00 0.  1.
         11    1    1    2    0    0 -0.21769490459E+02  0.38121161410E+02  0.14605374434E+02  0.46265004317E+02  0.00000000000E+00 0. -1.
</event>
<event>
 7    1  0.2989693E-009  0.1008995E+03  0.7561462E-02  0.1278416E+00
          1   -1    0    0  501    0  0.00000000000E+00  0.00000000000E+00  0.40202720722E+03  0.40202720722E+03  0.00000000000E+00 0. -1.
         -1   -1    0    0    0  501 -0.00000000000E+00 -0.00000000000E+00 -0.30918756584E+02  0.30918756584E+02  0.00000000000E+00 0.  1.
         25    2    1    2    0    0  0.12768575008E+02  0.13048178043E+02  0.17746515628E+03  0.21788764211E+03  0.12509137233E+03 0.  0.
          5    1    3    3  502    0  0.42228344087E+02 -0.42334763636E+02  0.11256204153E+03  0.12752705929E+03  0.41800000000E+01 0.  1.
         -5    1    3    3    0  502 -0.29459769080E+02  0.55382941678E+02  0.64903114749E+02  0.90360582819E+02  0.41800000000E+01 0.  1.
        -11    1    1    2    0    0 -0.36111761933E+02 -0.32514904563E+02  0.56202421541E+02  0.74296638926E+02  0.00000000000E+00 0.  1.
         11    1    1    2    0    0  0.23343186925E+02  0.19466726520E+02  0.13744087282E+03  0.14076168278E+03  0.00000000000E+00 0. -1.
</event>
<event>
 7    1  0.2989693E-009  0.1315037E+03  0.7561462E-02  0.1225241E+00
         -2   -1    0    0    0  501 -0.00000000000E+00  0.00000000000E+00  0.42685065311E+02  0.42685065311E+02  0.00000000000E+00 0.  1.
          2   -1    0    0  501    0  0.00000000000E+00 -0.00000000000E+00 -0.52064693457E+03  0.52064693457E+03  0.00000000000E+00 0. -1.
         25    2    1    2    0    0 -0.30049564286E+02  0.78990913884E+02 -0.14815874040E+03  0.21151873942E+03  0.12508646601E+03 0.  0.
          5    1    3    3  502    0  0.45130028581E+02  0.55572249729E+01 -0.40985931285E+02  0.61358953645E+02  0.41800000000E+01 0.  1.
         -5    1    3    3    0  502 -0.75179592868E+02  0.73433688911E+02 -0.10717280911E+03  0.15015978577E+03  0.41800000000E+01 0.  1.
        -11    1    1    2    0    0 -0.18150392000E+02 -0.55804519488E+02 -0.10071213608E+03  0.11656120915E+03  0.00000000000E+00 0.  1.
         11    1    1    2    0    0  0.48199956286E+02 -0.23186394397E+02 -0.22909099279E+03  0.23525205131E+03  0.00000000000E+00 0. -1.
</event>
<event>
 7    1  0.2989693E-009  0.1206227E+03  0.7561462E-02  0.1242073E+00
          2   -1    0    0  501    0  0.00000000000E+00  0.00000000000E+00  0.43950015725E+03  0.43950015725E+03  0.00000000000E+00 0. -1.
         -2   -1    0    0    0  501 -0.00000000000E+00 -0.00000000000E+00 -0.41859081516E+02  0.41859081516E+02  0.00000000000E+00 0.  1.
         25    2    1    2    0    0  0.69238279105E+02  0.18053769749E+02  0.29160687352E+03  0.32527234803E+03  0.12509058243E+03 0.  0.
          5    1    3    3  502    0 -0.32554162444E+02 -0.15640401065E+02  0.85377950857E+02  0.92796888582E+02  0.41800000000E+01 0. -1.
         -5    1    3    3    0  502  0.10179244155E+03  0.33694170814E+02  0.20622892266E+03  0.23247545945E+03  0.41800000000E+01 0. -1.
        -11    1    1    2    0    0 -0.27382508547E+02 -0.41414742768E+02  0.12830626212E+02  0.51279700290E+02  0.00000000000E+00 0.  1.
         11    1    1    2    0    0 -0.41855770558E+02  0.23360973018E+02  0.93203575999E+02  0.10480719044E+03  0.00000000000E+00 0. -1.
</event>
<event>
 7    1  0.2989693E-009  0.1043560E+03  0.7561462E-02  0.1271394E+00
          1   -1    0    0  501    0  0.00000000000E+00  0.00000000000E+00  0.67408925472E+03  0.67408925472E+03  0.00000000000E+00 0. -1.
         -1   -1    0    0    0  501 -0.00000000000E+00 -0.00000000000E+00 -0.18159897183E+02  0.18159897183E+02  0.00000000000E+00 0.  1.
         25    2    1    2    0    0 -0.89940541244E+01 -0.29761847675E+02  0.43322838827E+03  0.45199681453E+03  0.12509046067E+03 0.  0.
          5    1    3    3  502    0 -0.35523315522E+02 -0.66017575085E+02  0.18422354059E+03  0.19893720485E+03  0.41800000000E+01 0. -1.
         -5    1    3    3    0  502  0.26529261398E+02  0.36255727410E+02  0.24900484769E+03  0.25305960968E+03  0.41800000000E+01 0. -1.
        -11    1    1    2    0    0  0.21982937330E+02 -0.24381512461E+02  0.61613750370E+02  0.69813765965E+02  0.00000000000E+00 0.  1.
         11    1    1    2    0    0 -0.12988883206E+02  0.54143360136E+02  0.16108721889E+03  0.17043857141E+03  0.00000000000E+00 0. -1.
</event>
<event>
 7    1  0.2989693E-009  0.1032159E+03  0.7561462E-02  0.1273675E+00
          1   -1    0    0  501    0  0.00000000000E+00  0.00000000000E+00  0.74906411895E+03  0.74906411895E+03  0.00000000000E+00 0. -1.
         -1   -1    0    0    0  501 -0.00000000000E+00 -0.00000000000E+00 -0.39479112439E+02  0.39479112439E+02  0.00000000000E+00 0.  1.
         25    2    1    2    0    0 -0.20985328337E+02 -0.29547194781E+02  0.67207954665E+03  0.68458242045E+03  0.12509497449E+03 0.  0.
          5    1    3    3  502    0 -0.58455411939E+01  0.46032578158E+02  0.36442678953E+03  0.36739287681E+03  0.41800000000E+01 0. -1.
         -5    1    3    3    0  502 -0.15139787143E+02 -0.75579772939E+02  0.30765275712E+03  0.31718954364E+03  0.41800000000E+01 0. -1.
        -11    1    1    2    0    0 -0.10629878470E+02 -0.20706641902E+02  0.38029531517E+02  0.44587045233E+02  0.00000000000E+00 0. -1.
         11    1    1    2    0    0  0.31615206807E+02  0.50253836683E+02 -0.52407165702E+00  0.59373765704E+02  0.00000000000E+00 0.  1.
</event>
<event>
 7    1  0.2989693E-009  0.1355002E+03  0.7561462E-02  0.1219515E+00
          1   -1    0    0  501    0  0.00000000000E+00  0.00000000000E+00  0.40107250764E+03  0.40107250764E+03  0.00000000000E+00 0. -1.
         -1   -1    0    0    0  501 -0.00000000000E+00 -0.00000000000E+00 -0.62619544323E+02  0.62619544323E+02  0.00000000000E+00 0.  1.
         25    2    1    2    0    0 -0.59591446414E+02  0.77402159985E+02  0.93320041400E+02  0.18411822472E+03  0.12509458698E+03 0.  0.
          5    1    3    3  502    0  0.33202810864E+02  0.52394354065E+02  0.42654864039E+02  0.75395655136E+02  0.41800000000E+01 0. -1.
         -5    1    3    3    0  502 -0.92794257278E+02  0.25007805920E+02  0.50665177361E+02  0.10872256959E+03  0.41800000000E+01 0. -1.
        -11    1    1    2    0    0  0.41931520516E+01 -0.51166747767E+02  0.19105464839E+03  0.19783199254E+03  0.00000000000E+00 0. -1.
         11    1    1    2    0    0  0.55398294362E+02 -0.26235412217E+02  0.54078273526E+02  0.81741834700E+02  0.00000000000E+00 0.  1.
</event>
<event>
 7    1  0.2989693E-009  0.1655382E+03  0.7561462E-02  0.1182582E+00
         -1   -1    0    0    0  501 -0.00000000000E+00  0.00000000000E+00  0.75597181752E+02  0.75597181752E+02  0.00000000000E+00 0.  1.
          1   -1    0    0  501    0  0.00000000000E+00 -0.00000000000E+00 -0.51538063685E+03  0.51538063685E+03  0.00000000000E+00 0. -1.
         25    2    1    2    0    0  0.11075359494E+03  0.87794561928E+02 -0.34732749161E+03  0.39529234555E+03  0.12508160584E+03 0.  0.
          5    1    3    3  502    0 -0.16708032755E+02  0.43153899044E+02 -0.47605845894E+02  0.66522224291E+02  0.41800000000E+01 0. -1.
         -5    1    3    3    0  502  0.12746162769E+03  0.44640662884E+02 -0.29972164572E+03  0.32877012125E+03  0.41800000000E+01 0. -1.
        -11    1    1    2    0    0 -0.58003987626E+02 -0.75716344860E+02 -0.84440719434E+01  0.95753484587E+02  0.00000000000E+00 0.  1.
         11    1    1    2    0    0 -0.52749607313E+02 -0.12078217068E+02 -0.84011891546E+02  0.99931988474E+02  0.00000000000E+00 0. -1.
</event>
<event>
 7    1  0.2989693E-009  0.9209540E+02  0.7561462E-02  0.1297855E+00
          2   -1    0    0  501    0  0.00000000000E+00  0.00000000000E+00  0.69283404426E+02  0.69283404426E+02  0.00000000000E+00 0. -1.
         -2   -1    0    0    0  501 -0.00000000000E+00 -0.00000000000E+00 -0.28975383918E+03  0.28975383918E+03  0.00000000000E+00 0.  1.
         25    2    1    2    0    0  0.21250549324E+02 -0.86921534042E+02 -0.97026142838E+02  0.18182827925E+03  0.12506203187E+03 0.  0.
          5    1    3    3  502    0  0.13232376176E+02 -0.26863920108E+02  0.29022195489E+02  0.41910931913E+02  0.41800000000E+01 0.  1.
         -5    1    3    3    0  502  0.80181731484E+01 -0.60057613934E+02 -0.12604833833E+03  0.13991734734E+03  0.41800000000E+01 0.  1.
        -11    1    1    2    0    0 -0.20109496766E+01  0.60511858177E+02 -0.12856694440E+02  0.61895262263E+02  0.00000000000E+00 0. -1.
         11    1    1    2    0    0 -0.19239599648E+02  0.26409675865E+02 -0.11058759748E+03  0.11531370209E+03  0.00000000000E+00 0.  1.
</event>
<event>
 7    1  0.2989693E-009  0.1096487E+03  0.7561462E-02  0.1261222E+00
         -1   -1    0    0    0  501 -0.00000000000E+00  0.00000000000E+00  0.13129665144E+02  0.13129665144E+02  0.00000000000E+00 0.  1.
          1   -1    0    0  501    0  0.00000000000E+00 -0.00000000000E+00 -0.12512689806E+04  0.12512689806E+04  0.00000000000E+00 0. -1.
         25    2    1    2    0    0 -0.33013506522E+02 -0.30610649776E+02 -0.94690696274E+03  0.95619415143E+03  0.12509019009E+03 0.  0.
          5    1    3    3  502    0 -0.57772360990E+02 -0.58200173887E+02 -0.81461737792E+03  0.81874529052E+03  0.41800000000E+01 0. -1.
         -5    1    3    3    0  502  0.24758854468E+02  0.27589524110E+02 -0.13228958482E+03  0.13744886091E+03  0.41800000000E+01 0. -1.
        -11    1    1    2    0    0  0.24689006809E+02  0.62353984786E+02 -0.21477564614E+03  0.22500254366E+03  0.00000000000E+00 0.  1.
         11    1    1    2    0    0  0.83244997124E+01 -0.31743335009E+02 -0.76456706600E+02  0.83201950681E+02  0.00000000000E+00 0. -1.
</event>
<event>
 7    1  0.2989693E-009  0.1038022E+03  0.7561462E-02  0.1272498E+00
         -2   -1    0    0    0  501 -0.00000000000E+00  0.00000000000E+00  0.47358279618E+02  0.47358279618E+02  0.00000000000E+00 0. -1.
          2   -1    0    0  501    0  0.00000000000E+00 -0.00000000000E+00 -0.36549607902E+03  0.36549607902E+03  0.00000000000E+00 0.  1.
         25    2    1    2    0    0 -0.54128272751E+02 -0.49915780585E+02 -0.16120361007E+03  0.21692288905E+03  0.12508989100E+03 0.  0.
          5    1    3    3  502    0 -0.27585182496E+02  0.14877517780E+02 -0.14017172847E+03  0.14369366266E+03  0.41800000000E+01 0. -1.
         -5    1    3    3    0  502 -0.26543090256E+02 -0.64793298365E+02 -0.21031881608E+02  0.73229226388E+02  0.41800000000E+01 0. -1.
        -11    1    1    2    0    0  0.40660705580E+02 -0.12066205072E+02 -0.24226245528E+02  0.48844623609E+02  0.00000000000E+00 0. -1.
         11    1    1    2    0    0  0.13467567171E+02  0.61981985658E+02 -0.13270794380E+03  0.14708684597E+03  0.00000000000E+00 0.  1.
</event>
<event>
 7    1  0.2989693E-009  0.1220722E+03  0.7561462E-02  0.1239717E+00
         -2   -1    0    0    0  501 -0.00000000000E+00  0.00000000000E+00  0.91915449173E+02  0.91915449173E+02  0.00000000000E+00 0.  1.
          2   -1    0    0  501    0  0.00000000000E+00 -0.00000000000E+00 -0.29349318736E+03  0.29349318736E+03  0.00000000000E+00 0. -1.
         25    2    1    2    0    0 -0.96909221896E+02  0.80712670607E+01 -0.19380989396E+03  0.25033303804E+03  0.12509121590E+03 0.  0.
          5    1    3    3  502    0 -0.77502938404E+02 -0.45359951573E+02 -0.16144180904E+03  0.18478409232E+03  0.41800000000E+01 0.  1.
         -5    1    3    3    0  502 -0.19406283492E+02  0.53431218634E+02 -0.32368084923E+02  0.65548945721E+02  0.41800000000E+01 0.  1.
        -11    1    1    2    0    0  0.27118200962E+02 -0.25133510372E+01 -0.47368760506E+02  0.54639850189E+02  0.00000000000E+00 0. -1.
         11    1    1    2    0    0  0.69791020934E+02 -0.55579160235E+01  0.39600916287E+02  0.80435748299E+02  0.00000000000E+00 0.  1.
</event>
<event>
 7    1  0.2989693E-009  0.2840516E+03  0.7561462E-02  0.1093496E+00
          1   -1    0    0  501    0  0.00000000000E+00  0.00000000000E+00  0.39237347911E+03  0.39237347911E+03  0.00000000000E+00 0. -1.
         -1   -1    0    0    0  501 -0.00000000000E+00 -0.00000000000E+00 -0.24150642831E+03  0.24150642831E+03  0.00000000000E+00 0.  1.
         25    2    1    2    0    0  0.13322165637E+03  0.24670227734E+03  0.14470718014E+03  0.33941033398E+03  0.12509669645E+03 0.  0.
          5    1    3    3  502    0  0.57983878515E+00  0.42386754697E+02 -0.18211024137E+02  0.46325878156E+02  0.41800000000E+01 0. -1.
         -5    1    3    3    0  502  0.13264181759E+03  0.20431552264E+03  0.16291820428E+03  0.29308445583E+03  0.41800000000E+01 0. -1.
        -11    1    1    2    0    0 -0.10963150804E+03 -0.17610775240E+03  0.42323695972E+02  0.21171750814E+03  0.00000000000E+00 0.  1.
         11    1    1    2    0    0 -0.23590148327E+02 -0.70594524936E+02 -0.36163825311E+02  0.82752065292E+02  0.00000000000E+00 0. -1.
</event>
<event>
 7    1  0.2989693E-009  0.2020761E+03  0.7561462E-02  0.1147999E+00
          2   -1    0    0  501    0  0.00000000000E+00  0.00000000000E+00  0.37039361570E+03  0.37039361570E+03  0.00000000000E+00 0. -1.
         -2   -1    0    0    0  501 -0.00000000000E+00 -0.00000000000E+00 -0.12490005882E+03  0.12490005882E+03  0.00000000000E+00 0.  1.
         25    2    1    2    0    0 -0.14721042469E+03  0.92834462916E+02  0.20037013925E+03  0.29341370556E+03  0.12511699830E+03 0.  0.
          5    1    3    3  502    0 -0.10275220938E+03  0.12253353377E+03  0.13909160868E+03  0.21198214886E+03  0.41800000000E+01 0. -1.
         -5    1    3    3    0  502 -0.44458215303E+02 -0.29699070849E+02  0.61278530575E+02  0.81431556701E+02  0.41800000000E+01 0. -1.
        -11    1    1    2    0    0  0.15183157909E+03 -0.69881498835E+02  0.55714044096E+02  0.17618259561E+03  0.00000000000E+00 0.  1.
         11    1    1    2    0    0 -0.46211544014E+01 -0.22952964081E+02 -0.10590626461E+02  0.25697373347E+02  0.00000000000E+00 0. -1.
</event>
<event>
 7    1  0.2989693E-009  0.1059880E+03  0.7561462E-02  0.1268185E+00
          3   -1    0    0  501    0  0.00000000000E+00  0.00000000000E+00  0.32831662777E+02  0.32831662777E+02  0.00000000000E+00 0.  1.
         -3   -1    0    0    0  501 -0.00000000000E+00 -0.00000000000E+00 -0.37981193620E+03  0.37981193620E+03  0.00000000000E+00 0. -1.
         25    2    1    2    0    0 -0.47042200406E+01  0.23766702487E+02 -0.20312370413E+03  0.23977923598E+03  0.12509139458E+03 0.  0.
          5    1    3    3  502    0 -0.24938051680E+01  0.73427343497E+02 -0.14894622426E+03  0.16613321148E+03  0.41800000000E+01 0.  1.
         -5    1    3    3    0  502 -0.22104148726E+01 -0.49660641011E+02 -0.54177479867E+02  0.73646024497E+02  0.41800000000E+01 0.  1.
        -11    1    1    2    0    0  0.30153591002E+02 -0.45803393851E+02 -0.11896927900E+03  0.13099953925E+03  0.00000000000E+00 0. -1.
         11    1    1    2    0    0 -0.25449370961E+02  0.22036691364E+02 -0.24887290298E+02  0.41864823742E+02  0.00000000000E+00 0.  1.
</event>
<event>
 7    1  0.2989693E-009  0.1420637E+03  0.7561462E-02  0.1210579E+00
          2   -1    0    0  501    0  0.00000000000E+00  0.00000000000E+00  0.74039339591E+03  0.74039339591E+03  0.00000000000E+00 0. -1.
         -2   -1    0    0    0  501 -0.00000000000E+00 -0.00000000000E+00 -0.58409189804E+02  0.58409189804E+02  0.00000000000E+00 0.  1.
         25    2    1    2    0    0  0.23791782892E+02 -0.90382876466E+02  0.67010007823E+02  0.16992081140E+03  0.12509047809E+03 0.  0.
          5    1    3    3  502    0  0.73348082658E+02 -0.63509828454E+02  0.56719526945E+02  0.11246340150E+03  0.41800000000E+01 0.  1.
         -5    1    3    3    0  502 -0.49556299766E+02 -0.26873048012E+02  0.10290480877E+02  0.57457409902E+02  0.41800000000E+01 0.  1.
        -11    1    1    2    0    0  0.34856394552E+02  0.41016298412E+02  0.29338897214E+03  0.29828575888E+03  0.00000000000E+00 0.  1.
         11    1    1    2    0    0 -0.58648177444E+02  0.49366578054E+02  0.32158522615E+03  0.33059601544E+03  0.00000000000E+00 0. -1.
</event>
<event>
 7    1  0.2989693E-009  0.1131446E+03  0.7561462E-02  0.1254855E+00
          2   -1    0    0  501    0  0.00000000000E+00  0.00000000000E+00  0.88349594650E+03  0.88349594650E+03  0.00000000000E+00 0.  1.
         -2   -1    0    0    0  501 -0.00000000000E+00 -0.00000000000E+00 -0.26608011888E+02  0.26608011888E+02  0.00000000000E+00 0. -1.
         25    2    1    2    0    0 -0.23806498013E+02  0.59666506262E+02  0.71675370722E+03  0.73041781285E+03  0.12508982049E+03 0.  0.
          5    1    3    3  502    0  0.43029058666E+02  0.28736501349E+00  0.13319334459E+03  0.14003400269E+03  0.41800000000E+01 0.  1.
         -5    1    3    3    0  502 -0.66835556679E+02  0.59379141249E+02  0.58356036264E+03  0.59038381015E+03  0.41800000000E+01 0.  1.
        -11    1    1    2    0    0  0.44655787544E+02 -0.20393775685E+02  0.12228876598E+03  0.13177476136E+03  0.00000000000E+00 0.  1.
         11    1    1    2    0    0 -0.20849289531E+02 -0.39272730577E+02  0.17845461412E+02  0.47911384179E+02  0.00000000000E+00 0. -1.
</event>
<event>
 7    1  0.2989693E-009  0.1514664E+03  0.7561462E-02  0.1198683E+00
         -3   -1    0    0    0  501 -0.00000000000E+00  0.00000000000E+00  0.49463690725E+03  0.49463690725E+03  0.00000000000E+00 0.  1.
          3   -1    0    0  501    0  0.00000000000E+00 -0.00000000000E+00 -0.73802613277E+02  0.73802613277E+02  0.00000000000E+00 0. -1.
         25    2    1    2    0    0  0.14565307195E+03  0.14720928098E+02  0.33851585972E+03  0.38945146639E+03  0.12509170357E+03 0.  0.
          5    1    3    3  502    0  0.19948950335E+02  0.11248318359E+02  0.20376599547E+03  0.20509153711E+03  0.41800000000E+01 0. -1.
         -5    1    3    3    0  502  0.12570412162E+03  0.34726097397E+01  0.13474986425E+03  0.18435992928E+03  0.41800000000E+01 0. -1.
        -11    1    1    2    0    0 -0.68879538017E+02  0.16702791246E+02  0.60563803872E+02  0.93227401188E+02  0.00000000000E+00 0.  1.
         11    1    1    2    0    0 -0.76773533936E+02 -0.31423719345E+02  0.21754630385E+02  0.85760652946E+02  0.00000000000E+00 0. -1.
</event>
<event>
 7    1  0.2989693E-009  0.1205626E+03  0.7561462E-02  0.1242172E+00
          1   -1    0    0  501    0  0.00000000000E+00  0.00000000000E+00  0.10285897488E+04  0.10285897488E+04  0.00000000000E+00 0. -1.
         -1   -1    0    0    0  501 -0.00000000000E+00 -0.00000000000E+00 -0.20715421183E+02  0.20715421183E+02  0.00000000000E+00 0.  1.
         25    2    1    2    0    0 -0.16233379286E+02  0.72802448669E+02  0.75518518217E+03  0.76910021801E+03  0.12508703710E+03 0.  0.
          5    1    3    3  502    0 -0.57230330411E+02  0.73689345140E+02  0.63964765636E+03  0.64643021819E+03  0.41800000000E+01 0.  1.
         -5    1    3    3    0  502  0.40996951124E+02 -0.88689647095E+00  0.11553752580E+03  0.12266999982E+03  0.41800000000E+01 0.  1.
        -11    1    1    2    0    0  0.34465627469E+02 -0.32629063681E+01  0.15555714326E+03  0.15936295321E+03  0.00000000000E+00 0.  1.
         11    1    1    2    0    0 -0.18232248183E+02 -0.69539542300E+02  0.97132002219E+02  0.12084199879E+03  0.00000000000E+00 0. -1.
</event>
<event>
 7    1  0.2989693E-009  0.1378637E+03  0.7561462E-02  0.1216233E+00
          2   -1    0    0  501    0  0.00000000000E+00  0.00000000000E+00  0.51432315294E+03  0.51432315294E+03  0.00000000000E+00 0. -1.
         -2   -1    0    0    0  501 -0.00000000000E+00 -0.00000000000E+00 -0.48132889252E+02  0.48132889252E+02  0.00000000000E+00 0.  1.
         25    2    1    2    0    0 -0.11307246584E+02 -0.10550081074E+03  0.32599278271E+03  0.36493416870E+03  0.12508948083E+03 0.  0.
          5    1    3    3  502    0  0.34610282028E+02 -0.72109378503E+02  0.28152440750E+03  0.29269625639E+03  0.41800000000E+01 0. -1.
         -5    1    3    3    0  502 -0.45917528612E+02 -0.33391432235E+02  0.44468375218E+02  0.72237912311E+02  0.41800000000E+01 0. -1.
        -11    1    1    2    0    0  0.19730182830E+02 -0.10532692330E+02  0.28652073036E+02  0.36347751120E+02  0.00000000000E+00 0. -1.
         11    1    1    2    0    0 -0.84229362456E+01  0.11603350307E+03  0.11154540794E+03  0.16117412237E+03  0.00000000000E+00 0.  1.
</event>
<event>
 6    1  0.2989693E-009  0.2793863E+03  0.7561462E-02  0.1096025E+00
          2   -1    0    0  501    0  0.00000000000E+00  0.00000000000E+00  0.62826332492E+03  0.62826332492E+03  0.00000000000E+00 0. -1.
         -2   -1    0    0    0  501 -0.00000000000E+00 -0.00000000000E+00 -0.18251129123E+03  0.18251129123E+03  0.00000000000E+00 0.  1.
          5    1    1    2  502    0 -0.52729238649E+02  0.17403539045E+03  0.41441437299E+02  0.18655710885E+03  0.41800000000E+01 0.  1.
         -5    1    1    2    0  502 -0.91515372458E+02  0.50128090412E+02 -0.28100248363E+02  0.10814335487E+03  0.41800000000E+01 0.  1.
        -11    1    1    2    0    0  0.40299441913E+02 -0.11433737719E+03  0.25915477494E+03  0.28610885728E+03  0.00000000000E+00 0.  1.
         11    1    1    2    0    0  0.10394516919E+03 -0.10982610367E+03  0.17325606982E+03  0.22996529516E+03  0.00000000000E+00 0. -1.
</event>
<event>
 7    1  0.2989693E-009  0.9420250E+02  0.7561462E-02  0.1292982E+00
          1   -1    0    0  501    0  0.00000000000E+00  0.00000000000E+00  0.19561953656E+03  0.19561953656E+03  0.00000000000E+00 0. -1.
         -1   -1    0    0    0  501 -0.00000000000E+00 -0.00000000000E+00 -0.64877925404E+02  0.64877925404E+02  0.00000000000E+00 0.  1.
         25    2    1    2    0    0 -0.46790448407E+01 -0.13074977416E+02  0.41828123559E+02  0.13262725401E+03  0.12509015985E+03 0.  0.
          5    1    3    3  502    0 -0.35564537938E+02  0.27637800091E+02 -0.22372746420E+02  0.50464804914E+02  0.41800000000E+01 0.  1.
         -5    1    3    3    0  502  0.30885493097E+02 -0.40712777507E+02  0.64200869978E+02  0.82162449100E+02  0.41800000000E+01 0.  1.
        -11    1    1    2    0    0  0.44101926842E+02 -0.11327358187E+02  0.43959371002E+02  0.63290720438E+02  0.00000000000E+00 0.  1.
         11    1    1    2    0    0 -0.39422882002E+02  0.24402335602E+02  0.44954116590E+02  0.64579487506E+02  0.00000000000E+00 0. -1.
</event>
<event>
 7    1  0.2989693E-009  0.1131266E+03  0.7561462E-02  0.1254887E+00
         -2   -1    0    0    0  501 -0.00000000000E+00  0.00000000000E+00  0.24229771072E+03  0.24229771072E+03  0.00000000000E+00 0.  1.
          2   -1    0    0  501    0  0.00000000000E+00 -0.00000000000E+00 -0.67663698136E+02  0.67663698136E+02  0.00000000000E+00 0. -1.
         25    2    1    2    0    0 -0.35770344505E+02 -0.39620628432E+02  0.46211497235E+02  0.14363194838E+03  0.12508126309E+03 0.  0.
          5    1    3    3  502    0 -0.26703839915E+02 -0.84903671934E+02  0.24368825497E+02  0.92374458754E+02  0.41800000000E+01 0.  1.
         -5    1    3    3    0  502 -0.90665045900E+01  0.45283043502E+02  0.21842671738E+02  0.51257489628E+02  0.41800000000E+01 0.  1.
        -11    1    1    2    0    0  0.47578730342E+02 -0.18967661774E+01  0.23969350449E+02  0.53309127397E+02  0.00000000000E+00 0. -1.
         11    1    1    2    0    0 -0.11808385838E+02  0.41517394609E+02  0.10445316490E+03  0.11302033308E+03  0.00000000000E+00 0.  1.
</event>
<event>
 7    1  0.2989693E-009  0.1033340E+03  0.7561462E-02  0.1273437E+00
          4   -1    0    0  501    0  0.00000000000E+00  0.00000000000E+00  0.35936955166E+02  0.35936955166E+02  0.00000000000E+00 0.  1.
         -4   -1    0    0    0  501 -0.00000000000E+00 -0.00000000000E+00 -0.34115159291E+03  0.34115159291E+03  0.00000000000E+00 0. -1.
         25    2    1    2    0    0 -0.23205737498E+02  0.14288975782E+02 -0.18582484822E+03  0.22565587008E+03  0.12508803462E+03 0.  0.
          5    1    3    3  502    0 -0.16710046963E+02 -0.54027378510E+02 -0.10671342859E+03  0.12084457596E+03  0.41800000000E+01 0. -1.
         -5    1    3    3    0  502 -0.64956905351E+01  0.68316354292E+02 -0.79111419638E+02  0.10481129413E+03  0.41800000000E+01 0. -1.
        -11    1    1    2    0    0  0.21483449639E+02  0.29993439599E+02 -0.18571184482E+02  0.41304163476E+02  0.00000000000E+00 0.  1.
         11    1    1    2    0    0  0.17222878590E+01 -0.44282415381E+02 -0.10081860504E+03  0.11012851452E+03  0.00000000000E+00 0. -1.
</event>
<event>
 7    1  0.2989693E-009  0.1082174E+03  0.7561462E-02  0.1263907E+00
          2   -1    0    0  501    0  0.00000000000E+00  0.00000000000E+00  0.63384113739E+03  0.63384113739E+03  0.00000000000E+00 0. -1.
         -2   -1    0    0    0  501 -0.00000000000E+00 -0.00000000000E+00 -0.30235433832E+02  0.30235433832E+02  0.00000000000E+00 0.  1.
         25    2    1    2    0    0 -0.62625792537E+01  0.18958392246E+02  0.53073001076E+03  0.54563836947E+03  0.12509294695E+03 0.  0.
          5    1    3    3  502    0  0.55709746874E+02  0.24680419666E+02  0.20154379338E+03  0.21059456798E+03  0.41800000000E+01 0.  1.
         -5    1    3    3    0  502 -0.61972326127E+02 -0.57220274201E+01  0.32918621738E+03  0.33504380149E+03  0.41800000000E+01 0.  1.
        -11    1    1    2    0    0  0.32888345443E+02  0.25190517548E+02  0.27194539011E+02  0.49555508193E+02  0.00000000000E+00 0.  1.
         11    1    1    2    0    0 -0.26625766189E+02 -0.44148909794E+02  0.45681153788E+02  0.68882693563E+02  0.00000000000E+00 0. -1.
</event>
<event>
 7    1  0.2989693E-009  0.1279310E+03  0.7561462E-02  0.1230558E+00
          1   -1    0    0  501    0  0.00000000000E+00  0.00000000000E+00  0.27068920059E+03  0.27068920059E+03  0.00000000000E+00 0. -1.
         -1   -1    0    0    0  501 -0.00000000000E+00 -0.00000000000E+00 -0.74193701495E+02  0.74193701495E+02  0.00000000000E+00 0.  1.
         25    2    1    2    0    0  0.90974990557E+01  0.85081087688E+02  0.14310132086E+03  0.20844026846E+03  0.12509117281E+03 0.  0.
          5    1    3    3  502    0  0.12810810477E+02  0.11756832954E+03  0.10680986030E+03  0.15941219412E+03  0.41800000000E+01 0.  1.
         -5    1    3    3    0  502 -0.37133114217E+01 -0.32487241851E+02  0.36291460554E+02  0.49028074344E+02  0.41800000000E+01 0.  1.
        -11    1    1    2    0    0 -0.26654829140E+02 -0.11704797776E+02  0.53599238777E+02  0.60994758832E+02  0.00000000000E+00 0. -1.
         11    1    1    2    0    0  0.17557330085E+02 -0.73376289912E+02 -0.20506053744E+00  0.75447874793E+02  0.00000000000E+00 0.  1.
</event>
<event>
 7    1  0.2989693E-009  0.1040937E+03  0.7561462E-02  0.1271916E+00
         -1   -1    0    0    0  501 -0.00000000000E+00  0.00000000000E+00  0.18522549354E+02  0.18522549354E+02  0.00000000000E+00 0.  1.
          1   -1    0    0  501    0  0.00000000000E+00 -0.00000000000E+00 -0.67044083165E+03  0.67044083165E+03  0.00000000000E+00 0. -1.
         25    2    1    2    0    0  0.11818069039E+02  0.20757964586E+02 -0.34270911370E+03  0.36560557653E+03  0.12508933259E+03 0.  0.
          5    1    3    3  502    0  0.57195545392E+02 -0.16699646180E+02 -0.10613428547E+03  0.12178738665E+03  0.41800000000E+01 0.  1.
         -5    1    3    3    0  502 -0.45377476354E+02  0.37457610767E+02 -0.23657482823E+03  0.24381818988E+03  0.41800000000E+01 0.  1.
        -11    1    1    2    0    0 -0.39460914074E+02  0.16755188217E+02 -0.96339800452E+02  0.10544788866E+03  0.00000000000E+00 0.  1.
         11    1    1    2    0    0  0.27642845035E+02 -0.37513152803E+02 -0.21286936814E+03  0.21790991581E+03  0.00000000000E+00 0. -1.
</event>
<event>
 7    1  0.2989693E-009  0.2122090E+03  0.7561462E-02  0.1139829E+00
          2   -1    0    0  501    0  0.00000000000E+00  0.00000000000E+00  0.18789076137E+04  0.18789076137E+04  0.00000000000E+00 0. -1.
         -2   -1    0    0    0  501 -0.00000000000E+00 -0.00000000000E+00 -0.30865322906E+02  0.30865322906E+02  0.00000000000E+00 0.  1.
         25    2    1    2    0    0 -0.18819411457E+03 -0.62472296551E+02  0.12739140496E+04  0.12953085078E+04  0.12508921684E+03 0.  0.
          5    1    3    3  502    0 -0.14656526419E+03 -0.88598625688E+02  0.76183054130E+03  0.78085487717E+03  0.41800000000E+01 0.  1.
         -5    1    3    3    0  502 -0.41628850373E+02  0.26126329137E+02  0.51208350825E+03  0.51445363064E+03  0.41800000000E+01 0.  1.
        -11    1    1    2    0    0  0.12715716348E+03  0.64760253671E+02  0.49095582709E+03  0.51127336996E+03  0.00000000000E+00 0. -1.
         11    1    1    2    0    0  0.61036951090E+02 -0.22879571202E+01  0.83172414127E+02  0.10319105881E+03  0.00000000000E+00 0.  1.
</event>
<event>
 7    1  0.2989693E-009  0.1093321E+03  0.7561462E-02  0.1261812E+00
         -2   -1    0    0    0  501 -0.00000000000E+00  0.00000000000E+00  0.94400359806E+02  0.94400359806E+02  0.00000000000E+00 0. -1.
          2   -1    0    0  501    0  0.00000000000E+00 -0.00000000000E+00 -0.16573692054E+03  0.16573692054E+03  0.00000000000E+00 0.  1.
         25    2    1    2    0    0  0.64313167368E-02 -0.23776042613E+02 -0.99622971387E+02  0.16167210632E+03  0.12509129982E+03 0.  0.
          5    1    3    3  502    0  0.59931804745E+02 -0.92319013325E+00 -0.30848951740E+02  0.67541126164E+02  0.41800000000E+01 0. -1.
         -5    1    3    3    0  502 -0.59925373429E+02 -0.22852852480E+02 -0.68774019646E+02  0.94130980157E+02  0.41800000000E+01 0. -1.
        -11    1    1    2    0    0 -0.44350758981E+02  0.22994799148E+02  0.15540005993E+02  0.52318662027E+02  0.00000000000E+00 0. -1.
         11    1    1    2    0    0  0.44344327664E+02  0.78124346542E+00  0.12746404665E+02  0.46146511994E+02  0.00000000000E+00 0.  1.
</event>
<event>
 7    1  0.2989693E-009  0.1321792E+03  0.7561462E-02  0.1224257E+00
         -2   -1    0    0    0  501 -0.00000000000E+00  0.00000000000E+00  0.62369156807E+02  0.62369156807E+02  0.00000000000E+00 0.  1.
          2   -1    0    0  501    0  0.00000000000E+00 -0.00000000000E+00 -0.47733521621E+03  0.47733521621E+03  0.00000000000E+00 0. -1.
         25    2    1    2    0    0  0.19995533137E+02 -0.10003530762E+03 -0.87039632623E+02  0.18338516286E+03  0.12508931286E+03 0.  0.
          5    1    3    3  502    0 -0.29162451891E+02 -0.78261045723E+01  0.17804707016E+02  0.35301225262E+02  0.41800000000E+01 0. -1.
         -5    1    3    3    0  502  0.49157985028E+02 -0.92209203049E+02 -0.10484433964E+03  0.14808393759E+03  0.41800000000E+01 0. -1.
        -11    1    1    2    0    0 -0.48692808368E+02  0.40990277773E+02 -0.95252359506E+02  0.11456092026E+03  0.00000000000E+00 0.  1.
         11    1    1    2    0    0  0.28697275231E+02  0.59045029848E+02 -0.23267406727E+03  0.24175828990E+03  0.00000000000E+00 0. -1.
</event>
<event>
 7    1  0.2989693E-009  0.1094567E+03  0.7561462E-02  0.1261579E+00
          2   -1    0    0  501    0  0.00000000000E+00  0.00000000000E+00  0.11515071004E+03  0.11515071004E+03  0.00000000000E+00 0. -1.
         -2   -1    0    0    0  501 -0.00000000000E+00 -0.00000000000E+00 -0.16324318703E+03  0.16324318703E+03  0.00000000000E+00 0.  1.
         25    2    1    2    0    0 -0.53473184434E+02 -0.28532006832E+02 -0.84920048101E+02  0.16288847661E+03  0.12509110430E+03 0.  0.
          5    1    3    3  502    0  0.31434299040E+02 -0.32655137199E+02 -0.57779644549E+02  0.73555644690E+02  0.41800000000E+01 0. -1.
         -5    1    3    3    0  502 -0.84907483473E+02  0.41231303663E+01 -0.27140403553E+02  0.89332831920E+02  0.41800000000E+01 0. -1.
        -11    1    1    2    0    0 -0.52024250119E+01  0.29145043295E+02 -0.18455016879E+02  0.34886765724E+02  0.00000000000E+00 0.  1.
         11    1    1    2    0    0  0.58675609445E+02 -0.61303646303E+00  0.55282587990E+02  0.80618654742E+02  0.00000000000E+00 0. -1.
</event>
<event>
 7    1  0.2989693E-009  0.1311687E+03  0.7561462E-02  0.1225732E+00
          2   -1    0    0  501    0  0.00000000000E+00  0.00000000000E+00  0.41660596116E+03  0.41660596116E+03  0.00000000000E+00 0. -1.
         -2   -1    0    0    0  501 -0.00000000000E+00 -0.00000000000E+00 -0.69318527945E+02  0.69318527945E+02  0.00000000000E+00 0.  1.
         25    2    1    2    0    0  0.40834769411E+02  0.11304632149E+03  0.11543262046E+03  0.20837195333E+03  0.12508889588E+03 0.  0.
          5    1    3    3  502    0 -0.50024857431E+01  0.66722835441E+02 -0.91988866133E+01  0.67668704346E+02  0.41800000000E+01 0.  1.
         -5    1    3    3    0  502  0.45837255154E+02  0.46323486048E+02  0.12463150707E+03  0.14070324898E+03  0.41800000000E+01 0.  1.
        -11    1    1    2    0    0 -0.28940049948E+02 -0.17730804078E+02  0.93568672773E+01  0.35205949348E+02  0.00000000000E+00 0.  1.
         11    1    1    2    0    0 -0.11894719463E+02 -0.95315517411E+02  0.22249794548E+03  0.24234658643E+03  0.00000000000E+00 0. -1.
</event>
<event>
 7    1  0.2989693E-009  0.1087375E+03  0.7561462E-02  0.1262926E+00
         -2   -1    0    0    0  501 -0.00000000000E+00  0.00000000000E+00  0.36448820176E+02  0.36448820176E+02  0.00000000000E+00 0.  1.
          2   -1    0    0  501    0  0.00000000000E+00 -0.00000000000E+00 -0.50348540278E+03  0.50348540278E+03  0.00000000000E+00 0. -1.
         25    2    1    2    0    0  0.40535302712E+01  0.77527094699E+02 -0.21217649081E+03  0.25825264920E+03  0.12509470832E+03 0.  0.
          5    1    3    3  502    0  0.30266161517E+02  0.23592751139E+02 -0.19046836123E+03  0.19434075093E+03  0.41800000000E+01 0. -1.
         -5    1    3    3    0  502 -0.26212631246E+02  0.53934343560E+02 -0.21708129573E+02  0.63911898279E+02  0.41800000000E+01 0. -1.
        -11    1    1    2    0    0  0.28492885182E+02 -0.81155914169E+02 -0.20125885379E+03  0.21886811814E+03  0.00000000000E+00 0. -1.
         11    1    1    2    0    0 -0.32546415453E+02  0.36288194706E+01 -0.53601238006E+02  0.62813455608E+02  0.00000000000E+00 0.  1.
</event>
<event>
 7    1  0.2989693E-009  0.9606462E+02  0.7561462E-02  0.1288796E+00
          2   -1    0    0  501    0  0.00000000000E+00  0.00000000000E+00  0.24314939101E+03  0.24314939101E+03  0.00000000000E+00 0. -1.
         -2   -1    0    0    0  501 -0.00000000000E+00 -0.00000000000E+00 -0.78639653470E+02  0.78639653470E+02  0.00000000000E+00 0.  1.
         25    2    1    2    0    0 -0.64644897314E+02 -0.45730633102E+02  0.55818279973E+02  0.15821905714E+03  0.12508931254E+03 0.  0.
          5    1    3    3  502    0 -0.42055482641E+02 -0.77981641622E+01 -0.36123293336E+02  0.56141247812E+02  0.41800000000E+01 0.  1.
         -5    1    3    3    0  502 -0.22589414674E+02 -0.37932468940E+02  0.91941573310E+02  0.10207780933E+03  0.41800000000E+01 0.  1.
        -11    1    1    2    0    0  0.84548840038E+01  0.47835585467E+02  0.94231819253E+01  0.49482569235E+02  0.00000000000E+00 0.  1.
         11    1    1    2    0    0  0.56190013311E+02 -0.21049523647E+01  0.99268275639E+02  0.11408741810E+03  0.00000000000E+00 0. -1.
</event>
<event>
 7    1  0.2989693E-009  0.2089150E+03  0.7561462E-02  0.1142428E+00
          2   -1    0    0  501    0  0.00000000000E+00  0.00000000000E+00  0.11625187809E+04  0.11625187809E+04  0.00000000000E+00 0. -1.
         -2   -1    0    0    0  501 -0.00000000000E+00 -0.00000000000E+00 -0.42528116675E+02  0.42528116675E+02  0.00000000000E+00 0.  1.
         25    2    1    2    0    0 -0.13802889500E+02 -0.19344439522E+03  0.56994653204E+03  0.61489708268E+03  0.12509244220E+03 0.  0.
          5    1    3    3  502    0 -0.52406570281E+01  0.46634339208E+01  0.15261295675E+03  0.15283127647E+03  0.41800000000E+01 0. -1.
         -5    1    3    3    0  502 -0.85622324723E+01 -0.19810782914E+03  0.41733357530E+03  0.46206580620E+03  0.41800000000E+01 0. -1.
        -11    1    1    2    0    0 -0.23868935634E+02  0.15736529038E+03  0.37195774739E+03  0.40458142141E+03  0.00000000000E+00 0. -1.
         11    1    1    2    0    0  0.37671825135E+02  0.36079104835E+02  0.17808638484E+03  0.18556839354E+03  0.00000000000E+00 0.  1.
</event>
<event>
 7    1  0.2989693E-009  0.1097383E+03  0.7561462E-02  0.1261055E+00
         -1   -1    0    0    0  501 -0.00000000000E+00  0.00000000000E+00  0.30224055482E+02  0.30224055482E+02  0.00000000000E+00 0.  1.
          1   -1    0    0  501    0  0.00000000000E+00 -0.00000000000E+00 -0.52991012214E+03  0.52991012214E+03  0.00000000000E+00 0. -1.
         25    2    1    2    0    0  0.58085175518E+02  0.24685825840E+02 -0.25037101579E+03  0.28690712857E+03  0.12508707873E+03 0.  0.
          5    1    3    3  502    0 -0.38185042638E+02  0.20378136763E+02 -0.71440129486E+02  0.83633309394E+02  0.41800000000E+01 0. -1.
         -5    1    3    3    0  502  0.96270218156E+02  0.43076890770E+01 -0.17893088630E+03  0.20327381918E+03  0.41800000000E+01 0. -1.
        -11    1    1    2    0    0 -0.38085221111E+02  0.10107495926E+02 -0.28089281863E+02  0.48390632322E+02  0.00000000000E+00 0.  1.
         11    1    1    2    0    0 -0.19999954407E+02 -0.34793321766E+02 -0.22122576901E+03  0.22483641673E+03  0.00000000000E+00 0. -1.
</event>
<event>
 7    1  0.2989693E-009  0.9595844E+02  0.7561462E-02  0.1289032E+00
         -2   -1    0    0    0  501 -0.00000000000E+00  0.00000000000E+00  0.28616895806E+03  0.28616895806E+03  0.00000000000E+00 0. -1.
          2   -1    0    0  501    0  0.00000000000E+00 -0.00000000000E+00 -0.83044118620E+02  0.83044118620E+02  0.00000000000E+00 0.  1.
         25    2    1    2    0    0 -0.62707520358E+02  0.14032498303E+02  0.20897391626E+01  0.14064654475E+03  0.12509172403E+03 0.  0.
          5    1    3    3  502    0  0.78046798455E+01  0.41028015522E+02 -0.36614386870E+02  0.55698265781E+02  0.41800000000E+01 0.  1.
         -5    1    3    3    0  502 -0.70512200203E+02 -0.26995517220E+02  0.38704126032E+02  0.84948278967E+02  0.41800000000E+01 0.  1.
        -11    1    1    2    0    0  0.26825158873E+02  0.12602727975E+02  0.83849716475E+01  0.30801390399E+02  0.00000000000E+00 0.  1.
         11    1    1    2    0    0  0.35882361485E+02 -0.26635226277E+02  0.19265012863E+03  0.19776514153E+03  0.00000000000E+00 0. -1.
</event>
<event>
 7    1  0.2989693E-009  0.1734261E+03  0.7561462E-02  0.1174321E+00
         -1   -1    0    0    0  501 -0.00000000000E+00  0.00000000000E+00  0.71270804149E+03  0.71270804149E+03  0.00000000000E+00 0.  1.
          1   -1    0    0  501    0  0.00000000000E+00 -0.00000000000E+00 -0.47509465316E+02  0.47509465316E+02  0.00000000000E+00 0. -1.
         25    2    1    2    0    0  0.14696289525E+03  0.15892407979E+02  0.33107132322E+03  0.38354321142E+03  0.12508602142E+03 0.  0.
          5    1    3    3  502    0  0.10850861958E+03 -0.35214515426E+02  0.13255177262E+03  0.17493320853E+03  0.41800000000E+01 0. -1.
         -5    1    3    3    0  502  0.38454275672E+02  0.51106923405E+02  0.19851955060E+03  0.20861000289E+03  0.41800000000E+01 0. -1.
        -11    1    1    2    0    0 -0.10036813622E+03  0.28405250084E+02  0.24925018780E+03  0.27019673781E+03  0.00000000000E+00 0. -1.
         11    1    1    2    0    0 -0.46594759031E+02 -0.44297658063E+02  0.84877065145E+02  0.10647755757E+03  0.00000000000E+00 0.  1.
</event>
<event>
 7    1  0.2989693E-009  0.7584305E+02  0.7561462E-02  0.1341280E+00
          3   -1    0    0  501    0  0.00000000000E+00  0.00000000000E+00  0.84071388324E+02  0.84071388324E+02  0.00000000000E+00 0. -1.
         -3   -1    0    0    0  501 -0.00000000000E+00 -0.00000000000E+00 -0.15139217388E+03  0.15139217388E+03  0.00000000000E+00 0.  1.
         25    2    1    2    0    0 -0.24472869834E+01 -0.23165115827E+02 -0.23445671395E+02  0.12938328736E+03  0.12509086192E+03 0.  0.
          5    1    3    3  502    0 -0.29679925396E+02  0.25520022412E+02  0.31917216450E+02  0.50678897200E+02  0.41800000000E+01 0. -1.
         -5    1    3    3    0  502  0.27232638413E+02 -0.48685138240E+02 -0.55362887845E+02  0.78704390163E+02  0.41800000000E+01 0. -1.
        -11    1    1    2    0    0  0.11507004781E+01  0.39738995357E+02  0.16806845206E+02  0.43162274144E+02  0.00000000000E+00 0. -1.
         11    1    1    2    0    0  0.12965865053E+01 -0.16573879529E+02 -0.60681959365E+02  0.62918000696E+02  0.00000000000E+00 0.  1.
</event>
<event>
 7    1  0.2989693E-009  0.8514942E+02  0.7561462E-02  0.1315042E+00
         -2   -1    0    0    0  501 -0.00000000000E+00  0.00000000000E+00  0.29142304542E+02  0.29142304542E+02  0.00000000000E+00 0.  1.
          2   -1    0    0  501    0  0.00000000000E+00 -0.00000000000E+00 -0.43435315793E+03  0.43435315793E+03  0.00000000000E+00 0. -1.
         25    2    1    2    0    0  0.37180486537E+01 -0.24279933132E+02 -0.18627255802E+03  0.22571899161E+03  0.12509299847E+03 0.  0.
          5    1    3    3  502    0  0.46030958490E+02 -0.26333344864E+02 -0.24731876482E+02  0.58663722227E+02  0.41800000000E+01 0.  1.
         -5    1    3    3    0  502 -0.42312909837E+02  0.20534117311E+01 -0.16154068153E+03  0.16705526938E+03  0.41800000000E+01 0.  1.
        -11    1    1    2    0    0 -0.32032755751E+02 -0.65285565259E+01 -0.30369564395E+02  0.44620958449E+02  0.00000000000E+00 0.  1.
         11    1    1    2    0    0  0.28314707098E+02  0.30808489658E+02 -0.18856873098E+03  0.19315551241E+03  0.00000000000E+00 0. -1.
</event>
<event>
 7    1  0.2989693E-009  0.1050027E+03  0.7561462E-02  0.1270114E+00
         -1   -1    0    0    0  501 -0.00000000000E+00  0.00000000000E+00  0.10588367954E+03  0.10588367954E+03  0.00000000000E+00 0.  1.
          1   -1    0    0  501    0  0.00000000000E+00 -0.00000000000E+00 -0.11910785176E+03  0.11910785176E+03  0.00000000000E+00 0. -1.
         25    2    1    2    0    0  0.16633695642E+02  0.67434387677E+01  0.74774494799E+01  0.12659104256E+03  0.12508887244E+03 0.  0.
          5    1    3    3  502    0  0.80565767967E+01  0.60291560366E+02  0.29718354569E+02  0.67827971217E+02  0.41800000000E+01 0. -1.
         -5    1    3    3    0  502  0.85771188450E+01 -0.53548121599E+02 -0.22240905089E+02  0.58763071343E+02  0.41800000000E+01 0. -1.
        -11    1    1    2    0    0 -0.15555840271E+02 -0.49492877775E+02 -0.20087498747E+02  0.55633054229E+02  0.00000000000E+00 0.  1.
         11    1    1    2    0    0 -0.10778553704E+01  0.42749439007E+02 -0.61412295784E+00  0.42767434511E+02  0.00000000000E+00 0. -1.
</event>
<event>
 7    1  0.2989693E-009  0.1081040E+03  0.7561462E-02  0.1264122E+00
          4   -1    0    0  501    0  0.00000000000E+00  0.00000000000E+00  0.18373516923E+03  0.18373516923E+03  0.00000000000E+00 0.  1.
         -4   -1    0    0    0  501 -0.00000000000E+00 -0.00000000000E+00 -0.11502267607E+03  0.11502267607E+03  0.00000000000E+00 0. -1.
         25    2    1    2    0    0 -0.41127543929E+02 -0.82993574054E+02  0.61332240699E+02  0.16729982196E+03  0.12509267955E+03 0.  0.
          5    1    3    3  502    0 -0.58188251769E+02 -0.26306674485E+02 -0.19610182055E+02  0.66932394300E+02  0.41800000000E+01 0. -1.
         -5    1    3    3    0  502  0.17060707841E+02 -0.56686899568E+02  0.80942422754E+02  0.10036742766E+03  0.41800000000E+01 0. -1.
        -11    1    1    2    0    0  0.52043044148E+01  0.16345015208E+02  0.44093856510E+02  0.47312920947E+02  0.00000000000E+00 0.  1.
         11    1    1    2    0    0  0.35923239514E+02  0.66648558845E+02 -0.36713604056E+02  0.84145102389E+02  0.00000000000E+00 0. -1.
</event>
<event>
 7    1  0.2989693E-009  0.1073678E+03  0.7561462E-02  0.1265523E+00
          1   -1    0    0  501    0  0.00000000000E+00  0.00000000000E+00  0.29553476305E+03  0.29553476305E+03  0.00000000000E+00 0. -1.
         -1   -1    0    0    0  501 -0.00000000000E+00 -0.00000000000E+00 -0.83544671408E+02  0.83544671408E+02  0.00000000000E+00 0.  1.
         25    2    1    2    0    0 -0.28073552510E+02 -0.74904060835E+02  0.16531392623E+02  0.14939749674E+03  0.12509029703E+03 0.  0.
          5    1    3    3  502    0  0.31787124749E+02 -0.55157294607E+01 -0.31985089856E+02  0.45621956823E+02  0.41800000000E+01 0.  1.
         -5    1    3    3    0  502 -0.59860677259E+02 -0.69388331374E+02  0.48516482479E+02  0.10377553992E+03  0.41800000000E+01 0.  1.
        -11    1    1    2    0    0  0.36956109091E+02  0.40032369857E+02  0.33909055250E+02  0.64172958974E+02  0.00000000000E+00 0.  1.
         11    1    1    2    0    0 -0.88825565812E+01  0.34871690978E+02  0.16154964377E+03  0.16550897875E+03  0.00000000000E+00 0. -1.
</event>
<event>
 7    1  0.2989693E-009  0.7046204E+02  0.7561462E-02  0.1358529E+00
          1   -1    0    0  501    0  0.00000000000E+00  0.00000000000E+00  0.12340507119E+03  0.12340507119E+03  0.00000000000E+00 0. -1.
         -1   -1    0    0    0  501 -0.00000000000E+00 -0.00000000000E+00 -0.13365546827E+03  0.13365546827E+03  0.00000000000E+00 0.  1.
         25    2    1    2    0    0  0.36621211674E+02 -0.48233874805E+02  0.25696539631E+02  0.14133343311E+03  0.12508879783E+03 0.  0.
          5    1    3    3  502    0 -0.11716038964E+02 -0.18667953967E+02 -0.45211325140E+02  0.50470728103E+02  0.41800000000E+01 0. -1.
         -5    1    3    3    0  502  0.48337250637E+02 -0.29565920838E+02  0.70907864771E+02  0.90862705003E+02  0.41800000000E+01 0. -1.
        -11    1    1    2    0    0 -0.20864203225E+02  0.17890980676E+02  0.30465136035E+02  0.41030801594E+02  0.00000000000E+00 0. -1.
         11    1    1    2    0    0 -0.15757008449E+02  0.30342894129E+02 -0.66412072740E+02  0.74696304761E+02  0.00000000000E+00 0.  1.
</event>
<event>
 7    1  0.2989693E-009  0.7175558E+02  0.7561462E-02  0.1354223E+00
          1   -1    0    0  501    0  0.00000000000E+00  0.00000000000E+00  0.86834478111E+02  0.86834478111E+02  0.00000000000E+00 0. -1.
         -1   -1    0    0    0  501 -0.00000000000E+00 -0.00000000000E+00 -0.14714402284E+03  0.14714402284E+03  0.00000000000E+00 0.  1.
         25    2    1    2    0    0 -0.12792720470E+02 -0.30412521715E+02 -0.30432010946E+02  0.13290149850E+03  0.12509246916E+03 0.  0.
          5    1    3    3  502    0  0.91186571685E+01  0.36410383116E+02 -0.47235455896E+02  0.60477488381E+02  0.41800000000E+01 0.  1.
         -5    1    3    3    0  502 -0.21911377639E+02 -0.66822904832E+02  0.16803444949E+02  0.72424010123E+02  0.41800000000E+01 0.  1.
        -11    1    1    2    0    0  0.11422815605E+02  0.11073999431E+02  0.32268413464E+02  0.35977280153E+02  0.00000000000E+00 0. -1.
         11    1    1    2    0    0  0.13699048652E+01  0.19338522285E+02 -0.62145947247E+02  0.65099722294E+02  0.00000000000E+00 0.  1.
</event>
<event>
 7    1  0.2989693E-009  0.9026667E+02  0.7561462E-02  0.1302207E+00
         -1   -1    0    0    0  501 -0.00000000000E+00  0.00000000000E+00  0.27685370496E+02  0.27685370496E+02  0.00000000000E+00 0.  1.
          1   -1    0    0  501    0  0.00000000000E+00 -0.00000000000E+00 -0.42826549548E+03  0.42826549548E+03  0.00000000000E+00 0. -1.
         25    2    1    2    0    0  0.16492658697E+01  0.13062584153E+02 -0.24363926357E+03  0.27419192419E+03  0.12509104426E+03 0.  0.
          5    1    3    3  502    0 -0.44159812132E+02  0.34200933541E+02 -0.53600640246E+02  0.77526085271E+02  0.41800000000E+01 0. -1.
         -5    1    3    3    0  502  0.45809078002E+02 -0.21138349387E+02 -0.19003862333E+03  0.19666583892E+03  0.41800000000E+01 0. -1.
        -11    1    1    2    0    0  0.28980955339E+02 -0.27575442713E+02 -0.29013220042E+02  0.49417281900E+02  0.00000000000E+00 0. -1.
         11    1    1    2    0    0 -0.30630221209E+02  0.14512858559E+02 -0.12792764137E+03  0.13234165989E+03  0.00000000000E+00 0.  1.
</event>
<event>
 7    1  0.2989693E-009  0.6961467E+02  0.7561462E-02  0.1361408E+00
         -2   -1    0    0    0  501 -0.00000000000E+00  0.00000000000E+00  0.17011498469E+03  0.17011498469E+03  0.00000000000E+00 0.  1.
          2   -1    0    0  501    0  0.00000000000E+00 -0.00000000000E+00 -0.17443510207E+03  0.17443510207E+03  0.00000000000E+00 0. -1.
         25    2    1    2    0    0  0.37512613531E+02  0.95916676314E+01 -0.12978857812E+03  0.18436494770E+03  0.12508462203E+03 0.  0.
          5    1    3    3  502    0  0.30344910034E+02 -0.15143345909E+02 -0.14842190974E+03  0.15230453106E+03  0.41800000000E+01 0.  1.
         -5    1    3    3    0  502  0.71677034966E+01  0.24735013540E+02  0.18633331617E+02  0.32060416644E+02  0.41800000000E+01 0.  1.
        -11    1    1    2    0    0  0.20398321512E+02 -0.98138355780E+00  0.88765351350E+02  0.91084258983E+02  0.00000000000E+00 0.  1.
         11    1    1    2    0    0 -0.57910935043E+02 -0.86102840736E+01  0.36703109389E+02  0.69100880083E+02  0.00000000000E+00 0. -1.
</event>
<event>
 7    1  0.2989693E-009  0.1290595E+03  0.7561462E-02  0.1228858E+00
         -1   -1    0    0    0  501 -0.00000000000E+00  0.00000000000E+00  0.24145198322E+02  0.24145198322E+02  0.00000000000E+00 0.  1.
          1   -1    0    0  501    0  0.00000000000E+00 -0.00000000000E+00 -0.81027534299E+03  0.81027534299E+03  0.00000000000E+00 0. -1.
         25    2    1    2    0    0 -0.77799825639E+02  0.44937995815E+02 -0.49771155116E+03  0.52099593241E+03  0.12509091534E+03 0.  0.
          5    1    3    3  502    0 -0.64701686550E+02  0.78189260645E+02 -0.44952265008E+03  0.46085567595E+03  0.41800000000E+01 0. -1.
         -5    1    3    3    0  502 -0.13098139089E+02 -0.33251264830E+02 -0.48188901078E+02  0.60140256463E+02  0.41800000000E+01 0. -1.
        -11    1    1    2    0    0  0.38786706164E+02  0.20881162987E+02 -0.78770487518E+02  0.90250879478E+02  0.00000000000E+00 0.  1.
         11    1    1    2    0    0  0.39013119476E+02 -0.65819158802E+02 -0.20964810599E+03  0.22317372942E+03  0.00000000000E+00 0. -1.
</event>
<event>
 7    1  0.2989693E-009  0.9192509E+02  0.7561462E-02  0.1298256E+00
          4   -1    0    0  501    0  0.00000000000E+00  0.00000000000E+00  0.12440496800E+03  0.12440496800E+03  0.00000000000E+00 0.  1.
         -4   -1    0    0    0  501 -0.00000000000E+00 -0.00000000000E+00 -0.12972502903E+03  0.12972502903E+03  0.00000000000E+00 0. -1.
         25    2    1    2    0    0  0.50980384813E+02 -0.35442652558E+02 -0.47338047992E+02  0.14745744458E+03  0.12509047093E+03 0.  0.
          5    1    3    3  502    0 -0.29638141959E+02 -0.34670844516E+01 -0.52438375148E+02  0.60478886577E+02  0.41800000000E+01 0.  1.
         -5    1    3    3    0  502  0.80618526772E+02 -0.31975568106E+02  0.51003271568E+01  0.86978558000E+02  0.41800000000E+01 0.  1.
        -11    1    1    2    0    0 -0.42347915175E+02  0.15389707671E+02  0.62291331755E+02  0.76879119620E+02  0.00000000000E+00 0.  1.
         11    1    1    2    0    0 -0.86324696385E+01  0.20052944887E+02 -0.20273344790E+02  0.29793432828E+02  0.00000000000E+00 0. -1.
</event>
<event>
 7    1  0.2989693E-009  0.8679648E+02  0.7561462E-02  0.1310800E+00
         -3   -1    0    0    0  501 -0.00000000000E+00  0.00000000000E+00  0.11526028239E+03  0.11526028239E+03  0.00000000000E+00 0.  1.
          3   -1    0    0  501    0  0.00000000000E+00 -0.00000000000E+00 -0.14301312568E+03  0.14301312568E+03  0.00000000000E+00 0. -1.
         25    2    1    2    0    0  0.43481927068E+02 -0.16197696942E+02  0.33812434061E+02  0.13763474489E+03  0.12508796479E+03 0.  0.
          5    1    3    3  502    0  0.31270903811E+02 -0.52309980587E+02  0.64264219497E+02  0.88665471305E+02  0.41800000000E+01 0.  1.
         -5    1    3    3    0  502  0.12211023257E+02  0.36112283644E+02 -0.30451785437E+02  0.48969273583E+02  0.41800000000E+01 0.  1.
        -11    1    1    2    0    0 -0.47886379206E+02 -0.88729541421E+01 -0.76824553433E+02  0.90960687326E+02  0.00000000000E+00 0. -1.
         11    1    1    2    0    0  0.44044521378E+01  0.25070651085E+02  0.15259276083E+02  0.29677975858E+02  0.00000000000E+00 0.  1.
</event>
<event>
 7    1  0.2989693E-009  0.1244817E+03  0.7561462E-02  0.1235882E+00
         -1   -1    0    0    0  501 -0.00000000000E+00  0.00000000000E+00  0.63573139260E+02  0.63573139260E+02  0.00000000000E+00 0.  1.
          1   -1    0    0  501    0  0.00000000000E+00 -0.00000000000E+00 -0.33373529760E+03  0.33373529760E+03  0.00000000000E+00 0. -1.
         25    2    1    2    0    0  0.81042161724E+02 -0.47768050206E+02 -0.18168467066E+03  0.23981437934E+03  0.12510794694E+03 0.  0.
          5    1    3    3  502    0  0.26328273627E+01  0.18586257270E+02 -0.11652398693E+03  0.11810034999E+03  0.41800000000E+01 0. -1.
         -5    1    3    3    0  502  0.78409334361E+02 -0.66354307475E+02 -0.65160683732E+02  0.12171402935E+03  0.41800000000E+01 0. -1.
        -11    1    1    2    0    0 -0.56135845892E+02 -0.16081413456E+02 -0.23161514639E+02  0.62819589406E+02  0.00000000000E+00 0. -1.
         11    1    1    2    0    0 -0.24906315831E+02  0.63849463662E+02 -0.65315973042E+02  0.94674468113E+02  0.00000000000E+00 0.  1.
</event>
<event>
 7    1  0.2989693E-009  0.1361288E+03  0.7561462E-02  0.1218635E+00
         -1   -1    0    0    0  501 -0.00000000000E+00  0.00000000000E+00  0.30438952160E+02  0.30438952160E+02  0.00000000000E+00 0. -1.
          1   -1    0    0  501    0  0.00000000000E+00 -0.00000000000E+00 -0.72138900671E+03  0.72138900671E+03  0.00000000000E+00 0.  1.
         25    2    1    2    0    0  0.10124015860E+03 -0.42853734882E+02 -0.40605877327E+03  0.43888151059E+03  0.12508893107E+03 0.  0.
          5    1    3    3  502    0 -0.22931131015E+02  0.11397681236E+02 -0.33166780535E+02  0.42109994518E+02  0.41800000000E+01 0.  1.
         -5    1    3    3    0  502  0.12417128961E+03 -0.54251416118E+02 -0.37289199274E+03  0.39677151607E+03  0.41800000000E+01 0.  1.
        -11    1    1    2    0    0 -0.76480507483E+02  0.25956008657E+02 -0.11558315368E+03  0.14100513404E+03  0.00000000000E+00 0. -1.
         11    1    1    2    0    0 -0.24759651113E+02  0.16897726226E+02 -0.16930812760E+03  0.17194131425E+03  0.00000000000E+00 0.  1.
</event>
<event>
 7    1  0.2989693E-009  0.1167145E+03  0.7561462E-02  0.1248618E+00
          1   -1    0    0  501    0  0.00000000000E+00  0.00000000000E+00  0.32935295005E+03  0.32935295005E+03  0.00000000000E+00 0. -1.
         -1   -1    0    0    0  501 -0.00000000000E+00 -0.00000000000E+00 -0.12115442335E+03  0.12115442335E+03  0.00000000000E+00 0.  1.
         25    2    1    2    0    0  0.60572274588E+02  0.98874935553E+02 -0.27513090605E+02  0.17275886391E+03  0.12507358465E+03 0.  0.
          5    1    3    3  502    0  0.14201143479E+02  0.32780756872E+02 -0.71997303787E+02  0.80481890198E+02  0.41800000000E+01 0.  1.
         -5    1    3    3    0  502  0.46371131110E+02  0.66094178681E+02  0.44484213183E+02  0.92276973717E+02  0.41800000000E+01 0.  1.
        -11    1    1    2    0    0 -0.22639023395E+02 -0.48779603886E+02  0.19639633876E+03  0.20362587511E+03  0.00000000000E+00 0. -1.
         11    1    1    2    0    0 -0.37933251194E+02 -0.50095331667E+02  0.39315278541E+02  0.74122634381E+02  0.00000000000E+00 0.  1.
</event>
<event>
 7    1  0.3316771E-009  0.8957563E+02  0.7561462E-02  0.1303883E+00
          1   -1    0    0  501    0  0.00000000000E+00  0.00000000000E+00  0.58152726918E+03  0.58152726918E+03  0.00000000000E+00 0. -1.
         -1   -1    0    0    0  501 -0.00000000000E+00 -0.00000000000E+00 -0.25934417317E+02  0.25934417317E+02  0.00000000000E+00 0.  1.
         25    2    1    2    0    0 -0.56658568084E+02 -0.99781727990E+01  0.32886076360E+03  0.35652066496E+03  0.12509126844E+03 0.  0.
          5    1    3    3  502    0  0.13351512024E+02 -0.35128157105E+02  0.22805490459E+03  0.23116825518E+03  0.41800000000E+01 0. -1.
         -5    1    3    3    0  502 -0.70010080108E+02  0.25149984306E+02  0.10080585901E+03  0.12535240978E+03  0.41800000000E+01 0. -1.
        -11    1    1    2    0    0  0.14081697212E+02  0.18661711803E+02  0.36444781057E+01  0.23660851728E+02  0.00000000000E+00 0. -1.
         11    1    1    2    0    0  0.42576870872E+02 -0.86835390043E+01  0.22308761015E+03  0.22728016981E+03  0.00000000000E+00 0.  1.
</event>
<event>
 7    1  0.2989693E-009  0.1002621E+03  0.7561462E-02  0.1279746E+00
          3   -1    0    0  501    0  0.00000000000E+00  0.00000000000E+00  0.10936821992E+03  0.10936821992E+03  0.00000000000E+00 0. -1.
         -3   -1    0    0    0  501 -0.00000000000E+00 -0.00000000000E+00 -0.12282278551E+03  0.12282278551E+03  0.00000000000E+00 0.  1.
         25    2    1    2    0    0 -0.30175719938E+02  0.29323332268E+02 -0.10761041479E+02  0.13241645683E+03  0.12509151105E+03 0.  0.
          5    1    3    3  502    0 -0.70441846789E+02  0.49418973908E+02 -0.88537287442E+00  0.86154193434E+02  0.41800000000E+01 0. -1.
         -5    1    3    3    0  502  0.40266126851E+02 -0.20095641640E+02 -0.98756686042E+01  0.46262263400E+02  0.41800000000E+01 0. -1.
        -11    1    1    2    0    0  0.32696732137E+02  0.64413749093E+01 -0.37248242136E+02  0.49979987449E+02  0.00000000000E+00 0.  1.
         11    1    1    2    0    0 -0.25210121991E+01 -0.35764707178E+02  0.34554718024E+02  0.49794561146E+02  0.00000000000E+00 0. -1.
</event>
<event>
 7    1  0.2989693E-009  0.2629445E+03  0.7561462E-02  0.1105387E+00
          1   -1    0    0  501    0  0.00000000000E+00  0.00000000000E+00  0.11531639059E+04  0.11531639059E+04  0.00000000000E+00 0. -1.
         -1   -1    0    0    0  501 -0.00000000000E+00 -0.00000000000E+00 -0.60543019987E+02  0.60543019987E+02  0.00000000000E+00 0.  1.
         25    2    1    2    0    0 -0.19738630057E+03  0.13822600664E+03  0.56587407182E+03  0.62763117493E+03  0.12505857037E+03 0.  0.
          5    1    3    3  502    0 -0.16423477211E+03  0.44130114681E+02  0.38784933166E+03  0.42351517548E+03  0.41800000000E+01 0. -1.
         -5    1    3    3    0  502 -0.33151528454E+02  0.94095891962E+02  0.17802474016E+03  0.20411599945E+03  0.41800000000E+01 0. -1.
        -11    1    1    2    0    0  0.30747288779E+02 -0.68882540356E+02  0.17996868848E+03  0.19513823040E+03  0.00000000000E+00 0.  1.
         11    1    1    2    0    0  0.16663901179E+03 -0.69343466286E+02  0.34677812558E+03  0.39093752052E+03  0.00000000000E+00 0. -1.
</event>
<event>
 7    1  0.2989693E-009  0.9136650E+02  0.7561462E-02  0.1299576E+00
         -1   -1    0    0    0  501 -0.00000000000E+00  0.00000000000E+00  0.50268837862E+02  0.50268837862E+02  0.00000000000E+00 0.  1.
          1   -1    0    0  501    0  0.00000000000E+00 -0.00000000000E+00 -0.25648250440E+03  0.25648250440E+03  0.00000000000E+00 0. -1.
         25    2    1    2    0    0 -0.18204460816E+01 -0.96175716571E+01 -0.75768576058E+02  0.14657819300E+03  0.12509387610E+03 0.  0.
          5    1    3    3  502    0  0.11514563348E+02  0.42890703047E+02 -0.80504468289E+02  0.92036076575E+02  0.41800000000E+01 0.  1.
         -5    1    3    3    0  502 -0.13335009429E+02 -0.52508274704E+02  0.47358922305E+01  0.54542116425E+02  0.41800000000E+01 0.  1.
        -11    1    1    2    0    0 -0.40391196214E+02 -0.45758308135E+00 -0.28676641781E+02  0.49537944020E+02  0.00000000000E+00 0.  1.
         11    1    1    2    0    0  0.42211642296E+02  0.10075154738E+02 -0.10176844870E+03  0.11063520524E+03  0.00000000000E+00 0. -1.
</event>
<event>
 7    1  0.2989693E-009  0.1533607E+03  0.7561462E-02  0.1196403E+00
         -2   -1    0    0    0  501 -0.00000000000E+00  0.00000000000E+00  0.26822982200E+02  0.26822982200E+02  0.00000000000E+00 0.  1.
          2   -1    0    0  501    0  0.00000000000E+00 -0.00000000000E+00 -0.10015733536E+04  0.10015733536E+04  0.00000000000E+00 0. -1.
         25    2    1    2    0    0 -0.11210810169E+03 -0.33091743336E+02 -0.63616028175E+03  0.65879490417E+03  0.12509009448E+03 0.  0.
          5    1    3    3  502    0 -0.94505769083E+02  0.25958862654E+02 -0.49635895091E+03  0.50595936940E+03  0.41800000000E+01 0.  1.
         -5    1    3    3    0  502 -0.17602332605E+02 -0.59050605990E+02 -0.13980133084E+03  0.15283553477E+03  0.41800000000E+01 0.  1.
        -11    1    1    2    0    0  0.68007339199E+02 -0.26279335235E+02 -0.19280350534E+03  0.20612809929E+03  0.00000000000E+00 0. -1.
         11    1    1    2    0    0  0.44100762488E+02  0.59371078570E+02 -0.14578658428E+03  0.16347333232E+03  0.00000000000E+00 0.  1.
</event>
<event>
 7    1  0.2989693E-009  0.1124021E+03  0.7561462E-02  0.1256185E+00
         -1   -1    0    0    0  501 -0.00000000000E+00  0.00000000000E+00  0.30416275268E+03  0.30416275268E+03  0.00000000000E+00 0.  1.
          1   -1    0    0  501    0  0.00000000000E+00 -0.00000000000E+00 -0.74056283114E+02  0.74056283114E+02  0.00000000000E+00 0. -1.
         25    2    1    2    0    0  0.95277398190E+02 -0.29726960170E+02  0.15842083901E+03  0.22517470551E+03  0.12508001839E+03 0.  0.
          5    1    3    3  502    0  0.24705633363E+02 -0.17356656687E+02  0.14982273172E+03  0.15289193959E+03  0.41800000000E+01 0.  1.
         -5    1    3    3    0  502  0.70571764827E+02 -0.12370303483E+02  0.85981072822E+01  0.72282765912E+02  0.41800000000E+01 0.  1.
        -11    1    1    2    0    0 -0.71089371002E+02  0.53243883674E+02  0.78605378622E+02  0.11860613545E+03  0.00000000000E+00 0.  1.
         11    1    1    2    0    0 -0.24188027188E+02 -0.23516923504E+02 -0.69197480643E+01  0.34438194837E+02  0.00000000000E+00 0. -1.
</event>
<event>
 7    1  0.2989693E-009  0.1872730E+03  0.7561462E-02  0.1160944E+00
         -2   -1    0    0    0  501 -0.00000000000E+00  0.00000000000E+00  0.34998121452E+03  0.34998121452E+03  0.00000000000E+00 0. -1.
          2   -1    0    0  501    0  0.00000000000E+00 -0.00000000000E+00 -0.23234107208E+03  0.23234107208E+03  0.00000000000E+00 0.  1.
         25    2    1    2    0    0  0.14147584485E+03  0.10934828180E+03  0.25811976342E+03  0.33800256254E+03  0.12508980215E+03 0.  0.
          5    1    3    3  502    0  0.91505212527E+02  0.11297904281E+03  0.24679588119E+03  0.28646666020E+03  0.41800000000E+01 0. -1.
         -5    1    3    3    0  502  0.49970632326E+02 -0.36307610124E+01  0.11323882234E+02  0.51535902335E+02  0.41800000000E+01 0. -1.
        -11    1    1    2    0    0 -0.70113651261E+02 -0.55588358306E+02 -0.12487379052E+03  0.15362113537E+03  0.00000000000E+00 0. -1.
         11    1    1    2    0    0 -0.71362193592E+02 -0.53759923495E+02 -0.15605830467E+02  0.90698588705E+02  0.00000000000E+00 0.  1.
</event>
<event>
 7    1  0.2989693E-009  0.7801416E+02  0.7561462E-02  0.1334783E+00
         -2   -1    0    0    0  501 -0.00000000000E+00  0.00000000000E+00  0.66866073209E+02  0.66866073209E+02  0.00000000000E+00 0.  1.
          2   -1    0    0  501    0  0.00000000000E+00 -0.00000000000E+00 -0.21864918291E+03  0.21864918291E+03  0.00000000000E+00 0. -1.
         25    2    1    2    0    0  0.49107374851E+02 -0.17466528222E+02 -0.10655641889E+03  0.17239060401E+03  0.12509051151E+03 0.  0.
          5    1    3    3  502    0 -0.32166100883E+01  0.17587411556E+02  0.22311307658E+02  0.28895163525E+02  0.41800000000E+01 0. -1.
         -5    1    3    3    0  502  0.52323984939E+02 -0.35053939779E+02 -0.12886772655E+03  0.14349544048E+03  0.41800000000E+01 0. -1.
        -11    1    1    2    0    0 -0.30387592008E+02 -0.17368807410E+02  0.17376194264E+02  0.39077018131E+02  0.00000000000E+00 0.  1.
         11    1    1    2    0    0 -0.18719782843E+02  0.34835335633E+02 -0.62602885073E+02  0.74047633978E+02  0.00000000000E+00 0. -1.
</event>
<event>
 7    1  0.2989693E-009  0.1591122E+03  0.7561462E-02  0.1189703E+00
          1   -1    0    0  501    0  0.00000000000E+00  0.00000000000E+00  0.81519780741E+03  0.81519780741E+03  0.00000000000E+00 0. -1.
         -1   -1    0    0    0  501 -0.00000000000E+00 -0.00000000000E+00 -0.61488581250E+02  0.61488581250E+02  0.00000000000E+00 0.  1.
         25    2    1    2    0    0  0.24921459666E+02 -0.13738904889E+03  0.12361902033E+03  0.22456084741E+03  0.12509629130E+03 0.  0.
          5    1    3    3  502    0  0.53800547929E+02 -0.67833371896E+02  0.12131192909E+03  0.14909702157E+03  0.41800000000E+01 0.  1.
         -5    1    3    3    0  502 -0.28879088263E+02 -0.69555676993E+02  0.23070912312E+01  0.75463825842E+02  0.41800000000E+01 0.  1.
        -11    1    1    2    0    0 -0.38367004602E+02  0.32249356210E+02  0.10379365640E+03  0.11526131669E+03  0.00000000000E+00 0.  1.
         11    1    1    2    0    0  0.13445544936E+02  0.10513969268E+03  0.52629654944E+03  0.53686422456E+03  0.00000000000E+00 0. -1.
</event>
<event>
 7    1  0.2989693E-009  0.2149830E+03  0.7561462E-02  0.1137680E+00
         -2   -1    0    0    0  501 -0.00000000000E+00  0.00000000000E+00  0.23789199596E+02  0.23789199596E+02  0.00000000000E+00 0. -1.
          2   -1    0    0  501    0  0.00000000000E+00 -0.00000000000E+00 -0.22975899667E+04  0.22975899667E+04  0.00000000000E+00 0.  1.
         25    2    1    2    0    0 -0.16260839416E+03  0.11208624872E+03 -0.15461628548E+04  0.15637368131E+04  0.12509368549E+03 0.  0.
          5    1    3    3  502    0 -0.80703297559E+02  0.12403868472E+03 -0.11030510029E+04  0.11129409710E+04  0.41800000000E+01 0.  1.
         -5    1    3    3    0  502 -0.81905096600E+02 -0.11952436002E+02 -0.44311185183E+03  0.45079584205E+03  0.41800000000E+01 0.  1.
        -11    1    1    2    0    0  0.21994439691E+02 -0.26484680930E+02 -0.52921732151E+02  0.63134011715E+02  0.00000000000E+00 0. -1.
         11    1    1    2    0    0  0.14061395447E+03 -0.85601567788E+02 -0.67471618022E+03  0.69450834152E+03  0.00000000000E+00 0.  1.
</event>
<event>
 7    1  0.2989693E-009  0.1368221E+03  0.7561462E-02  0.1217670E+00
         -1   -1    0    0    0  501 -0.00000000000E+00  0.00000000000E+00  0.26954072379E+02  0.26954072379E+02  0.00000000000E+00 0.  1.
          1   -1    0    0  501    0  0.00000000000E+00 -0.00000000000E+00 -0.71235835266E+03  0.71235835266E+03  0.00000000000E+00 0. -1.
         25    2    1    2    0    0  0.44046124723E+02  0.71153882848E+02 -0.31803753007E+03  0.35184988445E+03  0.12509010555E+03 0.  0.
          5    1    3    3  502    0 -0.38515850068E+02 -0.37793390628E+01 -0.82216942129E+02  0.90966213966E+02  0.41800000000E+01 0.  1.
         -5    1    3    3    0  502  0.82561974791E+02  0.74933221911E+02 -0.23582058794E+03  0.26088367048E+03  0.41800000000E+01 0.  1.
        -11    1    1    2    0    0  0.41855831023E+01  0.19775830976E+02 -0.57852691730E+02  0.61282432532E+02  0.00000000000E+00 0.  1.
         11    1    1    2    0    0 -0.48231707825E+02 -0.90929713824E+02 -0.30951405848E+03  0.32618010806E+03  0.00000000000E+00 0. -1.
</event>
<event>
 7    1  0.2989693E-009  0.1428539E+03  0.7561462E-02  0.1209540E+00
         -2   -1    0    0    0  501 -0.00000000000E+00  0.00000000000E+00  0.81239111509E+03  0.81239111509E+03  0.00000000000E+00 0.  1.
          2   -1    0    0  501    0  0.00000000000E+00 -0.00000000000E+00 -0.25936132170E+02  0.25936132170E+02  0.00000000000E+00 0. -1.
         25    2    1    2    0    0  0.90815977434E+02 -0.31438298281E+02  0.42937933919E+03  0.45743429706E+03  0.12507442122E+03 0.  0.
          5    1    3    3  502    0  0.94223482803E+02 -0.68703055974E+02  0.27911143847E+03  0.30252081267E+03  0.41800000000E+01 0.  1.
         -5    1    3    3    0  502 -0.34075053687E+01  0.37264757693E+02  0.15026790072E+03  0.15491348439E+03  0.41800000000E+01 0.  1.
        -11    1    1    2    0    0 -0.10406693431E+03  0.79117958607E+01  0.30260010122E+03  0.32009271249E+03  0.00000000000E+00 0.  1.
         11    1    1    2    0    0  0.13250956878E+02  0.23526502421E+02  0.54475542501E+02  0.60800237706E+02  0.00000000000E+00 0. -1.
</event>
<event>
 7    1  0.2989693E-009  0.1649333E+03  0.7561462E-02  0.1183237E+00
         -2   -1    0    0    0  501 -0.00000000000E+00  0.00000000000E+00  0.75656915402E+02  0.75656915402E+02  0.00000000000E+00 0.  1.
          2   -1    0    0  501    0  0.00000000000E+00 -0.00000000000E+00 -0.49376639884E+03  0.49376639884E+03  0.00000000000E+00 0. -1.
         25    2    1    2    0    0  0.93239505722E+02 -0.12275927445E+03 -0.28758017587E+03  0.34944578605E+03  0.12508619005E+03 0.  0.
          5    1    3    3  502    0  0.34648108727E+02 -0.21196046779E+02 -0.22024556112E+01  0.40891161002E+02  0.41800000000E+01 0.  1.
         -5    1    3    3    0  502  0.58591396995E+02 -0.10156322767E+03 -0.28537772026E+03  0.30855462504E+03  0.41800000000E+01 0.  1.
        -11    1    1    2    0    0 -0.38182095496E+02  0.10822763808E+03 -0.60553703262E+02  0.12976072225E+03  0.00000000000E+00 0.  1.
         11    1    1    2    0    0 -0.55057410226E+02  0.14531636365E+02 -0.69975604302E+02  0.90216805938E+02  0.00000000000E+00 0. -1.
</event>
<event>
 7    1  0.2989693E-009  0.1713852E+03  0.7561462E-02  0.1176411E+00
         -2   -1    0    0    0  501 -0.00000000000E+00  0.00000000000E+00  0.39522148238E+02  0.39522148238E+02  0.00000000000E+00 0.  1.
          2   -1    0    0  501    0  0.00000000000E+00 -0.00000000000E+00 -0.10179542826E+04  0.10179542826E+04  0.00000000000E+00 0. -1.
         25    2    1    2    0    0  0.78973839634E+01  0.13977808052E+03 -0.79113332602E+03  0.81310933577E+03  0.12511823173E+03 0.  0.
          5    1    3    3  502    0 -0.53692058152E+02  0.31281847445E+02 -0.23229403019E+03  0.24049819116E+03  0.41800000000E+01 0. -1.
         -5    1    3    3    0  502  0.61589442115E+02  0.10849623307E+03 -0.55883929582E+03  0.57261114461E+03  0.41800000000E+01 0. -1.
        -11    1    1    2    0    0 -0.38077696728E+02 -0.84440054147E+02 -0.95797074530E+02  0.13325581871E+03  0.00000000000E+00 0.  1.
         11    1    1    2    0    0  0.30180312765E+02 -0.55338026371E+02 -0.91501733778E+02  0.11111127632E+03  0.00000000000E+00 0. -1.
</event>
<event>
 7    1  0.2989693E-009  0.1046191E+03  0.7561462E-02  0.1270872E+00
          1   -1    0    0  501    0  0.00000000000E+00  0.00000000000E+00  0.14762557629E+04  0.14762557629E+04  0.00000000000E+00 0. -1.
         -1   -1    0    0    0  501 -0.00000000000E+00 -0.00000000000E+00 -0.98791420213E+01  0.98791420213E+01  0.00000000000E+00 0.  1.
         25    2    1    2    0    0  0.39641307765E+02  0.48734298064E+01  0.10525105738E+04  0.10606701860E+04  0.12509017561E+03 0.  0.
          5    1    3    3  502    0 -0.18694993857E+02  0.38587413424E+02  0.16284864413E+03  0.16845071851E+03  0.41800000000E+01 0. -1.
         -5    1    3    3    0  502  0.58336301622E+02 -0.33713983617E+02  0.88966192962E+03  0.89221946751E+03  0.41800000000E+01 0. -1.
        -11    1    1    2    0    0 -0.67091881233E+02 -0.16093273962E+02  0.29301546268E+03  0.30102886135E+03  0.00000000000E+00 0. -1.
         11    1    1    2    0    0  0.27450573467E+02  0.11219844156E+02  0.12085058448E+03  0.12443585760E+03  0.00000000000E+00 0.  1.
</event>
<event>
 7    1  0.2989693E-009  0.8260342E+02  0.7561462E-02  0.1321822E+00
          1   -1    0    0  501    0  0.00000000000E+00  0.00000000000E+00  0.44960809227E+03  0.44960809227E+03  0.00000000000E+00 0. -1.
         -1   -1    0    0    0  501 -0.00000000000E+00 -0.00000000000E+00 -0.30233262160E+02  0.30233262160E+02  0.00000000000E+00 0.  1.
         25    2    1    2    0    0 -0.54930070323E+02  0.25138093615E+02  0.20211675810E+03  0.24525119687E+03  0.12509088411E+03 0.  0.
          5    1    3    3  502    0 -0.26231419503E+02  0.42996385112E+02  0.20493604042E+03  0.21107588580E+03  0.41800000000E+01 0.  1.
         -5    1    3    3    0  502 -0.28698650820E+02 -0.17858291497E+02 -0.28192823234E+01  0.34175311073E+02  0.41800000000E+01 0.  1.
        -11    1    1    2    0    0  0.22094840422E+02  0.16503837528E+02  0.33810623908E+02  0.43631604549E+02  0.00000000000E+00 0.  1.
         11    1    1    2    0    0  0.32835229901E+02 -0.41641931143E+02  0.18344744810E+03  0.19095855301E+03  0.00000000000E+00 0. -1.
</event>
<event>
 7    1  0.2989693E-009  0.1179137E+03  0.7561462E-02  0.1246579E+00
         -2   -1    0    0    0  501 -0.00000000000E+00  0.00000000000E+00  0.18603614658E+02  0.18603614658E+02  0.00000000000E+00 0.  1.
          2   -1    0    0  501    0  0.00000000000E+00 -0.00000000000E+00 -0.12145062897E+04  0.12145062897E+04  0.00000000000E+00 0. -1.
         25    2    1    2    0    0  0.57834592030E+02  0.50798510648E+02 -0.92237439628E+03  0.93399661079E+03  0.12509921402E+03 0.  0.
          5    1    3    3  502    0  0.82171183357E+02 -0.33889819893E+00 -0.38890411340E+03  0.39751238980E+03  0.41800000000E+01 0.  1.
         -5    1    3    3    0  502 -0.24336591327E+02  0.51137408847E+02 -0.53347028288E+03  0.53648422100E+03  0.41800000000E+01 0.  1.
        -11    1    1    2    0    0 -0.49491553935E+02 -0.44751586487E+01 -0.49305193681E+02  0.70003164784E+02  0.00000000000E+00 0.  1.
         11    1    1    2    0    0 -0.83430380946E+01 -0.46323351999E+02 -0.22422308509E+03  0.22911012879E+03  0.00000000000E+00 0. -1.
</event>
<event>
 7    1  0.2989693E-009  0.9016878E+02  0.7561462E-02  0.1302443E+00
          2   -1    0    0  501    0  0.00000000000E+00  0.00000000000E+00  0.33615861349E+03  0.33615861349E+03  0.00000000000E+00 0.  1.
         -2   -1    0    0    0  501 -0.00000000000E+00 -0.00000000000E+00 -0.51598880741E+02  0.51598880741E+02  0.00000000000E+00 0. -1.
         25    2    1    2    0    0 -0.36636627060E+01 -0.50264140909E+02  0.23780012494E+03  0.27337909953E+03  0.12508927353E+03 0.  0.
          5    1    3    3  502    0 -0.15189029927E+02  0.22605256756E+02  0.17274621073E+03  0.17492978587E+03  0.41800000000E+01 0. -1.
         -5    1    3    3    0  502  0.11525367221E+02 -0.72869397666E+02  0.65053914204E+02  0.98449313654E+02  0.41800000000E+01 0. -1.
        -11    1    1    2    0    0 -0.27305212870E+02  0.34922927280E+02 -0.12251068055E+02  0.45992109847E+02  0.00000000000E+00 0. -1.
         11    1    1    2    0    0  0.30968875576E+02  0.15341213629E+02  0.59010675864E+02  0.68386284853E+02  0.00000000000E+00 0.  1.
</event>
<event>
 7    1  0.3461579E-009  0.1061970E+03  0.7561462E-02  0.1267779E+00
         -2   -1    0    0    0  501 -0.00000000000E+00  0.00000000000E+00  0.71181811261E+02  0.71181811261E+02  0.00000000000E+00 0.  1.
          2   -1    0    0  501    0  0.00000000000E+00 -0.00000000000E+00 -0.21810792479E+03  0.21810792479E+03  0.00000000000E+00 0. -1.
         25    2    1    2    0    0  0.29431285676E+02 -0.38284457463E+02 -0.12533184460E+03  0.18354073014E+03  0.12508888076E+03 0.  0.
          5    1    3    3  502    0  0.19377164504E+02  0.34781170470E+02 -0.96081442755E+02  0.10408804141E+03  0.41800000000E+01 0.  1.
         -5    1    3    3    0  502  0.10054121172E+02 -0.73065627933E+02 -0.29250401850E+02  0.79452688728E+02  0.41800000000E+01 0.  1.
        -11    1    1    2    0    0 -0.10132900560E+02  0.64858814142E+02 -0.29498587210E+02  0.71968799442E+02  0.00000000000E+00 0. -1.
         11    1    1    2    0    0 -0.19298385116E+02 -0.26574356680E+02  0.79043182897E+01  0.33780206463E+02  0.00000000000E+00 0.  1.
</event>
<event>
 7    1  0.2989693E-009  0.1772458E+03  0.7561462E-02  0.1170495E+00
          3   -1    0    0  501    0  0.00000000000E+00  0.00000000000E+00  0.69493270016E+02  0.69493270016E+02  0.00000000000E+00 0. -1.
         -3   -1    0    0    0  501 -0.00000000000E+00 -0.00000000000E+00 -0.57162499075E+03  0.57162499075E+03  0.00000000000E+00 0.  1.
         25    2    1    2    0    0  0.81024544956E+02  0.14213540224E+03 -0.30913630688E+03  0.37145629154E+03  0.12508825219E+03 0.  0.
          5    1    3    3  502    0  0.22380814390E+02  0.89797867557E+02 -0.60467831163E+02  0.11062725196E+03  0.41800000000E+01 0. -1.
         -5    1    3    3    0  502  0.58643730567E+02  0.52337534680E+02 -0.24866847572E+03  0.26082903958E+03  0.41800000000E+01 0. -1.
        -11    1    1    2    0    0 -0.61156977918E+02 -0.27955283896E+02 -0.41870714289E+02  0.79213828091E+02  0.00000000000E+00 0.  1.
         11    1    1    2    0    0 -0.19867567038E+02 -0.11418011834E+03 -0.15112469957E+03  0.19044814114E+03  0.00000000000E+00 0. -1.
</event>
<event>
 7    1  0.2989693E-009  0.1375733E+03  0.7561462E-02  0.1216632E+00
          2   -1    0    0  501    0  0.00000000000E+00  0.00000000000E+00  0.89296317454E+03  0.89296317454E+03  0.00000000000E+00 0. -1.
         -2   -1    0    0    0  501 -0.00000000000E+00 -0.00000000000E+00 -0.25431475361E+02  0.25431475361E+02  0.00000000000E+00 0.  1.
         25    2    1    2    0    0 -0.79443663252E+02 -0.56893150411E+02  0.34760520673E+03  0.38213101578E+03  0.12508639926E+03 0.  0.
          5    1    3    3  502    0 -0.10874381794E+03 -0.65447437256E+02  0.26205302694E+03  0.29120069765E+03  0.41800000000E+01 0. -1.
         -5    1    3    3    0  502  0.29300154686E+02  0.85542868451E+01  0.85552179789E+02  0.90930318127E+02  0.41800000000E+01 0. -1.
        -11    1    1    2    0    0 -0.11161475215E+02  0.17889632668E+01  0.90035588068E+01  0.14451400961E+02  0.00000000000E+00 0.  1.
         11    1    1    2    0    0  0.90605138467E+02  0.55104187144E+02  0.51092293364E+03  0.52181223316E+03  0.00000000000E+00 0. -1.
</event>
<event>
 7    1  0.2989693E-009  0.8540834E+02  0.7561462E-02  0.1314368E+00
         -3   -1    0    0    0  501 -0.00000000000E+00  0.00000000000E+00  0.93187463049E+02  0.93187463049E+02  0.00000000000E+00 0.  1.
          3   -1    0    0  501    0  0.00000000000E+00 -0.00000000000E+00 -0.15427913057E+03  0.15427913057E+03  0.00000000000E+00 0. -1.
         25    2    1    2    0    0  0.20626529972E+01  0.46163091287E+02 -0.57145905281E+02  0.14507257036E+03  0.12508041672E+03 0.  0.
          5    1    3    3  502    0  0.20897131810E+02 -0.39984941520E+01 -0.82748378340E+02  0.85542063286E+02  0.41800000000E+01 0. -1.
         -5    1    3    3    0  502 -0.18834478813E+02  0.50161585439E+02  0.25602473059E+02  0.59530507075E+02  0.41800000000E+01 0. -1.
        -11    1    1    2    0    0  0.86550444988E+01  0.23429437663E+02  0.15436484523E+02  0.29362108216E+02  0.00000000000E+00 0.  1.
         11    1    1    2    0    0 -0.10717697496E+02 -0.69592528950E+02 -0.19382246765E+02  0.73031915043E+02  0.00000000000E+00 0. -1.
</event>
<event>
 7    1  0.2989693E-009  0.1144240E+03  0.7561462E-02  0.1252590E+00
          1   -1    0    0  501    0  0.00000000000E+00  0.00000000000E+00  0.57749118121E+03  0.57749118121E+03  0.00000000000E+00 0. -1.
         -1   -1    0    0    0  501 -0.00000000000E+00 -0.00000000000E+00 -0.37186129915E+02  0.37186129915E+02  0.00000000000E+00 0.  1.
         25    2    1    2    0    0  0.35954279208E+02 -0.28911612748E+02  0.47225577021E+03  0.49071072410E+03  0.12507162232E+03 0.  0.
          5    1    3    3  502    0  0.42972474762E+02  0.41280164606E+02  0.16637262966E+03  0.17677106629E+03  0.41800000000E+01 0. -1.
         -5    1    3    3    0  502 -0.70181955539E+01 -0.70191777354E+02  0.30588314055E+03  0.31393965781E+03  0.41800000000E+01 0. -1.
        -11    1    1    2    0    0 -0.14374389112E+01 -0.30072625273E+02  0.40068339962E+02  0.50118867592E+02  0.00000000000E+00 0. -1.
         11    1    1    2    0    0 -0.34516840297E+02  0.58984238021E+02  0.27980941130E+02  0.73847719433E+02  0.00000000000E+00 0.  1.
</event>
<event>
 7    1  0.2989693E-009  0.1616979E+03  0.7561462E-02  0.1186793E+00
         -2   -1    0    0    0  501 -0.00000000000E+00  0.00000000000E+00  0.25608658562E+03  0.25608658562E+03  0.00000000000E+00 0.  1.
          2   -1    0    0  501    0  0.00000000000E+00 -0.00000000000E+00 -0.11311903574E+03  0.11311903574E+03  0.00000000000E+00 0. -1.
         25    2    1    2    0    0 -0.15944614030E+02 -0.12603083324E+03  0.11096815755E+03  0.20999782097E+03  0.12508857333E+03 0.  0.
          5    1    3    3  502    0 -0.43332037608E+02 -0.13909202817E+03  0.79223013368E+02  0.16588555100E+03  0.41800000000E+01 0. -1.
         -5    1    3    3    0  502  0.27387423578E+02  0.13061194922E+02  0.31745144180E+02  0.44112269971E+02  0.41800000000E+01 0. -1.
        -11    1    1    2    0    0  0.42447988292E+02  0.10477539817E+03  0.46540672382E+02  0.12225281165E+03  0.00000000000E+00 0.  1.
         11    1    1    2    0    0 -0.26503374261E+02  0.21255435078E+02 -0.14541280044E+02  0.36954988742E+02  0.00000000000E+00 0. -1.
</event>
<event>
 7    1  0.2989693E-009  0.1054338E+03  0.7561462E-02  0.1269267E+00
          1   -1    0    0  501    0  0.00000000000E+00  0.00000000000E+00  0.76685063971E+02  0.76685063971E+02  0.00000000000E+00 0.  1.
         -1   -1    0    0    0  501 -0.00000000000E+00 -0.00000000000E+00 -0.19249015945E+03  0.19249015945E+03  0.00000000000E+00 0. -1.
         25    2    1    2    0    0  0.52067317391E+02 -0.86204628604E+01 -0.43207730884E+02  0.14247696819E+03  0.12508980988E+03 0.  0.
          5    1    3    3  502    0  0.42832532187E+02  0.39906164222E+02 -0.65649913439E+02  0.88059702992E+02  0.41800000000E+01 0. -1.
         -5    1    3    3    0  502  0.92347852040E+01 -0.48526627082E+02  0.22442182555E+02  0.54417265198E+02  0.41800000000E+01 0. -1.
        -11    1    1    2    0    0 -0.53785588042E+02 -0.31576259824E+02 -0.53457952843E+02  0.82144399612E+02  0.00000000000E+00 0.  1.
         11    1    1    2    0    0  0.17182706503E+01  0.40196722684E+02 -0.19139411756E+02  0.44553855624E+02  0.00000000000E+00 0. -1.
</event>
<event>
 7    1  0.2989693E-009  0.1250969E+03  0.7561462E-02  0.1234918E+00
         -2   -1    0    0    0  501 -0.00000000000E+00  0.00000000000E+00  0.21003790723E+02  0.21003790723E+02  0.00000000000E+00 0.  1.
          2   -1    0    0  501    0  0.00000000000E+00 -0.00000000000E+00 -0.10110101864E+04  0.10110101864E+04  0.00000000000E+00 0. -1.
         25    2    1    2    0    0  0.62501238441E+01  0.78043219231E+02 -0.73551300505E+03  0.75017087069E+03  0.12508855469E+03 0.  0.
          5    1    3    3  502    0 -0.11799002737E+02  0.99818338813E+02 -0.36662629577E+03  0.38017789307E+03  0.41800000000E+01 0.  1.
         -5    1    3    3    0  502  0.18049126581E+02 -0.21775119582E+02 -0.36888670928E+03  0.36999297762E+03  0.41800000000E+01 0.  1.
        -11    1    1    2    0    0 -0.31563547422E+02 -0.88238544226E+02 -0.19193046138E+03  0.21358745333E+03  0.00000000000E+00 0.  1.
         11    1    1    2    0    0  0.25313423578E+02  0.10195324995E+02 -0.62562929210E+02  0.68255653072E+02  0.00000000000E+00 0. -1.
</event>
<event>
 7    1  0.2989693E-009  0.1129172E+03  0.7561462E-02  0.1255261E+00
         -1   -1    0    0    0  501 -0.00000000000E+00  0.00000000000E+00  0.61264516518E+02  0.61264516518E+02  0.00000000000E+00 0.  1.
          1   -1    0    0  501    0  0.00000000000E+00 -0.00000000000E+00 -0.23260798058E+03  0.23260798058E+03  0.00000000000E+00 0. -1.
         25    2    1    2    0    0  0.35945122991E+02 -0.66446279139E+01 -0.56935392031E+02  0.14220700871E+03  0.12507994049E+03 0.  0.
          5    1    3    3  502    0  0.81387290698E+02  0.82144274287E+01 -0.30397303115E+02  0.87366105223E+02  0.41800000000E+01 0.  1.
         -5    1    3    3    0  502 -0.45442167707E+02 -0.14859055343E+02 -0.26538088916E+02  0.54840903483E+02  0.41800000000E+01 0.  1.
        -11    1    1    2    0    0 -0.43288401680E+02 -0.33742317275E+02 -0.44769801907E+02  0.70829124362E+02  0.00000000000E+00 0.  1.
         11    1    1    2    0    0  0.73432786895E+01  0.40386945189E+02 -0.69638270124E+02  0.80836364029E+02  0.00000000000E+00 0. -1.
</event>
<event>
 7    1  0.2989693E-009  0.1206714E+03  0.7561462E-02  0.1241994E+00
          1   -1    0    0  501    0  0.00000000000E+00  0.00000000000E+00  0.26684148741E+03  0.26684148741E+03  0.00000000000E+00 0. -1.
         -1   -1    0    0    0  501 -0.00000000000E+00 -0.00000000000E+00 -0.84461656249E+02  0.84461656249E+02  0.00000000000E+00 0.  1.
         25    2    1    2    0    0  0.86179297725E+02  0.12739727860E+02  0.16383178634E+03  0.22377810477E+03  0.12508642588E+03 0.  0.
          5    1    3    3  502    0  0.27614552479E+02 -0.32088387937E+02 -0.16336639673E+01  0.42571932150E+02  0.41800000000E+01 0. -1.
         -5    1    3    3    0  502  0.58564745246E+02  0.44828115797E+02  0.16546545031E+03  0.18120617262E+03  0.41800000000E+01 0. -1.
        -11    1    1    2    0    0 -0.10414936941E+03 -0.19066581244E+02  0.22056922289E+02  0.10815328700E+03  0.00000000000E+00 0. -1.
         11    1    1    2    0    0  0.17970071685E+02  0.63268533835E+01 -0.35088774629E+01  0.19371751886E+02  0.00000000000E+00 0.  1.
</event>
<event>
 7    1  0.2989693E-009  0.9874589E+02  0.7561462E-02  0.1282955E+00
          2   -1    0    0  501    0  0.00000000000E+00  0.00000000000E+00  0.10048964265E+03  0.10048964265E+03  0.00000000000E+00 0. -1.
         -2   -1    0    0    0  501 -0.00000000000E+00 -0.00000000000E+00 -0.15734408950E+03  0.15734408950E+03  0.00000000000E+00 0.  1.
         25    2    1    2    0    0  0.64895759903E+02  0.10309339253E+02 -0.33755958164E+02  0.14527002912E+03  0.12508466940E+03 0.  0.
          5    1    3    3  502    0  0.73537691253E+02  0.39057416921E+02  0.18000486429E+02  0.85292225690E+02  0.41800000000E+01 0. -1.
         -5    1    3    3    0  502 -0.86419313499E+01 -0.28748077668E+02 -0.51756444593E+02  0.59977803427E+02  0.41800000000E+01 0. -1.
        -11    1    1    2    0    0 -0.31442443350E+02  0.21147061643E+02 -0.47340422368E+02  0.60637785662E+02  0.00000000000E+00 0.  1.
         11    1    1    2    0    0 -0.33453316553E+02 -0.31456400896E+02  0.24241933688E+02  0.51925917370E+02  0.00000000000E+00 0. -1.
</event>
<event>
 7    1  0.2989693E-009  0.8471486E+02  0.7561462E-02  0.1316180E+00
         -2   -1    0    0    0  501 -0.00000000000E+00  0.00000000000E+00  0.25074580692E+03  0.25074580692E+03  0.00000000000E+00 0.  1.
          2   -1    0    0  501    0  0.00000000000E+00 -0.00000000000E+00 -0.54114073943E+02  0.54114073943E+02  0.00000000000E+00 0. -1.
         25    2    1    2    0    0 -0.94292304050E+01 -0.33320718819E+02  0.88941260068E+02  0.15734373307E+03  0.12508925576E+03 0.  0.
          5    1    3    3  502    0 -0.94023666357E+01  0.24671724055E+02  0.95184242416E+02  0.98866631734E+02  0.41800000000E+01 0.  1.
         -5    1    3    3    0  502 -0.26863769222E-01 -0.57992442874E+02 -0.62429823478E+01  0.58477101337E+02  0.41800000000E+01 0.  1.
        -11    1    1    2    0    0 -0.31107573870E+02 -0.14610169504E+01  0.83042834370E+02  0.88690067441E+02  0.00000000000E+00 0.  1.
         11    1    1    2    0    0  0.40536804275E+02  0.34781735769E+02  0.24647638541E+02  0.58826080352E+02  0.00000000000E+00 0. -1.
</event>
<event>
 7    1  0.2989693E-009  0.2667965E+03  0.7561462E-02  0.1103127E+00
         -4   -1    0    0    0  501 -0.00000000000E+00  0.00000000000E+00  0.19659571039E+04  0.19659571039E+04  0.00000000000E+00 0. -1.
          4   -1    0    0  501    0  0.00000000000E+00 -0.00000000000E+00 -0.58969803867E+02  0.58969803867E+02  0.00000000000E+00 0.  1.
         25    2    1    2    0    0 -0.24717863330E+03 -0.86802272910E+02  0.15163413630E+04  0.15438816607E+04  0.12509013495E+03 0.  0.
          5    1    3    3  502    0 -0.11834844001E+03 -0.18208353102E+02  0.38651531023E+03  0.40465967777E+03  0.41800000000E+01 0.  1.
         -5    1    3    3    0  502 -0.12883019329E+03 -0.68593919808E+02  0.11298260527E+04  0.11392219829E+04  0.41800000000E+01 0.  1.
        -11    1    1    2    0    0  0.18597991247E+03  0.38791613882E+02  0.33597791966E+03  0.38597212289E+03  0.00000000000E+00 0. -1.
         11    1    1    2    0    0  0.61198720828E+02  0.48010659028E+02  0.54668017382E+02  0.95073124151E+02  0.00000000000E+00 0.  1.
</event>
<event>
 7    1  0.2989693E-009  0.1744530E+03  0.7561462E-02  0.1173282E+00
          2   -1    0    0  501    0  0.00000000000E+00  0.00000000000E+00  0.33621949658E+03  0.33621949658E+03  0.00000000000E+00 0. -1.
         -2   -1    0    0    0  501 -0.00000000000E+00 -0.00000000000E+00 -0.17062783408E+03  0.17062783408E+03  0.00000000000E+00 0.  1.
         25    2    1    2    0    0  0.20355860436E+02  0.15388993562E+03  0.24165030926E+03  0.31327439403E+03  0.12509796422E+03 0.  0.
          5    1    3    3  502    0 -0.33592360048E+02  0.11743115989E+03  0.10219509244E+03  0.15931049333E+03  0.41800000000E+01 0. -1.
         -5    1    3    3    0  502  0.53948220484E+02  0.36458775728E+02  0.13945521682E+03  0.15396390071E+03  0.41800000000E+01 0. -1.
        -11    1    1    2    0    0 -0.31499054526E+02 -0.69262993349E+02  0.44750852892E+01  0.76220594802E+02  0.00000000000E+00 0. -1.
         11    1    1    2    0    0  0.11143194090E+02 -0.84626942266E+02 -0.80533732057E+02  0.11735234182E+03  0.00000000000E+00 0.  1.
</event>
<event>
 7    1  0.2989693E-009  0.1691374E+03  0.7561462E-02  0.1178750E+00
         -2   -1    0    0    0  501 -0.00000000000E+00  0.00000000000E+00  0.86287290539E+03  0.86287290539E+03  0.00000000000E+00 0. -1.
          2   -1    0    0  501    0  0.00000000000E+00 -0.00000000000E+00 -0.36057164858E+02  0.36057164858E+02  0.00000000000E+00 0.  1.
         25    2    1    2    0    0  0.79836201689E+02 -0.11176342616E+03  0.38302253523E+03  0.42569913398E+03  0.12509439497E+03 0.  0.
          5    1    3    3  502    0  0.54767115713E+01 -0.99003755735E+02  0.14300145939E+03  0.17406501029E+03  0.41800000000E+01 0.  1.
         -5    1    3    3    0  502  0.74359490118E+02 -0.12759670429E+02  0.24002107584E+03  0.25163412370E+03  0.41800000000E+01 0.  1.
        -11    1    1    2    0    0 -0.64383337387E+02  0.15831771222E+02  0.20378386001E+03  0.21429820511E+03  0.00000000000E+00 0.  1.
         11    1    1    2    0    0 -0.15452864302E+02  0.95931654942E+02  0.24000934529E+03  0.25893273115E+03  0.00000000000E+00 0. -1.
</event>
<event>
 7    1  0.2989693E-009  0.8812979E+02  0.7561462E-02  0.1307445E+00
         -1   -1    0    0    0  501 -0.00000000000E+00  0.00000000000E+00  0.23275571930E+03  0.23275571930E+03  0.00000000000E+00 0.  1.
          1   -1    0    0  501    0  0.00000000000E+00 -0.00000000000E+00 -0.56108907023E+02  0.56108907023E+02  0.00000000000E+00 0. -1.
         25    2    1    2    0    0 -0.37583279528E+02 -0.39755068767E+01  0.97069111463E+02  0.16278157517E+03  0.12508845374E+03 0.  0.
          5    1    3    3  502    0 -0.46212098439E+02  0.25547396166E+02 -0.76865962366E+01  0.53523673778E+02  0.41800000000E+01 0.  1.
         -5    1    3    3    0  502  0.86288189106E+01 -0.29522903043E+02  0.10475570770E+03  0.10925790139E+03  0.41800000000E+01 0.  1.
        -11    1    1    2    0    0  0.63293128603E+02  0.13706345813E+02  0.73443024558E+02  0.97917117503E+02  0.00000000000E+00 0. -1.
         11    1    1    2    0    0 -0.25709849074E+02 -0.97308389366E+01  0.61346762558E+01  0.28165933654E+02  0.00000000000E+00 0.  1.
</event>
<event>
 7    1  0.2989693E-009  0.8090789E+02  0.7561462E-02  0.1326495E+00
          1   -1    0    0  501    0  0.00000000000E+00  0.00000000000E+00  0.27392319143E+02  0.27392319143E+02  0.00000000000E+00 0. -1.
         -1   -1    0    0    0  501 -0.00000000000E+00 -0.00000000000E+00 -0.44979045025E+03  0.44979045025E+03  0.00000000000E+00 0.  1.
         25    2    1    2    0    0  0.29162396865E+02 -0.13202495699E+02 -0.35821586215E+03  0.38077812713E+03  0.12509447198E+03 0.  0.
          5    1    3    3  502    0  0.37428449802E+02  0.29570219590E+02 -0.49110845623E+02  0.68590336776E+02  0.41800000000E+01 0. -1.
         -5    1    3    3    0  502 -0.82660529369E+01 -0.42772715289E+02 -0.30910501653E+03  0.31218779035E+03  0.41800000000E+01 0. -1.
        -11    1    1    2    0    0  0.71221392699E+01 -0.19848672332E+02 -0.29685319243E+02  0.36413086104E+02  0.00000000000E+00 0. -1.
         11    1    1    2    0    0 -0.36284536135E+02  0.33051168031E+02 -0.34496949714E+02  0.59991556158E+02  0.00000000000E+00 0.  1.
</event>
<event>
 7    1  0.2989693E-009  0.1270775E+03  0.7561462E-02  0.1231858E+00
          2   -1    0    0  501    0  0.00000000000E+00  0.00000000000E+00  0.44155715235E+02  0.44155715235E+02  0.00000000000E+00 0. -1.
         -2   -1    0    0    0  501 -0.00000000000E+00 -0.00000000000E+00 -0.47734949863E+03  0.47734949863E+03  0.00000000000E+00 0.  1.
         25    2    1    2    0    0  0.93335530203E+02 -0.22257572490E+02 -0.25801570919E+03  0.30236713346E+03  0.12508739535E+03 0.  0.
          5    1    3    3  502    0  0.86560900115E+02  0.38814810288E+02 -0.13866061019E+03  0.16805837124E+03  0.41800000000E+01 0.  1.
         -5    1    3    3    0  502  0.67746300885E+01 -0.61072382778E+02 -0.11935509900E+03  0.13430876222E+03  0.41800000000E+01 0.  1.
        -11    1    1    2    0    0 -0.56973309056E+02  0.22474586384E+02 -0.17206737451E+03  0.18264240019E+03  0.00000000000E+00 0.  1.
         11    1    1    2    0    0 -0.36362221147E+02 -0.21701389412E+00 -0.31106996998E+01  0.36495680216E+02  0.00000000000E+00 0. -1.
</event>
<event>
 7    1  0.3436124E-009  0.1484505E+03  0.7561462E-02  0.1202390E+00
         -3   -1    0    0    0  501 -0.00000000000E+00  0.00000000000E+00  0.18367094041E+03  0.18367094041E+03  0.00000000000E+00 0.  1.
          3   -1    0    0  501    0  0.00000000000E+00 -0.00000000000E+00 -0.14031391726E+03  0.14031391726E+03  0.00000000000E+00 0. -1.
         25    2    1    2    0    0  0.69953966801E+02  0.88387068870E+02 -0.11646412313E+02  0.16878745184E+03  0.12509090120E+03 0.  0.
          5    1    3    3  502    0  0.98734714822E+02  0.96518841094E+02 -0.11129136880E+02  0.13858485013E+03  0.41800000000E+01 0. -1.
         -5    1    3    3    0  502 -0.28780748021E+02 -0.81317722237E+01 -0.51727543244E+00  0.30202601710E+02  0.41800000000E+01 0. -1.
        -11    1    1    2    0    0 -0.60915641398E+01 -0.57148534933E+02  0.61051712487E+02  0.83847324324E+02  0.00000000000E+00 0.  1.
         11    1    1    2    0    0 -0.63862402661E+02 -0.31238533937E+02 -0.60482770167E+01  0.71350081507E+02  0.00000000000E+00 0. -1.
</event>
<event>
 7    1  0.2989693E-009  0.6368884E+02  0.7561462E-02  0.1382973E+00
          2   -1    0    0  501    0  0.00000000000E+00  0.00000000000E+00  0.51432137241E+03  0.51432137241E+03  0.00000000000E+00 0. -1.
         -2   -1    0    0    0  501 -0.00000000000E+00 -0.00000000000E+00 -0.61564999463E+02  0.61564999463E+02  0.00000000000E+00 0.  1.
         25    2    1    2    0    0  0.55759773663E+02 -0.57283160675E+01  0.44564669732E+03  0.46625171577E+03  0.12509083764E+03 0.  0.
          5    1    3    3  502    0  0.53087712998E+02 -0.32040308848E+01  0.45349927801E+03  0.45662636656E+03  0.41800000000E+01 0. -1.
         -5    1    3    3    0  502  0.26720606653E+01 -0.25242851827E+01 -0.78525806882E+01  0.96253492065E+01  0.41800000000E+01 0. -1.
        -11    1    1    2    0    0 -0.32355928125E+01  0.14810121519E+02 -0.37295199249E+02  0.40258423308E+02  0.00000000000E+00 0.  1.
         11    1    1    2    0    0 -0.52524180850E+02 -0.90818054511E+01  0.44404874872E+02  0.69376232794E+02  0.00000000000E+00 0. -1.
</event>
<event>
 7    1  0.2989693E-009  0.2501288E+03  0.7561462E-02  0.1113223E+00
         -2   -1    0    0    0  501 -0.00000000000E+00  0.00000000000E+00  0.66195600371E+02  0.66195600371E+02  0.00000000000E+00 0. -1.
          2   -1    0    0  501    0  0.00000000000E+00 -0.00000000000E+00 -0.10139698637E+04  0.10139698637E+04  0.00000000000E+00 0.  1.
         25    2    1    2    0    0  0.19260787486E+03  0.12864328399E+03 -0.55530432801E+03  0.61453826611E+03  0.12508995094E+03 0.  0.
          5    1    3    3  502    0 -0.13791266655E+02  0.17012948779E+01 -0.76842625769E+02  0.78200735133E+02  0.41800000000E+01 0.  1.
         -5    1    3    3    0  502  0.20639914151E+03  0.12694198911E+03 -0.47846170224E+03  0.53633753098E+03  0.41800000000E+01 0.  1.
        -11    1    1    2    0    0 -0.13687173120E+03 -0.12838726883E+03 -0.24965702390E+03  0.31232321589E+03  0.00000000000E+00 0. -1.
         11    1    1    2    0    0 -0.55736143659E+02 -0.25601515936E+00 -0.14281291142E+03  0.15330398208E+03  0.00000000000E+00 0.  1.
</event>
<event>
 7    1  0.2989693E-009  0.1420883E+03  0.7561462E-02  0.1210546E+00
         -1   -1    0    0    0  501 -0.00000000000E+00  0.00000000000E+00  0.77326410428E+02  0.77326410428E+02  0.00000000000E+00 0.  1.
          1   -1    0    0  501    0  0.00000000000E+00 -0.00000000000E+00 -0.30028091841E+03  0.30028091841E+03  0.00000000000E+00 0. -1.
         25    2    1    2    0    0  0.60387401166E+02  0.81656889924E+02 -0.16078979200E+03  0.22763025259E+03  0.12509072224E+03 0.  0.
          5    1    3    3  502    0  0.89266669164E+02  0.87390097262E+02 -0.15164511081E+03  0.19651788559E+03  0.41800000000E+01 0. -1.
         -5    1    3    3    0  502 -0.28879267998E+02 -0.57332073385E+01 -0.91446811941E+01  0.31112367004E+02  0.41800000000E+01 0. -1.
        -11    1    1    2    0    0 -0.11274261606E+02  0.16327765519E+02  0.62138640360E+01  0.20792234316E+02  0.00000000000E+00 0.  1.
         11    1    1    2    0    0 -0.49113139561E+02 -0.97984655443E+02 -0.68378580014E+02  0.12918484193E+03  0.00000000000E+00 0. -1.
</event>
<event>
 7    1  0.2989693E-009  0.1592995E+03  0.7561462E-02  0.1189490E+00
          1   -1    0    0  501    0  0.00000000000E+00  0.00000000000E+00  0.42854957312E+03  0.42854957312E+03  0.00000000000E+00 0. -1.
         -1   -1    0    0    0  501 -0.00000000000E+00 -0.00000000000E+00 -0.90943228912E+02  0.90943228912E+02  0.00000000000E+00 0.  1.
         25    2    1    2    0    0 -0.50628615531E+02 -0.13777740037E+03  0.80320760474E+02  0.20891311833E+03  0.12508955865E+03 0.  0.
          5    1    3    3  502    0 -0.37091742338E+02 -0.80360476711E+02  0.11121034816E+03  0.14219288837E+03  0.41800000000E+01 0.  1.
         -5    1    3    3    0  502 -0.13536873194E+02 -0.57416923657E+02 -0.30889587682E+02  0.66720229955E+02  0.41800000000E+01 0.  1.
        -11    1    1    2    0    0  0.75816180189E+02  0.10151853679E+03  0.16286204562E+03  0.20634474161E+03  0.00000000000E+00 0.  1.
         11    1    1    2    0    0 -0.25187564658E+02  0.36258863583E+02  0.94423538117E+02  0.10423494209E+03  0.00000000000E+00 0. -1.
</event>
<event>
 7    1  0.2989693E-009  0.9037338E+02  0.7561462E-02  0.1301950E+00
         -2   -1    0    0    0  501 -0.00000000000E+00  0.00000000000E+00  0.19054723707E+02  0.19054723707E+02  0.00000000000E+00 0.  1.
          2   -1    0    0  501    0  0.00000000000E+00 -0.00000000000E+00 -0.76694848119E+03  0.76694848119E+03  0.00000000000E+00 0. -1.
         25    2    1    2    0    0 -0.64457380051E+02  0.13000983527E+02 -0.43781812557E+03  0.46006352237E+03  0.12509977665E+03 0.  0.
          5    1    3    3  502    0 -0.34076121920E+02 -0.18440868423E+02 -0.40060777810E+03  0.40249883477E+03  0.41800000000E+01 0.  1.
         -5    1    3    3    0  502 -0.30381258131E+02  0.31441851951E+02 -0.37210347472E+02  0.57564687602E+02  0.41800000000E+01 0.  1.
        -11    1    1    2    0    0  0.62170647325E+02 -0.37925570763E+02 -0.25926469529E+03  0.26929857135E+03  0.00000000000E+00 0.  1.
         11    1    1    2    0    0  0.22867327261E+01  0.24924587235E+02 -0.50810936618E+02  0.56641111178E+02  0.00000000000E+00 0. -1.
</event>
<event>
 7    1  0.2989693E-009  0.1023019E+03  0.7561462E-02  0.1275528E+00
         -1   -1    0    0    0  501 -0.00000000000E+00  0.00000000000E+00  0.10991903501E+03  0.10991903501E+03  0.00000000000E+00 0.  1.
          1   -1    0    0  501    0  0.00000000000E+00 -0.00000000000E+00 -0.13311792788E+03  0.13311792788E+03  0.00000000000E+00 0. -1.
         25    2    1    2    0    0 -0.23776722512E+02  0.30503593846E+02 -0.55050915862E+02  0.14202306983E+03  0.12507656557E+03 0.  0.
          5    1    3    3  502    0  0.31951504323E+02  0.59350648735E+02 -0.22335434031E+02  0.71131864499E+02  0.41800000000E+01 0. -1.
         -5    1    3    3    0  502 -0.55728226835E+02 -0.28847054889E+02 -0.32715481831E+02  0.70891205331E+02  0.41800000000E+01 0. -1.
        -11    1    1    2    0    0 -0.16031343467E+01  0.18724696440E+02  0.40790604346E+02  0.44911665516E+02  0.00000000000E+00 0.  1.
         11    1    1    2    0    0  0.25379856859E+02 -0.49228290286E+02 -0.89385813601E+01  0.56102227544E+02  0.00000000000E+00 0. -1.
</event>
<event>
 7    1  0.2989693E-009  0.8353230E+02  0.7561462E-02  0.1319316E+00
          4   -1    0    0  501    0  0.00000000000E+00  0.00000000000E+00  0.26918816461E+03  0.26918816461E+03  0.00000000000E+00 0. -1.
         -4   -1    0    0    0  501 -0.00000000000E+00 -0.00000000000E+00 -0.63743746952E+02  0.63743746952E+02  0.00000000000E+00 0.  1.
         25    2    1    2    0    0  0.10444891137E+02 -0.52742056512E+02  0.14641937787E+03  0.19994899428E+03  0.12510054284E+03 0.  0.
          5    1    3    3  502    0  0.12337821515E+02 -0.48616955637E+02 -0.29820676006E+01  0.50420187845E+02  0.41800000000E+01 0.  1.
         -5    1    3    3    0  502 -0.18929303784E+01 -0.41251008744E+01  0.14940144548E+03  0.14952880643E+03  0.41800000000E+01 0.  1.
        -11    1    1    2    0    0 -0.40533109646E+02 -0.93205387327E+01 -0.92130275669E+00  0.41601132420E+02  0.00000000000E+00 0.  1.
         11    1    1    2    0    0  0.30088218510E+02  0.62062595244E+02  0.59946342545E+02  0.91381784870E+02  0.00000000000E+00 0. -1.
</event>
<event>
 7    1  0.2989693E-009  0.1046130E+03  0.7561462E-02  0.1270884E+00
          1   -1    0    0  501    0  0.00000000000E+00  0.00000000000E+00  0.27272734884E+03  0.27272734884E+03  0.00000000000E+00 0.  1.
         -1   -1    0    0    0  501 -0.00000000000E+00 -0.00000000000E+00 -0.56720983977E+02  0.56720983977E+02  0.00000000000E+00 0. -1.
         25    2    1    2    0    0  0.80682228832E+00  0.48215123523E+02  0.16639867213E+03  0.21368103324E+03  0.12508283969E+03 0.  0.
          5    1    3    3  502    0 -0.14309474079E+02  0.79858395390E+02  0.58389780779E+02  0.10004480627E+03  0.41800000000E+01 0. -1.
         -5    1    3    3    0  502  0.15116296367E+02 -0.31643271867E+02  0.10800889135E+03  0.11363622697E+03  0.41800000000E+01 0. -1.
        -11    1    1    2    0    0  0.25609109061E+02  0.10969213695E+02  0.42153801849E+02  0.50528141924E+02  0.00000000000E+00 0.  1.
         11    1    1    2    0    0 -0.26415931349E+02 -0.59184337218E+02  0.74538908850E+01  0.65239157646E+02  0.00000000000E+00 0. -1.
</event>
<event>
 7    1  0.2989693E-009  0.1374399E+03  0.7561462E-02  0.1216816E+00
         -2   -1    0    0    0  501 -0.00000000000E+00  0.00000000000E+00  0.29485371948E+02  0.29485371948E+02  0.00000000000E+00 0.  1.
          2   -1    0    0  501    0  0.00000000000E+00 -0.00000000000E+00 -0.13748074984E+04  0.13748074984E+04  0.00000000000E+00 0. -1.
         25    2    1    2    0    0 -0.10810170364E+03 -0.26133440317E+02 -0.11484486980E+04  0.11605819924E+04  0.12508882514E+03 0.  0.
          5    1    3    3  502    0 -0.10453997497E+03  0.24133923579E+02 -0.57735838406E+03  0.58725737856E+03  0.41800000000E+01 0. -1.
         -5    1    3    3    0  502 -0.35617286712E+01 -0.50267363896E+02 -0.57109031391E+03  0.57332461384E+03  0.41800000000E+01 0. -1.
        -11    1    1    2    0    0  0.87661166070E+02  0.35349660662E+02 -0.77444796367E+02  0.12219564243E+03  0.00000000000E+00 0.  1.
         11    1    1    2    0    0  0.20440537571E+02 -0.92162203449E+01 -0.11942863211E+03  0.12151523551E+03  0.00000000000E+00 0. -1.
</event>
<event>
 7    1  0.2989693E-009  0.1690804E+03  0.7561462E-02  0.1178810E+00
         -1   -1    0    0    0  501 -0.00000000000E+00  0.00000000000E+00  0.17169358668E+03  0.17169358668E+03  0.00000000000E+00 0.  1.
          1   -1    0    0  501    0  0.00000000000E+00 -0.00000000000E+00 -0.31584962668E+03  0.31584962668E+03  0.00000000000E+00 0. -1.
         25    2    1    2    0    0  0.13666726670E+03  0.35533647131E+02  0.82349328150E+02  0.20583857990E+03  0.12509007660E+03 0.  0.
          5    1    3    3  502    0  0.15565490164E+03  0.36523108890E+02  0.49090769691E+02  0.16730141050E+03  0.41800000000E+01 0. -1.
         -5    1    3    3    0  502 -0.18987634936E+02 -0.98946175895E+00  0.33258558459E+02  0.38537169405E+02  0.41800000000E+01 0. -1.
        -11    1    1    2    0    0 -0.14084585745E+03 -0.45448332760E+02 -0.17547803399E+03  0.22955532432E+03  0.00000000000E+00 0.  1.
         11    1    1    2    0    0  0.41785907507E+01  0.99146856287E+01 -0.51027334163E+02  0.52149309138E+02  0.00000000000E+00 0. -1.
</event>
<event>
 7    1  0.2989693E-009  0.1151471E+03  0.7561462E-02  0.1251325E+00
          1   -1    0    0  501    0  0.00000000000E+00  0.00000000000E+00  0.34570916390E+03  0.34570916390E+03  0.00000000000E+00 0. -1.
         -1   -1    0    0    0  501 -0.00000000000E+00 -0.00000000000E+00 -0.45654170070E+02  0.45654170070E+02  0.00000000000E+00 0.  1.
         25    2    1    2    0    0 -0.61242051728E+02  0.43489867955E+01  0.14742307046E+03  0.20285847273E+03  0.12509394737E+03 0.  0.
          5    1    3    3  502    0  0.11090134853E+02 -0.44655766175E+02  0.25399844891E+02  0.52723363551E+02  0.41800000000E+01 0. -1.
         -5    1    3    3    0  502 -0.72332186581E+02  0.49004752970E+02  0.12202322557E+03  0.15013510918E+03  0.41800000000E+01 0. -1.
        -11    1    1    2    0    0  0.17045949162E+02  0.34048400158E+02  0.18880191993E+02  0.42500818649E+02  0.00000000000E+00 0.  1.
         11    1    1    2    0    0  0.44196102566E+02 -0.38397386954E+02  0.13375173137E+03  0.14600404259E+03  0.00000000000E+00 0. -1.
</event>
<event>
 7    1  0.2989693E-009  0.1048227E+03  0.7561462E-02  0.1270469E+00
          1   -1    0    0  501    0  0.00000000000E+00  0.00000000000E+00  0.10882747721E+04  0.10882747721E+04  0.00000000000E+00 0. -1.
         -1   -1    0    0    0  501 -0.00000000000E+00 -0.00000000000E+00 -0.14761558816E+02  0.14761558816E+02  0.00000000000E+00 0.  1.
         25    2    1    2    0    0 -0.43557879866E+02  0.40570194549E+02  0.72894880039E+03  0.74198909964E+03  0.12505295200E+03 0.  0.
          5    1    3    3  502    0  0.27004473966E+00  0.57496543058E+02  0.62714381522E+03  0.62978787123E+03  0.41800000000E+01 0. -1.
         -5    1    3    3    0  502 -0.43827924606E+02 -0.16926348509E+02  0.10180498518E+03  0.11220122841E+03  0.41800000000E+01 0. -1.
        -11    1    1    2    0    0  0.23274242680E+02  0.26200141670E+02  0.15847824556E+03  0.16230678394E+03  0.00000000000E+00 0. -1.
         11    1    1    2    0    0  0.20283637186E+02 -0.66770336219E+02  0.18608616729E+03  0.19874044730E+03  0.00000000000E+00 0.  1.
</event>
<event>
 7    1  0.2989693E-009  0.2603237E+03  0.7561462E-02  0.1106949E+00
          1   -1    0    0  501    0  0.00000000000E+00  0.00000000000E+00  0.53764027553E+03  0.53764027553E+03  0.00000000000E+00 0. -1.
         -1   -1    0    0    0  501 -0.00000000000E+00 -0.00000000000E+00 -0.13815567540E+03  0.13815567540E+03  0.00000000000E+00 0.  1.
         25    2    1    2    0    0  0.26768871564E+02  0.24686486664E+03  0.23129507423E+03  0.36166723785E+03  0.12508774802E+03 0.  0.
          5    1    3    3  502    0 -0.10941503823E+02 -0.80332421938E+01 -0.16300347727E+01  0.14296114837E+02  0.41800000000E+01 0.  1.
         -5    1    3    3    0  502  0.37710375387E+02  0.25489810883E+03  0.23292510900E+03  0.34737112301E+03  0.41800000000E+01 0.  1.
        -11    1    1    2    0    0 -0.69362247293E+01 -0.13135163578E+03  0.14291329550E+03  0.19423072225E+03  0.00000000000E+00 0.  1.
         11    1    1    2    0    0 -0.19832646834E+02 -0.11551323085E+03  0.25276230403E+02  0.11989799083E+03  0.00000000000E+00 0. -1.
</event>
<event>
 7    1  0.2989693E-009  0.1122572E+03  0.7561462E-02  0.1256446E+00
         -1   -1    0    0    0  501 -0.00000000000E+00  0.00000000000E+00  0.11885154475E+03  0.11885154475E+03  0.00000000000E+00 0. -1.
          1   -1    0    0  501    0  0.00000000000E+00 -0.00000000000E+00 -0.14131220988E+03  0.14131220988E+03  0.00000000000E+00 0.  1.
         25    2    1    2    0    0  0.68619523447E+02 -0.82563478880E+01  0.36099928978E+01  0.14295304333E+03  0.12508290959E+03 0.  0.
          5    1    3    3  502    0  0.44227825472E+02  0.41547520091E+02  0.43270312865E+02  0.74646428897E+02  0.41800000000E+01 0. -1.
         -5    1    3    3    0  502  0.24391697975E+02 -0.49803867979E+02 -0.39660319967E+02  0.68306614436E+02  0.41800000000E+01 0. -1.
        -11    1    1    2    0    0  0.10268982035E+02 -0.21448081662E+02 -0.22658140567E+02  0.32846058104E+02  0.00000000000E+00 0.  1.
         11    1    1    2    0    0 -0.78888505482E+02  0.29704429550E+02 -0.34125174601E+01  0.84364653188E+02  0.00000000000E+00 0. -1.
</event>
<event>
 7    1  0.2989693E-009  0.1510861E+03  0.7561462E-02  0.1199145E+00
         -1   -1    0    0    0  501 -0.00000000000E+00  0.00000000000E+00  0.54082290365E+03  0.54082290365E+03  0.00000000000E+00 0.  1.
          1   -1    0    0  501    0  0.00000000000E+00 -0.00000000000E+00 -0.44190860902E+02  0.44190860902E+02  0.00000000000E+00 0. -1.
         25    2    1    2    0    0 -0.97936105166E+02 -0.47731968886E+02  0.24388025434E+03  0.29494811999E+03  0.12508794300E+03 0.  0.
          5    1    3    3  502    0 -0.12484654749E+03 -0.30725050017E+02  0.16109524582E+03  0.20615489260E+03  0.41800000000E+01 0.  1.
         -5    1    3    3    0  502  0.26910442321E+02 -0.17006918869E+02  0.82785008521E+02  0.88793227395E+02  0.41800000000E+01 0.  1.
        -11    1    1    2    0    0 -0.17436646374E+02  0.96563503212E+01  0.48124458820E+02  0.52088821018E+02  0.00000000000E+00 0. -1.
         11    1    1    2    0    0  0.11537275154E+03  0.38075618565E+02  0.20462732959E+03  0.23797682354E+03  0.00000000000E+00 0.  1.
</event>
<event>
 7    1  0.2989693E-009  0.9155158E+02  0.7561462E-02  0.1299137E+00
          4   -1    0    0  501    0  0.00000000000E+00  0.00000000000E+00  0.11174292482E+03  0.11174292482E+03  0.00000000000E+00 0.  1.
         -4   -1    0    0    0  501 -0.00000000000E+00 -0.00000000000E+00 -0.12926022076E+03  0.12926022076E+03  0.00000000000E+00 0. -1.
         25    2    1    2    0    0  0.44193194081E+02 -0.28439874903E+01  0.21182609945E+02  0.13436886418E+03  0.12508062212E+03 0.  0.
          5    1    3    3  502    0 -0.19068642884E+02 -0.47408290009E+02 -0.73367298384E+01  0.51792461882E+02  0.41800000000E+01 0. -1.
         -5    1    3    3    0  502  0.63261836965E+02  0.44564302519E+02  0.28519339784E+02  0.82576402300E+02  0.41800000000E+01 0. -1.
        -11    1    1    2    0    0 -0.38640760823E+02  0.14623429423E+02  0.20427754549E+02  0.46089545897E+02  0.00000000000E+00 0.  1.
         11    1    1    2    0    0 -0.55524332580E+01 -0.11779441933E+02 -0.59127660439E+02  0.60544735496E+02  0.00000000000E+00 0. -1.
</event>
<event>
 7    1  0.2989693E-009  0.1615993E+03  0.7561462E-02  0.1186903E+00
         -2   -1    0    0    0  501 -0.00000000000E+00  0.00000000000E+00  0.15434256314E+03  0.15434256314E+03  0.00000000000E+00 0.  1.
          2   -1    0    0  501    0  0.00000000000E+00 -0.00000000000E+00 -0.19156629413E+03  0.19156629413E+03  0.00000000000E+00 0. -1.
         25    2    1    2    0    0  0.97405767555E+02 -0.89653308852E+02 -0.27010686013E+02  0.18409864883E+03  0.12504853458E+03 0.  0.
          5    1    3    3  502    0  0.80011762730E+02 -0.16955739272E+01 -0.45930287984E+02  0.92367856424E+02  0.41800000000E+01 0.  1.
         -5    1    3    3    0  502  0.17394004825E+02 -0.87957734925E+02  0.18919601971E+02  0.91730792407E+02  0.41800000000E+01 0.  1.
        -11    1    1    2    0    0 -0.11055356135E+03  0.84626180802E+02 -0.24936358076E+02  0.14144080868E+03  0.00000000000E+00 0. -1.
         11    1    1    2    0    0  0.13147793797E+02  0.50271280503E+01  0.14723313097E+02  0.20369399764E+02  0.00000000000E+00 0.  1.
</event>
<event>
 7    1  0.2989693E-009  0.1181795E+03  0.7561462E-02  0.1246131E+00
          4   -1    0    0  501    0  0.00000000000E+00  0.00000000000E+00  0.14549496241E+04  0.14549496241E+04  0.00000000000E+00 0. -1.
         -4   -1    0    0    0  501 -0.00000000000E+00 -0.00000000000E+00 -0.11991532997E+02  0.11991532997E+02  0.00000000000E+00 0.  1.
         25    2    1    2    0    0 -0.73290137633E+02  0.50845813787E+01  0.86592235626E+03  0.87799003559E+03  0.12509068021E+03 0.  0.
          5    1    3    3  502    0 -0.91568909470E+02 -0.13147057341E+02  0.37117918795E+03  0.38255610342E+03  0.41800000000E+01 0.  1.
         -5    1    3    3    0  502  0.18278771838E+02  0.18231638720E+02  0.49474316831E+03  0.49543393217E+03  0.41800000000E+01 0.  1.
        -11    1    1    2    0    0 -0.11630361205E+02  0.24950617997E+02  0.15250911668E+03  0.15497364070E+03  0.00000000000E+00 0. -1.
         11    1    1    2    0    0  0.84920498837E+02 -0.30035199375E+02  0.42452661815E+03  0.43397748080E+03  0.00000000000E+00 0.  1.
</event>
<event>
 7    1  0.5785409E-009  0.9713460E+02  0.7561462E-02  0.1286440E+00
          1   -1    0    0  501    0  0.00000000000E+00  0.00000000000E+00  0.15872174341E+03  0.15872174341E+03  0.00000000000E+00 0. -1.
         -1   -1    0    0    0  501 -0.00000000000E+00 -0.00000000000E+00 -0.95239852024E+02  0.95239852024E+02  0.00000000000E+00 0.  1.
         25    2    1    2    0    0  0.56868730361E+02 -0.11552286135E+01  0.47260041151E+02  0.14531374848E+03  0.12508871637E+03 0.  0.
          5    1    3    3  502    0 -0.22126558692E+02 -0.42054210116E+02  0.97839485473E+01  0.48696398606E+02  0.41800000000E+01 0. -1.
         -5    1    3    3    0  502  0.78995289053E+02  0.40898981503E+02  0.37476092603E+02  0.96617349877E+02  0.41800000000E+01 0. -1.
        -11    1    1    2    0    0 -0.43294269091E+02 -0.27680395066E+01 -0.34856572423E+02  0.55651023530E+02  0.00000000000E+00 0.  1.
         11    1    1    2    0    0 -0.13574461270E+02  0.39232681201E+01  0.51078422660E+02  0.52996823423E+02  0.00000000000E+00 0. -1.
</event>
<event>
 7    1  0.2989693E-009  0.2083980E+03  0.7561462E-02  0.1142841E+00
         -2   -1    0    0    0  501 -0.00000000000E+00  0.00000000000E+00  0.79104786117E+02  0.79104786117E+02  0.00000000000E+00 0. -1.
          2   -1    0    0  501    0  0.00000000000E+00 -0.00000000000E+00 -0.61468215915E+03  0.61468215915E+03  0.00000000000E+00 0.  1.
         25    2    1    2    0    0  0.62153478147E+02 -0.17825563965E+03 -0.32711745952E+03  0.39785766931E+03  0.12508702887E+03 0.  0.
          5    1    3    3  502    0  0.42228652421E+02 -0.19469704030E+03 -0.27581930347E+03  0.34027041768E+03  0.41800000000E+01 0.  1.
         -5    1    3    3    0  502  0.19924825726E+02  0.16441400646E+02 -0.51298156052E+02  0.57587251625E+02  0.41800000000E+01 0.  1.
        -11    1    1    2    0    0 -0.50422875516E+02  0.97600357189E+02 -0.56598755365E+02  0.12357878138E+03  0.00000000000E+00 0. -1.
         11    1    1    2    0    0 -0.11730602631E+02  0.80655282461E+02 -0.15186115815E+03  0.17235049458E+03  0.00000000000E+00 0.  1.
</event>
<event>
 7    1  0.2989693E-009  0.1085470E+03  0.7561462E-02  0.1263285E+00
         -2   -1    0    0    0  501 -0.00000000000E+00  0.00000000000E+00  0.23948062137E+02  0.23948062137E+02  0.00000000000E+00 0.  1.
          2   -1    0    0  501    0  0.00000000000E+00 -0.00000000000E+00 -0.75183063404E+03  0.75183063404E+03  0.00000000000E+00 0. -1.
         25    2    1    2    0    0 -0.72636676968E+02  0.16205207394E+02 -0.46004585900E+03  0.48252259964E+03  0.12508865334E+03 0.  0.
          5    1    3    3  502    0 -0.50526778107E+02  0.42725619180E+02 -0.95142657018E+02  0.11596564761E+03  0.41800000000E+01 0. -1.
         -5    1    3    3    0  502 -0.22109898861E+02 -0.26520411786E+02 -0.36490320198E+03  0.36655695203E+03  0.41800000000E+01 0. -1.
        -11    1    1    2    0    0  0.61165112194E+02  0.30196986977E+02 -0.12185878064E+03  0.13965167880E+03  0.00000000000E+00 0. -1.
         11    1    1    2    0    0  0.11471564774E+02 -0.46402194370E+02 -0.14597793227E+03  0.15360441774E+03  0.00000000000E+00 0.  1.
</event>
<event>
 7    1  0.2989693E-009  0.4210966E+03  0.7561462E-02  0.1036710E+00
         -1   -1    0    0    0  501 -0.00000000000E+00  0.00000000000E+00  0.63996644644E+03  0.63996644644E+03  0.00000000000E+00 0.  1.
          1   -1    0    0  501    0  0.00000000000E+00 -0.00000000000E+00 -0.28577528377E+03  0.28577528377E+03  0.00000000000E+00 0. -1.
         25    2    1    2    0    0 -0.17951011242E+03  0.37224976548E+03  0.18958276257E+03  0.47157561264E+03  0.12509263053E+03 0.  0.
          5    1    3    3  502    0 -0.19468753906E+03  0.33070745532E+03  0.18741466018E+03  0.42709763066E+03  0.41800000000E+01 0. -1.
         -5    1    3    3    0  502  0.15177426636E+02  0.41542310163E+02  0.21681023905E+01  0.44477981979E+02  0.41800000000E+01 0. -1.
        -11    1    1    2    0    0  0.56736570160E+02 -0.14476045489E+03  0.16798272090E+02  0.15638673102E+03  0.00000000000E+00 0.  1.
         11    1    1    2    0    0  0.12277354226E+03 -0.22748931059E+03  0.14781012801E+03  0.29777938655E+03  0.00000000000E+00 0. -1.
</event>
<event>
 7    1  0.2989693E-009  0.1109559E+03  0.7561462E-02  0.1258810E+00
         -1   -1    0    0    0  501 -0.00000000000E+00  0.00000000000E+00  0.31600926325E+02  0.31600926325E+02  0.00000000000E+00 0.  1.
          1   -1    0    0  501    0  0.00000000000E+00 -0.00000000000E+00 -0.50581195796E+03  0.50581195796E+03  0.00000000000E+00 0. -1.
         25    2    1    2    0    0  0.10022531095E+02  0.45919680863E+02 -0.36940214227E+03  0.39282810968E+03  0.12508762059E+03 0.  0.
          5    1    3    3  502    0 -0.46365339515E+02  0.47917617008E+02 -0.12257152976E+03  0.13959618561E+03  0.41800000000E+01 0.  1.
         -5    1    3    3    0  502  0.56387870610E+02 -0.19979361444E+01 -0.24683061251E+03  0.25323192408E+03  0.41800000000E+01 0.  1.
        -11    1    1    2    0    0 -0.43937080090E+02 -0.47332367459E+02 -0.78419249159E+02  0.10158936290E+03  0.00000000000E+00 0.  1.
         11    1    1    2    0    0  0.33914548995E+02  0.14126865953E+01 -0.26389640206E+02  0.42995411699E+02  0.00000000000E+00 0. -1.
</event>
<event>
 7    1  0.2989693E-009  0.8802344E+02  0.7561462E-02  0.1307710E+00
         -2   -1    0    0    0  501 -0.00000000000E+00  0.00000000000E+00  0.94429788436E+02  0.94429788436E+02  0.00000000000E+00 0.  1.
          2   -1    0    0  501    0  0.00000000000E+00 -0.00000000000E+00 -0.27014456999E+03  0.27014456999E+03  0.00000000000E+00 0. -1.
         25    2    1    2    0    0  0.71419749296E+02 -0.14422006329E+02  0.13045156408E+02  0.14534834345E+03  0.12508872843E+03 0.  0.
          5    1    3    3  502    0  0.51283364087E+01 -0.37315954297E+01  0.61798054319E+02  0.62263123568E+02  0.41800000000E+01 0. -1.
         -5    1    3    3    0  502  0.66291412888E+02 -0.10690410899E+02 -0.48752897911E+02  0.83085219880E+02  0.41800000000E+01 0. -1.
        -11    1    1    2    0    0 -0.81060878810E+02 -0.31587394555E+01 -0.17982183981E+03  0.19727325663E+03  0.00000000000E+00 0.  1.
         11    1    1    2    0    0  0.96411295137E+01  0.17580745784E+02 -0.89380981549E+01  0.21952758352E+02  0.00000000000E+00 0. -1.
</event>
<event>
 7    1  0.2989693E-009  0.9772231E+02  0.7561462E-02  0.1285160E+00
         -4   -1    0    0    0  501 -0.00000000000E+00  0.00000000000E+00  0.20257157300E+03  0.20257157300E+03  0.00000000000E+00 0.  1.
          4   -1    0    0  501    0  0.00000000000E+00 -0.00000000000E+00 -0.64370923940E+02  0.64370923940E+02  0.00000000000E+00 0. -1.
         25    2    1    2    0    0 -0.24448325425E+02  0.18619872279E+02  0.66981975767E+02  0.14518545510E+03  0.12509121086E+03 0.  0.
          5    1    3    3  502    0  0.41298363342E+02  0.72849549546E+01 -0.99153119778E+01  0.43294470721E+02  0.41800000000E+01 0.  1.
         -5    1    3    3    0  502 -0.65746688767E+02  0.11334917324E+02  0.76897287745E+02  0.10189098438E+03  0.41800000000E+01 0.  1.
        -11    1    1    2    0    0  0.23618004469E+02 -0.49876463136E+02  0.71708916574E+02  0.90485581317E+02  0.00000000000E+00 0.  1.
         11    1    1    2    0    0  0.83032095610E+00  0.31256590858E+02 -0.49024328106E+00  0.31271460526E+02  0.00000000000E+00 0. -1.
</event>
<event>
 7    1  0.2989693E-009  0.1357581E+03  0.7561462E-02  0.1219153E+00
         -1   -1    0    0    0  501 -0.00000000000E+00  0.00000000000E+00  0.21371359512E+03  0.21371359512E+03  0.00000000000E+00 0.  1.
          1   -1    0    0  501    0  0.00000000000E+00 -0.00000000000E+00 -0.11882055862E+03  0.11882055862E+03  0.00000000000E+00 0. -1.
         25    2    1    2    0    0  0.38172014625E+02 -0.87579531924E+02  0.11533758324E+03  0.19513511765E+03  0.12509068278E+03 0.  0.
          5    1    3    3  502    0  0.60552026152E+02 -0.99346653954E+02  0.12202058171E+03  0.16864993414E+03  0.41800000000E+01 0. -1.
         -5    1    3    3    0  502 -0.22380011527E+02  0.11767122030E+02 -0.66829984756E+01  0.26485183508E+02  0.41800000000E+01 0. -1.
        -11    1    1    2    0    0 -0.60816053243E+02  0.30448545559E+02  0.10122962172E+02  0.68761767152E+02  0.00000000000E+00 0.  1.
         11    1    1    2    0    0  0.22644038618E+02  0.57130986365E+02 -0.30567508911E+02  0.68637268950E+02  0.00000000000E+00 0. -1.
</event>
<event>
 7    1  0.2989693E-009  0.1409877E+03  0.7561462E-02  0.1212006E+00
         -1   -1    0    0    0  501 -0.00000000000E+00  0.00000000000E+00  0.71054328413E+02  0.71054328413E+02  0.00000000000E+00 0.  1.
          1   -1    0    0  501    0  0.00000000000E+00 -0.00000000000E+00 -0.30011064429E+03  0.30011064429E+03  0.00000000000E+00 0. -1.
         25    2    1    2    0    0  0.26912587529E+01  0.96003564574E+02 -0.11052737356E+03  0.19258234924E+03  0.12509090154E+03 0.  0.
          5    1    3    3  502    0  0.44035252561E+00  0.12622009398E+03 -0.80780283300E+02  0.14991541817E+03  0.41800000000E+01 0. -1.
         -5    1    3    3    0  502  0.22509062273E+01 -0.30216529405E+02 -0.29747090256E+02  0.42666931068E+02  0.41800000000E+01 0. -1.
        -11    1    1    2    0    0  0.28636938253E+02 -0.52823147242E+01 -0.58585061751E+02  0.65423134607E+02  0.00000000000E+00 0. -1.
         11    1    1    2    0    0 -0.31328197006E+02 -0.90721249850E+02 -0.59943880573E+02  0.11315948886E+03  0.00000000000E+00 0.  1.
</event>
<event>
 7    1  0.2989693E-009  0.1086643E+03  0.7561462E-02  0.1263064E+00
         -2   -1    0    0    0  501 -0.00000000000E+00  0.00000000000E+00  0.13670614985E+02  0.13670614985E+02  0.00000000000E+00 0.  1.
          2   -1    0    0  501    0  0.00000000000E+00 -0.00000000000E+00 -0.11918493801E+04  0.11918493801E+04  0.00000000000E+00 0. -1.
         25    2    1    2    0    0  0.64304533299E+02  0.19078920051E+02 -0.64821403231E+03  0.66357172198E+03  0.12508765063E+03 0.  0.
          5    1    3    3  502    0  0.77398015913E+02 -0.35276289501E+01 -0.62021693218E+03  0.62505152780E+03  0.41800000000E+01 0.  1.
         -5    1    3    3    0  502 -0.13093482614E+02  0.22606549001E+02 -0.27997100126E+02  0.38520194186E+02  0.41800000000E+01 0.  1.
        -11    1    1    2    0    0 -0.15927463218E+02 -0.52249824670E+02 -0.26411373423E+03  0.26970315696E+03  0.00000000000E+00 0. -1.
         11    1    1    2    0    0 -0.48377070081E+02  0.33170904619E+02 -0.26585099861E+03  0.27224511618E+03  0.00000000000E+00 0.  1.
</event>
<event>
 7    1  0.2989693E-009  0.8182516E+02  0.7561462E-02  0.1323950E+00
         -1   -1    0    0    0  501 -0.00000000000E+00  0.00000000000E+00  0.30197697252E+02  0.30197697252E+02  0.00000000000E+00 0.  1.
          1   -1    0    0  501    0  0.00000000000E+00 -0.00000000000E+00 -0.68121501042E+03  0.68121501042E+03  0.00000000000E+00 0. -1.
         25    2    1    2    0    0 -0.28043806260E+02 -0.64091243445E+02 -0.50671514609E+03  0.52659419215E+03  0.12508821436E+03 0.  0.
          5    1    3    3  502    0 -0.12208172237E+02 -0.23595207039E+02 -0.46632622447E+03  0.46710105255E+03  0.41800000000E+01 0. -1.
         -5    1    3    3    0  502 -0.15835634023E+02 -0.40496036407E+02 -0.40388921618E+02  0.59493139596E+02  0.41800000000E+01 0. -1.
        -11    1    1    2    0    0  0.34371117866E+02  0.63071392094E+01 -0.11405934167E+03  0.11929244389E+03  0.00000000000E+00 0. -1.
         11    1    1    2    0    0 -0.63273116059E+01  0.57784104236E+02 -0.30242825410E+02  0.65526071630E+02  0.00000000000E+00 0.  1.
</event>
<event>
 7    1  0.2989693E-009  0.1187931E+03  0.7561462E-02  0.1245101E+00
         -1   -1    0    0    0  501 -0.00000000000E+00  0.00000000000E+00  0.61518408619E+02  0.61518408619E+02  0.00000000000E+00 0.  1.
          1   -1    0    0  501    0  0.00000000000E+00 -0.00000000000E+00 -0.31302186834E+03  0.31302186834E+03  0.00000000000E+00 0. -1.
         25    2    1    2    0    0 -0.49074817933E+01  0.60571629414E+02 -0.21468942300E+03  0.25579550349E+03  0.12508711200E+03 0.  0.
          5    1    3    3  502    0 -0.20563417802E+02  0.96970216810E+02 -0.15176573224E+03  0.18131846840E+03  0.41800000000E+01 0. -1.
         -5    1    3    3    0  502  0.15655936009E+02 -0.36398587396E+02 -0.62923690760E+02  0.74477035089E+02  0.41800000000E+01 0. -1.
        -11    1    1    2    0    0  0.20061266966E+02  0.12675748617E+02 -0.36988215657E+02  0.43946070732E+02  0.00000000000E+00 0. -1.
         11    1    1    2    0    0 -0.15153785173E+02 -0.73247378031E+02  0.17417893461E+00  0.74798702741E+02  0.00000000000E+00 0.  1.
</event>
<event>
 7    1  0.2989693E-009  0.1202159E+03  0.7561462E-02  0.1242741E+00
         -2   -1    0    0    0  501 -0.00000000000E+00  0.00000000000E+00  0.22348174168E+02  0.22348174168E+02  0.00000000000E+00 0.  1.
          2   -1    0    0  501    0  0.00000000000E+00 -0.00000000000E+00 -0.83504410041E+03  0.83504410041E+03  0.00000000000E+00 0. -1.
         25    2    1    2    0    0  0.32263785611E+02  0.62817691432E+02 -0.57234742529E+03  0.59010038602E+03  0.12509946492E+03 0.  0.
          5    1    3    3  502    0 -0.10954456306E+02  0.83303011659E+02 -0.24028862014E+03  0.25458885528E+03  0.41800000000E+01 0.  1.
         -5    1    3    3    0  502  0.43218241916E+02 -0.20485320226E+02 -0.33205880516E+03  0.33551153074E+03  0.41800000000E+01 0.  1.
        -11    1    1    2    0    0  0.22690102845E+02 -0.45222978841E+02 -0.63054926163E+02  0.80844803765E+02  0.00000000000E+00 0. -1.
         11    1    1    2    0    0 -0.54953888456E+02 -0.17594712591E+02 -0.17729357479E+03  0.18644708479E+03  0.00000000000E+00 0.  1.
</event>
<event>
 7    1  0.2989693E-009  0.9603881E+02  0.7561462E-02  0.1288853E+00
         -4   -1    0    0    0  501 -0.00000000000E+00  0.00000000000E+00  0.15781334029E+02  0.15781334029E+02  0.00000000000E+00 0.  1.
          4   -1    0    0  501    0  0.00000000000E+00 -0.00000000000E+00 -0.13161372369E+04  0.13161372369E+04  0.00000000000E+00 0. -1.
         25    2    1    2    0    0  0.42772174912E+02  0.42729197652E+02 -0.10396618017E+04  0.10489034762E+04  0.12508635873E+03 0.  0.
          5    1    3    3  502    0  0.28378003149E+01  0.77311714000E+02 -0.78327989731E+03  0.78710229586E+03  0.41800000000E+01 0.  1.
         -5    1    3    3    0  502  0.39934374598E+02 -0.34582516349E+02 -0.25638190444E+03  0.26180118035E+03  0.41800000000E+01 0.  1.
        -11    1    1    2    0    0 -0.27037437450E+02 -0.34560577894E+02 -0.26160828603E+03  0.26526279778E+03  0.00000000000E+00 0. -1.
         11    1    1    2    0    0 -0.15734737462E+02 -0.81686197580E+01  0.91418491349E+00  0.17752296917E+02  0.00000000000E+00 0.  1.
</event>
<event>
 7    1  0.2989693E-009  0.1110234E+03  0.7561462E-02  0.1258686E+00
          2   -1    0    0  501    0  0.00000000000E+00  0.00000000000E+00  0.52696317903E+03  0.52696317903E+03  0.00000000000E+00 0. -1.
         -2   -1    0    0    0  501 -0.00000000000E+00 -0.00000000000E+00 -0.29838525401E+02  0.29838525401E+02  0.00000000000E+00 0.  1.
         25    2    1    2    0    0 -0.48174729405E+02  0.77345920049E+01  0.36270145679E+03  0.38675762089E+03  0.12509389310E+03 0.  0.
          5    1    3    3  502    0  0.12234286439E+02  0.47315966123E+02  0.71518916071E+02  0.86723158215E+02  0.41800000000E+01 0.  1.
         -5    1    3    3    0  502 -0.60409015843E+02 -0.39581374118E+02  0.29118254072E+03  0.30003446268E+03  0.41800000000E+01 0.  1.
        -11    1    1    2    0    0  0.73281758599E+02 -0.14386976558E+02  0.11687830729E+03  0.13870018007E+03  0.00000000000E+00 0. -1.
         11    1    1    2    0    0 -0.25107029194E+02  0.66523845533E+01  0.17544889545E+02  0.31343903463E+02  0.00000000000E+00 0.  1.
</event>
<event>
 7    1  0.2989693E-009  0.8790164E+02  0.7561462E-02  0.1308014E+00
          2   -1    0    0  501    0  0.00000000000E+00  0.00000000000E+00  0.93528071301E+02  0.93528071301E+02  0.00000000000E+00 0. -1.
         -2   -1    0    0    0  501 -0.00000000000E+00 -0.00000000000E+00 -0.15635697973E+03  0.15635697973E+03  0.00000000000E+00 0.  1.
         25    2    1    2    0    0  0.54839410243E+02 -0.36166568892E+02 -0.25199320121E+02  0.14351950325E+03  0.12508980957E+03 0.  0.
          5    1    3    3  502    0  0.47970080461E+02 -0.39837941703E+01  0.44905911053E+02  0.65962204958E+02  0.41800000000E+01 0.  1.
         -5    1    3    3    0  502  0.68693297824E+01 -0.32182774721E+02 -0.70105231174E+02  0.77557298292E+02  0.41800000000E+01 0.  1.
        -11    1    1    2    0    0 -0.33090998642E-01  0.39412395907E+02 -0.32755883668E+02  0.51247301988E+02  0.00000000000E+00 0.  1.
         11    1    1    2    0    0 -0.54806319244E+02 -0.32458270156E+01 -0.48737046390E+01  0.55118245791E+02  0.00000000000E+00 0. -1.
</event>
<event>
 7    1  0.2989693E-009  0.7922209E+02  0.7561462E-02  0.1331274E+00
          1   -1    0    0  501    0  0.00000000000E+00  0.00000000000E+00  0.88697952949E+02  0.88697952949E+02  0.00000000000E+00 0. -1.
         -1   -1    0    0    0  501 -0.00000000000E+00 -0.00000000000E+00 -0.15117256621E+03  0.15117256621E+03  0.00000000000E+00 0.  1.
         25    2    1    2    0    0  0.30513515111E+02 -0.19607616298E+02 -0.51909381500E+02  0.14020519589E+03  0.12508948735E+03 0.  0.
          5    1    3    3  502    0  0.51005423243E+01  0.39409788882E+02  0.19150805427E+02  0.44309962088E+02  0.41800000000E+01 0. -1.
         -5    1    3    3    0  502  0.25412972787E+02 -0.59017405180E+02 -0.71060186926E+02  0.95895233803E+02  0.41800000000E+01 0. -1.
        -11    1    1    2    0    0 -0.33759790191E+02 -0.46292432515E+00 -0.47042556064E+02  0.57904575067E+02  0.00000000000E+00 0.  1.
         11    1    1    2    0    0  0.32462750801E+01  0.20070540623E+02  0.36477324297E+02  0.41760748205E+02  0.00000000000E+00 0. -1.
</event>
<event>
 7    1  0.2989693E-009  0.1241908E+03  0.7561462E-02  0.1236339E+00
          1   -1    0    0  501    0  0.00000000000E+00  0.00000000000E+00  0.76331580932E+03  0.76331580932E+03  0.00000000000E+00 0. -1.
         -1   -1    0    0    0  501 -0.00000000000E+00 -0.00000000000E+00 -0.33909829924E+02  0.33909829924E+02  0.00000000000E+00 0.  1.
         25    2    1    2    0    0 -0.19679418985E+01 -0.11373672323E+03  0.45281593233E+03  0.48335254192E+03  0.12508995247E+03 0.  0.
          5    1    3    3  502    0 -0.31828481691E+02 -0.74101243555E+02  0.40938573299E+03  0.41727472643E+03  0.41800000000E+01 0.  1.
         -5    1    3    3    0  502  0.29860539793E+02 -0.39635479676E+02  0.43430199337E+02  0.66077815493E+02  0.41800000000E+01 0.  1.
        -11    1    1    2    0    0 -0.12603953824E+02  0.81224922515E+02  0.26332497221E+03  0.27585573889E+03  0.00000000000E+00 0. -1.
         11    1    1    2    0    0  0.14571895722E+02  0.32511800716E+02  0.13265074855E+02  0.38017358425E+02  0.00000000000E+00 0.  1.
</event>
<event>
 7    1  0.2989693E-009  0.8951538E+02  0.7561462E-02  0.1304030E+00
         -2   -1    0    0    0  501 -0.00000000000E+00  0.00000000000E+00  0.22708020018E+02  0.22708020018E+02  0.00000000000E+00 0. -1.
          2   -1    0    0  501    0  0.00000000000E+00 -0.00000000000E+00 -0.64720791448E+03  0.64720791448E+03  0.00000000000E+00 0.  1.
         25    2    1    2    0    0  0.45341166401E+01  0.48498888601E+02 -0.28481175798E+03  0.31486788729E+03  0.12510534981E+03 0.  0.
          5    1    3    3  502    0 -0.35776430594E+02  0.49802796184E+02 -0.26036354490E+03  0.26751994208E+03  0.41800000000E+01 0. -1.
         -5    1    3    3    0  502  0.40310547234E+02 -0.13039075829E+01 -0.24448213080E+02  0.47347945215E+02  0.41800000000E+01 0. -1.
        -11    1    1    2    0    0  0.11664029653E+02 -0.57375316084E+02 -0.32801153802E+03  0.33319595669E+03  0.00000000000E+00 0.  1.
         11    1    1    2    0    0 -0.16198146293E+02  0.88764274829E+01 -0.11676598461E+02  0.21852090514E+02  0.00000000000E+00 0. -1.
</event>
<event>
 7    1  0.2989693E-009  0.1008911E+03  0.7561462E-02  0.1278433E+00
          1   -1    0    0  501    0  0.00000000000E+00  0.00000000000E+00  0.56394312787E+02  0.56394312787E+02  0.00000000000E+00 0. -1.
         -1   -1    0    0    0  501 -0.00000000000E+00 -0.00000000000E+00 -0.22070134006E+03  0.22070134006E+03  0.00000000000E+00 0.  1.
         25    2    1    2    0    0 -0.16624185888E+02 -0.43761239146E+01 -0.78175670277E+02  0.14850688143E+03  0.12508934564E+03 0.  0.
          5    1    3    3  502    0  0.39153472435E+02 -0.26876095977E+02  0.25620122961E+01  0.47742593622E+02  0.41800000000E+01 0. -1.
         -5    1    3    3    0  502 -0.55777658324E+02  0.22499972063E+02 -0.80737682573E+02  0.10076428781E+03  0.41800000000E+01 0. -1.
        -11    1    1    2    0    0  0.13260502780E+02  0.48136213187E+02 -0.33823725194E+02  0.60307382135E+02  0.00000000000E+00 0.  1.
         11    1    1    2    0    0  0.33636831081E+01 -0.43760089272E+02 -0.52307631805E+02  0.68281389282E+02  0.00000000000E+00 0. -1.
</event>
<event>
 7    1  0.2989693E-009  0.2198313E+03  0.7561462E-02  0.1134009E+00
          2   -1    0    0  501    0  0.00000000000E+00  0.00000000000E+00  0.10180129481E+04  0.10180129481E+04  0.00000000000E+00 0. -1.
         -2   -1    0    0    0  501 -0.00000000000E+00 -0.00000000000E+00 -0.88183946521E+02  0.88183946521E+02  0.00000000000E+00 0.  1.
         25    2    1    2    0    0  0.12099041011E+03  0.17444734078E+03  0.80715455076E+03  0.84392815111E+03  0.12508277813E+03 0.  0.
          5    1    3    3  502    0  0.43068227102E+02  0.75544454603E+02  0.13909360410E+03  0.16409247365E+03  0.41800000000E+01 0. -1.
         -5    1    3    3    0  502  0.77922183004E+02  0.98902886178E+02  0.66806094666E+03  0.67983567746E+03  0.41800000000E+01 0. -1.
        -11    1    1    2    0    0 -0.16628325632E+02 -0.92361537135E+02  0.78461419893E+02  0.12232476923E+03  0.00000000000E+00 0.  1.
         11    1    1    2    0    0 -0.10436208447E+03 -0.82085803646E+02  0.44213030938E+02  0.13994397429E+03  0.00000000000E+00 0. -1.
</event>
<event>
 7    1  0.2989693E-009  0.1190682E+03  0.7561462E-02  0.1244642E+00
          1   -1    0    0  501    0  0.00000000000E+00  0.00000000000E+00  0.54298258401E+03  0.54298258401E+03  0.00000000000E+00 0. -1.
         -1   -1    0    0    0  501 -0.00000000000E+00 -0.00000000000E+00 -0.13966653315E+03  0.13966653315E+03  0.00000000000E+00 0.  1.
         25    2    1    2    0    0 -0.49864017477E+02  0.12003798867E+02 -0.10025376515E+03  0.16831096557E+03  0.12508897745E+03 0.  0.
          5    1    3    3  502    0 -0.18652171326E+02  0.67939775592E+02 -0.59161084395E+02  0.92093555200E+02  0.41800000000E+01 0.  1.
         -5    1    3    3    0  502 -0.31211846151E+02 -0.55935976725E+02 -0.41092680753E+02  0.76217410372E+02  0.41800000000E+01 0.  1.
        -11    1    1    2    0    0  0.41348324677E+02 -0.49740475831E+02  0.27396372531E+03  0.28149586440E+03  0.00000000000E+00 0.  1.
         11    1    1    2    0    0  0.85156928002E+01  0.37736676965E+02  0.22960609070E+03  0.23284228718E+03  0.00000000000E+00 0. -1.
</event>
<event>
 7    1  0.2989693E-009  0.1298619E+03  0.7561462E-02  0.1227661E+00
         -1   -1    0    0    0  501 -0.00000000000E+00  0.00000000000E+00  0.14001115746E+03  0.14001115746E+03  0.00000000000E+00 0.  1.
          1   -1    0    0  501    0  0.00000000000E+00 -0.00000000000E+00 -0.19072671667E+03  0.19072671667E+03  0.00000000000E+00 0. -1.
         25    2    1    2    0    0 -0.63167145597E+02  0.84968548243E+02 -0.88012725462E+02  0.18601424909E+03  0.12508124779E+03 0.  0.
          5    1    3    3  502    0  0.19257971155E+02  0.23187076291E+02 -0.76438420977E+02  0.82272805722E+02  0.41800000000E+01 0. -1.
         -5    1    3    3    0  502 -0.82425116751E+02  0.61781471952E+02 -0.11574304485E+02  0.10374144337E+03  0.41800000000E+01 0. -1.
        -11    1    1    2    0    0  0.72887377398E+02 -0.46348841163E+02  0.53640439602E+02  0.10167635724E+03  0.00000000000E+00 0.  1.
         11    1    1    2    0    0 -0.97202318014E+01 -0.38619707080E+02 -0.16343273344E+02  0.43047267797E+02  0.00000000000E+00 0. -1.
</event>
<event>
 7    1  0.2989693E-009  0.1049334E+03  0.7561462E-02  0.1270251E+00
         -2   -1    0    0    0  501 -0.00000000000E+00  0.00000000000E+00  0.53075707618E+02  0.53075707618E+02  0.00000000000E+00 0. -1.
          2   -1    0    0  501    0  0.00000000000E+00 -0.00000000000E+00 -0.55358276417E+03  0.55358276417E+03  0.00000000000E+00 0.  1.
         25    2    1    2    0    0 -0.56982441576E+01  0.64975297676E+02 -0.47030470067E+03  0.49100841479E+03  0.12509393521E+03 0.  0.
          5    1    3    3  502    0  0.42446142913E+02  0.23583870779E+02 -0.36299873970E+03  0.36625596437E+03  0.41800000000E+01 0. -1.
         -5    1    3    3    0  502 -0.48144387071E+02  0.41391426896E+02 -0.10730596097E+03  0.12475245042E+03  0.41800000000E+01 0. -1.
        -11    1    1    2    0    0 -0.31149297757E+02 -0.47294421902E+02  0.10918302385E+02  0.57673654477E+02  0.00000000000E+00 0.  1.
         11    1    1    2    0    0  0.36847541914E+02 -0.17680875774E+02 -0.41120658273E+02  0.57976402528E+02  0.00000000000E+00 0. -1.
</event>
<event>
 7    1  0.2989693E-009  0.1128284E+03  0.7561462E-02  0.1255420E+00
         -1   -1    0    0    0  501 -0.00000000000E+00  0.00000000000E+00  0.10683518764E+03  0.10683518764E+03  0.00000000000E+00 0.  1.
          1   -1    0    0  501    0  0.00000000000E+00 -0.00000000000E+00 -0.13283472039E+03  0.13283472039E+03  0.00000000000E+00 0. -1.
         25    2    1    2    0    0 -0.31780694543E+02 -0.22131991434E+02  0.16841995891E+02  0.13202475354E+03  0.12508814944E+03 0.  0.
          5    1    3    3  502    0  0.47764466954E+02 -0.13584780849E+02  0.14409016411E+02  0.51875646772E+02  0.41800000000E+01 0.  1.
         -5    1    3    3    0  502 -0.79545161497E+02 -0.85472105856E+01  0.24329794806E+01  0.80149106767E+02  0.41800000000E+01 0.  1.
        -11    1    1    2    0    0  0.45915115744E+02  0.47880095105E+02 -0.16899072743E+02  0.68456409639E+02  0.00000000000E+00 0.  1.
         11    1    1    2    0    0 -0.14134421201E+02 -0.25748103671E+02 -0.25942455901E+02  0.39188744858E+02  0.00000000000E+00 0. -1.
</event>
<event>
 7    1  0.2989693E-009  0.8522019E+02  0.7561462E-02  0.1314858E+00
         -1   -1    0    0    0  501 -0.00000000000E+00  0.00000000000E+00  0.46320748315E+02  0.46320748315E+02  0.00000000000E+00 0.  1.
          1   -1    0    0  501    0  0.00000000000E+00 -0.00000000000E+00 -0.28866945422E+03  0.28866945422E+03  0.00000000000E+00 0. -1.
         25    2    1    2    0    0 -0.12482829307E+02 -0.24845227322E+02 -0.11879727911E+03  0.17473917925E+03  0.12509149009E+03 0.  0.
          5    1    3    3  502    0 -0.20747130031E+02  0.24072791959E+02 -0.12073212364E+03  0.12491461402E+03  0.41800000000E+01 0.  1.
         -5    1    3    3    0  502  0.82643007246E+01 -0.48918019281E+02  0.19348445349E+01  0.49824565228E+02  0.41800000000E+01 0.  1.
        -11    1    1    2    0    0  0.40894083923E+02 -0.11488318170E+02 -0.99600714802E+02  0.10828023801E+03  0.00000000000E+00 0. -1.
         11    1    1    2    0    0 -0.28411254616E+02  0.36333545491E+02 -0.23950711993E+02  0.51970785272E+02  0.00000000000E+00 0.  1.
</event>
<event>
 7    1  0.2989693E-009  0.1006299E+03  0.7561462E-02  0.1278977E+00
         -1   -1    0    0    0  501 -0.00000000000E+00  0.00000000000E+00  0.48728890658E+03  0.48728890658E+03  0.00000000000E+00 0.  1.
          1   -1    0    0  501    0  0.00000000000E+00 -0.00000000000E+00 -0.28247089502E+02  0.28247089502E+02  0.00000000000E+00 0. -1.
         25    2    1    2    0    0 -0.32284071185E+02  0.25787190390E+02  0.28341057656E+03  0.31253252086E+03  0.12509109181E+03 0.  0.
          5    1    3    3  502    0 -0.43650407755E+02  0.64494987215E+02  0.11259137810E+03  0.13696441981E+03  0.41800000000E+01 0.  1.
         -5    1    3    3    0  502  0.11366336571E+02 -0.38707796825E+02  0.17081919846E+03  0.17556810104E+03  0.41800000000E+01 0.  1.
        -11    1    1    2    0    0  0.11958029207E+02 -0.49820554863E+02  0.43611520495E+02  0.67283332774E+02  0.00000000000E+00 0. -1.
         11    1    1    2    0    0  0.20326041978E+02  0.24033364473E+02  0.13201972003E+03  0.13572014245E+03  0.00000000000E+00 0.  1.
</event>
<event>
 7    1  0.2989693E-009  0.8801626E+02  0.7561462E-02  0.1307728E+00
         -2   -1    0    0    0  501 -0.00000000000E+00  0.00000000000E+00  0.92456720115E+02  0.92456720115E+02  0.00000000000E+00 0.  1.
          2   -1    0    0  501    0  0.00000000000E+00 -0.00000000000E+00 -0.17162631836E+03  0.17162631836E+03  0.00000000000E+00 0. -1.
         25    2    1    2    0    0 -0.22368848599E+02  0.38851028911E+02  0.52086726974E+01  0.13298675037E+03  0.12509427512E+03 0.  0.
          5    1    3    3  502    0 -0.49683256218E+02 -0.19760175261E+02  0.32461571090E+02  0.62690641027E+02  0.41800000000E+01 0.  1.
         -5    1    3    3    0  502  0.27314407618E+02  0.58611204172E+02 -0.27252898393E+02  0.70296109344E+02  0.41800000000E+01 0.  1.
        -11    1    1    2    0    0  0.53323996949E+01 -0.40163116426E+02 -0.10003044434E+03  0.10792404831E+03  0.00000000000E+00 0. -1.
         11    1    1    2    0    0  0.17036448904E+02  0.13120875146E+01  0.15652173402E+02  0.23172239795E+02  0.00000000000E+00 0.  1.
</event>
<event>
 7    1  0.2989693E-009  0.1276048E+03  0.7561462E-02  0.1231054E+00
          4   -1    0    0  501    0  0.00000000000E+00  0.00000000000E+00  0.64766759701E+03  0.64766759701E+03  0.00000000000E+00 0. -1.
         -4   -1    0    0    0  501 -0.00000000000E+00 -0.00000000000E+00 -0.32926624888E+02  0.32926624888E+02  0.00000000000E+00 0.  1.
         25    2    1    2    0    0  0.72440773007E+02 -0.60432866538E+02  0.40187783822E+03  0.43133906121E+03  0.12509113447E+03 0.  0.
          5    1    3    3  502    0  0.10481928080E+03 -0.53693370282E+02  0.25784395501E+03  0.28349786097E+03  0.41800000000E+01 0.  1.
         -5    1    3    3    0  502 -0.32378507791E+02 -0.67394962556E+01  0.14403388320E+03  0.14784120023E+03  0.41800000000E+01 0.  1.
        -11    1    1    2    0    0 -0.19000462206E+02  0.44305690638E+02  0.17570370836E+03  0.18219715947E+03  0.00000000000E+00 0. -1.
         11    1    1    2    0    0 -0.53440310801E+02  0.16127175900E+02  0.37159425547E+02  0.67058001223E+02  0.00000000000E+00 0.  1.
</event>
<event>
 7    1  0.2989693E-009  0.1518962E+03  0.7561462E-02  0.1198162E+00
         -2   -1    0    0    0  501 -0.00000000000E+00  0.00000000000E+00  0.23077617279E+03  0.23077617279E+03  0.00000000000E+00 0.  1.
          2   -1    0    0  501    0  0.00000000000E+00 -0.00000000000E+00 -0.12327182962E+03  0.12327182962E+03  0.00000000000E+00 0. -1.
         25    2    1    2    0    0  0.12884526437E+03 -0.51347091800E+01  0.51792086181E+02  0.18696896463E+03  0.12508999223E+03 0.  0.
          5    1    3    3  502    0  0.74348222949E+02 -0.54096051091E+02  0.64641682560E+02  0.11247248785E+03  0.41800000000E+01 0.  1.
         -5    1    3    3    0  502  0.54497041420E+02  0.48961341911E+02 -0.12849596380E+02  0.74496476778E+02  0.41800000000E+01 0.  1.
        -11    1    1    2    0    0 -0.59616632880E+02  0.27453609482E+02  0.66629124879E+02  0.93526915227E+02  0.00000000000E+00 0.  1.
         11    1    1    2    0    0 -0.69228631488E+02 -0.22318900302E+02 -0.10916867886E+02  0.73552122559E+02  0.00000000000E+00 0. -1.
</event>
<event>
 7    1  0.2989693E-009  0.1242963E+03  0.7561462E-02  0.1236173E+00
         -1   -1    0    0    0  501 -0.00000000000E+00  0.00000000000E+00  0.85648911609E+02  0.85648911609E+02  0.00000000000E+00 0.  1.
          1   -1    0    0  501    0  0.00000000000E+00 -0.00000000000E+00 -0.18794984869E+03  0.18794984869E+03  0.00000000000E+00 0. -1.
         25    2    1    2    0    0  0.60448105222E+02 -0.14772350072E+02 -0.80740826760E+02  0.16136833374E+03  0.12509381390E+03 0.  0.
          5    1    3    3  502    0  0.90791624469E+02  0.19066684468E+02 -0.43936925425E+02  0.10273550188E+03  0.41800000000E+01 0.  1.
         -5    1    3    3    0  502 -0.30343519247E+02 -0.33839034540E+02 -0.36803901335E+02  0.58632831864E+02  0.41800000000E+01 0.  1.
        -11    1    1    2    0    0  0.21266303650E+02  0.18637728928E+02 -0.71171224678E+01  0.29159458890E+02  0.00000000000E+00 0.  1.
         11    1    1    2    0    0 -0.81714408872E+02 -0.38653788564E+01 -0.14442987853E+02  0.83070967667E+02  0.00000000000E+00 0. -1.
</event>
<event>
 7    1  0.2989693E-009  0.8946786E+02  0.7561462E-02  0.1304145E+00
          3   -1    0    0  501    0  0.00000000000E+00  0.00000000000E+00  0.34699865870E+03  0.34699865870E+03  0.00000000000E+00 0. -1.
         -3   -1    0    0    0  501 -0.00000000000E+00 -0.00000000000E+00 -0.47279706244E+02  0.47279706244E+02  0.00000000000E+00 0.  1.
         25    2    1    2    0    0 -0.31111238420E+02  0.34053482891E+02  0.19933941247E+03  0.23981729603E+03  0.12509430545E+03 0.  0.
          5    1    3    3  502    0 -0.25121515512E+02 -0.83968234693E+01 -0.80533329566E+01  0.27998674213E+02  0.41800000000E+01 0.  1.
         -5    1    3    3    0  502 -0.59897229083E+01  0.42450306360E+02  0.20739274543E+03  0.21181862181E+03  0.41800000000E+01 0.  1.
        -11    1    1    2    0    0  0.25928703464E+02 -0.69003391678E+02  0.38395651661E+02  0.83114329649E+02  0.00000000000E+00 0.  1.
         11    1    1    2    0    0  0.51825349561E+01  0.34949908788E+02  0.61983888327E+02  0.71346739274E+02  0.00000000000E+00 0. -1.
</event>
<event>
 7    1  0.2989693E-009  0.1166144E+03  0.7561462E-02  0.1248789E+00
          1   -1    0    0  501    0  0.00000000000E+00  0.00000000000E+00  0.42806890945E+02  0.42806890945E+02  0.00000000000E+00 0. -1.
         -1   -1    0    0    0  501 -0.00000000000E+00 -0.00000000000E+00 -0.40238938135E+03  0.40238938135E+03  0.00000000000E+00 0.  1.
         25    2    1    2    0    0 -0.55766516047E+02  0.46847371207E+02 -0.21382591132E+03  0.25821059086E+03  0.12508640365E+03 0.  0.
          5    1    3    3  502    0  0.35446882401E+02  0.37558947866E+02 -0.93247945668E+02  0.10667618201E+03  0.41800000000E+01 0.  1.
         -5    1    3    3    0  502 -0.91213398448E+02  0.92884233411E+01 -0.12057796565E+03  0.15153440885E+03  0.41800000000E+01 0.  1.
        -11    1    1    2    0    0 -0.84512939101E+01 -0.16648882149E+02 -0.10182784498E+03  0.10352545416E+03  0.00000000000E+00 0.  1.
         11    1    1    2    0    0  0.64217809957E+02 -0.30198489058E+02 -0.43928734109E+02  0.83460227279E+02  0.00000000000E+00 0. -1.
</event>
<event>
 7    1  0.2989693E-009  0.6701757E+02  0.7561462E-02  0.1370539E+00
         -2   -1    0    0    0  501 -0.00000000000E+00  0.00000000000E+00  0.47289450406E+02  0.47289450406E+02  0.00000000000E+00 0. -1.
          2   -1    0    0  501    0  0.00000000000E+00 -0.00000000000E+00 -0.25276453137E+03  0.25276453137E+03  0.00000000000E+00 0.  1.
         25    2    1    2    0    0 -0.64920894533E+01 -0.23321631360E+02 -0.94909131033E+02  0.15887413178E+03  0.12508877200E+03 0.  0.
          5    1    3    3  502    0 -0.42616918544E+02  0.80276426164E+01  0.89290703138E+01  0.44472974814E+02  0.41800000000E+01 0.  1.
         -5    1    3    3    0  502  0.36124829091E+02 -0.31349273976E+02 -0.10383820135E+03  0.11440115696E+03  0.41800000000E+01 0.  1.
        -11    1    1    2    0    0 -0.63018493023E+01  0.28099694164E+02 -0.12075460395E+03  0.12414097024E+03  0.00000000000E+00 0.  1.
         11    1    1    2    0    0  0.12793938756E+02 -0.47780628041E+01  0.10188654014E+02  0.17038879765E+02  0.00000000000E+00 0. -1.
</event>
<event>
 7    1  0.2989693E-009  0.1229743E+03  0.7561462E-02  0.1238269E+00
          3   -1    0    0  501    0  0.00000000000E+00  0.00000000000E+00  0.65965903394E+02  0.65965903394E+02  0.00000000000E+00 0. -1.
         -3   -1    0    0    0  501 -0.00000000000E+00 -0.00000000000E+00 -0.23468319525E+03  0.23468319525E+03  0.00000000000E+00 0.  1.
         25    2    1    2    0    0  0.54152269813E+02 -0.22567971921E+02 -0.84205642260E+02  0.16180455769E+03  0.12509333723E+03 0.  0.
          5    1    3    3  502    0 -0.26920718984E+02  0.29025459733E+02 -0.12151113772E+02  0.41621201199E+02  0.41800000000E+01 0.  1.
         -5    1    3    3    0  502  0.81072988797E+02 -0.51593431654E+02 -0.72054528487E+02  0.12018335649E+03  0.41800000000E+01 0.  1.
        -11    1    1    2    0    0  0.19283550355E+02 -0.17722080598E+02 -0.16568269894E+02  0.30990886117E+02  0.00000000000E+00 0. -1.
         11    1    1    2    0    0 -0.73435820168E+02  0.40290052519E+02 -0.67943379699E+02  0.10785365483E+03  0.00000000000E+00 0.  1.
</event>
<event>
 7    1  0.2989693E-009  0.1180465E+03  0.7561462E-02  0.1246355E+00
          2   -1    0    0  501    0  0.00000000000E+00  0.00000000000E+00  0.53397425979E+03  0.53397425979E+03  0.00000000000E+00 0. -1.
         -2   -1    0    0    0  501 -0.00000000000E+00 -0.00000000000E+00 -0.32645503911E+02  0.32645503911E+02  0.00000000000E+00 0.  1.
         25    2    1    2    0    0 -0.20899853304E+02  0.71425863740E+02  0.29784721483E+03  0.33151021783E+03  0.12509038037E+03 0.  0.
          5    1    3    3  502    0  0.42290486927E+02  0.68964583194E+02  0.18764969459E+03  0.20438806056E+03  0.41800000000E+01 0.  1.
         -5    1    3    3    0  502 -0.63190340231E+02  0.24612805452E+01  0.11019752024E+03  0.12712215727E+03  0.41800000000E+01 0.  1.
        -11    1    1    2    0    0 -0.18275716759E+02 -0.20597148426E+02  0.69980181390E+01  0.28411557582E+02  0.00000000000E+00 0.  1.
         11    1    1    2    0    0  0.39175570063E+02 -0.50828715314E+02  0.19648352291E+03  0.20669798830E+03  0.00000000000E+00 0. -1.
</event>
<event>
 7    1  0.2989693E-009  0.1100275E+03  0.7561462E-02  0.1260519E+00
          2   -1    0    0  501    0  0.00000000000E+00  0.00000000000E+00  0.61499444697E+03  0.61499444697E+03  0.00000000000E+00 0. -1.
         -2   -1    0    0    0  501 -0.00000000000E+00 -0.00000000000E+00 -0.30115930189E+02  0.30115930189E+02  0.00000000000E+00 0.  1.
         25    2    1    2    0    0 -0.21649775921E+02  0.39205100395E+02  0.15807302489E+03  0.20649260110E+03  0.12508541249E+03 0.  0.
          5    1    3    3  502    0  0.44861643526E+02  0.29214332522E+01  0.20948809921E+02  0.49773756832E+02  0.41800000000E+01 0.  1.
         -5    1    3    3    0  502 -0.66511419447E+02  0.36283667143E+02  0.13712421497E+03  0.15671884427E+03  0.41800000000E+01 0.  1.
        -11    1    1    2    0    0  0.37540639154E+02  0.16566311521E+02  0.22200201304E+03  0.22576234420E+03  0.00000000000E+00 0. -1.
         11    1    1    2    0    0 -0.15890863232E+02 -0.55771411917E+02  0.20480347885E+03  0.21285543185E+03  0.00000000000E+00 0.  1.
</event>
<event>
 7    1  0.2989693E-009  0.8972326E+02  0.7561462E-02  0.1303523E+00
         -4   -1    0    0    0  501 -0.00000000000E+00  0.00000000000E+00  0.12168228362E+03  0.12168228362E+03  0.00000000000E+00 0.  1.
          4   -1    0    0  501    0  0.00000000000E+00 -0.00000000000E+00 -0.15231208627E+03  0.15231208627E+03  0.00000000000E+00 0. -1.
         25    2    1    2    0    0  0.24446284592E+02  0.74461083310E+02  0.68639871472E+01  0.14776433342E+03  0.12508041475E+03 0.  0.
          5    1    3    3  502    0  0.14007452684E+02  0.31600899269E+02 -0.58925877436E+02  0.68443823658E+02  0.41800000000E+01 0. -1.
         -5    1    3    3    0  502  0.10438831908E+02  0.42860184041E+02  0.65789864583E+02  0.79320509766E+02  0.41800000000E+01 0. -1.
        -11    1    1    2    0    0 -0.30823770770E+02 -0.58044087048E+01 -0.47124544497E+02  0.56608468438E+02  0.00000000000E+00 0. -1.
         11    1    1    2    0    0  0.63774861785E+01 -0.68656674605E+02  0.96307547039E+01  0.69621568023E+02  0.00000000000E+00 0.  1.
</event>
<event>
 7    1  0.2989693E-009  0.1146056E+03  0.7561462E-02  0.1252271E+00
          2   -1    0    0  501    0  0.00000000000E+00  0.00000000000E+00  0.68015067529E+03  0.68015067529E+03  0.00000000000E+00 0. -1.
         -2   -1    0    0    0  501 -0.00000000000E+00 -0.00000000000E+00 -0.31771035513E+02  0.31771035513E+02  0.00000000000E+00 0.  1.
         25    2    1    2    0    0  0.51434833376E+02  0.75959979110E+02  0.27605094340E+03  0.31665023017E+03  0.12509110440E+03 0.  0.
          5    1    3    3  502    0  0.37034629406E+02  0.95518353374E+02  0.27324200807E+03  0.29184582741E+03  0.41800000000E+01 0. -1.
         -5    1    3    3    0  502  0.14400203970E+02 -0.19558374264E+02  0.28089353378E+01  0.24804402754E+02  0.41800000000E+01 0. -1.
        -11    1    1    2    0    0 -0.25183768602E+02 -0.40815328422E+01  0.14485437344E+02  0.29337842565E+02  0.00000000000E+00 0.  1.
         11    1    1    2    0    0 -0.26251064774E+02 -0.71878446268E+02  0.35784325903E+03  0.36593363807E+03  0.00000000000E+00 0. -1.
</event>
<event>
 7    1  0.2989693E-009  0.1195338E+03  0.7561462E-02  0.1243868E+00
          1   -1    0    0  501    0  0.00000000000E+00  0.00000000000E+00  0.13095748524E+04  0.13095748524E+04  0.00000000000E+00 0. -1.
         -1   -1    0    0    0  501 -0.00000000000E+00 -0.00000000000E+00 -0.11430638344E+02  0.11430638344E+02  0.00000000000E+00 0.  1.
         25    2    1    2    0    0  0.11143022702E+02  0.41734364045E+02  0.82598029972E+03  0.83651446441E+03  0.12508824706E+03 0.  0.
          5    1    3    3  502    0 -0.42715858095E+02  0.60311968599E+02  0.40984025347E+03  0.41647170835E+03  0.41800000000E+01 0. -1.
         -5    1    3    3    0  502  0.53858880797E+02 -0.18577604554E+02  0.41614004625E+03  0.42004275606E+03  0.41800000000E+01 0. -1.
        -11    1    1    2    0    0 -0.33845289161E+02  0.21927936037E+02  0.15103099054E+03  0.15632241708E+03  0.00000000000E+00 0.  1.
         11    1    1    2    0    0  0.22702266459E+02 -0.63662300083E+02  0.32113292384E+03  0.32816860929E+03  0.00000000000E+00 0. -1.
</event>
<event>
 7    1  0.2989693E-009  0.1999045E+03  0.7561462E-02  0.1149820E+00
          1   -1    0    0  501    0  0.00000000000E+00  0.00000000000E+00  0.49774673707E+03  0.49774673707E+03  0.00000000000E+00 0. -1.
         -1   -1    0    0    0  501 -0.00000000000E+00 -0.00000000000E+00 -0.93137943912E+02  0.93137943912E+02  0.00000000000E+00 0.  1.
         25    2    1    2    0    0 -0.87816674205E+02 -0.16506057050E+03  0.25063854576E+03  0.33678674076E+03  0.12509543528E+03 0.  0.
          5    1    3    3  502    0 -0.83114769277E+02 -0.17665824980E+03  0.18216590050E+03  0.26705446972E+03  0.41800000000E+01 0.  1.
         -5    1    3    3    0  502 -0.47019049281E+01  0.11597679297E+02  0.68472645256E+02  0.69732271033E+02  0.41800000000E+01 0.  1.
        -11    1    1    2    0    0  0.73493283962E+02  0.96519631675E+02  0.55846113794E+02  0.13355182706E+03  0.00000000000E+00 0.  1.
         11    1    1    2    0    0  0.14323390243E+02  0.68540938823E+02  0.98124133603E+02  0.12054611316E+03  0.00000000000E+00 0. -1.
</event>
<event>
 7    1  0.2989693E-009  0.1298942E+03  0.7561462E-02  0.1227613E+00
          1   -1    0    0  501    0  0.00000000000E+00  0.00000000000E+00  0.48201591841E+02  0.48201591841E+02  0.00000000000E+00 0. -1.
         -1   -1    0    0    0  501 -0.00000000000E+00 -0.00000000000E+00 -0.37965886679E+03  0.37965886679E+03  0.00000000000E+00 0.  1.
         25    2    1    2    0    0 -0.22969110571E+02  0.74189053920E+02 -0.14568646470E+03  0.20713306797E+03  0.12509183063E+03 0.  0.
          5    1    3    3  502    0  0.33095598512E+02 -0.18808094863E+02 -0.43642489966E+02  0.58062056488E+02  0.41800000000E+01 0. -1.
         -5    1    3    3    0  502 -0.56064709082E+02  0.92997148783E+02 -0.10204397473E+03  0.14907101149E+03  0.41800000000E+01 0. -1.
        -11    1    1    2    0    0  0.23160882152E+02  0.12374380137E+02 -0.79142992116E+02  0.83385639932E+02  0.00000000000E+00 0.  1.
         11    1    1    2    0    0 -0.19177158157E+00 -0.86563434057E+02 -0.10662781813E+03  0.13734175072E+03  0.00000000000E+00 0. -1.
</event>
<event>
 7    1  0.3448914E-009  0.1185041E+03  0.7561462E-02  0.1245585E+00
         -1   -1    0    0    0  501 -0.00000000000E+00  0.00000000000E+00  0.19407603416E+02  0.19407603416E+02  0.00000000000E+00 0.  1.
          1   -1    0    0  501    0  0.00000000000E+00 -0.00000000000E+00 -0.80163893294E+03  0.80163893294E+03  0.00000000000E+00 0. -1.
         25    2    1    2    0    0 -0.34116828589E+02 -0.45615203094E+02 -0.36155457240E+03  0.38680047881E+03  0.12509275295E+03 0.  0.
          5    1    3    3  502    0  0.24373484335E+02 -0.65654226462E+02 -0.24434659360E+03  0.25421894971E+03  0.41800000000E+01 0. -1.
         -5    1    3    3    0  502 -0.58490312924E+02  0.20039023368E+02 -0.11720797880E+03  0.13258152910E+03  0.41800000000E+01 0. -1.
        -11    1    1    2    0    0 -0.21740240537E+02  0.43912076869E+02 -0.24654355433E+03  0.25136553609E+03  0.00000000000E+00 0. -1.
         11    1    1    2    0    0  0.55857069126E+02  0.17031262251E+01 -0.17413320280E+03  0.18288052145E+03  0.00000000000E+00 0.  1.
</event>
<event>
 7    1  0.2989693E-009  0.1786323E+03  0.7561462E-02  0.1169133E+00
         -2   -1    0    0    0  501 -0.00000000000E+00  0.00000000000E+00  0.74048289749E+02  0.74048289749E+02  0.00000000000E+00 0.  1.
          2   -1    0    0  501    0  0.00000000000E+00 -0.00000000000E+00 -0.64046427311E+03  0.64046427311E+03  0.00000000000E+00 0. -1.
         25    2    1    2    0    0  0.14540777210E+03  0.52743542481E+02 -0.11799456150E+03  0.23128987680E+03  0.12508792550E+03 0.  0.
          5    1    3    3  502    0  0.93854297437E+02  0.84391930137E+02 -0.11464150260E+03  0.17056017571E+03  0.41800000000E+01 0.  1.
         -5    1    3    3    0  502  0.51553474663E+02 -0.31648387657E+02 -0.33530589069E+01  0.60729701095E+02  0.41800000000E+01 0.  1.
        -11    1    1    2    0    0 -0.77345366463E+02  0.97291908237E+01 -0.12915134408E+03  0.15085434215E+03  0.00000000000E+00 0.  1.
         11    1    1    2    0    0 -0.68062405636E+02 -0.62472733304E+02 -0.31927007777E+03  0.33236834390E+03  0.00000000000E+00 0. -1.
</event>
<event>
 7    1  0.2989693E-009  0.1281548E+03  0.7561462E-02  0.1230220E+00
         -2   -1    0    0    0  501 -0.00000000000E+00  0.00000000000E+00  0.68175247100E+02  0.68175247100E+02  0.00000000000E+00 0.  1.
          2   -1    0    0  501    0  0.00000000000E+00 -0.00000000000E+00 -0.39860689838E+03  0.39860689838E+03  0.00000000000E+00 0. -1.
         25    2    1    2    0    0 -0.59187008824E+02  0.85229879948E+02 -0.81619903886E+02  0.18186522991E+03  0.12508364678E+03 0.  0.
          5    1    3    3  502    0 -0.74907403081E+02  0.65307508406E+02 -0.33996091962E+01  0.99524968894E+02  0.41800000000E+01 0. -1.
         -5    1    3    3    0  502  0.15720394258E+02  0.19922371542E+02 -0.78220294689E+02  0.82340261020E+02  0.41800000000E+01 0. -1.
        -11    1    1    2    0    0  0.44478576556E+02 -0.10051138111E+03 -0.16351684082E+03  0.19702446228E+03  0.00000000000E+00 0. -1.
         11    1    1    2    0    0  0.14708432268E+02  0.15281501158E+02 -0.85294906570E+02  0.87892453284E+02  0.00000000000E+00 0.  1.
</event>
<event>
 7    1  0.2989693E-009  0.1225164E+03  0.7561462E-02  0.1239003E+00
         -2   -1    0    0    0  501 -0.00000000000E+00  0.00000000000E+00  0.57434420216E+02  0.57434420216E+02  0.00000000000E+00 0.  1.
          2   -1    0    0  501    0  0.00000000000E+00 -0.00000000000E+00 -0.51455837886E+03  0.51455837886E+03  0.00000000000E+00 0. -1.
         25    2    1    2    0    0  0.92200766456E+02 -0.26983796861E+02 -0.38681173934E+03  0.41773230619E+03  0.12509137185E+03 0.  0.
          5    1    3    3  502    0 -0.26622537045E+02 -0.92955408937E+01 -0.30766158620E+02  0.41942764279E+02  0.41800000000E+01 0. -1.
         -5    1    3    3    0  502  0.11882330350E+03 -0.17688255967E+02 -0.35604558072E+03  0.37578954191E+03  0.41800000000E+01 0. -1.
        -11    1    1    2    0    0 -0.22045109113E+02  0.33918665248E+01 -0.76787778033E+02  0.79961581085E+02  0.00000000000E+00 0. -1.
         11    1    1    2    0    0 -0.70155657343E+02  0.23591930336E+02  0.64755587340E+01  0.74298911803E+02  0.00000000000E+00 0.  1.
</event>
<event>
 7    1  0.2989693E-009  0.1115705E+03  0.7561462E-02  0.1257689E+00
          4   -1    0    0  501    0  0.00000000000E+00  0.00000000000E+00  0.25518269611E+03  0.25518269611E+03  0.00000000000E+00 0. -1.
         -4   -1    0    0    0  501 -0.00000000000E+00 -0.00000000000E+00 -0.52611444647E+02  0.52611444647E+02  0.00000000000E+00 0.  1.
         25    2    1    2    0    0  0.18297279220E+02 -0.15611229539E+02  0.15129724939E+03  0.19778042436E+03  0.12509091762E+03 0.  0.
          5    1    3    3  502    0  0.66537487503E+02  0.15634272101E+02  0.95949546773E+02  0.11787898724E+03  0.41800000000E+01 0. -1.
         -5    1    3    3    0  502 -0.48240208283E+02 -0.31245501640E+02  0.55347702621E+02  0.79901437117E+02  0.41800000000E+01 0. -1.
        -11    1    1    2    0    0 -0.53450396496E+02 -0.88938582819E+01  0.32883289344E+02  0.63382618428E+02  0.00000000000E+00 0.  1.
         11    1    1    2    0    0  0.35153117276E+02  0.24505087821E+02  0.18390712724E+02  0.46631097969E+02  0.00000000000E+00 0. -1.
</event>
<event>
 7    1  0.2989693E-009  0.1742030E+03  0.7561462E-02  0.1173534E+00
          2   -1    0    0  501    0  0.00000000000E+00  0.00000000000E+00  0.14503956204E+04  0.14503956204E+04  0.00000000000E+00 0.  1.
         -2   -1    0    0    0  501 -0.00000000000E+00 -0.00000000000E+00 -0.26829255213E+02  0.26829255213E+02  0.00000000000E+00 0. -1.
         25    2    1    2    0    0 -0.16227129009E+03 -0.17446933683E+00  0.62930208495E+03  0.66181578230E+03  0.12508802321E+03 0.  0.
          5    1    3    3  502    0 -0.11452955704E+03 -0.98569646899E+01  0.20801680619E+03  0.23770284653E+03  0.41800000000E+01 0.  1.
         -5    1    3    3    0  502 -0.47741733053E+02  0.96824953531E+01  0.42128527876E+03  0.42411293577E+03  0.41800000000E+01 0.  1.
        -11    1    1    2    0    0  0.88506965656E+02  0.43834935299E+02  0.42814765875E+03  0.43939208256E+03  0.00000000000E+00 0.  1.
         11    1    1    2    0    0  0.73764324436E+02 -0.43660465962E+02  0.36611662147E+03  0.37601701074E+03  0.00000000000E+00 0. -1.
</event>
<event>
 7    1  0.2989693E-009  0.1288076E+03  0.7561462E-02  0.1229236E+00
         -3   -1    0    0    0  501 -0.00000000000E+00  0.00000000000E+00  0.33730302441E+02  0.33730302441E+02  0.00000000000E+00 0.  1.
          3   -1    0    0  501    0  0.00000000000E+00 -0.00000000000E+00 -0.72637894253E+03  0.72637894253E+03  0.00000000000E+00 0. -1.
         25    2    1    2    0    0 -0.33731719271E+02  0.99387259123E+02 -0.48025733722E+03  0.50725711898E+03  0.12508804354E+03 0.  0.
          5    1    3    3  502    0 -0.52472230677E+02  0.33875399445E+02 -0.38504306166E+03  0.39009807666E+03  0.41800000000E+01 0. -1.
         -5    1    3    3    0  502  0.18740511405E+02  0.65511859678E+02 -0.95214275562E+02  0.11715904232E+03  0.41800000000E+01 0. -1.
        -11    1    1    2    0    0 -0.21465332573E+02 -0.16095492038E+02 -0.94887345977E+02  0.98607473312E+02  0.00000000000E+00 0. -1.
         11    1    1    2    0    0  0.55197051845E+02 -0.83291767085E+02 -0.11750395689E+03  0.15424465268E+03  0.00000000000E+00 0.  1.
</event>
<event>
 7    1  0.2989693E-009  0.1223450E+03  0.7561462E-02  0.1239278E+00
          1   -1    0    0  501    0  0.00000000000E+00  0.00000000000E+00  0.41758618952E+03  0.41758618952E+03  0.00000000000E+00 0. -1.
         -1   -1    0    0    0  501 -0.00000000000E+00 -0.00000000000E+00 -0.42567728282E+02  0.42567728282E+02  0.00000000000E+00 0.  1.
         25    2    1    2    0    0  0.67590550619E+02 -0.35673415122E+01  0.14216742419E+03  0.20109685006E+03  0.12508860118E+03 0.  0.
          5    1    3    3  502    0 -0.73889018508E+01  0.47881373024E+02  0.68433574848E+02  0.83951464071E+02  0.41800000000E+01 0.  1.
         -5    1    3    3    0  502  0.74979452469E+02 -0.51448714536E+02  0.73733849345E+02  0.11714538599E+03  0.41800000000E+01 0.  1.
        -11    1    1    2    0    0 -0.25433549965E+02  0.41268569213E+02  0.15782640604E+03  0.16510340612E+03  0.00000000000E+00 0.  1.
         11    1    1    2    0    0 -0.42157000654E+02 -0.37701227701E+02  0.75024631003E+02  0.93953661618E+02  0.00000000000E+00 0. -1.
</event>
<event>
 7    1  0.2989693E-009  0.9372602E+02  0.7561462E-02  0.1294071E+00
          2   -1    0    0  501    0  0.00000000000E+00  0.00000000000E+00  0.90885127095E+03  0.90885127095E+03  0.00000000000E+00 0. -1.
         -2   -1    0    0    0  501 -0.00000000000E+00 -0.00000000000E+00 -0.15979987568E+02  0.15979987568E+02  0.00000000000E+00 0.  1.
         25    2    1    2    0    0 -0.34329023697E+02 -0.30473866828E+02  0.59048306511E+03  0.60532578559E+03  0.12506765405E+03 0.  0.
          5    1    3    3  502    0 -0.52595252783E+01 -0.49936757931E+02  0.54720471673E+03  0.54951962368E+03  0.41800000000E+01 0. -1.
         -5    1    3    3    0  502 -0.29069498419E+02  0.19462891103E+02  0.43278348383E+02  0.55806161911E+02  0.41800000000E+01 0. -1.
        -11    1    1    2    0    0  0.35119289873E+02  0.61487110945E+02  0.23243567017E+03  0.24298224235E+03  0.00000000000E+00 0.  1.
         11    1    1    2    0    0 -0.79026617641E+00 -0.31013244118E+02  0.69952548102E+02  0.76523230572E+02  0.00000000000E+00 0. -1.
</event>
<event>
 7    1  0.2989693E-009  0.1067961E+03  0.7561462E-02  0.1266621E+00
         -3   -1    0    0    0  501 -0.00000000000E+00  0.00000000000E+00  0.19699980719E+03  0.19699980719E+03  0.00000000000E+00 0.  1.
          3   -1    0    0  501    0  0.00000000000E+00 -0.00000000000E+00 -0.14256507310E+03  0.14256507310E+03  0.00000000000E+00 0. -1.
         25    2    1    2    0    0  0.90605311400E+01  0.25086514052E+02  0.15523413040E+03  0.20113849808E+03  0.12509050226E+03 0.  0.
          5    1    3    3  502    0 -0.52453619003E+02  0.88447669219E+00  0.10686754435E+03  0.11912308290E+03  0.41800000000E+01 0.  1.
         -5    1    3    3    0  502  0.61514150143E+02  0.24202037360E+02  0.48366586057E+02  0.82015415179E+02  0.41800000000E+01 0.  1.
        -11    1    1    2    0    0  0.41143098550E+02 -0.11346174801E+02 -0.41603134424E+02  0.59601267057E+02  0.00000000000E+00 0.  1.
         11    1    1    2    0    0 -0.50203629690E+02 -0.13740339251E+02 -0.59196261889E+02  0.78825115150E+02  0.00000000000E+00 0. -1.
</event>
<event>
 7    1  0.2989693E-009  0.1585841E+03  0.7561462E-02  0.1190305E+00
          2   -1    0    0  501    0  0.00000000000E+00  0.00000000000E+00  0.14532744733E+04  0.14532744733E+04  0.00000000000E+00 0. -1.
         -2   -1    0    0    0  501 -0.00000000000E+00 -0.00000000000E+00 -0.26823917139E+02  0.26823917139E+02  0.00000000000E+00 0.  1.
         25    2    1    2    0    0  0.37876962561E+02  0.12445008167E+03  0.10457747490E+04  0.10612327224E+04  0.12509028054E+03 0.  0.
          5    1    3    3  502    0  0.76104385958E+02  0.10651235406E+03  0.64127927517E+03  0.65451763940E+03  0.41800000000E+01 0. -1.
         -5    1    3    3    0  502 -0.38227423398E+02  0.17937727612E+02  0.40449547387E+03  0.40671508301E+03  0.41800000000E+01 0. -1.
        -11    1    1    2    0    0 -0.49983602577E+02 -0.59575116975E+02  0.31967070429E+03  0.32899379062E+03  0.00000000000E+00 0. -1.
         11    1    1    2    0    0  0.12106640016E+02 -0.64874964696E+02  0.61005102870E+02  0.89871877431E+02  0.00000000000E+00 0.  1.
</event>
<event>
 7    1  0.2989693E-009  0.1272026E+03  0.7561462E-02  0.1231667E+00
          2   -1    0    0  501    0  0.00000000000E+00  0.00000000000E+00  0.39870290374E+03  0.39870290374E+03  0.00000000000E+00 0. -1.
         -2   -1    0    0    0  501 -0.00000000000E+00 -0.00000000000E+00 -0.47357421842E+02  0.47357421842E+02  0.00000000000E+00 0.  1.
         25    2    1    2    0    0 -0.17638418162E+02  0.77877118201E+02  0.14904047128E+03  0.21032717802E+03  0.12509396628E+03 0.  0.
          5    1    3    3  502    0 -0.15144154686E+01 -0.34498903743E+02  0.33544102454E+02  0.48323358980E+02  0.41800000000E+01 0. -1.
         -5    1    3    3    0  502 -0.16124002694E+02  0.11237602194E+03  0.11549636882E+03  0.16200381904E+03  0.41800000000E+01 0. -1.
        -11    1    1    2    0    0  0.39595616695E+02 -0.73704596075E+02  0.19504616086E+03  0.21223379847E+03  0.00000000000E+00 0.  1.
         11    1    1    2    0    0 -0.21957198533E+02 -0.41725221267E+01  0.72588497593E+01  0.23499349100E+02  0.00000000000E+00 0. -1.
</event>
<event>
 7    1  0.2989693E-009  0.1740551E+03  0.7561462E-02  0.1173684E+00
          2   -1    0    0  501    0  0.00000000000E+00  0.00000000000E+00  0.96624692140E+03  0.96624692140E+03  0.00000000000E+00 0. -1.
         -2   -1    0    0    0  501 -0.00000000000E+00 -0.00000000000E+00 -0.37744481353E+02  0.37744481353E+02  0.00000000000E+00 0.  1.
         25    2    1    2    0    0  0.80629635101E+02  0.13253932909E+03  0.42796324064E+03  0.47209314286E+03  0.12510630832E+03 0.  0.
          5    1    3    3  502    0  0.65550492204E+01  0.94953699609E+02  0.12068356580E+03  0.15375685089E+03  0.41800000000E+01 0. -1.
         -5    1    3    3    0  502  0.74074585880E+02  0.37585629479E+02  0.30727967484E+03  0.31833629197E+03  0.41800000000E+01 0. -1.
        -11    1    1    2    0    0 -0.52387197237E+02 -0.24195759483E+02  0.94684835226E+02  0.11088314224E+03  0.00000000000E+00 0.  1.
         11    1    1    2    0    0 -0.28242437864E+02 -0.10834356961E+03  0.40585436418E+03  0.42101511766E+03  0.00000000000E+00 0. -1.
</event>
<event>
 7    1  0.2989693E-009  0.1291437E+03  0.7561462E-02  0.1228732E+00
         -2   -1    0    0    0  501 -0.00000000000E+00  0.00000000000E+00  0.19883606578E+03  0.19883606578E+03  0.00000000000E+00 0.  1.
          2   -1    0    0  501    0  0.00000000000E+00 -0.00000000000E+00 -0.11384903372E+03  0.11384903372E+03  0.00000000000E+00 0. -1.
         25    2    1    2    0    0  0.13042003441E+02  0.10031060297E+03  0.20374925369E+02  0.16215480575E+03  0.12508689989E+03 0.  0.
          5    1    3    3  502    0 -0.22355957976E+02  0.87202332128E+02  0.59215060467E+02  0.10783288632E+03  0.41800000000E+01 0. -1.
         -5    1    3    3    0  502  0.35397961417E+02  0.13108270838E+02 -0.38840135097E+02  0.54321919436E+02  0.41800000000E+01 0. -1.
        -11    1    1    2    0    0  0.34790259118E+02 -0.48347444033E+02  0.51407262653E+02  0.78680010979E+02  0.00000000000E+00 0.  1.
         11    1    1    2    0    0 -0.47832262559E+02 -0.51963158932E+02  0.13204844033E+02  0.71850282767E+02  0.00000000000E+00 0. -1.
</event>
<event>
 7    1  0.2989693E-009  0.1094121E+03  0.7561462E-02  0.1261662E+00
         -2   -1    0    0    0  501 -0.00000000000E+00  0.00000000000E+00  0.13904615609E+03  0.13904615609E+03  0.00000000000E+00 0. -1.
          2   -1    0    0  501    0  0.00000000000E+00 -0.00000000000E+00 -0.17783116492E+03  0.17783116492E+03  0.00000000000E+00 0.  1.
         25    2    1    2    0    0 -0.30277729361E+02  0.84368828282E+02  0.49249570673E+02  0.16158050020E+03  0.12509155747E+03 0.  0.
          5    1    3    3  502    0 -0.11429473349E+01  0.85737732957E+01  0.75523148172E+02  0.76131690030E+02  0.41800000000E+01 0.  1.
         -5    1    3    3    0  502 -0.29134782026E+02  0.75795054986E+02 -0.26273577499E+02  0.85448810165E+02  0.41800000000E+01 0.  1.
        -11    1    1    2    0    0 -0.18300349225E+02  0.10663012779E+02 -0.13440468994E+02  0.25084832669E+02  0.00000000000E+00 0.  1.
         11    1    1    2    0    0  0.48578078586E+02 -0.95031841062E+02 -0.74594110502E+02  0.13021198814E+03  0.00000000000E+00 0. -1.
</event>
<event>
 7    1  0.2989693E-009  0.2053154E+03  0.7561462E-02  0.1145330E+00
          1   -1    0    0  501    0  0.00000000000E+00  0.00000000000E+00  0.59918066595E+03  0.59918066595E+03  0.00000000000E+00 0. -1.
         -1   -1    0    0    0  501 -0.00000000000E+00 -0.00000000000E+00 -0.10404076007E+03  0.10404076007E+03  0.00000000000E+00 0.  1.
         25    2    1    2    0    0  0.11074099192E+03  0.15693326011E+03  0.41576541497E+03  0.47476171418E+03  0.12508472950E+03 0.  0.
          5    1    3    3  502    0  0.42595612132E+02  0.11636546220E+03  0.35109496164E+03  0.37234453327E+03  0.41800000000E+01 0. -1.
         -5    1    3    3    0  502  0.68145379785E+02  0.40567797909E+02  0.64670453325E+02  0.10241718091E+03  0.41800000000E+01 0. -1.
        -11    1    1    2    0    0 -0.74324265602E+02 -0.39277326339E+02  0.42039198378E+01  0.84169339807E+02  0.00000000000E+00 0.  1.
         11    1    1    2    0    0 -0.36416726315E+02 -0.11765593377E+03  0.75170571078E+02  0.14429037204E+03  0.00000000000E+00 0. -1.
</event>
<event>
 7    1  0.2989693E-009  0.1050443E+03  0.7561462E-02  0.1270032E+00
         -1   -1    0    0    0  501 -0.00000000000E+00  0.00000000000E+00  0.41742886180E+02  0.41742886180E+02  0.00000000000E+00 0.  1.
          1   -1    0    0  501    0  0.00000000000E+00 -0.00000000000E+00 -0.32867104607E+03  0.32867104607E+03  0.00000000000E+00 0. -1.
         25    2    1    2    0    0 -0.46404160255E+00 -0.28841687834E+02 -0.10920469462E+03  0.16853979796E+03  0.12509172586E+03 0.  0.
          5    1    3    3  502    0 -0.43560164200E+01 -0.77486292824E+02 -0.79890520534E+02  0.11145881807E+03  0.41800000000E+01 0.  1.
         -5    1    3    3    0  502  0.38919748174E+01  0.48644604991E+02 -0.29314174090E+02  0.57080979890E+02  0.41800000000E+01 0.  1.
        -11    1    1    2    0    0 -0.37058178583E+02  0.17335389495E+01 -0.32059554157E+02  0.49031915829E+02  0.00000000000E+00 0.  1.
         11    1    1    2    0    0  0.37522220185E+02  0.27108148884E+02 -0.14566391111E+03  0.15284221846E+03  0.00000000000E+00 0. -1.
</event>
<event>
 7    1  0.2989693E-009  0.9886514E+02  0.7561462E-02  0.1282701E+00
          2   -1    0    0  501    0  0.00000000000E+00  0.00000000000E+00  0.76038623330E+03  0.76038623330E+03  0.00000000000E+00 0.  1.
         -2   -1    0    0    0  501 -0.00000000000E+00 -0.00000000000E+00 -0.24624740145E+02  0.24624740145E+02  0.00000000000E+00 0. -1.
         25    2    1    2    0    0 -0.13896965161E+02  0.52501122503E+02  0.22709409470E+03  0.26489370418E+03  0.12508978041E+03 0.  0.
          5    1    3    3  502    0  0.28828904215E+02  0.41838974186E+02  0.22767736296E+02  0.55834108707E+02  0.41800000000E+01 0.  1.
         -5    1    3    3    0  502 -0.42725869376E+02  0.10662148318E+02  0.20432635840E+03  0.20905959547E+03  0.41800000000E+01 0.  1.
        -11    1    1    2    0    0  0.43712706457E+02 -0.57556112181E+02  0.42610071754E+03  0.43218668217E+03  0.00000000000E+00 0.  1.
         11    1    1    2    0    0 -0.29815741296E+02  0.50549896780E+01  0.82566680914E+02  0.87930587095E+02  0.00000000000E+00 0. -1.
</event>
<event>
 7    1  0.2989693E-009  0.1240134E+03  0.7561462E-02  0.1236619E+00
          3   -1    0    0  501    0  0.00000000000E+00  0.00000000000E+00  0.25374960816E+03  0.25374960816E+03  0.00000000000E+00 0. -1.
         -3   -1    0    0    0  501 -0.00000000000E+00 -0.00000000000E+00 -0.73686870260E+02  0.73686870260E+02  0.00000000000E+00 0.  1.
         25    2    1    2    0    0 -0.53811002366E+02 -0.62060544296E+02  0.94625289612E+02  0.17707644808E+03  0.12511989409E+03 0.  0.
          5    1    3    3  502    0 -0.13740149467E+01 -0.89730628743E+02  0.50578791462E+02  0.10309781859E+03  0.41800000000E+01 0. -1.
         -5    1    3    3    0  502 -0.52436987419E+02  0.27670084447E+02  0.44046498149E+02  0.73978629496E+02  0.41800000000E+01 0. -1.
        -11    1    1    2    0    0  0.12136695864E+02  0.55197283537E+02  0.16621840812E+01  0.56540271951E+02  0.00000000000E+00 0.  1.
         11    1    1    2    0    0  0.41674306501E+02  0.68632607593E+01  0.83775264210E+02  0.93819758389E+02  0.00000000000E+00 0. -1.
</event>
<event>
 7    1  0.2989693E-009  0.1880261E+03  0.7561462E-02  0.1160254E+00
          2   -1    0    0  501    0  0.00000000000E+00  0.00000000000E+00  0.14548003386E+03  0.14548003386E+03  0.00000000000E+00 0.  1.
         -2   -1    0    0    0  501 -0.00000000000E+00 -0.00000000000E+00 -0.32588692344E+03  0.32588692344E+03  0.00000000000E+00 0. -1.
         25    2    1    2    0    0  0.15171305828E+03  0.86532849814E+02 -0.17055640800E+03  0.27430022888E+03  0.12508533531E+03 0.  0.
          5    1    3    3  502    0  0.75883117174E+02  0.96927221513E+02 -0.15161790442E+03  0.19534225115E+03  0.41800000000E+01 0.  1.
         -5    1    3    3    0  502  0.75829941104E+02 -0.10394371698E+02 -0.18938503576E+02  0.78957977738E+02  0.41800000000E+01 0.  1.
        -11    1    1    2    0    0 -0.79566338207E+02 -0.58805575966E+02  0.38199551257E+02  0.10605707735E+03  0.00000000000E+00 0. -1.
         11    1    1    2    0    0 -0.72146720071E+02 -0.27727273848E+02 -0.48050032839E+02  0.91009651070E+02  0.00000000000E+00 0.  1.
</event>
<event>
 7    1  0.2989693E-009  0.1089505E+03  0.7561462E-02  0.1262526E+00
         -1   -1    0    0    0  501 -0.00000000000E+00  0.00000000000E+00  0.25026764296E+03  0.25026764296E+03  0.00000000000E+00 0.  1.
          1   -1    0    0  501    0  0.00000000000E+00 -0.00000000000E+00 -0.54612368769E+02  0.54612368769E+02  0.00000000000E+00 0. -1.
         25    2    1    2    0    0 -0.24205206133E+02  0.27506975420E+02  0.14237560332E+03  0.19303011495E+03  0.12508911685E+03 0.  0.
          5    1    3    3  502    0 -0.51413360982E+02 -0.33978301652E+02  0.81269814462E+02  0.10207895872E+03  0.41800000000E+01 0.  1.
         -5    1    3    3    0  502  0.27208154849E+02  0.61485277072E+02  0.61105788859E+02  0.90951156227E+02  0.41800000000E+01 0.  1.
        -11    1    1    2    0    0  0.11610066373E+02 -0.56223231769E+02  0.97957993563E+01  0.58239188840E+02  0.00000000000E+00 0. -1.
         11    1    1    2    0    0  0.12595139760E+02  0.28716256349E+02  0.43483871509E+02  0.53610707939E+02  0.00000000000E+00 0.  1.
</event>
<event>
 7    1  0.2989693E-009  0.1142080E+03  0.7561462E-02  0.1252970E+00
         -2   -1    0    0    0  501 -0.00000000000E+00  0.00000000000E+00  0.34580641084E+02  0.34580641084E+02  0.00000000000E+00 0.  1.
          2   -1    0    0  501    0  0.00000000000E+00 -0.00000000000E+00 -0.68255373370E+03  0.68255373370E+03  0.00000000000E+00 0. -1.
         25    2    1    2    0    0 -0.63474851603E+02 -0.70990239160E+02 -0.46202230826E+03  0.48802657126E+03  0.12504659165E+03 0.  0.
          5    1    3    3  502    0 -0.25820596524E+02 -0.23561720656E+02 -0.39890780575E+03  0.40045819729E+03  0.41800000000E+01 0.  1.
         -5    1    3    3    0  502 -0.37654255079E+02 -0.47428518504E+02 -0.63114502507E+02  0.87568373970E+02  0.41800000000E+01 0.  1.
        -11    1    1    2    0    0  0.86483681225E+02  0.66432366559E+02 -0.13947009197E+03  0.17704404254E+03  0.00000000000E+00 0.  1.
         11    1    1    2    0    0 -0.23008829622E+02  0.45578726010E+01 -0.46480692383E+02  0.52063760982E+02  0.00000000000E+00 0. -1.
</event>
<event>
 7    1  0.2989693E-009  0.9816406E+02  0.7561462E-02  0.1284205E+00
         -1   -1    0    0    0  501 -0.00000000000E+00  0.00000000000E+00  0.36275406939E+02  0.36275406939E+02  0.00000000000E+00 0.  1.
          1   -1    0    0  501    0  0.00000000000E+00 -0.00000000000E+00 -0.41718144101E+03  0.41718144101E+03  0.00000000000E+00 0. -1.
         25    2    1    2    0    0 -0.88847730297E+01  0.13591606573E+02 -0.31547484523E+03  0.33975927807E+03  0.12509323762E+03 0.  0.
          5    1    3    3  502    0 -0.14265627157E+02  0.62834162929E+02 -0.10314859341E+03  0.12169118650E+03  0.41800000000E+01 0. -1.
         -5    1    3    3    0  502  0.53808541275E+01 -0.49242556357E+02 -0.21232625182E+03  0.21806809157E+03  0.41800000000E+01 0. -1.
        -11    1    1    2    0    0 -0.32120979382E+02  0.11332489456E+02 -0.54839013292E+02  0.64556177184E+02  0.00000000000E+00 0. -1.
         11    1    1    2    0    0  0.41005752412E+02 -0.24924096029E+02 -0.10592175550E+02  0.49141392701E+02  0.00000000000E+00 0.  1.
</event>
<event>
 7    1  0.2989693E-009  0.1462878E+03  0.7561462E-02  0.1205110E+00
          2   -1    0    0  501    0  0.00000000000E+00  0.00000000000E+00  0.10645740449E+04  0.10645740449E+04  0.00000000000E+00 0. -1.
         -2   -1    0    0    0  501 -0.00000000000E+00 -0.00000000000E+00 -0.23909320157E+02  0.23909320157E+02  0.00000000000E+00 0.  1.
         25    2    1    2    0    0  0.10659018172E+03 -0.45365738240E+02  0.53159779689E+03  0.55826835798E+03  0.12509126596E+03 0.  0.
          5    1    3    3  502    0 -0.19378123477E+02 -0.22415665123E+02  0.38283741009E+02  0.48591058211E+02  0.41800000000E+01 0. -1.
         -5    1    3    3    0  502  0.12596830520E+03 -0.22950073117E+02  0.49331405588E+03  0.50967729977E+03  0.41800000000E+01 0. -1.
        -11    1    1    2    0    0  0.72113750294E+01  0.15178137199E+02  0.15710459654E+02  0.23004310926E+02  0.00000000000E+00 0.  1.
         11    1    1    2    0    0 -0.11380155675E+03  0.30187601041E+02  0.49335646822E+03  0.50721069617E+03  0.00000000000E+00 0. -1.
</event>
<event>
 7    1  0.2989693E-009  0.1027030E+03  0.7561462E-02  0.1274712E+00
         -2   -1    0    0    0  501 -0.00000000000E+00  0.00000000000E+00  0.33316221655E+02  0.33316221655E+02  0.00000000000E+00 0.  1.
          2   -1    0    0  501    0  0.00000000000E+00 -0.00000000000E+00 -0.53526218672E+03  0.53526218672E+03  0.00000000000E+00 0. -1.
         25    2    1    2    0    0  0.58944332277E+02  0.44792079020E+02 -0.22759340496E+03  0.27005172945E+03  0.12509362073E+03 0.  0.
          5    1    3    3  502    0  0.55741055828E+02  0.93286744726E-01 -0.22796432342E+02  0.60367406229E+02  0.41800000000E+01 0. -1.
         -5    1    3    3    0  502  0.32032764483E+01  0.44698792275E+02 -0.20479697261E+03  0.20968432322E+03  0.41800000000E+01 0. -1.
        -11    1    1    2    0    0  0.17633654314E+02 -0.11114395290E+02 -0.14115194092E+02  0.25173681721E+02  0.00000000000E+00 0.  1.
         11    1    1    2    0    0 -0.76577986591E+02 -0.33677683730E+02 -0.26023736602E+03  0.27335299721E+03  0.00000000000E+00 0. -1.
</event>
<event>
 7    1  0.2989693E-009  0.1509667E+03  0.7561462E-02  0.1199290E+00
         -1   -1    0    0    0  501 -0.00000000000E+00  0.00000000000E+00  0.89118568982E+02  0.89118568982E+02  0.00000000000E+00 0.  1.
          1   -1    0    0  501    0  0.00000000000E+00 -0.00000000000E+00 -0.42347730057E+03  0.42347730057E+03  0.00000000000E+00 0. -1.
         25    2    1    2    0    0  0.39568084706E+02  0.98704535466E+02 -0.33310444253E+03  0.37136803356E+03  0.12508968010E+03 0.  0.
          5    1    3    3  502    0  0.81011379609E+02  0.44935905345E+02 -0.15376266648E+03  0.17956199269E+03  0.41800000000E+01 0.  1.
         -5    1    3    3    0  502 -0.41443294903E+02  0.53768630121E+02 -0.17934177605E+03  0.19180604087E+03  0.41800000000E+01 0.  1.
        -11    1    1    2    0    0 -0.52746267991E+02 -0.12803066324E+02 -0.20753186798E+01  0.54317531626E+02  0.00000000000E+00 0. -1.
         11    1    1    2    0    0  0.13178183285E+02 -0.85901469142E+02  0.82102962279E+00  0.86910304366E+02  0.00000000000E+00 0.  1.
</event>
<event>
 7    1  0.2989693E-009  0.9570638E+02  0.7561462E-02  0.1289593E+00
         -2   -1    0    0    0  501 -0.00000000000E+00  0.00000000000E+00  0.42661145373E+03  0.42661145373E+03  0.00000000000E+00 0.  1.
          2   -1    0    0  501    0  0.00000000000E+00 -0.00000000000E+00 -0.39566921822E+02  0.39566921822E+02  0.00000000000E+00 0. -1.
         25    2    1    2    0    0  0.59503385937E+02 -0.13802220502E+01  0.22725380996E+03  0.26614538181E+03  0.12508601906E+03 0.  0.
          5    1    3    3  502    0  0.64662338746E+01 -0.55115547240E+02  0.56044617111E+02  0.78981056179E+02  0.41800000000E+01 0.  1.
         -5    1    3    3    0  502  0.53037152063E+02  0.53735325189E+02  0.17120919285E+03  0.18716432563E+03  0.41800000000E+01 0.  1.
        -11    1    1    2    0    0 -0.29977597385E+02 -0.36327049795E+01  0.16660480093E+03  0.16931926229E+03  0.00000000000E+00 0.  1.
         11    1    1    2    0    0 -0.29525788552E+02  0.50129270297E+01 -0.68140789847E+01  0.30713731448E+02  0.00000000000E+00 0. -1.
</event>
<event>
 7    1  0.2989693E-009  0.2991230E+03  0.7561462E-02  0.1085680E+00
          2   -1    0    0  501    0  0.00000000000E+00  0.00000000000E+00  0.23102205605E+04  0.23102205605E+04  0.00000000000E+00 0. -1.
         -2   -1    0    0    0  501 -0.00000000000E+00 -0.00000000000E+00 -0.42886221905E+02  0.42886221905E+02  0.00000000000E+00 0.  1.
         25    2    1    2    0    0 -0.10920765154E+03 -0.27447300649E+03  0.11504858608E+04  0.11943731391E+04  0.12509091462E+03 0.  0.
          5    1    3    3  502    0 -0.50069027781E+02 -0.50807064099E+02  0.13375760149E+03  0.15164706941E+03  0.41800000000E+01 0.  1.
         -5    1    3    3    0  502 -0.59138623763E+02 -0.22366594239E+03  0.10167282593E+04  0.10427260697E+04  0.41800000000E+01 0.  1.
        -11    1    1    2    0    0  0.61468325398E+02  0.15373361276E+03  0.45301255799E+03  0.48232018040E+03  0.00000000000E+00 0.  1.
         11    1    1    2    0    0  0.47739326146E+02  0.12073939374E+03  0.66383591978E+03  0.67641346295E+03  0.00000000000E+00 0. -1.
</event>
<event>
 7    1  0.2989693E-009  0.6676677E+02  0.7561462E-02  0.1371446E+00
         -1   -1    0    0    0  501 -0.00000000000E+00  0.00000000000E+00  0.12985004144E+03  0.12985004144E+03  0.00000000000E+00 0.  1.
          1   -1    0    0  501    0  0.00000000000E+00 -0.00000000000E+00 -0.87793486576E+02  0.87793486576E+02  0.00000000000E+00 0. -1.
         25    2    1    2    0    0  0.55408654158E+01 -0.24627521719E+02  0.80906249773E+01  0.12786888295E+03  0.12509107482E+03 0.  0.
          5    1    3    3  502    0 -0.15715576507E+02  0.75773332563E+01  0.60243550778E+02  0.62858198626E+02  0.41800000000E+01 0.  1.
         -5    1    3    3    0  502  0.21256441923E+02 -0.32204854975E+02 -0.52152925801E+02  0.65010684328E+02  0.41800000000E+01 0.  1.
        -11    1    1    2    0    0 -0.39131736648E+02  0.13343608730E+02  0.97001153444E+00  0.41355599735E+02  0.00000000000E+00 0.  1.
         11    1    1    2    0    0  0.33590871233E+02  0.11283912989E+02  0.32995918355E+02  0.48419045329E+02  0.00000000000E+00 0. -1.
</event>
<event>
 7    1  0.2989693E-009  0.3891645E+03  0.7561462E-02  0.1047598E+00
         -2   -1    0    0    0  501 -0.00000000000E+00  0.00000000000E+00  0.12152429236E+03  0.12152429236E+03  0.00000000000E+00 0. -1.
          2   -1    0    0  501    0  0.00000000000E+00 -0.00000000000E+00 -0.13282116466E+04  0.13282116466E+04  0.00000000000E+00 0.  1.
         25    2    1    2    0    0  0.11250831728E+03  0.36672344285E+03 -0.52590748455E+03  0.66284994214E+03  0.12508860260E+03 0.  0.
          5    1    3    3  502    0  0.75760245617E+02  0.16509702826E+03 -0.15396118116E+03  0.23815575001E+03  0.41800000000E+01 0.  1.
         -5    1    3    3    0  502  0.36748071663E+02  0.20162641459E+03 -0.37194630338E+03  0.42469419213E+03  0.41800000000E+01 0.  1.
        -11    1    1    2    0    0 -0.11337995330E+03 -0.24553038509E+03 -0.51285655975E+03  0.57979482120E+03  0.00000000000E+00 0.  1.
         11    1    1    2    0    0  0.87163601458E+00 -0.12119305775E+03 -0.16792330996E+03  0.20709117563E+03  0.00000000000E+00 0. -1.
</event>
<event>
 7    1  0.2989693E-009  0.2061613E+03  0.7561462E-02  0.1144642E+00
          2   -1    0    0  501    0  0.00000000000E+00  0.00000000000E+00  0.22337232310E+04  0.22337232310E+04  0.00000000000E+00 0. -1.
         -2   -1    0    0    0  501 -0.00000000000E+00 -0.00000000000E+00 -0.22145116783E+02  0.22145116783E+02  0.00000000000E+00 0.  1.
         25    2    1    2    0    0 -0.17443433724E+03 -0.20196644042E+02  0.15658036760E+04  0.15805772684E+04  0.12509239453E+03 0.  0.
          5    1    3    3  502    0  0.27847592411E+01 -0.36838369024E+02  0.30742927605E+03  0.30966926307E+03  0.41800000000E+01 0.  1.
         -5    1    3    3    0  502 -0.17721909648E+03  0.16641724982E+02  0.12583744000E+04  0.12709080054E+04  0.41800000000E+01 0.  1.
        -11    1    1    2    0    0  0.15275877955E+03 -0.17350471108E+02  0.48586783327E+03  0.50961145492E+03  0.00000000000E+00 0.  1.
         11    1    1    2    0    0  0.21675557690E+02  0.37547115150E+02  0.15990660491E+03  0.16567962443E+03  0.00000000000E+00 0. -1.
</event>
<event>
 7    1  0.2989693E-009  0.1324066E+03  0.7561462E-02  0.1223928E+00
         -1   -1    0    0    0  501 -0.00000000000E+00  0.00000000000E+00  0.58668565112E+02  0.58668565112E+02  0.00000000000E+00 0.  1.
          1   -1    0    0  501    0  0.00000000000E+00 -0.00000000000E+00 -0.52867078682E+03  0.52867078682E+03  0.00000000000E+00 0. -1.
         25    2    1    2    0    0  0.52236541432E+02  0.59495453866E+02 -0.43210419360E+03  0.45675955655E+03  0.12508754167E+03 0.  0.
          5    1    3    3  502    0  0.90442480423E+02  0.44979986875E+02 -0.24202402637E+03  0.26229018896E+03  0.41800000000E+01 0. -1.
         -5    1    3    3    0  502 -0.38205938991E+02  0.14515466991E+02 -0.19008016724E+03  0.19446936760E+03  0.41800000000E+01 0. -1.
        -11    1    1    2    0    0 -0.66261259588E+02 -0.50985174596E+01 -0.32976192669E+02  0.74188804313E+02  0.00000000000E+00 0. -1.
         11    1    1    2    0    0  0.14024718156E+02 -0.54396936406E+02 -0.49218354377E+01  0.56390991070E+02  0.00000000000E+00 0.  1.
</event>
<event>
 7    1  0.2989693E-009  0.1001854E+03  0.7561462E-02  0.1279907E+00
         -1   -1    0    0    0  501 -0.00000000000E+00  0.00000000000E+00  0.45773998804E+02  0.45773998804E+02  0.00000000000E+00 0.  1.
          1   -1    0    0  501    0  0.00000000000E+00 -0.00000000000E+00 -0.29251344037E+03  0.29251344037E+03  0.00000000000E+00 0. -1.
         25    2    1    2    0    0 -0.37146874341E+02 -0.17556769598E+01 -0.17619119769E+03  0.21925742840E+03  0.12509000397E+03 0.  0.
          5    1    3    3  502    0  0.13491472707E+02  0.53550069675E+02 -0.76512592484E+02  0.94452522500E+02  0.41800000000E+01 0. -1.
         -5    1    3    3    0  502 -0.50638347048E+02 -0.55305746635E+02 -0.99678605202E+02  0.12480490590E+03  0.41800000000E+01 0. -1.
        -11    1    1    2    0    0  0.41751941768E+02  0.23328791447E+02 -0.81427029117E+02  0.94434200492E+02  0.00000000000E+00 0. -1.
         11    1    1    2    0    0 -0.46050674265E+01 -0.21573114487E+02  0.10878785241E+02  0.24595810274E+02  0.00000000000E+00 0.  1.
</event>
<event>
 7    1  0.2989693E-009  0.1737850E+03  0.7561462E-02  0.1173957E+00
         -1   -1    0    0    0  501 -0.00000000000E+00  0.00000000000E+00  0.90093603482E+03  0.90093603482E+03  0.00000000000E+00 0.  1.
          1   -1    0    0  501    0  0.00000000000E+00 -0.00000000000E+00 -0.39101299512E+02  0.39101299512E+02  0.00000000000E+00 0. -1.
         25    2    1    2    0    0  0.22304486565E+01  0.15280409896E+03  0.44911473886E+03  0.49061897846E+03  0.12509542680E+03 0.  0.
          5    1    3    3  502    0  0.30829980553E+02  0.12941485755E+03  0.42721057940E+03  0.44746513228E+03  0.41800000000E+01 0. -1.
         -5    1    3    3    0  502 -0.28599531897E+02  0.23389241413E+02  0.21904159456E+02  0.43153846179E+02  0.41800000000E+01 0. -1.
        -11    1    1    2    0    0  0.35728591985E+02 -0.12560742359E+03  0.31945702618E+03  0.34511816631E+03  0.00000000000E+00 0. -1.
         11    1    1    2    0    0 -0.37959040641E+02 -0.27196675373E+02  0.93262970276E+02  0.10430018956E+03  0.00000000000E+00 0.  1.
</event>
<event>
 7    1  0.2989693E-009  0.1129655E+03  0.7561462E-02  0.1255175E+00
         -2   -1    0    0    0  501 -0.00000000000E+00  0.00000000000E+00  0.19064637538E+02  0.19064637538E+02  0.00000000000E+00 0.  1.
          2   -1    0    0  501    0  0.00000000000E+00 -0.00000000000E+00 -0.11489997402E+04  0.11489997402E+04  0.00000000000E+00 0. -1.
         25    2    1    2    0    0  0.55699023518E+02  0.18693785551E+02 -0.93384961925E+03  0.94401882339E+03  0.12507833024E+03 0.  0.
          5    1    3    3  502    0  0.63837217698E+02 -0.39776234748E+02 -0.41262222386E+03  0.41944238131E+03  0.41800000000E+01 0.  1.
         -5    1    3    3    0  502 -0.81381941805E+01  0.58470020299E+02 -0.52122739539E+03  0.52457644208E+03  0.41800000000E+01 0.  1.
        -11    1    1    2    0    0 -0.45050293438E+02  0.21442744827E+02 -0.16442331519E+03  0.17182650210E+03  0.00000000000E+00 0. -1.
         11    1    1    2    0    0 -0.10648730079E+02 -0.40136530378E+02 -0.31662168249E+02  0.52219052283E+02  0.00000000000E+00 0.  1.
</event>
<event>
 7    1  0.2989693E-009  0.1930269E+03  0.7561462E-02  0.1155759E+00
          1   -1    0    0  501    0  0.00000000000E+00  0.00000000000E+00  0.10041684491E+03  0.10041684491E+03  0.00000000000E+00 0. -1.
         -1   -1    0    0    0  501 -0.00000000000E+00 -0.00000000000E+00 -0.40609111539E+03  0.40609111539E+03  0.00000000000E+00 0.  1.
         25    2    1    2    0    0  0.10781902319E+02 -0.16413676994E+03 -0.10591058731E+03  0.23220830768E+03  0.12508603834E+03 0.  0.
          5    1    3    3  502    0  0.19608394725E+02  0.16194044359E+02 -0.17345703307E+02  0.31065769580E+02  0.41800000000E+01 0.  1.
         -5    1    3    3    0  502 -0.88264924062E+01 -0.18033081430E+03 -0.88564884006E+02  0.20114253810E+03  0.41800000000E+01 0.  1.
        -11    1    1    2    0    0 -0.38454530849E+02  0.55093701633E+02 -0.11595676825E+03  0.13401507007E+03  0.00000000000E+00 0.  1.
         11    1    1    2    0    0  0.27672628530E+02  0.10904306831E+03 -0.83806914916E+02  0.14028458256E+03  0.00000000000E+00 0. -1.
</event>
<event>
 7    1  0.2989693E-009  0.1580287E+03  0.7561462E-02  0.1190941E+00
          2   -1    0    0  501    0  0.00000000000E+00  0.00000000000E+00  0.25824109815E+03  0.25824109815E+03  0.00000000000E+00 0. -1.
         -2   -1    0    0    0  501 -0.00000000000E+00 -0.00000000000E+00 -0.13079407605E+03  0.13079407605E+03  0.00000000000E+00 0.  1.
         25    2    1    2    0    0  0.34775476579E+02 -0.12274905237E+03  0.14604977737E+03  0.23077289760E+03  0.12509568005E+03 0.  0.
          5    1    3    3  502    0 -0.36638573855E+02 -0.15923223270E+02  0.59211369651E+01  0.40601310279E+02  0.41800000000E+01 0. -1.
         -5    1    3    3    0  502  0.71414050433E+02 -0.10682582910E+03  0.14012864041E+03  0.19017158733E+03  0.41800000000E+01 0. -1.
        -11    1    1    2    0    0 -0.56372450787E+02  0.10576010787E+03 -0.36724461342E+02  0.12534647855E+03  0.00000000000E+00 0.  1.
         11    1    1    2    0    0  0.21596974208E+02  0.16988944504E+02  0.18121706063E+02  0.32915798045E+02  0.00000000000E+00 0. -1.
</event>
<event>
 7    1  0.2989693E-009  0.1268793E+03  0.7561462E-02  0.1232161E+00
         -1   -1    0    0    0  501 -0.00000000000E+00  0.00000000000E+00  0.25981852165E+02  0.25981852165E+02  0.00000000000E+00 0.  1.
          1   -1    0    0  501    0  0.00000000000E+00 -0.00000000000E+00 -0.83842859181E+03  0.83842859181E+03  0.00000000000E+00 0. -1.
         25    2    1    2    0    0 -0.18668070999E+02  0.98085498424E+02 -0.41249186825E+03  0.44245488525E+03  0.12509005650E+03 0.  0.
          5    1    3    3  502    0  0.28905353126E+02 -0.12173471947E+02 -0.39640087053E+02  0.50720033124E+02  0.41800000000E+01 0.  1.
         -5    1    3    3    0  502 -0.47573424124E+02  0.11025897037E+03 -0.37285178120E+03  0.39173485213E+03  0.41800000000E+01 0.  1.
        -11    1    1    2    0    0 -0.37451795758E+01 -0.31086298262E+02 -0.24082537961E+02  0.39501303071E+02  0.00000000000E+00 0.  1.
         11    1    1    2    0    0  0.22413250574E+02 -0.66999200162E+02 -0.37587233344E+03  0.38245425565E+03  0.00000000000E+00 0. -1.
</event>
<event>
 7    1  0.2989693E-009  0.1030486E+03  0.7561462E-02  0.1274013E+00
         -2   -1    0    0    0  501 -0.00000000000E+00  0.00000000000E+00  0.16810547965E+02  0.16810547965E+02  0.00000000000E+00 0.  1.
          2   -1    0    0  501    0  0.00000000000E+00 -0.00000000000E+00 -0.75023171616E+03  0.75023171616E+03  0.00000000000E+00 0. -1.
         25    2    1    2    0    0 -0.16074706522E+02 -0.41591153258E+01 -0.50608533201E+03  0.52157930094E+03  0.12508760714E+03 0.  0.
          5    1    3    3  502    0 -0.29001479422E+02  0.50089227736E+02 -0.36884896941E+03  0.37338592794E+03  0.41800000000E+01 0. -1.
         -5    1    3    3    0  502  0.12926772901E+02 -0.54248343062E+02 -0.13723636260E+03  0.14819337300E+03  0.41800000000E+01 0. -1.
        -11    1    1    2    0    0  0.24401542902E+02  0.44608265728E+02 -0.11353856181E+03  0.12440392954E+03  0.00000000000E+00 0. -1.
         11    1    1    2    0    0 -0.83268363800E+01 -0.40449150402E+02 -0.11379727437E+03  0.12105903364E+03  0.00000000000E+00 0.  1.
</event>
<event>
 6    1  0.4932826E-009  0.1278337E+03  0.7561462E-02  0.1230706E+00
          2   -1    0    0  501    0  0.00000000000E+00  0.00000000000E+00  0.51956704622E+03  0.51956704622E+03  0.00000000000E+00 0. -1.
         -2   -1    0    0    0  501 -0.00000000000E+00 -0.00000000000E+00 -0.36401552676E+02  0.36401552676E+02  0.00000000000E+00 0.  1.
          5    1    1    2  502    0 -0.77993233624E+02 -0.17133915503E+02  0.92343583524E+02  0.12215287704E+03  0.41800000000E+01 0. -1.
         -5    1    1    2    0  502  0.13812448159E+02  0.64481724419E+02  0.11667266798E+03  0.13408452693E+03  0.41800000000E+01 0. -1.
        -11    1    1    2    0    0  0.11846211932E+02 -0.55422503430E+02  0.20467627822E+03  0.21237788371E+03  0.00000000000E+00 0. -1.
         11    1    1    2    0    0  0.52334573534E+02  0.80746945143E+01  0.69472963827E+02  0.87353311222E+02  0.00000000000E+00 0.  1.
</event>
<event>
 7    1  0.2989693E-009  0.1125757E+03  0.7561462E-02  0.1255873E+00
         -3   -1    0    0    0  501 -0.00000000000E+00  0.00000000000E+00  0.82007059030E+02  0.82007059030E+02  0.00000000000E+00 0.  1.
          3   -1    0    0  501    0  0.00000000000E+00 -0.00000000000E+00 -0.20585605501E+03  0.20585605501E+03  0.00000000000E+00 0. -1.
         25    2    1    2    0    0 -0.45405686788E+02 -0.65870030028E+02 -0.92647023080E+02  0.17502615318E+03  0.12510054422E+03 0.  0.
          5    1    3    3  502    0 -0.49466180125E+02  0.10963747799E+02  0.44918843439E+01  0.51036811881E+02  0.41800000000E+01 0. -1.
         -5    1    3    3    0  502  0.40604933376E+01 -0.76833777827E+02 -0.97138907424E+02  0.12398934130E+03  0.41800000000E+01 0. -1.
        -11    1    1    2    0    0  0.58369608875E+02  0.56731718156E+02 -0.41806159671E+01  0.81504457761E+02  0.00000000000E+00 0.  1.
         11    1    1    2    0    0 -0.12963922087E+02  0.91383118717E+01 -0.27021356932E+02  0.31332503094E+02  0.00000000000E+00 0. -1.
</event>
<event>
 7    1  0.2989693E-009  0.1547960E+03  0.7561462E-02  0.1194701E+00
          3   -1    0    0  501    0  0.00000000000E+00  0.00000000000E+00  0.19131484661E+03  0.19131484661E+03  0.00000000000E+00 0. -1.
         -3   -1    0    0    0  501 -0.00000000000E+00 -0.00000000000E+00 -0.18317823433E+03  0.18317823433E+03  0.00000000000E+00 0.  1.
         25    2    1    2    0    0 -0.13946840032E+03 -0.58145774062E+02  0.27401532486E+02  0.19806793859E+03  0.12509076139E+03 0.  0.
          5    1    3    3  502    0 -0.90850359797E+02 -0.18836929610E+02 -0.44252491849E+02  0.10288038310E+03  0.41800000000E+01 0. -1.
         -5    1    3    3    0  502 -0.48618040528E+02 -0.39308844452E+02  0.71654024335E+02  0.95187555491E+02  0.41800000000E+01 0. -1.
        -11    1    1    2    0    0  0.70985960083E+02  0.45771069019E+02 -0.52348637439E+02  0.99369900522E+02  0.00000000000E+00 0.  1.
         11    1    1    2    0    0  0.68482440242E+02  0.12374705043E+02  0.33083717235E+02  0.77055241823E+02  0.00000000000E+00 0. -1.
</event>
<event>
 7    1  0.2989693E-009  0.1001388E+03  0.7561462E-02  0.1280004E+00
          1   -1    0    0  501    0  0.00000000000E+00  0.00000000000E+00  0.23306462424E+03  0.23306462424E+03  0.00000000000E+00 0. -1.
         -1   -1    0    0    0  501 -0.00000000000E+00 -0.00000000000E+00 -0.10607735335E+03  0.10607735335E+03  0.00000000000E+00 0.  1.
         25    2    1    2    0    0 -0.60354556265E+02 -0.79705759348E+01 -0.35469101834E+02  0.14356945085E+03  0.12509167634E+03 0.  0.
          5    1    3    3  502    0 -0.19959734483E+02 -0.64947438733E+02 -0.26408978669E+02  0.73016897723E+02  0.41800000000E+01 0. -1.
         -5    1    3    3    0  502 -0.40394821782E+02  0.56976862799E+02 -0.90601231647E+01  0.70552553128E+02  0.41800000000E+01 0. -1.
        -11    1    1    2    0    0  0.24510192679E+02  0.96749932455E+01 -0.27685196961E+01  0.26495655130E+02  0.00000000000E+00 0.  1.
         11    1    1    2    0    0  0.35844363586E+02 -0.17044173107E+01  0.16522489241E+03  0.16907687161E+03  0.00000000000E+00 0. -1.
</event>
<event>
 7    1  0.2989693E-009  0.9639613E+02  0.7561462E-02  0.1288062E+00
         -3   -1    0    0    0  501 -0.00000000000E+00  0.00000000000E+00  0.18423110301E+03  0.18423110301E+03  0.00000000000E+00 0.  1.
          3   -1    0    0  501    0  0.00000000000E+00 -0.00000000000E+00 -0.64588239257E+02  0.64588239257E+02  0.00000000000E+00 0. -1.
         25    2    1    2    0    0  0.92823385600E+01 -0.53509706326E+01  0.79200244800E+02  0.14844161750E+03  0.12508972912E+03 0.  0.
          5    1    3    3  502    0  0.47212749111E+02  0.29073696342E+02  0.79538739927E+02  0.97047447400E+02  0.41800000000E+01 0.  1.
         -5    1    3    3    0  502 -0.37930410551E+02 -0.34424666975E+02 -0.33849512765E+00  0.51394170096E+02  0.41800000000E+01 0.  1.
        -11    1    1    2    0    0  0.26438510136E+02  0.31795128801E+02  0.16485932902E+01  0.41384089860E+02  0.00000000000E+00 0. -1.
         11    1    1    2    0    0 -0.35720848696E+02 -0.26444158169E+02  0.38794025664E+02  0.58993634911E+02  0.00000000000E+00 0.  1.
</event>
<event>
 7    1  0.2989693E-009  0.1335011E+03  0.7561462E-02  0.1222351E+00
          3   -1    0    0  501    0  0.00000000000E+00  0.00000000000E+00  0.32191536549E+02  0.32191536549E+02  0.00000000000E+00 0. -1.
         -3   -1    0    0    0  501 -0.00000000000E+00 -0.00000000000E+00 -0.59898437152E+03  0.59898437152E+03  0.00000000000E+00 0.  1.
         25    2    1    2    0    0 -0.51551928984E+02  0.66524314055E+02 -0.36563687930E+03  0.39550070047E+03  0.12508953126E+03 0.  0.
          5    1    3    3  502    0 -0.64966222922E+02 -0.14728634593E+02 -0.19219574099E+03  0.20345569064E+03  0.41800000000E+01 0.  1.
         -5    1    3    3    0  502  0.13414293938E+02  0.81252948648E+02 -0.17344113831E+03  0.19204500984E+03  0.41800000000E+01 0.  1.
        -11    1    1    2    0    0  0.31083500571E+01 -0.69209718075E+02 -0.14969287312E+03  0.16494727394E+03  0.00000000000E+00 0.  1.
         11    1    1    2    0    0  0.48443578927E+02  0.26854040200E+01 -0.51463082557E+02  0.70727933664E+02  0.00000000000E+00 0. -1.
</event>
<event>
 7    1  0.2989693E-009  0.2195842E+03  0.7561462E-02  0.1134193E+00
         -1   -1    0    0    0  501 -0.00000000000E+00  0.00000000000E+00  0.45039139643E+03  0.45039139643E+03  0.00000000000E+00 0.  1.
          1   -1    0    0  501    0  0.00000000000E+00 -0.00000000000E+00 -0.13004055333E+03  0.13004055333E+03  0.00000000000E+00 0. -1.
         25    2    1    2    0    0 -0.20232085229E+03  0.58721490619E+02  0.12297056824E+03  0.27413500037E+03  0.12508515916E+03 0.  0.
          5    1    3    3  502    0 -0.30991093839E+02  0.14439368600E+02 -0.25699036276E+02  0.42975064031E+02  0.41800000000E+01 0. -1.
         -5    1    3    3    0  502 -0.17132975845E+03  0.44282122019E+02  0.14866960452E+03  0.23115993634E+03  0.41800000000E+01 0. -1.
        -11    1    1    2    0    0  0.10849104991E+03 -0.75794150998E+02  0.78443809999E+02  0.15384567775E+03  0.00000000000E+00 0. -1.
         11    1    1    2    0    0  0.93829802382E+02  0.17072660379E+02  0.11893646486E+03  0.15245127163E+03  0.00000000000E+00 0.  1.
</event>
<event>
 7    1  0.2989693E-009  0.1355009E+03  0.7561462E-02  0.1219514E+00
          2   -1    0    0  501    0  0.00000000000E+00  0.00000000000E+00  0.79750324341E+03  0.79750324341E+03  0.00000000000E+00 0. -1.
         -2   -1    0    0    0  501 -0.00000000000E+00 -0.00000000000E+00 -0.39309407647E+02  0.39309407647E+02  0.00000000000E+00 0.  1.
         25    2    1    2    0    0 -0.27151580037E+02 -0.91717336150E+02  0.15972520194E+03  0.22430022228E+03  0.12509664877E+03 0.  0.
          5    1    3    3  502    0 -0.22052698499E+02 -0.11858094984E+03  0.15466587916E+03  0.19618045201E+03  0.41800000000E+01 0.  1.
         -5    1    3    3    0  502 -0.50988815383E+01  0.26863613687E+02  0.50593227862E+01  0.28119770275E+02  0.41800000000E+01 0.  1.
        -11    1    1    2    0    0  0.14717429358E+02  0.10408294958E+03  0.56533067647E+03  0.57502055344E+03  0.00000000000E+00 0. -1.
         11    1    1    2    0    0  0.12434150679E+02 -0.12365613431E+02  0.33137957351E+02  0.37491875333E+02  0.00000000000E+00 0.  1.
</event>
<event>
 7    1  0.2989693E-009  0.2927899E+03  0.7561462E-02  0.1088901E+00
          2   -1    0    0  501    0  0.00000000000E+00  0.00000000000E+00  0.12601640561E+04  0.12601640561E+04  0.00000000000E+00 0. -1.
         -2   -1    0    0    0  501 -0.00000000000E+00 -0.00000000000E+00 -0.74738324916E+02  0.74738324916E+02  0.00000000000E+00 0.  1.
         25    2    1    2    0    0  0.21185441834E+03 -0.19318483080E+03  0.59496932261E+03  0.67218827857E+03  0.12508362636E+03 0.  0.
          5    1    3    3  502    0  0.15139527384E+03 -0.15395170966E+03  0.53958141209E+03  0.58119465803E+03  0.41800000000E+01 0. -1.
         -5    1    3    3    0  502  0.60459144497E+02 -0.39233121141E+02  0.55387910518E+02  0.90993620542E+02  0.41800000000E+01 0. -1.
        -11    1    1    2    0    0 -0.45992620889E+02  0.92742479146E+02  0.25559722811E+03  0.27576517480E+03  0.00000000000E+00 0. -1.
         11    1    1    2    0    0 -0.16586179745E+03  0.10044235166E+03  0.33485918044E+03  0.38694892762E+03  0.00000000000E+00 0.  1.
</event>
<event>
 7    1  0.2989693E-009  0.2386266E+03  0.7561462E-02  0.1120711E+00
          1   -1    0    0  501    0  0.00000000000E+00  0.00000000000E+00  0.69698685793E+03  0.69698685793E+03  0.00000000000E+00 0. -1.
         -1   -1    0    0    0  501 -0.00000000000E+00 -0.00000000000E+00 -0.88064114597E+02  0.88064114597E+02  0.00000000000E+00 0.  1.
         25    2    1    2    0    0 -0.21266990872E+03  0.25693657091E+02  0.40332375612E+03  0.47350535386E+03  0.12509441950E+03 0.  0.
          5    1    3    3  502    0 -0.18748338325E+03  0.66832865188E+02  0.33656387446E+03  0.39103627051E+03  0.41800000000E+01 0. -1.
         -5    1    3    3    0  502 -0.25186525463E+02 -0.41139208097E+02  0.66759881668E+02  0.82469083347E+02  0.41800000000E+01 0. -1.
        -11    1    1    2    0    0  0.15178864986E+03  0.20720506049E+02  0.10769060210E+03  0.18726024506E+03  0.00000000000E+00 0. -1.
         11    1    1    2    0    0  0.60881258857E+02 -0.46414163140E+02  0.97908385105E+02  0.12428537361E+03  0.00000000000E+00 0.  1.
</event>
<event>
 7    1  0.2989693E-009  0.6630190E+02  0.7561462E-02  0.1373140E+00
         -1   -1    0    0    0  501 -0.00000000000E+00  0.00000000000E+00  0.42925707553E+03  0.42925707553E+03  0.00000000000E+00 0.  1.
          1   -1    0    0  501    0  0.00000000000E+00 -0.00000000000E+00 -0.33602962647E+02  0.33602962647E+02  0.00000000000E+00 0. -1.
         25    2    1    2    0    0 -0.18063783217E+02  0.40548932228E+02  0.26624385084E+03  0.29749661431E+03  0.12509169137E+03 0.  0.
          5    1    3    3  502    0 -0.13463114131E+02  0.34341028886E+02  0.65998146571E+01  0.37704000591E+02  0.41800000000E+01 0. -1.
         -5    1    3    3    0  502 -0.46006690861E+01  0.62079033427E+01  0.25964403618E+03  0.25979261372E+03  0.41800000000E+01 0. -1.
        -11    1    1    2    0    0 -0.25862650872E+02 -0.33320372156E+02  0.10804158893E+03  0.11598322658E+03  0.00000000000E+00 0.  1.
         11    1    1    2    0    0  0.43926434089E+02 -0.72285600724E+01  0.21368673113E+02  0.49380197277E+02  0.00000000000E+00 0. -1.
</event>
<event>
 7    1  0.3638046E-009  0.1037238E+03  0.7561462E-02  0.1272655E+00
         -2   -1    0    0    0  501 -0.00000000000E+00  0.00000000000E+00  0.58155372733E+02  0.58155372733E+02  0.00000000000E+00 0.  1.
          2   -1    0    0  501    0  0.00000000000E+00 -0.00000000000E+00 -0.47840204109E+03  0.47840204109E+03  0.00000000000E+00 0. -1.
         25    2    1    2    0    0 -0.71378711222E+02 -0.64617968359E+02 -0.35483584020E+03  0.38836391866E+03  0.12509059746E+03 0.  0.
          5    1    3    3  502    0 -0.72757630849E+02 -0.48805579787E+02 -0.36048753047E+03  0.37100456802E+03  0.41800000000E+01 0. -1.
         -5    1    3    3    0  502  0.13789196268E+01 -0.15812388572E+02  0.56516902711E+01  0.17359350639E+02  0.41800000000E+01 0. -1.
        -11    1    1    2    0    0  0.25981599266E+01  0.22547295305E+02 -0.63619317746E+02  0.67546639820E+02  0.00000000000E+00 0. -1.
         11    1    1    2    0    0  0.68780551296E+02  0.42070673054E+02 -0.17915104115E+01  0.80646855347E+02  0.00000000000E+00 0.  1.
</event>
<event>
 7    1  0.2989693E-009  0.9375601E+02  0.7561462E-02  0.1294003E+00
         -1   -1    0    0    0  501 -0.00000000000E+00  0.00000000000E+00  0.25616227021E+02  0.25616227021E+02  0.00000000000E+00 0.  1.
          1   -1    0    0  501    0  0.00000000000E+00 -0.00000000000E+00 -0.62242962242E+03  0.62242962242E+03  0.00000000000E+00 0. -1.
         25    2    1    2    0    0  0.21599566835E+02  0.60834426742E+02 -0.34214851313E+03  0.36998178197E+03  0.12511412864E+03 0.  0.
          5    1    3    3  502    0  0.14662458381E+00  0.59185920653E+02 -0.34295381233E+03  0.34804853756E+03  0.41800000000E+01 0. -1.
         -5    1    3    3    0  502  0.21452942251E+02  0.16485060887E+01  0.80529920013E+00  0.21933244410E+02  0.41800000000E+01 0. -1.
        -11    1    1    2    0    0 -0.51111099543E+02 -0.56903912841E+02 -0.21679574305E+03  0.22989300555E+03  0.00000000000E+00 0.  1.
         11    1    1    2    0    0  0.29511532708E+02 -0.39305139005E+01 -0.37869139213E+02  0.48171061926E+02  0.00000000000E+00 0. -1.
</event>
<event>
 7    1  0.2989693E-009  0.1169997E+03  0.7561462E-02  0.1248130E+00
         -1   -1    0    0    0  501 -0.00000000000E+00  0.00000000000E+00  0.39443689555E+02  0.39443689555E+02  0.00000000000E+00 0.  1.
          1   -1    0    0  501    0  0.00000000000E+00 -0.00000000000E+00 -0.41763074879E+03  0.41763074879E+03  0.00000000000E+00 0. -1.
         25    2    1    2    0    0  0.44561961204E+02  0.43931748239E+02 -0.15970692974E+03  0.21229327979E+03  0.12508543619E+03 0.  0.
          5    1    3    3  502    0 -0.28308001229E+02  0.52496645068E+02 -0.40366914434E+02  0.72140147338E+02  0.41800000000E+01 0.  1.
         -5    1    3    3    0  502  0.72869962432E+02 -0.85648968288E+01 -0.11934001530E+03  0.14015313245E+03  0.41800000000E+01 0.  1.
        -11    1    1    2    0    0 -0.10153549115E+02 -0.61328711929E+02 -0.81639654274E+02  0.10261256559E+03  0.00000000000E+00 0.  1.
         11    1    1    2    0    0 -0.34408412089E+02  0.17396963689E+02 -0.13684047523E+03  0.14216859297E+03  0.00000000000E+00 0. -1.
</event>
<event>
 7    1  0.2989693E-009  0.2492344E+03  0.7561462E-02  0.1113790E+00
         -2   -1    0    0    0  501 -0.00000000000E+00  0.00000000000E+00  0.91090525547E+02  0.91090525547E+02  0.00000000000E+00 0.  1.
          2   -1    0    0  501    0  0.00000000000E+00 -0.00000000000E+00 -0.94930501364E+03  0.94930501364E+03  0.00000000000E+00 0. -1.
         25    2    1    2    0    0 -0.23401987796E+03  0.35572353878E+02 -0.19524011869E+03  0.33135589922E+03  0.12508929754E+03 0.  0.
          5    1    3    3  502    0 -0.10936535842E+03  0.72544340232E+02 -0.62228682078E+02  0.14530431582E+03  0.41800000000E+01 0. -1.
         -5    1    3    3    0  502 -0.12465451954E+03 -0.36971986354E+02 -0.13301143661E+03  0.18605158340E+03  0.41800000000E+01 0. -1.
        -11    1    1    2    0    0  0.18192150815E+03 -0.22069343682E+02 -0.59355840370E+03  0.62120372637E+03  0.00000000000E+00 0. -1.
         11    1    1    2    0    0  0.52098369817E+02 -0.13503010196E+02 -0.69415965706E+02  0.87835913594E+02  0.00000000000E+00 0.  1.
</event>
<event>
 7    1  0.2989693E-009  0.1018161E+03  0.7561462E-02  0.1276523E+00
         -1   -1    0    0    0  501 -0.00000000000E+00  0.00000000000E+00  0.41839115296E+03  0.41839115296E+03  0.00000000000E+00 0.  1.
          1   -1    0    0  501    0  0.00000000000E+00 -0.00000000000E+00 -0.56098348110E+02  0.56098348110E+02  0.00000000000E+00 0. -1.
         25    2    1    2    0    0  0.66914854726E+02 -0.63151904841E+02  0.28870788608E+03  0.32782194724E+03  0.12509686145E+03 0.  0.
          5    1    3    3  502    0  0.27280256521E+02 -0.49604024061E+02  0.27887633202E+03  0.28459489202E+03  0.41800000000E+01 0. -1.
         -5    1    3    3    0  502  0.39634598205E+02 -0.13547880780E+02  0.98315540512E+01  0.43227055227E+02  0.41800000000E+01 0. -1.
        -11    1    1    2    0    0 -0.37729579528E+02  0.29194443141E+01  0.70080649379E+02  0.79645098680E+02  0.00000000000E+00 0.  1.
         11    1    1    2    0    0 -0.29185275198E+02  0.60232460527E+02  0.35042693942E+01  0.67022455144E+02  0.00000000000E+00 0. -1.
</event>
<event>
 7    1  0.2989693E-009  0.9937051E+02  0.7561462E-02  0.1281625E+00
         -1   -1    0    0    0  501 -0.00000000000E+00  0.00000000000E+00  0.37863826726E+02  0.37863826726E+02  0.00000000000E+00 0.  1.
          1   -1    0    0  501    0  0.00000000000E+00 -0.00000000000E+00 -0.36710295642E+03  0.36710295642E+03  0.00000000000E+00 0. -1.
         25    2    1    2    0    0  0.20291097635E+02 -0.37180525892E+02 -0.20777714392E+03  0.24619490022E+03  0.12508583936E+03 0.  0.
          5    1    3    3  502    0 -0.97296288814E+01 -0.63939492638E+02 -0.46086913301E+02  0.79526098701E+02  0.41800000000E+01 0.  1.
         -5    1    3    3    0  502  0.30020726517E+02  0.26758966746E+02 -0.16169023062E+03  0.16666880152E+03  0.41800000000E+01 0.  1.
        -11    1    1    2    0    0  0.28213094545E+02 -0.56700757747E+01 -0.11123321920E+02  0.30852175833E+02  0.00000000000E+00 0. -1.
         11    1    1    2    0    0 -0.48504192180E+02  0.42850601667E+02 -0.11033866386E+03  0.12791970710E+03  0.00000000000E+00 0.  1.
</event>
<event>
 7    1  0.2989693E-009  0.1895689E+03  0.7561462E-02  0.1158851E+00
          2   -1    0    0  501    0  0.00000000000E+00  0.00000000000E+00  0.15227154145E+04  0.15227154145E+04  0.00000000000E+00 0.  1.
         -2   -1    0    0    0  501 -0.00000000000E+00 -0.00000000000E+00 -0.26613726284E+02  0.26613726284E+02  0.00000000000E+00 0. -1.
         25    2    1    2    0    0  0.14684625672E+03 -0.59690304841E+02  0.55715187419E+03  0.59261478834E+03  0.12508925153E+03 0.  0.
          5    1    3    3  502    0  0.14488329890E+03 -0.94089042240E+01  0.34103614637E+03  0.37067886817E+03  0.41800000000E+01 0.  1.
         -5    1    3    3    0  502  0.19629578160E+01 -0.50281400617E+02  0.21611572782E+03  0.22193592017E+03  0.41800000000E+01 0.  1.
        -11    1    1    2    0    0 -0.38275777665E+01 -0.19530618594E+02  0.91898034718E+02  0.94028422295E+02  0.00000000000E+00 0.  1.
         11    1    1    2    0    0 -0.14301867895E+03  0.79220923436E+02  0.84705177926E+03  0.86268593010E+03  0.00000000000E+00 0. -1.
</event>
<event>
 7    1  0.2989693E-009  0.1040993E+03  0.7561462E-02  0.1271904E+00
          2   -1    0    0  501    0  0.00000000000E+00  0.00000000000E+00  0.59849168801E+03  0.59849168801E+03  0.00000000000E+00 0. -1.
         -2   -1    0    0    0  501 -0.00000000000E+00 -0.00000000000E+00 -0.25039257616E+02  0.25039257616E+02  0.00000000000E+00 0.  1.
         25    2    1    2    0    0  0.39446152344E+02 -0.71886448212E+01  0.38509440382E+03  0.40686927083E+03  0.12504890301E+03 0.  0.
          5    1    3    3  502    0 -0.55236443278E+01 -0.60815354609E+02  0.17926818541E+03  0.18942959827E+03  0.41800000000E+01 0. -1.
         -5    1    3    3    0  502  0.44969796672E+02  0.53626709788E+02  0.20582621842E+03  0.21743967256E+03  0.41800000000E+01 0. -1.
        -11    1    1    2    0    0 -0.13016485679E+02  0.35701758505E+02  0.16902067340E+03  0.17323981210E+03  0.00000000000E+00 0. -1.
         11    1    1    2    0    0 -0.26429666665E+02 -0.28513113684E+02  0.19337353168E+02  0.43421862691E+02  0.00000000000E+00 0.  1.
</event>
<event>
 7    1  0.2989693E-009  0.1076841E+03  0.7561462E-02  0.1264920E+00
          4   -1    0    0  501    0  0.00000000000E+00  0.00000000000E+00  0.45813439518E+03  0.45813439518E+03  0.00000000000E+00 0. -1.
         -4   -1    0    0    0  501 -0.00000000000E+00 -0.00000000000E+00 -0.36243161421E+02  0.36243161421E+02  0.00000000000E+00 0.  1.
         25    2    1    2    0    0  0.42967452208E+02  0.49927274772E+02  0.26096540021E+03  0.29680013042E+03  0.12509373524E+03 0.  0.
          5    1    3    3  502    0  0.36142994092E+02 -0.23118226616E+02  0.25387418156E+02  0.50027610621E+02  0.41800000000E+01 0.  1.
         -5    1    3    3    0  502  0.68244581162E+01  0.73045501388E+02  0.23557798205E+03  0.24677251980E+03  0.41800000000E+01 0.  1.
        -11    1    1    2    0    0 -0.23884930971E+02 -0.68258955179E+02  0.15413803310E+03  0.17025953171E+03  0.00000000000E+00 0. -1.
         11    1    1    2    0    0 -0.19082521237E+02  0.18331680407E+02  0.67878004504E+01  0.27317894470E+02  0.00000000000E+00 0.  1.
</event>
<event>
 7    1  0.2989693E-009  0.1017103E+03  0.7561462E-02  0.1276740E+00
          1   -1    0    0  501    0  0.00000000000E+00  0.00000000000E+00  0.33646484111E+03  0.33646484111E+03  0.00000000000E+00 0. -1.
         -1   -1    0    0    0  501 -0.00000000000E+00 -0.00000000000E+00 -0.36803672978E+02  0.36803672978E+02  0.00000000000E+00 0.  1.
         25    2    1    2    0    0 -0.13320676058E+02  0.10261758217E+02  0.20871947844E+03  0.24391441732E+03  0.12509067994E+03 0.  0.
          5    1    3    3  502    0  0.12776264496E+02  0.64055681141E+02  0.12283059583E+03  0.13918042568E+03  0.41800000000E+01 0.  1.
         -5    1    3    3    0  502 -0.26096940554E+02 -0.53793922924E+02  0.85888882606E+02  0.10473399164E+03  0.41800000000E+01 0.  1.
        -11    1    1    2    0    0  0.28769556395E+02  0.25899805973E+02  0.79461832352E+02  0.88389310017E+02  0.00000000000E+00 0. -1.
         11    1    1    2    0    0 -0.15448880337E+02 -0.36161564190E+02  0.11479857339E+02  0.40964786742E+02  0.00000000000E+00 0.  1.
</event>
<event>
 7    1  0.2989693E-009  0.1195377E+03  0.7561462E-02  0.1243862E+00
         -1   -1    0    0    0  501 -0.00000000000E+00  0.00000000000E+00  0.25099052651E+02  0.25099052651E+02  0.00000000000E+00 0.  1.
          1   -1    0    0  501    0  0.00000000000E+00 -0.00000000000E+00 -0.81589849221E+03  0.81589849221E+03  0.00000000000E+00 0. -1.
         25    2    1    2    0    0  0.49553034698E+02  0.49182633862E+02 -0.61284739549E+03  0.62936644838E+03  0.12508301829E+03 0.  0.
          5    1    3    3  502    0  0.28444392290E+02  0.91306686455E+02 -0.42628067865E+03  0.43689665121E+03  0.41800000000E+01 0. -1.
         -5    1    3    3    0  502  0.21108642408E+02 -0.42124052594E+02 -0.18656671683E+03  0.19246979717E+03  0.41800000000E+01 0. -1.
        -11    1    1    2    0    0 -0.63685127883E+01 -0.52360209707E+02 -0.37665683200E+02  0.64813989281E+02  0.00000000000E+00 0.  1.
         11    1    1    2    0    0 -0.43184521910E+02  0.31775758450E+01 -0.14028636087E+03  0.14681710720E+03  0.00000000000E+00 0. -1.
</event>
<event>
 7    1  0.2989693E-009  0.1582088E+03  0.7561462E-02  0.1190734E+00
          1   -1    0    0  501    0  0.00000000000E+00  0.00000000000E+00  0.28415209169E+03  0.28415209169E+03  0.00000000000E+00 0. -1.
         -1   -1    0    0    0  501 -0.00000000000E+00 -0.00000000000E+00 -0.96961146043E+02  0.96961146043E+02  0.00000000000E+00 0.  1.
         25    2    1    2    0    0 -0.62368755252E+02 -0.10025708782E+03  0.14456205896E+03  0.22469351642E+03  0.12509053577E+03 0.  0.
          5    1    3    3  502    0  0.31989355939E+02 -0.60543840590E+02  0.69702913736E+02  0.97800021012E+02  0.41800000000E+01 0. -1.
         -5    1    3    3    0  502 -0.94358111190E+02 -0.39713247234E+02  0.74859145226E+02  0.12689349541E+03  0.41800000000E+01 0. -1.
        -11    1    1    2    0    0  0.83792907406E+02  0.81173920809E+02  0.16898732558E+02  0.11788139765E+03  0.00000000000E+00 0.  1.
         11    1    1    2    0    0 -0.21424152155E+02  0.19083167015E+02  0.25730154127E+02  0.38538323657E+02  0.00000000000E+00 0. -1.
</event>
<event>
 7    1  0.2989693E-009  0.9272817E+02  0.7561462E-02  0.1296376E+00
          1   -1    0    0  501    0  0.00000000000E+00  0.00000000000E+00  0.48120961057E+03  0.48120961057E+03  0.00000000000E+00 0. -1.
         -1   -1    0    0    0  501 -0.00000000000E+00 -0.00000000000E+00 -0.25925022253E+02  0.25925022253E+02  0.00000000000E+00 0.  1.
         25    2    1    2    0    0  0.86461373053E+00  0.19260355612E+02  0.29061493938E+03  0.31698233335E+03  0.12509615425E+03 0.  0.
          5    1    3    3  502    0  0.44405795126E+02  0.13012704936E+02  0.36580439743E+02  0.59133798308E+02  0.41800000000E+01 0.  1.
         -5    1    3    3    0  502 -0.43541181396E+02  0.62476506758E+01  0.25403449964E+03  0.25784853504E+03  0.41800000000E+01 0.  1.
        -11    1    1    2    0    0  0.20871088080E+02 -0.51704154176E+02  0.89593976952E+02  0.10552725990E+03  0.00000000000E+00 0.  1.
         11    1    1    2    0    0 -0.21735701811E+02  0.32443798564E+02  0.75075671988E+02  0.84625039574E+02  0.00000000000E+00 0. -1.
</event>
<event>
 7    1  0.2989693E-009  0.2982881E+03  0.7561462E-02  0.1086100E+00
         -1   -1    0    0    0  501 -0.00000000000E+00  0.00000000000E+00  0.15576625559E+03  0.15576625559E+03  0.00000000000E+00 0.  1.
          1   -1    0    0  501    0  0.00000000000E+00 -0.00000000000E+00 -0.59419654096E+03  0.59419654096E+03  0.00000000000E+00 0. -1.
         25    2    1    2    0    0  0.22641039777E+03  0.16690026253E+03 -0.22243411563E+03  0.37979308992E+03  0.12509392275E+03 0.  0.
          5    1    3    3  502    0  0.44852819210E+02  0.10445060577E+03 -0.10426301586E+03  0.15430474171E+03  0.41800000000E+01 0. -1.
         -5    1    3    3    0  502  0.18155757856E+03  0.62449656757E+02 -0.11817109977E+03  0.22548834822E+03  0.41800000000E+01 0. -1.
        -11    1    1    2    0    0 -0.12469422018E+03 -0.13592008819E+03 -0.89802526934E+02  0.20515216977E+03  0.00000000000E+00 0.  1.
         11    1    1    2    0    0 -0.10171617759E+03 -0.30980174339E+02 -0.12619364280E+03  0.16501753686E+03  0.00000000000E+00 0. -1.
</event>
<event>
 7    1  0.2989693E-009  0.1227555E+03  0.7561462E-02  0.1238619E+00
          2   -1    0    0  501    0  0.00000000000E+00  0.00000000000E+00  0.94438150371E+03  0.94438150371E+03  0.00000000000E+00 0. -1.
         -2   -1    0    0    0  501 -0.00000000000E+00 -0.00000000000E+00 -0.18617649315E+02  0.18617649315E+02  0.00000000000E+00 0.  1.
         25    2    1    2    0    0 -0.58647938603E+02 -0.20908263928E+01  0.67670618727E+03  0.69066938263E+03  0.12509588304E+03 0.  0.
          5    1    3    3  502    0 -0.96922137616E+02 -0.75090724987E+01  0.53231348082E+03  0.54113344121E+03  0.41800000000E+01 0.  1.
         -5    1    3    3    0  502  0.38274199013E+02  0.54182461059E+01  0.14439270645E+03  0.14953594142E+03  0.41800000000E+01 0.  1.
        -11    1    1    2    0    0 -0.95364045432E+01 -0.31789879899E+02  0.91665282915E+02  0.97488786881E+02  0.00000000000E+00 0.  1.
         11    1    1    2    0    0  0.68184343146E+02  0.33880706292E+02  0.15739238420E+03  0.17484098351E+03  0.00000000000E+00 0. -1.
</event>
<event>
 7    1  0.2989693E-009  0.2104166E+03  0.7561462E-02  0.1141236E+00
          2   -1    0    0  501    0  0.00000000000E+00  0.00000000000E+00  0.12251758936E+04  0.12251758936E+04  0.00000000000E+00 0. -1.
         -2   -1    0    0    0  501 -0.00000000000E+00 -0.00000000000E+00 -0.40708202346E+02  0.40708202346E+02  0.00000000000E+00 0.  1.
         25    2    1    2    0    0  0.17907463224E+03  0.74356367900E+02  0.68631502996E+03  0.72406677876E+03  0.12509111241E+03 0.  0.
          5    1    3    3  502    0 -0.72667221578E+01  0.83799181976E+01  0.23336594558E+01  0.12080837983E+02  0.41800000000E+01 0. -1.
         -5    1    3    3    0  502  0.18634135440E+03  0.65976449702E+02  0.68398137050E+03  0.71198594078E+03  0.41800000000E+01 0. -1.
        -11    1    1    2    0    0 -0.86108733570E+02  0.87633125414E+01  0.16994756202E+03  0.19071885979E+03  0.00000000000E+00 0. -1.
         11    1    1    2    0    0 -0.92965898669E+02 -0.83119680441E+02  0.32820509927E+03  0.35109845739E+03  0.00000000000E+00 0.  1.
</event>
<event>
 7    1  0.2989693E-009  0.8164338E+02  0.7561462E-02  0.1324451E+00
          2   -1    0    0  501    0  0.00000000000E+00  0.00000000000E+00  0.12057463731E+03  0.12057463731E+03  0.00000000000E+00 0.  1.
         -2   -1    0    0    0  501 -0.00000000000E+00 -0.00000000000E+00 -0.10296692253E+03  0.10296692253E+03  0.00000000000E+00 0. -1.
         25    2    1    2    0    0  0.14921617538E+02 -0.18460478124E+02  0.69554118311E+01  0.12751038892E+03  0.12508827925E+03 0.  0.
          5    1    3    3  502    0 -0.34642863952E+02  0.30120464479E+02 -0.23340108588E+02  0.51668205621E+02  0.41800000000E+01 0.  1.
         -5    1    3    3    0  502  0.49564481490E+02 -0.48580942603E+02  0.30295520419E+02  0.75842183295E+02  0.41800000000E+01 0.  1.
        -11    1    1    2    0    0  0.97280885853E+01 -0.71829929368E+01 -0.35649184672E+02  0.37644328429E+02  0.00000000000E+00 0. -1.
         11    1    1    2    0    0 -0.24649706123E+02  0.25643471060E+02  0.46301487620E+02  0.58386842489E+02  0.00000000000E+00 0.  1.
</event>
<event>
 7    1  0.2989693E-009  0.1254718E+03  0.7561462E-02  0.1234334E+00
         -2   -1    0    0    0  501 -0.00000000000E+00  0.00000000000E+00  0.15279227616E+03  0.15279227616E+03  0.00000000000E+00 0.  1.
          2   -1    0    0  501    0  0.00000000000E+00 -0.00000000000E+00 -0.14099171018E+03  0.14099171018E+03  0.00000000000E+00 0. -1.
         25    2    1    2    0    0 -0.34939912318E+02  0.88471215489E+02 -0.29067752348E+02  0.15981410040E+03  0.12509060324E+03 0.  0.
          5    1    3    3  502    0 -0.69161558653E+01 -0.18938977748E+02 -0.43178574186E+02  0.47837012436E+02  0.41800000000E+01 0. -1.
         -5    1    3    3    0  502 -0.28023756452E+02  0.10741019324E+03  0.14110821838E+02  0.11197708797E+03  0.41800000000E+01 0. -1.
        -11    1    1    2    0    0  0.56886383337E+02 -0.72355564302E+02  0.96480368445E+01  0.92544437486E+02  0.00000000000E+00 0. -1.
         11    1    1    2    0    0 -0.21946471019E+02 -0.16115651187E+02  0.31220281482E+02  0.41425448449E+02  0.00000000000E+00 0.  1.
</event>
<event>
 7    1  0.2989693E-009  0.6764086E+02  0.7561462E-02  0.1368304E+00
          1   -1    0    0  501    0  0.00000000000E+00  0.00000000000E+00  0.37726673574E+03  0.37726673574E+03  0.00000000000E+00 0. -1.
         -1   -1    0    0    0  501 -0.00000000000E+00 -0.00000000000E+00 -0.32653441109E+02  0.32653441109E+02  0.00000000000E+00 0.  1.
         25    2    1    2    0    0  0.14318797745E+02  0.73301514791E+01  0.16327445879E+03  0.20631066420E+03  0.12508709837E+03 0.  0.
          5    1    3    3  502    0  0.83401675493E+01  0.23591388614E+02  0.18005384646E+03  0.18183226347E+03  0.41800000000E+01 0. -1.
         -5    1    3    3    0  502  0.59786301957E+01 -0.16261237135E+02 -0.16779387667E+02  0.24478400737E+02  0.41800000000E+01 0. -1.
        -11    1    1    2    0    0 -0.56027719653E+01 -0.49101019057E+02  0.10778706950E+03  0.11857636137E+03  0.00000000000E+00 0.  1.
         11    1    1    2    0    0 -0.87160257798E+01  0.41770867578E+02  0.73551766338E+02  0.85033151270E+02  0.00000000000E+00 0. -1.
</event>
<event>
 7    1  0.2989693E-009  0.1276076E+03  0.7561462E-02  0.1231049E+00
          2   -1    0    0  501    0  0.00000000000E+00  0.00000000000E+00  0.35875803405E+02  0.35875803405E+02  0.00000000000E+00 0. -1.
         -2   -1    0    0    0  501 -0.00000000000E+00 -0.00000000000E+00 -0.59876651910E+03  0.59876651910E+03  0.00000000000E+00 0.  1.
         25    2    1    2    0    0 -0.71187911878E+01  0.88400661458E+02 -0.40560607053E+03  0.43362197638E+03  0.12508549003E+03 0.  0.
          5    1    3    3  502    0 -0.62843321911E+02  0.30173298151E+02 -0.22979331605E+03  0.24017108804E+03  0.41800000000E+01 0.  1.
         -5    1    3    3    0  502  0.55724530723E+02  0.58227363307E+02 -0.17581275448E+03  0.19345088835E+03  0.41800000000E+01 0.  1.
        -11    1    1    2    0    0  0.14644988986E+02  0.12594087681E+01  0.49463557487E+01  0.15508973146E+02  0.00000000000E+00 0. -1.
         11    1    1    2    0    0 -0.75261977985E+01 -0.89660070226E+02 -0.16223100092E+03  0.18551137298E+03  0.00000000000E+00 0.  1.
</event>
<event>
 7    1  0.2989693E-009  0.9897035E+02  0.7561462E-02  0.1282476E+00
          2   -1    0    0  501    0  0.00000000000E+00  0.00000000000E+00  0.88567159938E+03  0.88567159938E+03  0.00000000000E+00 0. -1.
         -2   -1    0    0    0  501 -0.00000000000E+00 -0.00000000000E+00 -0.17820336053E+02  0.17820336053E+02  0.00000000000E+00 0.  1.
         25    2    1    2    0    0 -0.10493133951E+02 -0.52195888375E+02  0.36464458898E+03  0.38915383389E+03  0.12506203873E+03 0.  0.
          5    1    3    3  502    0  0.33199980825E+02 -0.21267359933E+02  0.31006503837E+03  0.31258973071E+03  0.41800000000E+01 0. -1.
         -5    1    3    3    0  502 -0.43693114776E+02 -0.30928528442E+02  0.54579550614E+02  0.76564103180E+02  0.41800000000E+01 0. -1.
        -11    1    1    2    0    0 -0.77228884360E+01 -0.24541230856E+02  0.86991409972E+02  0.90716153063E+02  0.00000000000E+00 0.  1.
         11    1    1    2    0    0  0.18216022387E+02  0.76737119230E+02  0.41621526438E+03  0.42362194849E+03  0.00000000000E+00 0. -1.
</event>
<event>
 7    1  0.2989693E-009  0.8716544E+02  0.7561462E-02  0.1309865E+00
         -2   -1    0    0    0  501 -0.00000000000E+00  0.00000000000E+00  0.24553906504E+03  0.24553906504E+03  0.00000000000E+00 0.  1.
          2   -1    0    0  501    0  0.00000000000E+00 -0.00000000000E+00 -0.54585939590E+02  0.54585939590E+02  0.00000000000E+00 0. -1.
         25    2    1    2    0    0  0.12193600220E+02 -0.54653507394E+01  0.60198053144E+02  0.13946131722E+03  0.12508836658E+03 0.  0.
          5    1    3    3  502    0  0.60324181112E+02  0.17396314801E+02  0.58610027184E+02  0.85989803361E+02  0.41800000000E+01 0. -1.
         -5    1    3    3    0  502 -0.48130580892E+02 -0.22861665540E+02  0.15880259593E+01  0.53471513862E+02  0.41800000000E+01 0. -1.
        -11    1    1    2    0    0  0.10873108375E+02 -0.20515327217E+02 -0.21260510441E+01  0.23315729231E+02  0.00000000000E+00 0. -1.
         11    1    1    2    0    0 -0.23066708594E+02  0.25980677956E+02  0.13288112335E+03  0.13734795818E+03  0.00000000000E+00 0.  1.
</event>
<event>
 7    1  0.2989693E-009  0.1463591E+03  0.7561462E-02  0.1205020E+00
         -1   -1    0    0    0  501 -0.00000000000E+00  0.00000000000E+00  0.14499843025E+03  0.14499843025E+03  0.00000000000E+00 0.  1.
          1   -1    0    0  501    0  0.00000000000E+00 -0.00000000000E+00 -0.16744980387E+03  0.16744980387E+03  0.00000000000E+00 0. -1.
         25    2    1    2    0    0  0.55621712815E+02  0.90391201136E+02  0.21530647060E+02  0.16545670289E+03  0.12509199650E+03 0.  0.
          5    1    3    3  502    0  0.68182290692E+02  0.64114043033E+01  0.38629081883E+02  0.78737597349E+02  0.41800000000E+01 0.  1.
         -5    1    3    3    0  502 -0.12560577877E+02  0.83979796832E+02 -0.17098434822E+02  0.86719105542E+02  0.41800000000E+01 0.  1.
        -11    1    1    2    0    0 -0.34894751457E+02  0.10225109702E+02 -0.33396687971E+01  0.36515064499E+02  0.00000000000E+00 0.  1.
         11    1    1    2    0    0 -0.20726961358E+02 -0.10061631084E+03 -0.40642351887E+02  0.11047646673E+03  0.00000000000E+00 0. -1.
</event>
<event>
 7    1  0.2989693E-009  0.9324654E+02  0.7561462E-02  0.1295175E+00
          2   -1    0    0  501    0  0.00000000000E+00  0.00000000000E+00  0.43699741084E+02  0.43699741084E+02  0.00000000000E+00 0. -1.
         -2   -1    0    0    0  501 -0.00000000000E+00 -0.00000000000E+00 -0.38668658308E+03  0.38668658308E+03  0.00000000000E+00 0.  1.
         25    2    1    2    0    0 -0.16066224145E+02 -0.48968817813E+02 -0.27104009775E+03  0.30293002374E+03  0.12509115084E+03 0.  0.
          5    1    3    3  502    0  0.77872999393E+01  0.25590898096E+02 -0.18322220775E+03  0.18521173267E+03  0.41800000000E+01 0.  1.
         -5    1    3    3    0  502 -0.23853524085E+02 -0.74559715909E+02 -0.87817889995E+02  0.11771829106E+03  0.41800000000E+01 0.  1.
        -11    1    1    2    0    0 -0.11830000261E+02 -0.10193347221E+02 -0.58670838851E+02  0.60713429859E+02  0.00000000000E+00 0.  1.
         11    1    1    2    0    0  0.27896224406E+02  0.59162165034E+02 -0.13275905396E+02  0.66742870569E+02  0.00000000000E+00 0. -1.
</event>
<event>
 7    1  0.2989693E-009  0.1219569E+03  0.7561462E-02  0.1239903E+00
         -2   -1    0    0    0  501 -0.00000000000E+00  0.00000000000E+00  0.12948983026E+03  0.12948983026E+03  0.00000000000E+00 0.  1.
          2   -1    0    0  501    0  0.00000000000E+00 -0.00000000000E+00 -0.18759198818E+03  0.18759198818E+03  0.00000000000E+00 0. -1.
         25    2    1    2    0    0 -0.51010140562E+02 -0.31694157177E+02 -0.12534134299E+03  0.18698880323E+03  0.12509119166E+03 0.  0.
          5    1    3    3  502    0 -0.91440606677E+02 -0.29886528677E+02 -0.73776680110E+02  0.12130564733E+03  0.41800000000E+01 0.  1.
         -5    1    3    3    0  502  0.40430466115E+02 -0.18076284998E+01 -0.51564662878E+02  0.65683155898E+02  0.41800000000E+01 0.  1.
        -11    1    1    2    0    0  0.76353439566E+02  0.19459244642E+02  0.64482929990E+02  0.10181629632E+03  0.00000000000E+00 0. -1.
         11    1    1    2    0    0 -0.25343299005E+02  0.12234912535E+02  0.27562550771E+01  0.28276718891E+02  0.00000000000E+00 0.  1.
</event>
<event>
 7    1  0.2989693E-009  0.1410501E+03  0.7561462E-02  0.1211923E+00
          1   -1    0    0  501    0  0.00000000000E+00  0.00000000000E+00  0.53219711383E+02  0.53219711383E+02  0.00000000000E+00 0. -1.
         -1   -1    0    0    0  501 -0.00000000000E+00 -0.00000000000E+00 -0.49175428282E+03  0.49175428282E+03  0.00000000000E+00 0.  1.
         25    2    1    2    0    0 -0.28162961277E+02 -0.10952826479E+03 -0.17031780332E+03  0.23967639621E+03  0.12508807936E+03 0.  0.
          5    1    3    3  502    0 -0.54222352115E+02 -0.94387205380E+02 -0.17764000055E+03  0.20838054181E+03  0.41800000000E+01 0.  1.
         -5    1    3    3    0  502  0.26059390837E+02 -0.15141059409E+02  0.73221972256E+01  0.31295854407E+02  0.41800000000E+01 0.  1.
        -11    1    1    2    0    0  0.28877689415E+02 -0.40490159652E+01 -0.32631061324E+02  0.43761874267E+02  0.00000000000E+00 0.  1.
         11    1    1    2    0    0 -0.71472813807E+00  0.11357728075E+03 -0.23558570679E+03  0.26153572373E+03  0.00000000000E+00 0. -1.
</event>
<event>
 7    1  0.2989693E-009  0.1130353E+03  0.7561462E-02  0.1255050E+00
          2   -1    0    0  501    0  0.00000000000E+00  0.00000000000E+00  0.36060993996E+03  0.36060993996E+03  0.00000000000E+00 0. -1.
         -2   -1    0    0    0  501 -0.00000000000E+00 -0.00000000000E+00 -0.44910908029E+02  0.44910908029E+02  0.00000000000E+00 0.  1.
         25    2    1    2    0    0 -0.64411378390E+02  0.28308433227E+01  0.15468501456E+03  0.20912333003E+03  0.12509306174E+03 0.  0.
          5    1    3    3  502    0 -0.43269296207E+02 -0.44198757714E+02  0.14332558084E+03  0.15615843461E+03  0.41800000000E+01 0.  1.
         -5    1    3    3    0  502 -0.21142082183E+02  0.47029601037E+02  0.11359433720E+02  0.52964895423E+02  0.41800000000E+01 0.  1.
        -11    1    1    2    0    0 -0.15907094194E+01 -0.37675482415E+02  0.58240523667E+02  0.69382497279E+02  0.00000000000E+00 0. -1.
         11    1    1    2    0    0  0.66002087810E+02  0.34844639092E+02  0.10277349370E+03  0.12701502067E+03  0.00000000000E+00 0.  1.
</event>
<event>
 7    1  0.2989693E-009  0.1115856E+03  0.7561462E-02  0.1257661E+00
          1   -1    0    0  501    0  0.00000000000E+00  0.00000000000E+00  0.77337876227E+02  0.77337876227E+02  0.00000000000E+00 0. -1.
         -1   -1    0    0    0  501 -0.00000000000E+00 -0.00000000000E+00 -0.16608881746E+03  0.16608881746E+03  0.00000000000E+00 0.  1.
         25    2    1    2    0    0  0.29433445762E+02 -0.25737911627E+01 -0.66177631235E+02  0.14456433191E+03  0.12508563089E+03 0.  0.
          5    1    3    3  502    0  0.49012242049E+01 -0.62667363613E+02 -0.38853313870E+02  0.74015355566E+02  0.41800000000E+01 0. -1.
         -5    1    3    3    0  502  0.24532221557E+02  0.60093572450E+02 -0.27324317365E+02  0.70548976348E+02  0.41800000000E+01 0. -1.
        -11    1    1    2    0    0 -0.12537353986E+01  0.44553002094E+02 -0.18096062770E+02  0.48104150921E+02  0.00000000000E+00 0. -1.
         11    1    1    2    0    0 -0.28179710363E+02 -0.41979210932E+02 -0.44772472323E+01  0.50758210857E+02  0.00000000000E+00 0.  1.
</event>
<event>
 7    1  0.2989693E-009  0.1114172E+03  0.7561462E-02  0.1257968E+00
         -1   -1    0    0    0  501 -0.00000000000E+00  0.00000000000E+00  0.88168089254E+02  0.88168089254E+02  0.00000000000E+00 0.  1.
          1   -1    0    0  501    0  0.00000000000E+00 -0.00000000000E+00 -0.22180716086E+03  0.22180716086E+03  0.00000000000E+00 0. -1.
         25    2    1    2    0    0  0.81267203798E+02  0.25425029021E+02 -0.99396874306E+02  0.18104349547E+03  0.12508484367E+03 0.  0.
          5    1    3    3  502    0  0.88635362920E+02  0.55784382997E+02 -0.10574897479E+03  0.14889070829E+03  0.41800000000E+01 0. -1.
         -5    1    3    3    0  502 -0.73681591222E+01 -0.30359353976E+02  0.63521004837E+01  0.32152787177E+02  0.41800000000E+01 0. -1.
        -11    1    1    2    0    0 -0.13733464001E+02  0.14679057965E+01  0.29294181192E+02  0.32386908352E+02  0.00000000000E+00 0.  1.
         11    1    1    2    0    0 -0.67533739797E+02 -0.26892934817E+02 -0.63536378495E+02  0.96544846296E+02  0.00000000000E+00 0. -1.
</event>
<event>
 7    1  0.2989693E-009  0.1218050E+03  0.7561462E-02  0.1240149E+00
         -2   -1    0    0    0  501 -0.00000000000E+00  0.00000000000E+00  0.71373988007E+02  0.71373988007E+02  0.00000000000E+00 0.  1.
          2   -1    0    0  501    0  0.00000000000E+00 -0.00000000000E+00 -0.25293528068E+03  0.25293528068E+03  0.00000000000E+00 0. -1.
         25    2    1    2    0    0  0.36957942733E+02 -0.30939017728E+02 -0.33747656342E+02  0.13823437411E+03  0.12508687193E+03 0.  0.
          5    1    3    3  502    0  0.38045157638E+02 -0.77451750303E+02 -0.29663558114E+02  0.91343345268E+02  0.41800000000E+01 0.  1.
         -5    1    3    3    0  502 -0.10872149046E+01  0.46512732575E+02 -0.40840982279E+01  0.46891028846E+02  0.41800000000E+01 0.  1.
        -11    1    1    2    0    0  0.20672190556E+02  0.46433969541E+02 -0.48765304310E+02  0.70437971962E+02  0.00000000000E+00 0.  1.
         11    1    1    2    0    0 -0.57630133290E+02 -0.15494951813E+02 -0.99048332018E+02  0.11563692261E+03  0.00000000000E+00 0. -1.
</event>
<event>
 7    1  0.2989693E-009  0.1206200E+03  0.7561462E-02  0.1242078E+00
          2   -1    0    0  501    0  0.00000000000E+00  0.00000000000E+00  0.18831993603E+03  0.18831993603E+03  0.00000000000E+00 0. -1.
         -2   -1    0    0    0  501 -0.00000000000E+00 -0.00000000000E+00 -0.11643472360E+03  0.11643472360E+03  0.00000000000E+00 0.  1.
         25    2    1    2    0    0  0.31817071463E+02  0.46333807604E+02  0.12652771709E+03  0.18659076973E+03  0.12509078461E+03 0.  0.
          5    1    3    3  502    0  0.63035698448E+02  0.72441939415E+02  0.85317399575E+02  0.12852184614E+03  0.41800000000E+01 0. -1.
         -5    1    3    3    0  502 -0.31218626985E+02 -0.26108131811E+02  0.41210317512E+02  0.58068923590E+02  0.41800000000E+01 0. -1.
        -11    1    1    2    0    0 -0.48542423631E+02  0.63308347930E+01 -0.19594200630E+02  0.52729299820E+02  0.00000000000E+00 0.  1.
         11    1    1    2    0    0  0.16725352168E+02 -0.52664642397E+02 -0.35048304030E+02  0.65434590083E+02  0.00000000000E+00 0. -1.
</event>
<event>
 7    1  0.2989693E-009  0.6640973E+02  0.7561462E-02  0.1372746E+00
         -1   -1    0    0    0  501 -0.00000000000E+00  0.00000000000E+00  0.68468171952E+02  0.68468171952E+02  0.00000000000E+00 0.  1.
          1   -1    0    0  501    0  0.00000000000E+00 -0.00000000000E+00 -0.25180232984E+03  0.25180232984E+03  0.00000000000E+00 0. -1.
         25    2    1    2    0    0 -0.13413372101E+02  0.32689399812E+02 -0.18033660599E+03  0.22229996246E+03  0.12508983347E+03 0.  0.
          5    1    3    3  502    0 -0.18031117418E+02  0.36326337988E+02  0.10367746076E+01  0.40783223617E+02  0.41800000000E+01 0. -1.
         -5    1    3    3    0  502  0.46177453176E+01 -0.36369381760E+01 -0.18137338060E+03  0.18151673884E+03  0.41800000000E+01 0. -1.
        -11    1    1    2    0    0 -0.17947776193E+02  0.17878771685E+02 -0.23973249399E+02  0.34878214318E+02  0.00000000000E+00 0. -1.
         11    1    1    2    0    0  0.31361148294E+02 -0.50568171497E+02  0.20975697496E+02  0.63092325019E+02  0.00000000000E+00 0.  1.
</event>
<event>
 7    1  0.2989693E-009  0.2519640E+03  0.7561462E-02  0.1112070E+00
          1   -1    0    0  501    0  0.00000000000E+00  0.00000000000E+00  0.10723006906E+04  0.10723006906E+04  0.00000000000E+00 0. -1.
         -1   -1    0    0    0  501 -0.00000000000E+00 -0.00000000000E+00 -0.66165489149E+02  0.66165489149E+02  0.00000000000E+00 0.  1.
         25    2    1    2    0    0 -0.16934316773E+02  0.23027675648E+03  0.35365486450E+03  0.44049155759E+03  0.12508754320E+03 0.  0.
          5    1    3    3  502    0 -0.57158849306E+02  0.59754113808E+02  0.15388310445E+03  0.17474315553E+03  0.41800000000E+01 0.  1.
         -5    1    3    3    0  502  0.40224532533E+02  0.17052264267E+03  0.19977176006E+03  0.26574840206E+03  0.41800000000E+01 0.  1.
        -11    1    1    2    0    0 -0.30650392751E+02 -0.14519812698E+03  0.34955559464E+03  0.37975130863E+03  0.00000000000E+00 0.  1.
         11    1    1    2    0    0  0.47584709524E+02 -0.85078629493E+02  0.30292474231E+03  0.31822331354E+03  0.00000000000E+00 0. -1.
</event>
<event>
 7    1  0.2989693E-009  0.9663116E+02  0.7561462E-02  0.1287544E+00
          2   -1    0    0  501    0  0.00000000000E+00  0.00000000000E+00  0.14422839871E+04  0.14422839871E+04  0.00000000000E+00 0. -1.
         -2   -1    0    0    0  501 -0.00000000000E+00 -0.00000000000E+00 -0.12881201912E+02  0.12881201912E+02  0.00000000000E+00 0.  1.
         25    2    1    2    0    0 -0.17690610343E+02 -0.18152976665E+01  0.11856965277E+04  0.11924104629E+04  0.12510077207E+03 0.  0.
          5    1    3    3  502    0  0.64973508064E+01  0.47849605112E+02  0.22711528430E+03  0.23222968165E+03  0.41800000000E+01 0. -1.
         -5    1    3    3    0  502 -0.24187961149E+02 -0.49664902778E+02  0.95858124344E+03  0.96018078126E+03  0.41800000000E+01 0. -1.
        -11    1    1    2    0    0  0.33588814134E+02 -0.35476033507E+02  0.18548054618E+03  0.19180664847E+03  0.00000000000E+00 0. -1.
         11    1    1    2    0    0 -0.15898203791E+02  0.37291331174E+02  0.58225711226E+02  0.70948077580E+02  0.00000000000E+00 0.  1.
</event>
<event>
 7    1  0.2989693E-009  0.1045345E+03  0.7561462E-02  0.1271040E+00
          2   -1    0    0  501    0  0.00000000000E+00  0.00000000000E+00  0.79774861045E+03  0.79774861045E+03  0.00000000000E+00 0.  1.
         -2   -1    0    0    0  501 -0.00000000000E+00 -0.00000000000E+00 -0.19972324889E+02  0.19972324889E+02  0.00000000000E+00 0. -1.
         25    2    1    2    0    0  0.66879343910E+01 -0.55396694138E+02  0.54425332970E+03  0.56122377155E+03  0.12508762002E+03 0.  0.
          5    1    3    3  502    0  0.40918930204E+01 -0.84345226241E+02  0.22069589304E+03  0.23633664630E+03  0.41800000000E+01 0.  1.
         -5    1    3    3    0  502  0.25960413706E+01  0.28948532103E+02  0.32355743665E+03  0.32488712525E+03  0.41800000000E+01 0.  1.
        -11    1    1    2    0    0  0.18200672778E+02  0.65734099818E+02  0.20974645369E+03  0.22055795430E+03  0.00000000000E+00 0.  1.
         11    1    1    2    0    0 -0.24888607169E+02 -0.10337405680E+02  0.23776502176E+02  0.35939209490E+02  0.00000000000E+00 0. -1.
</event>
<event>
 7    1  0.2989693E-009  0.6652371E+02  0.7561462E-02  0.1372330E+00
          1   -1    0    0  501    0  0.00000000000E+00  0.00000000000E+00  0.21115673516E+02  0.21115673516E+02  0.00000000000E+00 0. -1.
         -1   -1    0    0    0  501 -0.00000000000E+00 -0.00000000000E+00 -0.63949403112E+03  0.63949403112E+03  0.00000000000E+00 0.  1.
         25    2    1    2    0    0 -0.24727110699E+02  0.53480672392E+01 -0.25990951937E+03  0.28955008180E+03  0.12508501023E+03 0.  0.
          5    1    3    3  502    0 -0.19103358825E+02  0.16089734223E+02 -0.27125042538E+03  0.27242996078E+03  0.41800000000E+01 0. -1.
         -5    1    3    3    0  502 -0.56237518731E+01 -0.10741666984E+02  0.11340906003E+02  0.17120121018E+02  0.41800000000E+01 0. -1.
        -11    1    1    2    0    0  0.57423228558E+02 -0.17479195002E+02 -0.20077466975E+03  0.20955528495E+03  0.00000000000E+00 0. -1.
         11    1    1    2    0    0 -0.32696117860E+02  0.12131127763E+02 -0.15769416848E+03  0.16150433789E+03  0.00000000000E+00 0.  1.
</event>
<event>
 6    1  0.4039251E-009  0.9865221E+02  0.7561462E-02  0.1283156E+00
         -1   -1    0    0    0  501 -0.00000000000E+00  0.00000000000E+00  0.86173394756E+02  0.86173394756E+02  0.00000000000E+00 0.  1.
          1   -1    0    0  501    0  0.00000000000E+00 -0.00000000000E+00 -0.18558125087E+03  0.18558125087E+03  0.00000000000E+00 0. -1.
          5    1    1    2  502    0 -0.42582640705E+01 -0.95251797116E+02 -0.35554203026E+02  0.10184601818E+03  0.41800000000E+01 0.  1.
         -5    1    1    2    0  502  0.10890829482E+02  0.35985629330E+02  0.87917736191E+01  0.38837396520E+02  0.41800000000E+01 0.  1.
        -11    1    1    2    0    0  0.88101808447E+01  0.21362591609E+02 -0.85185858856E+02  0.88264433130E+02  0.00000000000E+00 0. -1.
         11    1    1    2    0    0 -0.15442746256E+02  0.37903576177E+02  0.12540432148E+02  0.42806797794E+02  0.00000000000E+00 0.  1.
</event>
<event>
 7    1  0.2989693E-009  0.1142535E+03  0.7561462E-02  0.1252890E+00
         -2   -1    0    0    0  501 -0.00000000000E+00  0.00000000000E+00  0.23272784090E+02  0.23272784090E+02  0.00000000000E+00 0.  1.
          2   -1    0    0  501    0  0.00000000000E+00 -0.00000000000E+00 -0.11870803932E+04  0.11870803932E+04  0.00000000000E+00 0. -1.
         25    2    1    2    0    0  0.49067086913E+02  0.13186596002E+02 -0.10297387095E+04  0.10385525011E+04  0.12509205538E+03 0.  0.
          5    1    3    3  502    0  0.67023328457E+02  0.50931856090E+02 -0.49124512452E+03  0.49842293816E+03  0.41800000000E+01 0.  1.
         -5    1    3    3    0  502 -0.17956241544E+02 -0.37745260088E+02 -0.53849358501E+03  0.54012956295E+03  0.41800000000E+01 0.  1.
        -11    1    1    2    0    0 -0.75005243667E+02 -0.57088402257E+01 -0.72048876893E+02  0.10416054001E+03  0.00000000000E+00 0.  1.
         11    1    1    2    0    0  0.25938156754E+02 -0.74777557766E+01 -0.62020022709E+02  0.67640136192E+02  0.00000000000E+00 0. -1.
</event>
<event>
 7    1  0.2989693E-009  0.1836354E+03  0.7561462E-02  0.1164330E+00
          4   -1    0    0  501    0  0.00000000000E+00  0.00000000000E+00  0.12706483347E+03  0.12706483347E+03  0.00000000000E+00 0. -1.
         -4   -1    0    0    0  501 -0.00000000000E+00 -0.00000000000E+00 -0.43054282331E+03  0.43054282331E+03  0.00000000000E+00 0.  1.
         25    2    1    2    0    0  0.14753658204E+03  0.85883445123E+02 -0.17745668736E+02  0.21238442739E+03  0.12509687067E+03 0.  0.
          5    1    3    3  502    0  0.37513615116E+02  0.77235593520E+01  0.48536239085E+02  0.61969053508E+02  0.41800000000E+01 0. -1.
         -5    1    3    3    0  502  0.11002296692E+03  0.78159885771E+02 -0.66281907822E+02  0.15041537388E+03  0.41800000000E+01 0. -1.
        -11    1    1    2    0    0 -0.15823635382E+03 -0.90247808779E+02 -0.26737998090E+03  0.32353587877E+03  0.00000000000E+00 0. -1.
         11    1    1    2    0    0  0.10699771784E+02  0.43643636559E+01 -0.18352340203E+02  0.21687350628E+02  0.00000000000E+00 0.  1.
</event>
<event>
 7    1  0.2989693E-009  0.8540480E+02  0.7561462E-02  0.1314377E+00
         -1   -1    0    0    0  501 -0.00000000000E+00  0.00000000000E+00  0.73465275236E+02  0.73465275236E+02  0.00000000000E+00 0.  1.
          1   -1    0    0  501    0  0.00000000000E+00 -0.00000000000E+00 -0.18654606292E+03  0.18654606292E+03  0.00000000000E+00 0. -1.
         25    2    1    2    0    0 -0.36675947652E+02  0.11763487246E+02 -0.27839255997E+02  0.13381860691E+03  0.12509552594E+03 0.  0.
          5    1    3    3  502    0 -0.26933009905E+02 -0.43545186129E+02 -0.51493747687E+02  0.72736845604E+02  0.41800000000E+01 0.  1.
         -5    1    3    3    0  502 -0.97429377475E+01  0.55308673376E+02  0.23654491690E+02  0.61081761301E+02  0.41800000000E+01 0.  1.
        -11    1    1    2    0    0  0.29305265582E+02 -0.30917485926E+02 -0.94515119844E+02  0.10367158437E+03  0.00000000000E+00 0. -1.
         11    1    1    2    0    0  0.73706820706E+01  0.19153998679E+02  0.92735881557E+01  0.22521146882E+02  0.00000000000E+00 0.  1.
</event>
<event>
 7    1  0.2989693E-009  0.7634170E+02  0.7561462E-02  0.1339766E+00
         -2   -1    0    0    0  501 -0.00000000000E+00  0.00000000000E+00  0.41012139284E+02  0.41012139284E+02  0.00000000000E+00 0.  1.
          2   -1    0    0  501    0  0.00000000000E+00 -0.00000000000E+00 -0.39086060767E+03  0.39086060767E+03  0.00000000000E+00 0. -1.
         25    2    1    2    0    0  0.44159969181E+02  0.44339025355E+02 -0.22181879113E+03  0.26223451326E+03  0.12508921537E+03 0.  0.
          5    1    3    3  502    0  0.49400696930E+02  0.52578255078E+02 -0.45073591097E+02  0.85170433711E+02  0.41800000000E+01 0. -1.
         -5    1    3    3    0  502 -0.52407277490E+01 -0.82392297224E+01 -0.17674520003E+03  0.17706407955E+03  0.41800000000E+01 0. -1.
        -11    1    1    2    0    0  0.38814976451E+01 -0.10047301486E+02  0.12924720830E+02  0.16824467292E+02  0.00000000000E+00 0.  1.
         11    1    1    2    0    0 -0.48041466826E+02 -0.34291723870E+02 -0.14095439809E+03  0.15281376640E+03  0.00000000000E+00 0. -1.
</event>
<event>
 7    1  0.2989693E-009  0.1125067E+03  0.7561462E-02  0.1255997E+00
          1   -1    0    0  501    0  0.00000000000E+00  0.00000000000E+00  0.28500748110E+02  0.28500748110E+02  0.00000000000E+00 0. -1.
         -1   -1    0    0    0  501 -0.00000000000E+00 -0.00000000000E+00 -0.74715526971E+03  0.74715526971E+03  0.00000000000E+00 0.  1.
         25    2    1    2    0    0 -0.64004449729E+02  0.13624522985E+02 -0.57888163275E+03  0.59584801664E+03  0.12509483196E+03 0.  0.
          5    1    3    3  502    0 -0.91837496103E+02  0.97665917899E+01 -0.53906915530E+03  0.54693924581E+03  0.41800000000E+01 0. -1.
         -5    1    3    3    0  502  0.27833046374E+02  0.38579311952E+01 -0.39812477453E+02  0.48908770834E+02  0.41800000000E+01 0. -1.
        -11    1    1    2    0    0  0.70789655695E+02  0.16988168484E+02 -0.60839468000E+02  0.94874728397E+02  0.00000000000E+00 0.  1.
         11    1    1    2    0    0 -0.67852059662E+01 -0.30612691469E+02 -0.78933420842E+02  0.84933272778E+02  0.00000000000E+00 0. -1.
</event>
<event>
 7    1  0.2989693E-009  0.8455302E+02  0.7561462E-02  0.1316606E+00
         -1   -1    0    0    0  501 -0.00000000000E+00  0.00000000000E+00  0.22332187086E+03  0.22332187086E+03  0.00000000000E+00 0.  1.
          1   -1    0    0  501    0  0.00000000000E+00 -0.00000000000E+00 -0.63620291271E+02  0.63620291271E+02  0.00000000000E+00 0. -1.
         25    2    1    2    0    0  0.34687529164E+01 -0.99647579536E+01  0.15099973272E+03  0.19636797270E+03  0.12509249686E+03 0.  0.
          5    1    3    3  502    0  0.59665709138E+02 -0.31692442112E+01  0.11351243493E+03  0.12834557351E+03  0.41800000000E+01 0. -1.
         -5    1    3    3    0  502 -0.56196956222E+02 -0.67955137424E+01  0.37487297790E+02  0.68022399188E+02  0.41800000000E+01 0. -1.
        -11    1    1    2    0    0 -0.25809862193E+02 -0.39783374016E+01 -0.32489516869E+02  0.41683868118E+02  0.00000000000E+00 0. -1.
         11    1    1    2    0    0  0.22341109277E+02  0.13943095355E+02  0.41191363735E+02  0.48890321314E+02  0.00000000000E+00 0.  1.
</event>
<event>
 7    1  0.2989693E-009  0.8078963E+02  0.7561462E-02  0.1326825E+00
          2   -1    0    0  501    0  0.00000000000E+00  0.00000000000E+00  0.29807295260E+03  0.29807295260E+03  0.00000000000E+00 0. -1.
         -2   -1    0    0    0  501 -0.00000000000E+00 -0.00000000000E+00 -0.42243087175E+02  0.42243087175E+02  0.00000000000E+00 0.  1.
         25    2    1    2    0    0  0.16068383376E+02  0.21815458339E+02  0.16866181295E+03  0.21172991189E+03  0.12509452935E+03 0.  0.
          5    1    3    3  502    0  0.64583752944E+00 -0.22518664251E+02  0.16261094539E+03  0.16421723206E+03  0.41800000000E+01 0. -1.
         -5    1    3    3    0  502  0.15422545846E+02  0.44334122589E+02  0.60508675605E+01  0.47512679827E+02  0.41800000000E+01 0. -1.
        -11    1    1    2    0    0 -0.26049997796E+02  0.29447029207E+02  0.21928181364E+02  0.45017497178E+02  0.00000000000E+00 0. -1.
         11    1    1    2    0    0  0.99816144204E+01 -0.51262487545E+02  0.65239871112E+02  0.83568630708E+02  0.00000000000E+00 0.  1.
</event>
<event>
 7    1  0.2989693E-009  0.9503080E+02  0.7561462E-02  0.1291107E+00
         -1   -1    0    0    0  501 -0.00000000000E+00  0.00000000000E+00  0.89915006684E+02  0.89915006684E+02  0.00000000000E+00 0.  1.
          1   -1    0    0  501    0  0.00000000000E+00 -0.00000000000E+00 -0.18744140406E+03  0.18744140406E+03  0.00000000000E+00 0. -1.
         25    2    1    2    0    0  0.32001895254E+02  0.81972774174E+00  0.12831604047E+02  0.12977795285E+03  0.12511144524E+03 0.  0.
          5    1    3    3  502    0 -0.20084557337E+02  0.31529906090E+02 -0.35906558602E+02  0.52002670817E+02  0.41800000000E+01 0.  1.
         -5    1    3    3    0  502  0.52086452591E+02 -0.30710178348E+02  0.48738162649E+02  0.77775282038E+02  0.41800000000E+01 0.  1.
        -11    1    1    2    0    0  0.14436528557E+02  0.31908600945E+02 -0.18597138459E+02  0.39653823648E+02  0.00000000000E+00 0.  1.
         11    1    1    2    0    0 -0.46438423810E+02 -0.32728328687E+02 -0.91760862966E+02  0.10792463424E+03  0.00000000000E+00 0. -1.
</event>
<event>
 7    1  0.2989693E-009  0.1630618E+03  0.7561462E-02  0.1185283E+00
         -2   -1    0    0    0  501 -0.00000000000E+00  0.00000000000E+00  0.23877342556E+03  0.23877342556E+03  0.00000000000E+00 0.  1.
          2   -1    0    0  501    0  0.00000000000E+00 -0.00000000000E+00 -0.14236339937E+03  0.14236339937E+03  0.00000000000E+00 0. -1.
         25    2    1    2    0    0 -0.14004918099E+03 -0.10086903057E+02  0.10027663725E+03  0.21311651612E+03  0.12509087399E+03 0.  0.
          5    1    3    3  502    0 -0.42857352138E+02 -0.61710265847E+02  0.23381656285E+02  0.78797739776E+02  0.41800000000E+01 0. -1.
         -5    1    3    3    0  502 -0.97191828850E+02  0.51623362790E+02  0.76894980963E+02  0.13431877634E+03  0.41800000000E+01 0. -1.
        -11    1    1    2    0    0  0.90745110194E+02  0.11159636196E+02  0.42052663731E+02  0.10063617158E+03  0.00000000000E+00 0.  1.
         11    1    1    2    0    0  0.49304070793E+02 -0.10727331398E+01 -0.45919274788E+02  0.67384137230E+02  0.00000000000E+00 0. -1.
</event>
<event>
 7    1  0.2989693E-009  0.7322182E+02  0.7561462E-02  0.1349468E+00
         -1   -1    0    0    0  501 -0.00000000000E+00  0.00000000000E+00  0.22526185080E+02  0.22526185080E+02  0.00000000000E+00 0.  1.
          1   -1    0    0  501    0  0.00000000000E+00 -0.00000000000E+00 -0.61438986618E+03  0.61438986618E+03  0.00000000000E+00 0. -1.
         25    2    1    2    0    0 -0.28235819785E+02 -0.20217954136E+02 -0.24519644118E+03  0.27744355048E+03  0.12509037430E+03 0.  0.
          5    1    3    3  502    0 -0.16946315814E+02  0.99755903470E+01 -0.24409334652E+03  0.24491983227E+03  0.41800000000E+01 0.  1.
         -5    1    3    3    0  502 -0.11289503971E+02 -0.30193544483E+02 -0.11030946653E+01  0.32523718210E+02  0.41800000000E+01 0.  1.
        -11    1    1    2    0    0 -0.16124725978E+02  0.41581181840E+02 -0.19407407172E+03  0.19913248551E+03  0.00000000000E+00 0. -1.
         11    1    1    2    0    0  0.44360545763E+02 -0.21363227704E+02 -0.15259316820E+03  0.16034001528E+03  0.00000000000E+00 0.  1.
</event>
<event>
 7    1  0.2989693E-009  0.2796102E+03  0.7561462E-02  0.1095902E+00
         -2   -1    0    0    0  501 -0.00000000000E+00  0.00000000000E+00  0.16452705936E+03  0.16452705936E+03  0.00000000000E+00 0.  1.
          2   -1    0    0  501    0  0.00000000000E+00 -0.00000000000E+00 -0.55294754359E+03  0.55294754359E+03  0.00000000000E+00 0. -1.
         25    2    1    2    0    0  0.49387740343E+01  0.26994485078E+03 -0.29155216124E+03  0.41658716655E+03  0.12509033000E+03 0.  0.
          5    1    3    3  502    0 -0.20490781055E+02  0.18313291119E+03 -0.26390979941E+03  0.32190587117E+03  0.41800000000E+01 0.  1.
         -5    1    3    3    0  502  0.25429555090E+02  0.86811939588E+02 -0.27642361830E+02  0.94681295379E+02  0.41800000000E+01 0.  1.
        -11    1    1    2    0    0 -0.44901550179E+02 -0.18637440889E+03 -0.56671081361E+02  0.19990793121E+03  0.00000000000E+00 0.  1.
         11    1    1    2    0    0  0.39962776145E+02 -0.83570441883E+02 -0.40197241621E+02  0.10097950519E+03  0.00000000000E+00 0. -1.
</event>
<event>
 7    1  0.3567290E-009  0.1188694E+03  0.7561462E-02  0.1244974E+00
         -2   -1    0    0    0  501 -0.00000000000E+00  0.00000000000E+00  0.13423938954E+02  0.13423938954E+02  0.00000000000E+00 0.  1.
          2   -1    0    0  501    0  0.00000000000E+00 -0.00000000000E+00 -0.11528508169E+04  0.11528508169E+04  0.00000000000E+00 0. -1.
         25    2    1    2    0    0  0.35323140221E+02 -0.41082610715E+02 -0.75793615926E+03  0.77009748730E+03  0.12508962107E+03 0.  0.
          5    1    3    3  502    0 -0.25612373440E+02 -0.65144444444E+02 -0.35687057384E+03  0.36369475002E+03  0.41800000000E+01 0.  1.
         -5    1    3    3    0  502  0.60935513661E+02  0.24061833729E+02 -0.40106558542E+03  0.40640273728E+03  0.41800000000E+01 0.  1.
        -11    1    1    2    0    0 -0.44468223981E+02 -0.13619310613E+02 -0.11639939454E+03  0.12534643040E+03  0.00000000000E+00 0. -1.
         11    1    1    2    0    0  0.91450837594E+01  0.54701921328E+02 -0.26509132413E+03  0.27083083813E+03  0.00000000000E+00 0.  1.
</event>
<event>
 7    1  0.2989693E-009  0.8755512E+02  0.7561462E-02  0.1308883E+00
          2   -1    0    0  501    0  0.00000000000E+00  0.00000000000E+00  0.96825944718E+03  0.96825944718E+03  0.00000000000E+00 0. -1.
         -2   -1    0    0    0  501 -0.00000000000E+00 -0.00000000000E+00 -0.17145195579E+02  0.17145195579E+02  0.00000000000E+00 0.  1.
         25    2    1    2    0    0  0.57428654127E+02  0.31793946649E+02  0.63184683184E+03  0.64744826141E+03  0.12509966801E+03 0.  0.
          5    1    3    3  502    0  0.61177551433E+02  0.10980655617E+02  0.61946220340E+03  0.62258666982E+03  0.41800000000E+01 0.  1.
         -5    1    3    3    0  502 -0.37488973062E+01  0.20813291032E+02  0.12384628436E+02  0.24861591584E+02  0.41800000000E+01 0.  1.
        -11    1    1    2    0    0  0.20469643979E+01  0.15273949096E+02  0.75809698644E+01  0.17174244912E+02  0.00000000000E+00 0.  1.
         11    1    1    2    0    0 -0.59475618524E+02 -0.47067895745E+02  0.31168644989E+03  0.32078213644E+03  0.00000000000E+00 0. -1.
</event>
<event>
 7    1  0.2989693E-009  0.1549502E+03  0.7561462E-02  0.1194519E+00
         -1   -1    0    0    0  501 -0.00000000000E+00  0.00000000000E+00  0.78149618578E+03  0.78149618578E+03  0.00000000000E+00 0.  1.
          1   -1    0    0  501    0  0.00000000000E+00 -0.00000000000E+00 -0.59965856925E+02  0.59965856925E+02  0.00000000000E+00 0. -1.
         25    2    1    2    0    0  0.19966832776E+02  0.13253378843E+03  0.12221186076E+03  0.22033504153E+03  0.12509161495E+03 0.  0.
          5    1    3    3  502    0  0.43995854776E+02  0.75527330403E+02  0.13117634325E+03  0.15768550442E+03  0.41800000000E+01 0. -1.
         -5    1    3    3    0  502 -0.24029022000E+02  0.57006458023E+02 -0.89644824864E+01  0.62649537116E+02  0.41800000000E+01 0. -1.
        -11    1    1    2    0    0  0.34362950519E+02 -0.66700857539E+02  0.33774618669E+03  0.34598020664E+03  0.00000000000E+00 0. -1.
         11    1    1    2    0    0 -0.54329783295E+02 -0.65832930887E+02  0.26157228141E+03  0.27514679454E+03  0.00000000000E+00 0.  1.
</event>
<event>
 7    1  0.2989693E-009  0.1016230E+03  0.7561462E-02  0.1276920E+00
          1   -1    0    0  501    0  0.00000000000E+00  0.00000000000E+00  0.64613633434E+03  0.64613633434E+03  0.00000000000E+00 0. -1.
         -1   -1    0    0    0  501 -0.00000000000E+00 -0.00000000000E+00 -0.36224368576E+02  0.36224368576E+02  0.00000000000E+00 0.  1.
         25    2    1    2    0    0 -0.44138143410E+01 -0.55108861031E+02  0.52711585925E+03  0.54456952688E+03  0.12509345392E+03 0.  0.
          5    1    3    3  502    0  0.55698753216E+02 -0.40638876361E+02  0.19885908188E+03  0.21051431359E+03  0.41800000000E+01 0. -1.
         -5    1    3    3    0  502 -0.60112567557E+02 -0.14469984670E+02  0.32825677737E+03  0.33405521329E+03  0.41800000000E+01 0. -1.
        -11    1    1    2    0    0 -0.15507387908E+02  0.48951672971E+02  0.98906342247E+02  0.11144150889E+03  0.00000000000E+00 0. -1.
         11    1    1    2    0    0  0.19921202249E+02  0.61571880600E+01 -0.16110235729E+02  0.26349667153E+02  0.00000000000E+00 0.  1.
</event>
<event>
 7    1  0.2989693E-009  0.1155209E+03  0.7561462E-02  0.1250675E+00
          2   -1    0    0  501    0  0.00000000000E+00  0.00000000000E+00  0.99156868536E+03  0.99156868536E+03  0.00000000000E+00 0. -1.
         -2   -1    0    0    0  501 -0.00000000000E+00 -0.00000000000E+00 -0.15197399422E+02  0.15197399422E+02  0.00000000000E+00 0.  1.
         25    2    1    2    0    0 -0.28796828301E+02  0.48387843013E+02  0.53343529906E+03  0.55079089222E+03  0.12508696177E+03 0.  0.
          5    1    3    3  502    0 -0.11003558942E+02 -0.40901163862E+02  0.23225602199E+03  0.23612351782E+03  0.41800000000E+01 0. -1.
         -5    1    3    3    0  502 -0.17793269359E+02  0.89289006875E+02  0.30117927707E+03  0.31466737441E+03  0.41800000000E+01 0. -1.
        -11    1    1    2    0    0  0.15652860891E+02 -0.70172623085E+02  0.39705394296E+03  0.40351089540E+03  0.00000000000E+00 0. -1.
         11    1    1    2    0    0  0.13143967410E+02  0.21784780072E+02  0.45882043919E+02  0.52464297158E+02  0.00000000000E+00 0.  1.
</event>
<event>
 7    1  0.2989693E-009  0.1152264E+03  0.7561462E-02  0.1251186E+00
          1   -1    0    0  501    0  0.00000000000E+00  0.00000000000E+00  0.41293299147E+03  0.41293299147E+03  0.00000000000E+00 0. -1.
         -1   -1    0    0    0  501 -0.00000000000E+00 -0.00000000000E+00 -0.49354417630E+02  0.49354417630E+02  0.00000000000E+00 0.  1.
         25    2    1    2    0    0  0.47938325545E+02  0.77933788370E+02  0.17785470107E+03  0.23590593750E+03  0.12509020037E+03 0.  0.
          5    1    3    3  502    0  0.31946567627E+02  0.71788247175E+01  0.15682872854E+03  0.16026490945E+03  0.41800000000E+01 0. -1.
         -5    1    3    3    0  502  0.15991757919E+02  0.70754963653E+02  0.21025972532E+02  0.75641028045E+02  0.41800000000E+01 0. -1.
        -11    1    1    2    0    0 -0.71023850196E+02 -0.71586777005E+02  0.12183869649E+03  0.15815726951E+03  0.00000000000E+00 0.  1.
         11    1    1    2    0    0  0.23085524650E+02 -0.63470113658E+01  0.63885176284E+02  0.68224202088E+02  0.00000000000E+00 0. -1.
</event>
<event>
 7    1  0.2989693E-009  0.9271140E+02  0.7561462E-02  0.1296415E+00
         -1   -1    0    0    0  501 -0.00000000000E+00  0.00000000000E+00  0.29715399285E+02  0.29715399285E+02  0.00000000000E+00 0.  1.
          1   -1    0    0  501    0  0.00000000000E+00 -0.00000000000E+00 -0.86452241683E+03  0.86452241683E+03  0.00000000000E+00 0. -1.
         25    2    1    2    0    0  0.60932342327E+02  0.30476350584E+02 -0.71673831117E+03  0.73075407342E+03  0.12508457477E+03 0.  0.
          5    1    3    3  502    0 -0.14843688563E+02 -0.78123872722E+01 -0.12325567738E+02  0.21231121145E+02  0.41800000000E+01 0.  1.
         -5    1    3    3    0  502  0.75776030890E+02  0.38288737856E+02 -0.70441274343E+03  0.70952295228E+03  0.41800000000E+01 0.  1.
        -11    1    1    2    0    0 -0.44822875198E+02  0.40777737944E+01 -0.11698406762E+03  0.12534348989E+03  0.00000000000E+00 0. -1.
         11    1    1    2    0    0 -0.16109467129E+02 -0.34554124378E+02 -0.10846387568E+01  0.38140252804E+02  0.00000000000E+00 0.  1.
</event>
<event>
 7    1  0.2989693E-009  0.8155536E+02  0.7561462E-02  0.1324695E+00
         -1   -1    0    0    0  501 -0.00000000000E+00  0.00000000000E+00  0.51952403085E+02  0.51952403085E+02  0.00000000000E+00 0.  1.
          1   -1    0    0  501    0  0.00000000000E+00 -0.00000000000E+00 -0.25172291806E+03  0.25172291806E+03  0.00000000000E+00 0. -1.
         25    2    1    2    0    0  0.23959832084E+02 -0.76050708686E+01 -0.79175476939E+02  0.15016351915E+03  0.12509362765E+03 0.  0.
          5    1    3    3  502    0  0.46334719959E+01 -0.34348526741E+02 -0.10332365173E+03  0.10906209130E+03  0.41800000000E+01 0.  1.
         -5    1    3    3    0  502  0.19326360088E+02  0.26743455873E+02  0.24148174788E+02  0.41101427857E+02  0.41800000000E+01 0.  1.
        -11    1    1    2    0    0 -0.35398532863E+02 -0.35625693640E+02 -0.61366490562E+02  0.79297492647E+02  0.00000000000E+00 0.  1.
         11    1    1    2    0    0  0.11438700778E+02  0.43230764509E+02 -0.59228547472E+02  0.74214309342E+02  0.00000000000E+00 0. -1.
</event>
<event>
 7    1  0.2989693E-009  0.1113680E+03  0.7561462E-02  0.1258057E+00
         -1   -1    0    0    0  501 -0.00000000000E+00  0.00000000000E+00  0.60011980980E+03  0.60011980980E+03  0.00000000000E+00 0.  1.
          1   -1    0    0  501    0  0.00000000000E+00 -0.00000000000E+00 -0.21653389066E+02  0.21653389066E+02  0.00000000000E+00 0. -1.
         25    2    1    2    0    0 -0.23729738023E+02  0.16831738513E+02  0.27132561195E+03  0.30018538338E+03  0.12508904351E+03 0.  0.
          5    1    3    3  502    0 -0.51508508831E+02  0.58040655213E+02  0.18162702183E+03  0.19755427507E+03  0.41800000000E+01 0. -1.
         -5    1    3    3    0  502  0.27778770808E+02 -0.41208916700E+02  0.89698590120E+02  0.10263110831E+03  0.41800000000E+01 0. -1.
        -11    1    1    2    0    0 -0.33296568955E+02 -0.18516579620E+02  0.13209405512E+03  0.13747859696E+03  0.00000000000E+00 0. -1.
         11    1    1    2    0    0  0.57026306979E+02  0.16848411066E+01  0.17504675367E+03  0.18410921853E+03  0.00000000000E+00 0.  1.
</event>
<event>
 7    1  0.2989693E-009  0.9661273E+02  0.7561462E-02  0.1287585E+00
         -1   -1    0    0    0  501 -0.00000000000E+00  0.00000000000E+00  0.26345981850E+02  0.26345981850E+02  0.00000000000E+00 0.  1.
          1   -1    0    0  501    0  0.00000000000E+00 -0.00000000000E+00 -0.74505992173E+03  0.74505992173E+03  0.00000000000E+00 0. -1.
         25    2    1    2    0    0  0.18787086382E+02  0.87774439952E+02 -0.39627252512E+03  0.42513184257E+03  0.12509141648E+03 0.  0.
          5    1    3    3  502    0  0.87914829943E+01  0.38797408518E+02 -0.18547871156E+02  0.44091098936E+02  0.41800000000E+01 0. -1.
         -5    1    3    3    0  502  0.99956033878E+01  0.48977031434E+02 -0.37772465397E+03  0.38104074363E+03  0.41800000000E+01 0. -1.
        -11    1    1    2    0    0 -0.13542141066E+02  0.15099385526E+01 -0.22308133194E+01  0.13807462734E+02  0.00000000000E+00 0.  1.
         11    1    1    2    0    0 -0.52449453164E+01 -0.89284378504E+02 -0.32021060144E+03  0.33246659828E+03  0.00000000000E+00 0. -1.
</event>
<event>
 7    1  0.2989693E-009  0.9019632E+02  0.7561462E-02  0.1302377E+00
          1   -1    0    0  501    0  0.00000000000E+00  0.00000000000E+00  0.25688367010E+03  0.25688367010E+03  0.00000000000E+00 0. -1.
         -1   -1    0    0    0  501 -0.00000000000E+00 -0.00000000000E+00 -0.58842843043E+02  0.58842843043E+02  0.00000000000E+00 0.  1.
         25    2    1    2    0    0  0.46573896382E+02 -0.36649850888E+02  0.10109294038E+03  0.17139672012E+03  0.12507882985E+03 0.  0.
          5    1    3    3  502    0 -0.21115656992E+02  0.43257733453E+01  0.88479609700E+02  0.91163024401E+02  0.41800000000E+01 0.  1.
         -5    1    3    3    0  502  0.67689553374E+02 -0.40975624233E+02  0.12613330679E+02  0.80233695715E+02  0.41800000000E+01 0.  1.
        -11    1    1    2    0    0  0.11141335268E+02  0.61146676537E+00 -0.11678534430E+02  0.16152133283E+02  0.00000000000E+00 0.  1.
         11    1    1    2    0    0 -0.57715231650E+02  0.36038384122E+02  0.10862642111E+03  0.12817765974E+03  0.00000000000E+00 0. -1.
</event>
<event>
 7    1  0.2989693E-009  0.1229097E+03  0.7561462E-02  0.1238373E+00
          2   -1    0    0  501    0  0.00000000000E+00  0.00000000000E+00  0.18193625482E+03  0.18193625482E+03  0.00000000000E+00 0. -1.
         -2   -1    0    0    0  501 -0.00000000000E+00 -0.00000000000E+00 -0.13916699305E+03  0.13916699305E+03  0.00000000000E+00 0.  1.
         25    2    1    2    0    0  0.10127429069E+03 -0.30740512969E+01  0.79543813846E+02  0.17955518476E+03  0.12508762651E+03 0.  0.
          5    1    3    3  502    0  0.10685342949E+03  0.21250819441E+01  0.10667743172E+03  0.15106196810E+03  0.41800000000E+01 0. -1.
         -5    1    3    3    0  502 -0.55791388025E+01 -0.51991332410E+01 -0.27133617878E+02  0.28493216656E+02  0.41800000000E+01 0. -1.
        -11    1    1    2    0    0 -0.11106224884E+03 -0.12508996665E+02 -0.46123083834E+02  0.12090755550E+03  0.00000000000E+00 0.  1.
         11    1    1    2    0    0  0.97879581516E+01  0.15583047962E+02  0.93485317628E+01  0.20640507617E+02  0.00000000000E+00 0. -1.
</event>
<event>
 7    1  0.2989693E-009  0.2560004E+03  0.7561462E-02  0.1109570E+00
          1   -1    0    0  501    0  0.00000000000E+00  0.00000000000E+00  0.34475381198E+03  0.34475381198E+03  0.00000000000E+00 0. -1.
         -1   -1    0    0    0  501 -0.00000000000E+00 -0.00000000000E+00 -0.21159371504E+03  0.21159371504E+03  0.00000000000E+00 0.  1.
         25    2    1    2    0    0 -0.20026436381E+03  0.11749368360E+03 -0.18604331860E+02  0.26439624792E+03  0.12509465877E+03 0.  0.
          5    1    3    3  502    0 -0.83201000889E+02  0.11955419415E+03  0.35367460300E+00  0.14571619462E+03  0.41800000000E+01 0.  1.
         -5    1    3    3    0  502 -0.11706336293E+03 -0.20605105524E+01 -0.18958006463E+02  0.11868005330E+03  0.41800000000E+01 0.  1.
        -11    1    1    2    0    0  0.64986272642E+02 -0.90122798181E+02  0.60870455815E+02  0.12669075252E+03  0.00000000000E+00 0. -1.
         11    1    1    2    0    0  0.13527809117E+03 -0.27370885421E+02  0.90893972979E+02  0.16526052658E+03  0.00000000000E+00 0.  1.
</event>
<event>
 7    1  0.2989693E-009  0.8781292E+02  0.7561462E-02  0.1308236E+00
          1   -1    0    0  501    0  0.00000000000E+00  0.00000000000E+00  0.17255689423E+03  0.17255689423E+03  0.00000000000E+00 0. -1.
         -1   -1    0    0    0  501 -0.00000000000E+00 -0.00000000000E+00 -0.12388584872E+03  0.12388584872E+03  0.00000000000E+00 0.  1.
         25    2    1    2    0    0 -0.35522393844E+02  0.17114402273E+02  0.11698975761E+03  0.17575189272E+03  0.12508949268E+03 0.  0.
          5    1    3    3  502    0 -0.59271206240E+02  0.34555983469E+02  0.16144150142E+02  0.70606641802E+02  0.41800000000E+01 0. -1.
         -5    1    3    3    0  502  0.23748812396E+02 -0.17441581197E+02  0.10084560747E+03  0.10514525091E+03  0.41800000000E+01 0. -1.
        -11    1    1    2    0    0  0.51194736706E+02  0.34066152403E+01 -0.77790460902E+02  0.93187241085E+02  0.00000000000E+00 0.  1.
         11    1    1    2    0    0 -0.15672342862E+02 -0.20521017513E+02  0.94717488139E+01  0.27503609148E+02  0.00000000000E+00 0. -1.
</event>
<event>
 7    1  0.2989693E-009  0.1255407E+03  0.7561462E-02  0.1234227E+00
         -2   -1    0    0    0  501 -0.00000000000E+00  0.00000000000E+00  0.60388430649E+03  0.60388430649E+03  0.00000000000E+00 0.  1.
          2   -1    0    0  501    0  0.00000000000E+00 -0.00000000000E+00 -0.34643095584E+02  0.34643095584E+02  0.00000000000E+00 0. -1.
         25    2    1    2    0    0 -0.49355777256E+02  0.75133326468E+02  0.36527131930E+03  0.39642344494E+03  0.12508957389E+03 0.  0.
          5    1    3    3  502    0 -0.56036332794E+02  0.90115939434E+02  0.36430323057E+03  0.37946708597E+03  0.41800000000E+01 0. -1.
         -5    1    3    3    0  502  0.66805555388E+01 -0.14982612965E+02  0.96808873413E+00  0.16956358966E+02  0.41800000000E+01 0. -1.
        -11    1    1    2    0    0 -0.15171403114E+02 -0.59710810739E+02  0.74910195756E+02  0.96990153210E+02  0.00000000000E+00 0.  1.
         11    1    1    2    0    0  0.64527180370E+02 -0.15422515730E+02  0.12905969585E+03  0.14511380393E+03  0.00000000000E+00 0. -1.
</event>
<event>
 7    1  0.2989693E-009  0.1097438E+03  0.7561462E-02  0.1261045E+00
          1   -1    0    0  501    0  0.00000000000E+00  0.00000000000E+00  0.63044803135E+02  0.63044803135E+02  0.00000000000E+00 0.  1.
         -1   -1    0    0    0  501 -0.00000000000E+00 -0.00000000000E+00 -0.29023824230E+03  0.29023824230E+03  0.00000000000E+00 0. -1.
         25    2    1    2    0    0  0.12138054153E+02  0.26288396889E+02 -0.21854886431E+03  0.25346712651E+03  0.12507424180E+03 0.  0.
          5    1    3    3  502    0 -0.26995721872E+02  0.62594192360E+02 -0.81514896561E+02  0.10634355964E+03  0.41800000000E+01 0. -1.
         -5    1    3    3    0  502  0.39133776025E+02 -0.36305795471E+02 -0.13703396775E+03  0.14712356687E+03  0.41800000000E+01 0. -1.
        -11    1    1    2    0    0 -0.41605853560E+02  0.17278157001E+02  0.54084343201E+01  0.45374364145E+02  0.00000000000E+00 0. -1.
         11    1    1    2    0    0  0.29467799407E+02 -0.43566553889E+02 -0.14053009176E+02  0.54441554778E+02  0.00000000000E+00 0.  1.
</event>
<event>
 7    1  0.2989693E-009  0.1514809E+03  0.7561462E-02  0.1198665E+00
         -1   -1    0    0    0  501 -0.00000000000E+00  0.00000000000E+00  0.49953265670E+03  0.49953265670E+03  0.00000000000E+00 0. -1.
          1   -1    0    0  501    0  0.00000000000E+00 -0.00000000000E+00 -0.49515024632E+02  0.49515024632E+02  0.00000000000E+00 0.  1.
         25    2    1    2    0    0  0.95755990157E+02  0.59214594459E+02  0.23582174968E+03  0.28971496426E+03  0.12508910842E+03 0.  0.
          5    1    3    3  502    0  0.38095698835E+02  0.86509426820E+02  0.90404604829E+02  0.13086492339E+03  0.41800000000E+01 0. -1.
         -5    1    3    3    0  502  0.57660291322E+02 -0.27294832361E+02  0.14541714485E+03  0.15885004087E+03  0.41800000000E+01 0. -1.
        -11    1    1    2    0    0 -0.87658461089E+02 -0.30966824870E+01  0.14927984452E+03  0.17314175470E+03  0.00000000000E+00 0. -1.
         11    1    1    2    0    0 -0.80975290681E+01 -0.56117911972E+02  0.64916037875E+02  0.86190962372E+02  0.00000000000E+00 0.  1.
</event>
<event>
 7    1  0.2989693E-009  0.1643966E+03  0.7561462E-02  0.1183821E+00
          1   -1    0    0  501    0  0.00000000000E+00  0.00000000000E+00  0.10393888924E+04  0.10393888924E+04  0.00000000000E+00 0. -1.
         -1   -1    0    0    0  501 -0.00000000000E+00 -0.00000000000E+00 -0.31829949977E+02  0.31829949977E+02  0.00000000000E+00 0.  1.
         25    2    1    2    0    0 -0.14520326006E+03  0.10025782458E+02  0.53085156303E+03  0.56447805456E+03  0.12509032358E+03 0.  0.
          5    1    3    3  502    0 -0.16195263808E+03  0.40940940937E+01  0.51629266864E+03  0.54112938442E+03  0.41800000000E+01 0.  1.
         -5    1    3    3    0  502  0.16749378028E+02  0.59316883647E+01  0.14558894393E+02  0.23348670136E+02  0.41800000000E+01 0.  1.
        -11    1    1    2    0    0  0.15174782284E+02  0.80905126951E+01  0.62314973839E+01  0.18291035309E+02  0.00000000000E+00 0.  1.
         11    1    1    2    0    0  0.13002847777E+03 -0.18116295153E+02  0.47047588204E+03  0.48844975254E+03  0.00000000000E+00 0. -1.
</event>
<event>
 7    1  0.2989693E-009  0.1099969E+03  0.7561462E-02  0.1260576E+00
         -1   -1    0    0    0  501 -0.00000000000E+00  0.00000000000E+00  0.36163356352E+03  0.36163356352E+03  0.00000000000E+00 0.  1.
          1   -1    0    0  501    0  0.00000000000E+00 -0.00000000000E+00 -0.35986167606E+02  0.35986167606E+02  0.00000000000E+00 0. -1.
         25    2    1    2    0    0 -0.17111531040E+02 -0.13479044867E+02  0.13754066581E+03  0.18718742697E+03  0.12508880413E+03 0.  0.
          5    1    3    3  502    0 -0.67668135336E+02  0.13213380026E+02  0.66242571042E+02  0.95703294456E+02  0.41800000000E+01 0. -1.
         -5    1    3    3    0  502  0.50556604296E+02 -0.26692424893E+02  0.71298094767E+02  0.91484132515E+02  0.41800000000E+01 0. -1.
        -11    1    1    2    0    0 -0.37118259289E+02 -0.20916921663E+01  0.62231652715E+02  0.72490819752E+02  0.00000000000E+00 0. -1.
         11    1    1    2    0    0  0.54229790329E+02  0.15570737034E+02  0.12587507739E+03  0.13794148440E+03  0.00000000000E+00 0.  1.
</event>
<event>
 7    1  0.2989693E-009  0.1046113E+03  0.7561462E-02  0.1270887E+00
         -4   -1    0    0    0  501 -0.00000000000E+00  0.00000000000E+00  0.27132914864E+03  0.27132914864E+03  0.00000000000E+00 0.  1.
          4   -1    0    0  501    0  0.00000000000E+00 -0.00000000000E+00 -0.68604919772E+02  0.68604919772E+02  0.00000000000E+00 0. -1.
         25    2    1    2    0    0  0.81429631930E+02  0.35671582166E+01  0.11601286210E+03  0.18907642179E+03  0.12508956604E+03 0.  0.
          5    1    3    3  502    0  0.25864262333E+01  0.60373867305E+01 -0.25689841315E+02  0.26843620955E+02  0.41800000000E+01 0. -1.
         -5    1    3    3    0  502  0.78843205696E+02 -0.24702285139E+01  0.14170270341E+03  0.16223280084E+03  0.41800000000E+01 0. -1.
        -11    1    1    2    0    0  0.12096004197E+02 -0.23852704897E+02  0.11378068880E+02  0.29064158337E+02  0.00000000000E+00 0. -1.
         11    1    1    2    0    0 -0.93525636126E+02  0.20285546680E+02  0.75333297892E+02  0.12179348828E+03  0.00000000000E+00 0.  1.
</event>
<event>
 7    1  0.2989693E-009  0.1074377E+03  0.7561462E-02  0.1265390E+00
          1   -1    0    0  501    0  0.00000000000E+00  0.00000000000E+00  0.53367230644E+03  0.53367230644E+03  0.00000000000E+00 0. -1.
         -1   -1    0    0    0  501 -0.00000000000E+00 -0.00000000000E+00 -0.28499217956E+02  0.28499217956E+02  0.00000000000E+00 0.  1.
         25    2    1    2    0    0  0.10863771812E+02 -0.59102576828E+02  0.27508958507E+03  0.30811192959E+03  0.12509014836E+03 0.  0.
          5    1    3    3  502    0 -0.28399456507E+02  0.15364504817E+02  0.17251905586E+02  0.36846950817E+02  0.41800000000E+01 0.  1.
         -5    1    3    3    0  502  0.39263228319E+02 -0.74467081645E+02  0.25783767948E+03  0.27126497877E+03  0.41800000000E+01 0.  1.
        -11    1    1    2    0    0 -0.26016758142E+02 -0.95574772347E+01  0.25248348090E+02  0.37492614694E+02  0.00000000000E+00 0.  1.
         11    1    1    2    0    0  0.15152986330E+02  0.68660054063E+02  0.20483515532E+03  0.21656698011E+03  0.00000000000E+00 0. -1.
</event>
<event>
 7    1  0.2989693E-009  0.1077387E+03  0.7561462E-02  0.1264816E+00
          1   -1    0    0  501    0  0.00000000000E+00  0.00000000000E+00  0.14439220753E+03  0.14439220753E+03  0.00000000000E+00 0. -1.
         -1   -1    0    0    0  501 -0.00000000000E+00 -0.00000000000E+00 -0.17940111457E+03  0.17940111457E+03  0.00000000000E+00 0.  1.
         25    2    1    2    0    0 -0.43853990865E+02  0.83642041375E+01 -0.12948409977E+03  0.18548848353E+03  0.12508682187E+03 0.  0.
          5    1    3    3  502    0 -0.74522240822E+02 -0.26505202486E+02 -0.51016351134E+02  0.94213749628E+02  0.41800000000E+01 0. -1.
         -5    1    3    3    0  502  0.30668249957E+02  0.34869406624E+02 -0.78467748635E+02  0.91274733906E+02  0.41800000000E+01 0. -1.
        -11    1    1    2    0    0  0.48354917018E+02 -0.36857376654E+02  0.30273111670E+02  0.67919993402E+02  0.00000000000E+00 0.  1.
         11    1    1    2    0    0 -0.45009261526E+01  0.28493172517E+02  0.64202081064E+02  0.70384845168E+02  0.00000000000E+00 0. -1.
</event>
<event>
 7    1  0.2989693E-009  0.1787558E+03  0.7561462E-02  0.1169013E+00
          2   -1    0    0  501    0  0.00000000000E+00  0.00000000000E+00  0.16960783775E+03  0.16960783775E+03  0.00000000000E+00 0. -1.
         -2   -1    0    0    0  501 -0.00000000000E+00 -0.00000000000E+00 -0.23643105622E+03  0.23643105622E+03  0.00000000000E+00 0.  1.
         25    2    1    2    0    0 -0.77549217916E+02 -0.13581137364E+03  0.26554052063E+02  0.20201884673E+03  0.12509151188E+03 0.  0.
          5    1    3    3  502    0 -0.21929055724E+02  0.22556971070E+02  0.10131932561E+02  0.33314094408E+02  0.41800000000E+01 0. -1.
         -5    1    3    3    0  502 -0.55620162192E+02 -0.15836834471E+03  0.16422119502E+02  0.16870475232E+03  0.41800000000E+01 0. -1.
        -11    1    1    2    0    0  0.22136025715E+01  0.17310711410E+02 -0.56077397774E+02  0.58730190763E+02  0.00000000000E+00 0.  1.
         11    1    1    2    0    0  0.75335615344E+02  0.11850066223E+03 -0.37299872756E+02  0.14528985648E+03  0.00000000000E+00 0. -1.
</event>
<event>
 7    1  0.2989693E-009  0.7860268E+02  0.7561462E-02  0.1333064E+00
         -1   -1    0    0    0  501 -0.00000000000E+00  0.00000000000E+00  0.35623976200E+02  0.35623976200E+02  0.00000000000E+00 0.  1.
          1   -1    0    0  501    0  0.00000000000E+00 -0.00000000000E+00 -0.52687181305E+03  0.52687181305E+03  0.00000000000E+00 0. -1.
         25    2    1    2    0    0  0.38002149937E+02 -0.53801717606E+01 -0.41981648514E+03  0.43973517806E+03  0.12509210998E+03 0.  0.
          5    1    3    3  502    0  0.41966894927E+02  0.30086819127E+02 -0.38889391424E+03  0.39232943540E+03  0.41800000000E+01 0. -1.
         -5    1    3    3    0  502 -0.39647449906E+01 -0.35466990887E+02 -0.30922570905E+02  0.47405742656E+02  0.41800000000E+01 0. -1.
        -11    1    1    2    0    0 -0.44528656915E+01 -0.24281047471E+02 -0.73897475457E+02  0.77911707452E+02  0.00000000000E+00 0. -1.
         11    1    1    2    0    0 -0.33549284245E+02  0.29661219232E+02  0.24661237519E+01  0.44848903733E+02  0.00000000000E+00 0.  1.
</event>
<event>
 7    1  0.2989693E-009  0.1457592E+03  0.7561462E-02  0.1205783E+00
          3   -1    0    0  501    0  0.00000000000E+00  0.00000000000E+00  0.49188834942E+02  0.49188834942E+02  0.00000000000E+00 0. -1.
         -3   -1    0    0    0  501 -0.00000000000E+00 -0.00000000000E+00 -0.72411346036E+03  0.72411346036E+03  0.00000000000E+00 0.  1.
         25    2    1    2    0    0  0.90204271074E+02 -0.96219829402E+02 -0.19185757421E+03  0.26429206733E+03  0.12508358000E+03 0.  0.
          5    1    3    3  502    0  0.93188538865E+02 -0.67883336704E+02 -0.61391170280E+02  0.13068511532E+03  0.41800000000E+01 0.  1.
         -5    1    3    3    0  502 -0.29842677910E+01 -0.28336492698E+02 -0.13046640393E+03  0.13360695201E+03  0.41800000000E+01 0.  1.
        -11    1    1    2    0    0 -0.43077522711E+01  0.49278389933E+02 -0.27052809308E+03  0.27501339165E+03  0.00000000000E+00 0.  1.
         11    1    1    2    0    0 -0.85896518803E+02  0.46941439469E+02 -0.21253895814E+03  0.23399683632E+03  0.00000000000E+00 0. -1.
</event>
<event>
 7    1  0.3730126E-009  0.8808113E+02  0.7561462E-02  0.1307566E+00
         -2   -1    0    0    0  501 -0.00000000000E+00  0.00000000000E+00  0.14528294219E+02  0.14528294219E+02  0.00000000000E+00 0.  1.
          2   -1    0    0  501    0  0.00000000000E+00 -0.00000000000E+00 -0.10506826322E+04  0.10506826322E+04  0.00000000000E+00 0. -1.
         25    2    1    2    0    0 -0.43741437272E+02 -0.73248523515E+01 -0.75632914033E+03  0.76788550150E+03  0.12508960028E+03 0.  0.
          5    1    3    3  502    0 -0.15356217469E+02 -0.34860699384E+02 -0.68617447176E+03  0.68724374124E+03  0.41800000000E+01 0.  1.
         -5    1    3    3    0  502 -0.28385219803E+02  0.27535847033E+02 -0.70154668567E+02  0.80641760254E+02  0.41800000000E+01 0.  1.
        -11    1    1    2    0    0 -0.18431592402E+01  0.41224434688E+02 -0.86717490198E+02  0.96035276630E+02  0.00000000000E+00 0.  1.
         11    1    1    2    0    0  0.45584596513E+02 -0.33899582336E+02 -0.19310770744E+03  0.20129014828E+03  0.00000000000E+00 0. -1.
</event>
<event>
 7    1  0.2989693E-009  0.8529797E+02  0.7561462E-02  0.1314655E+00
          1   -1    0    0  501    0  0.00000000000E+00  0.00000000000E+00  0.96721609464E+03  0.96721609464E+03  0.00000000000E+00 0. -1.
         -1   -1    0    0    0  501 -0.00000000000E+00 -0.00000000000E+00 -0.14849363545E+02  0.14849363545E+02  0.00000000000E+00 0.  1.
         25    2    1    2    0    0 -0.30429315166E+01 -0.42915595153E+02  0.66749942021E+03  0.68048103610E+03  0.12509179340E+03 0.  0.
          5    1    3    3  502    0 -0.13499745409E+02 -0.64247335442E+02  0.64206900700E+03  0.64543012432E+03  0.41800000000E+01 0. -1.
         -5    1    3    3    0  502  0.10456813892E+02  0.21331740289E+02  0.25430413215E+02  0.35050911783E+02  0.41800000000E+01 0. -1.
        -11    1    1    2    0    0  0.78612537847E+01 -0.17970350550E+02  0.14468349142E+02  0.24373467887E+02  0.00000000000E+00 0.  1.
         11    1    1    2    0    0 -0.48183222681E+01  0.60885945702E+02  0.27039896175E+03  0.27721095420E+03  0.00000000000E+00 0. -1.
</event>
<event>
 7    1  0.2989693E-009  0.1004943E+03  0.7561462E-02  0.1279260E+00
          2   -1    0    0  501    0  0.00000000000E+00  0.00000000000E+00  0.29500978777E+03  0.29500978777E+03  0.00000000000E+00 0. -1.
         -2   -1    0    0    0  501 -0.00000000000E+00 -0.00000000000E+00 -0.57221666111E+02  0.57221666111E+02  0.00000000000E+00 0.  1.
         25    2    1    2    0    0 -0.49232104764E+02 -0.41708165683E+02  0.97717640596E+02  0.17134491866E+03  0.12508785969E+03 0.  0.
          5    1    3    3  502    0 -0.57751089022E+02 -0.49328603760E+02  0.12223675377E+03  0.14397151039E+03  0.41800000000E+01 0. -1.
         -5    1    3    3    0  502  0.85189842578E+01  0.76204380770E+01 -0.24519113175E+02  0.27373408267E+02  0.41800000000E+01 0. -1.
        -11    1    1    2    0    0 -0.16501042998E+01  0.58992090187E+02  0.57687829289E+02  0.82526815017E+02  0.00000000000E+00 0.  1.
         11    1    1    2    0    0  0.50882209064E+02 -0.17283924504E+02  0.82382651772E+02  0.98359720203E+02  0.00000000000E+00 0. -1.
</event>
<event>
 7    1  0.2989693E-009  0.8495089E+02  0.7561462E-02  0.1315561E+00
          3   -1    0    0  501    0  0.00000000000E+00  0.00000000000E+00  0.13410953872E+03  0.13410953872E+03  0.00000000000E+00 0. -1.
         -3   -1    0    0    0  501 -0.00000000000E+00 -0.00000000000E+00 -0.10979179370E+03  0.10979179370E+03  0.00000000000E+00 0.  1.
         25    2    1    2    0    0 -0.47175118311E+02 -0.58166062729E+01 -0.12591289780E+02  0.13440769899E+03  0.12509022453E+03 0.  0.
          5    1    3    3  502    0  0.10642044023E+02 -0.26364944805E+02  0.42857298167E+02  0.51600230831E+02  0.41800000000E+01 0.  1.
         -5    1    3    3    0  502 -0.57817162334E+02  0.20548338532E+02 -0.55448587947E+02  0.82807468154E+02  0.41800000000E+01 0.  1.
        -11    1    1    2    0    0 -0.10992561652E+01 -0.23274110274E+02  0.46791454948E+02  0.52271721124E+02  0.00000000000E+00 0. -1.
         11    1    1    2    0    0  0.48274374476E+02  0.29090716547E+02 -0.98824201432E+01  0.57221912308E+02  0.00000000000E+00 0.  1.
</event>
<event>
 7    1  0.2989693E-009  0.1175139E+03  0.7561462E-02  0.1247256E+00
          1   -1    0    0  501    0  0.00000000000E+00  0.00000000000E+00  0.12411368462E+03  0.12411368462E+03  0.00000000000E+00 0. -1.
         -1   -1    0    0    0  501 -0.00000000000E+00 -0.00000000000E+00 -0.16213875150E+03  0.16213875150E+03  0.00000000000E+00 0.  1.
         25    2    1    2    0    0  0.68050315958E+02  0.54418740892E+02  0.71532770826E+01  0.15261582776E+03  0.12509267224E+03 0.  0.
          5    1    3    3  502    0  0.85533573415E+02  0.41149646488E+01  0.34726233573E+02  0.92500317909E+02  0.41800000000E+01 0.  1.
         -5    1    3    3    0  502 -0.17483257457E+02  0.50303776243E+02 -0.27572956490E+02  0.60115509856E+02  0.41800000000E+01 0.  1.
        -11    1    1    2    0    0 -0.25205231064E+02  0.17081735977E+01 -0.56716953219E+02  0.62088922623E+02  0.00000000000E+00 0.  1.
         11    1    1    2    0    0 -0.42845084894E+02 -0.56126914489E+02  0.11538609257E+02  0.71547685730E+02  0.00000000000E+00 0. -1.
</event>
<event>
 7    1  0.2989693E-009  0.1347427E+03  0.7561462E-02  0.1220583E+00
         -1   -1    0    0    0  501 -0.00000000000E+00  0.00000000000E+00  0.14889505757E+03  0.14889505757E+03  0.00000000000E+00 0.  1.
          1   -1    0    0  501    0  0.00000000000E+00 -0.00000000000E+00 -0.12556497799E+03  0.12556497799E+03  0.00000000000E+00 0. -1.
         25    2    1    2    0    0 -0.53327822889E+02  0.64921055110E+02  0.16218880295E+02  0.15156104086E+03  0.12509635061E+03 0.  0.
          5    1    3    3  502    0 -0.91124289845E+01 -0.36186488279E+02 -0.82629101139E+01  0.38447969771E+02  0.41800000000E+01 0. -1.
         -5    1    3    3    0  502 -0.44215393904E+02  0.10110754339E+03  0.24481790409E+02  0.11311307108E+03  0.41800000000E+01 0. -1.
        -11    1    1    2    0    0 -0.19067010343E+02 -0.41071951121E+02 -0.55911402919E+01  0.45625835905E+02  0.00000000000E+00 0.  1.
         11    1    1    2    0    0  0.72394833232E+02 -0.23849103990E+02  0.12702339577E+02  0.77273158797E+02  0.00000000000E+00 0. -1.
</event>
<event>
 7    1  0.2989693E-009  0.1000804E+03  0.7561462E-02  0.1280127E+00
         -2   -1    0    0    0  501 -0.00000000000E+00  0.00000000000E+00  0.38781971926E+02  0.38781971926E+02  0.00000000000E+00 0. -1.
          2   -1    0    0  501    0  0.00000000000E+00 -0.00000000000E+00 -0.52074963653E+03  0.52074963653E+03  0.00000000000E+00 0.  1.
         25    2    1    2    0    0  0.25941034912E+02  0.63992269905E+01 -0.43615751514E+03  0.45452666576E+03  0.12508886632E+03 0.  0.
          5    1    3    3  502    0 -0.41966526769E+02  0.14345589099E+02 -0.77536087669E+02  0.89422047542E+02  0.41800000000E+01 0.  1.
         -5    1    3    3    0  502  0.67907561680E+02 -0.79463621089E+01 -0.35862142747E+03  0.36510461822E+03  0.41800000000E+01 0.  1.
        -11    1    1    2    0    0 -0.52348800562E+02 -0.21616884447E+02 -0.48285928230E+02  0.74425919400E+02  0.00000000000E+00 0.  1.
         11    1    1    2    0    0  0.26407765650E+02  0.15217657457E+02  0.24757787665E+01  0.30579023294E+02  0.00000000000E+00 0. -1.
</event>
<event>
 7    1  0.2989693E-009  0.1559562E+03  0.7561462E-02  0.1193339E+00
          1   -1    0    0  501    0  0.00000000000E+00  0.00000000000E+00  0.50208856426E+03  0.50208856426E+03  0.00000000000E+00 0. -1.
         -1   -1    0    0    0  501 -0.00000000000E+00 -0.00000000000E+00 -0.10390461110E+03  0.10390461110E+03  0.00000000000E+00 0.  1.
         25    2    1    2    0    0  0.39193321108E+02  0.12781950779E+03  0.69492059728E+01  0.18322001030E+03  0.12508931897E+03 0.  0.
          5    1    3    3  502    0 -0.94121711182E+01 -0.41790595708E+01 -0.34719744781E+02  0.36455268230E+02  0.41800000000E+01 0.  1.
         -5    1    3    3    0  502  0.48605492226E+02  0.13199856736E+03  0.41668950754E+02  0.14676474207E+03  0.41800000000E+01 0.  1.
        -11    1    1    2    0    0  0.17931352882E+02  0.21922692364E+01  0.38579334874E+02  0.42599349055E+02  0.00000000000E+00 0.  1.
         11    1    1    2    0    0 -0.57124673990E+02 -0.13001177702E+03  0.35265541231E+03  0.38017381601E+03  0.00000000000E+00 0. -1.
</event>
<event>
 7    1  0.2989693E-009  0.1716846E+03  0.7561462E-02  0.1176102E+00
          1   -1    0    0  501    0  0.00000000000E+00  0.00000000000E+00  0.58826862895E+03  0.58826862895E+03  0.00000000000E+00 0. -1.
         -1   -1    0    0    0  501 -0.00000000000E+00 -0.00000000000E+00 -0.53974581455E+02  0.53974581455E+02  0.00000000000E+00 0.  1.
         25    2    1    2    0    0 -0.12476272805E+03  0.50607619885E+02  0.34467728075E+03  0.39060783407E+03  0.12508070461E+03 0.  0.
          5    1    3    3  502    0 -0.82241380661E+02 -0.31159599760E+02  0.13070633467E+03  0.15759499888E+03  0.41800000000E+01 0.  1.
         -5    1    3    3    0  502 -0.42521347388E+02  0.81767219644E+02  0.21397094608E+03  0.23301283518E+03  0.41800000000E+01 0.  1.
        -11    1    1    2    0    0 -0.13563920331E+02  0.43168351473E+01  0.31080142294E+02  0.34184649266E+02  0.00000000000E+00 0. -1.
         11    1    1    2    0    0  0.13832664838E+03 -0.54924455032E+02  0.15853662444E+03  0.21745072707E+03  0.00000000000E+00 0.  1.
</event>
<event>
 7    1  0.2989693E-009  0.8330491E+02  0.7561462E-02  0.1319926E+00
          2   -1    0    0  501    0  0.00000000000E+00  0.00000000000E+00  0.51541029170E+03  0.51541029170E+03  0.00000000000E+00 0. -1.
         -2   -1    0    0    0  501 -0.00000000000E+00 -0.00000000000E+00 -0.24445435941E+02  0.24445435941E+02  0.00000000000E+00 0.  1.
         25    2    1    2    0    0  0.12735155181E+02  0.51586124268E+01  0.21669022058E+03  0.25057909980E+03  0.12508572301E+03 0.  0.
          5    1    3    3  502    0  0.44368787779E+02 -0.48770139076E+01  0.21213541890E+03  0.21682085450E+03  0.41800000000E+01 0. -1.
         -5    1    3    3    0  502 -0.31633632599E+02  0.10035626334E+02  0.45548016794E+01  0.33758245299E+02  0.41800000000E+01 0. -1.
        -11    1    1    2    0    0 -0.50428829480E+02 -0.45041708915E+01  0.19544281122E+03  0.20189414765E+03  0.00000000000E+00 0. -1.
         11    1    1    2    0    0  0.37693674299E+02 -0.65444153526E+00  0.78831823954E+02  0.87382480188E+02  0.00000000000E+00 0.  1.
</event>
<event>
 7    1  0.2989693E-009  0.8832294E+02  0.7561462E-02  0.1306965E+00
          1   -1    0    0  501    0  0.00000000000E+00  0.00000000000E+00  0.10262989314E+03  0.10262989314E+03  0.00000000000E+00 0. -1.
         -1   -1    0    0    0  501 -0.00000000000E+00 -0.00000000000E+00 -0.13370284900E+03  0.13370284900E+03  0.00000000000E+00 0.  1.
         25    2    1    2    0    0 -0.14340785785E+02 -0.41318872413E+01  0.27316371104E+02  0.12890152561E+03  0.12508672409E+03 0.  0.
          5    1    3    3  502    0 -0.17003275476E+01  0.45131193159E+02  0.54643483797E+02  0.71014776147E+02  0.41800000000E+01 0.  1.
         -5    1    3    3    0  502 -0.12640458237E+02 -0.49263080401E+02 -0.27327112692E+02  0.57886749461E+02  0.41800000000E+01 0.  1.
        -11    1    1    2    0    0 -0.10035494271E+01 -0.36661581260E+02 -0.51623844504E+02  0.63325350163E+02  0.00000000000E+00 0.  1.
         11    1    1    2    0    0  0.15344335212E+02  0.40793468502E+02 -0.67654824594E+01  0.44105866372E+02  0.00000000000E+00 0. -1.
</event>
<event>
 6    1  0.2989693E-009  0.8928561E+02  0.7561462E-02  0.1304591E+00
          1   -1    0    0  501    0  0.00000000000E+00  0.00000000000E+00  0.70917616612E+03  0.70917616612E+03  0.00000000000E+00 0. -1.
         -1   -1    0    0    0  501 -0.00000000000E+00 -0.00000000000E+00 -0.20595265807E+02  0.20595265807E+02  0.00000000000E+00 0.  1.
          5    1    1    2  502    0 -0.28162481863E+02  0.25173278123E+02  0.29593630370E+03  0.29836653225E+03  0.41800000000E+01 0.  1.
         -5    1    1    2    0  502  0.37276480092E+02 -0.68338771384E+02  0.18998008206E+03  0.20535244732E+03  0.41800000000E+01 0.  1.
        -11    1    1    2    0    0  0.58051166918E+01  0.46878691009E+02  0.20511519746E+03  0.21048409745E+03  0.00000000000E+00 0. -1.
         11    1    1    2    0    0 -0.14919114921E+02 -0.37131977489E+01 -0.24506829151E+01  0.15568354901E+02  0.00000000000E+00 0.  1.
</event>
<event>
 7    1  0.2989693E-009  0.1072324E+03  0.7561462E-02  0.1265783E+00
         -1   -1    0    0    0  501 -0.00000000000E+00  0.00000000000E+00  0.72246286376E+02  0.72246286376E+02  0.00000000000E+00 0.  1.
          1   -1    0    0  501    0  0.00000000000E+00 -0.00000000000E+00 -0.26040971218E+03  0.26040971218E+03  0.00000000000E+00 0. -1.
         25    2    1    2    0    0 -0.53498975715E+02  0.45319403551E+02 -0.41906038694E+02  0.14940056177E+03  0.12509365707E+03 0.  0.
          5    1    3    3  502    0  0.21648238432E+02  0.57442818094E+02  0.17463957051E+01  0.61553601648E+02  0.41800000000E+01 0.  1.
         -5    1    3    3    0  502 -0.75147214147E+02 -0.12123414543E+02 -0.43652434399E+02  0.87846960124E+02  0.41800000000E+01 0.  1.
        -11    1    1    2    0    0  0.23885801608E+02 -0.16545770775E+01  0.37550090323E+01  0.24235701694E+02  0.00000000000E+00 0.  1.
         11    1    1    2    0    0  0.29613174107E+02 -0.43664826473E+02 -0.15001239614E+03  0.15901973509E+03  0.00000000000E+00 0. -1.
</event>
<event>
 7    1  0.2989693E-009  0.1544797E+03  0.7561462E-02  0.1195074E+00
          2   -1    0    0  501    0  0.00000000000E+00  0.00000000000E+00  0.43787689687E+03  0.43787689687E+03  0.00000000000E+00 0. -1.
         -2   -1    0    0    0  501 -0.00000000000E+00 -0.00000000000E+00 -0.76806572280E+02  0.76806572280E+02  0.00000000000E+00 0.  1.
         25    2    1    2    0    0  0.61854779521E+02  0.12599591361E+03  0.12616457115E+03  0.22641992217E+03  0.12508996021E+03 0.  0.
          5    1    3    3  502    0  0.57694606691E+01 -0.64477643682E+01  0.72053944411E+02  0.72691840305E+02  0.41800000000E+01 0. -1.
         -5    1    3    3    0  502  0.56085318852E+02  0.13244367798E+03  0.54110626740E+02  0.15372808186E+03  0.41800000000E+01 0. -1.
        -11    1    1    2    0    0 -0.24848723747E+02 -0.11382272367E+03  0.21495105994E+03  0.24449341436E+03  0.00000000000E+00 0. -1.
         11    1    1    2    0    0 -0.37006055774E+02 -0.12173189943E+02  0.19954693500E+02  0.43770132625E+02  0.00000000000E+00 0.  1.
</event>
<event>
 7    1  0.2989693E-009  0.1382734E+03  0.7561462E-02  0.1215671E+00
          2   -1    0    0  501    0  0.00000000000E+00  0.00000000000E+00  0.10909200024E+04  0.10909200024E+04  0.00000000000E+00 0. -1.
         -2   -1    0    0    0  501 -0.00000000000E+00 -0.00000000000E+00 -0.22781778606E+02  0.22781778606E+02  0.00000000000E+00 0.  1.
         25    2    1    2    0    0  0.10386318155E+03 -0.35156652599E+02  0.47158281401E+03  0.50006170074E+03  0.12509118022E+03 0.  0.
          5    1    3    3  502    0  0.83975228521E+02 -0.61456557356E+02  0.44633082812E+03  0.45832022428E+03  0.41800000000E+01 0. -1.
         -5    1    3    3    0  502  0.19887953025E+02  0.26299904757E+02  0.25251985890E+02  0.41741476461E+02  0.41800000000E+01 0. -1.
        -11    1    1    2    0    0 -0.38563982122E+02 -0.28514977790E+02  0.28508937706E+03  0.28909555097E+03  0.00000000000E+00 0. -1.
         11    1    1    2    0    0 -0.65299199425E+02  0.63671630389E+02  0.31146603273E+03  0.32454452931E+03  0.00000000000E+00 0.  1.
</event>
<event>
 7    1  0.2989693E-009  0.1511749E+03  0.7561462E-02  0.1199037E+00
         -1   -1    0    0    0  501 -0.00000000000E+00  0.00000000000E+00  0.28340366976E+03  0.28340366976E+03  0.00000000000E+00 0.  1.
          1   -1    0    0  501    0  0.00000000000E+00 -0.00000000000E+00 -0.13647844080E+03  0.13647844080E+03  0.00000000000E+00 0. -1.
         25    2    1    2    0    0 -0.83337244062E+02 -0.11687732212E+03  0.16319837263E+03  0.25077363389E+03  0.12509317307E+03 0.  0.
          5    1    3    3  502    0 -0.39285498732E+02 -0.62358151544E+02  0.16475810120E+03  0.18053972911E+03  0.41800000000E+01 0.  1.
         -5    1    3    3    0  502 -0.44051745330E+02 -0.54519170580E+02 -0.15597285698E+01  0.70233904779E+02  0.41800000000E+01 0.  1.
        -11    1    1    2    0    0  0.34527856251E+02  0.10138676729E+03 -0.37771924844E+02  0.11357010058E+03  0.00000000000E+00 0. -1.
         11    1    1    2    0    0  0.48809387811E+02  0.15490554834E+02  0.21498781180E+02  0.55538376099E+02  0.00000000000E+00 0.  1.
</event>
<event>
 7    1  0.2989693E-009  0.1695535E+03  0.7561462E-02  0.1178314E+00
          2   -1    0    0  501    0  0.00000000000E+00  0.00000000000E+00  0.21297632436E+03  0.21297632436E+03  0.00000000000E+00 0. -1.
         -2   -1    0    0    0  501 -0.00000000000E+00 -0.00000000000E+00 -0.21290775557E+03  0.21290775557E+03  0.00000000000E+00 0.  1.
         25    2    1    2    0    0  0.82689837911E+02 -0.14266209820E+03 -0.78611949340E+02  0.22139929834E+03  0.12509087564E+03 0.  0.
          5    1    3    3  502    0  0.52037965149E+02 -0.55440623463E+02  0.27165738410E+02  0.80852101334E+02  0.41800000000E+01 0. -1.
         -5    1    3    3    0  502  0.30651872762E+02 -0.87221474741E+02 -0.10577768775E+03  0.14054719700E+03  0.41800000000E+01 0. -1.
        -11    1    1    2    0    0 -0.13763447018E+02  0.65566436839E+02  0.75614823224E+02  0.10102470789E+03  0.00000000000E+00 0. -1.
         11    1    1    2    0    0 -0.68926390892E+02  0.77095661365E+02  0.30656949058E+01  0.10346007369E+03  0.00000000000E+00 0.  1.
</event>
<event>
 7    1  0.2989693E-009  0.1223770E+03  0.7561462E-02  0.1239226E+00
         -3   -1    0    0    0  501 -0.00000000000E+00  0.00000000000E+00  0.14700197341E+03  0.14700197341E+03  0.00000000000E+00 0.  1.
          3   -1    0    0  501    0  0.00000000000E+00 -0.00000000000E+00 -0.11351655553E+03  0.11351655553E+03  0.00000000000E+00 0. -1.
         25    2    1    2    0    0 -0.62672939182E+02 -0.14558606432E+02 -0.10687641427E+02  0.14107315322E+03  0.12509020167E+03 0.  0.
          5    1    3    3  502    0 -0.90252670595E+02  0.16781175726E+02  0.13130441990E+02  0.92827977006E+02  0.41800000000E+01 0. -1.
         -5    1    3    3    0  502  0.27579731413E+02 -0.31339782158E+02 -0.23818083417E+02  0.48245176216E+02  0.41800000000E+01 0. -1.
        -11    1    1    2    0    0  0.42121228266E+02 -0.36581152833E+02  0.24395858334E+02  0.60889543577E+02  0.00000000000E+00 0.  1.
         11    1    1    2    0    0  0.20551710917E+02  0.51139759264E+02  0.19777200976E+02  0.58555832141E+02  0.00000000000E+00 0. -1.
</event>
<event>
 7    1  0.2989693E-009  0.1225484E+03  0.7561462E-02  0.1238951E+00
         -4   -1    0    0    0  501 -0.00000000000E+00  0.00000000000E+00  0.45605574774E+03  0.45605574774E+03  0.00000000000E+00 0.  1.
          4   -1    0    0  501    0  0.00000000000E+00 -0.00000000000E+00 -0.33230102211E+02  0.33230102211E+02  0.00000000000E+00 0. -1.
         25    2    1    2    0    0  0.52547166997E+02  0.19415446849E+02  0.25515826702E+03  0.28964011516E+03  0.12508993064E+03 0.  0.
          5    1    3    3  502    0 -0.10226538263E+01 -0.49462722096E+02  0.88609696930E+02  0.10157144032E+03  0.41800000000E+01 0.  1.
         -5    1    3    3    0  502  0.53569820823E+02  0.68878168945E+02  0.16654857009E+03  0.18806867484E+03  0.41800000000E+01 0.  1.
        -11    1    1    2    0    0 -0.20301843802E+02  0.37517995338E+02  0.59133008697E+02  0.72914179372E+02  0.00000000000E+00 0. -1.
         11    1    1    2    0    0 -0.32245323194E+02 -0.56933442187E+02  0.10853436982E+03  0.12673155542E+03  0.00000000000E+00 0.  1.
</event>
<event>
 7    1  0.2989693E-009  0.1510387E+03  0.7561462E-02  0.1199202E+00
         -1   -1    0    0    0  501 -0.00000000000E+00  0.00000000000E+00  0.85815600626E+02  0.85815600626E+02  0.00000000000E+00 0.  1.
          1   -1    0    0  501    0  0.00000000000E+00 -0.00000000000E+00 -0.33086811835E+03  0.33086811835E+03  0.00000000000E+00 0. -1.
         25    2    1    2    0    0  0.72372985017E+02  0.10218862708E+03 -0.93529483331E+02  0.20018782955E+03  0.12508812247E+03 0.  0.
          5    1    3    3  502    0  0.50677465976E+02  0.12994397294E+03 -0.86031347881E+02  0.16392835898E+03  0.41800000000E+01 0.  1.
         -5    1    3    3    0  502  0.21695519041E+02 -0.27755345862E+02 -0.74981354495E+01  0.36259470564E+02  0.41800000000E+01 0.  1.
        -11    1    1    2    0    0 -0.41047715216E+02 -0.39416023939E+02 -0.89638596270E+01  0.57609796450E+02  0.00000000000E+00 0.  1.
         11    1    1    2    0    0 -0.31325269802E+02 -0.62772603136E+02 -0.14255917477E+03  0.15888609298E+03  0.00000000000E+00 0. -1.
</event>
<event>
 7    1  0.2989693E-009  0.9505761E+02  0.7561462E-02  0.1291046E+00
          2   -1    0    0  501    0  0.00000000000E+00  0.00000000000E+00  0.85810991986E+03  0.85810991986E+03  0.00000000000E+00 0.  1.
         -2   -1    0    0    0  501 -0.00000000000E+00 -0.00000000000E+00 -0.20831753437E+02  0.20831753437E+02  0.00000000000E+00 0. -1.
         25    2    1    2    0    0 -0.45433989657E+02  0.17312256988E+02  0.63809414251E+03  0.65205491409E+03  0.12509002606E+03 0.  0.
          5    1    3    3  502    0 -0.79774618891E+02 -0.48741666420E+01  0.53692572488E+03  0.54285767357E+03  0.41800000000E+01 0. -1.
         -5    1    3    3    0  502  0.34340629234E+02  0.22186423630E+02  0.10116841764E+03  0.10919724052E+03  0.41800000000E+01 0. -1.
        -11    1    1    2    0    0  0.55820108492E+02 -0.11195214619E+02  0.20552676054E+03  0.21326618729E+03  0.00000000000E+00 0.  1.
         11    1    1    2    0    0 -0.10386118835E+02 -0.61170423692E+01 -0.63427366228E+01  0.13620571929E+02  0.00000000000E+00 0. -1.
</event>
<event>
 7    1  0.2989693E-009  0.1491993E+03  0.7561462E-02  0.1201460E+00
          2   -1    0    0  501    0  0.00000000000E+00  0.00000000000E+00  0.10160993470E+04  0.10160993470E+04  0.00000000000E+00 0. -1.
         -2   -1    0    0    0  501 -0.00000000000E+00 -0.00000000000E+00 -0.22091562341E+02  0.22091562341E+02  0.00000000000E+00 0.  1.
         25    2    1    2    0    0  0.87460954650E+02  0.33639248386E+02  0.48333253567E+03  0.50797445054E+03  0.12508670892E+03 0.  0.
          5    1    3    3  502    0  0.11953761625E+03  0.32040799159E+02  0.38951074018E+03  0.40871988406E+03  0.41800000000E+01 0. -1.
         -5    1    3    3    0  502 -0.32076661601E+02  0.15984492264E+01  0.93821795487E+02  0.99254566483E+02  0.41800000000E+01 0. -1.
        -11    1    1    2    0    0 -0.92078927471E+02 -0.63574577078E+02  0.38400344852E+03  0.39997362939E+03  0.00000000000E+00 0. -1.
         11    1    1    2    0    0  0.46179728203E+01  0.29935328693E+02  0.12667180048E+03  0.13024282941E+03  0.00000000000E+00 0.  1.
</event>
<event>
 7    1  0.2989693E-009  0.1868055E+03  0.7561462E-02  0.1161375E+00
         -1   -1    0    0    0  501 -0.00000000000E+00  0.00000000000E+00  0.11160947764E+04  0.11160947764E+04  0.00000000000E+00 0.  1.
          1   -1    0    0  501    0  0.00000000000E+00 -0.00000000000E+00 -0.37312825901E+02  0.37312825901E+02  0.00000000000E+00 0. -1.
         25    2    1    2    0    0  0.16045118992E+03 -0.27747065726E+02  0.40340681076E+03  0.45265733941E+03  0.12508848050E+03 0.  0.
          5    1    3    3  502    0  0.35490999290E+02 -0.49960225320E+02  0.57349601588E+02  0.84036208547E+02  0.41800000000E+01 0.  1.
         -5    1    3    3    0  502  0.12496019063E+03  0.22213159594E+02  0.34605720917E+03  0.36862113087E+03  0.41800000000E+01 0.  1.
        -11    1    1    2    0    0 -0.11364365335E+03  0.59848486262E+02  0.50922648589E+03  0.52517457591E+03  0.00000000000E+00 0. -1.
         11    1    1    2    0    0 -0.46807536567E+02 -0.32101420536E+02  0.16614865386E+03  0.17557568698E+03  0.00000000000E+00 0.  1.
</event>
<event>
 7    1  0.2989693E-009  0.1234078E+03  0.7561462E-02  0.1237579E+00
          2   -1    0    0  501    0  0.00000000000E+00  0.00000000000E+00  0.31651454663E+03  0.31651454663E+03  0.00000000000E+00 0. -1.
         -2   -1    0    0    0  501 -0.00000000000E+00 -0.00000000000E+00 -0.81131380293E+02  0.81131380293E+02  0.00000000000E+00 0.  1.
         25    2    1    2    0    0  0.10529349102E+02  0.11393805853E+03  0.92116327355E+02  0.19293774234E+03  0.12508719470E+03 0.  0.
          5    1    3    3  502    0 -0.15982456387E+02  0.25162486193E+02 -0.28049578532E+02  0.41144147571E+02  0.41800000000E+01 0. -1.
         -5    1    3    3    0  502  0.26511805489E+02  0.88775572337E+02  0.12016590589E+03  0.15179359477E+03  0.41800000000E+01 0. -1.
        -11    1    1    2    0    0  0.17444902643E+02 -0.67853578461E+02  0.13228260861E+03  0.14969008410E+03  0.00000000000E+00 0. -1.
         11    1    1    2    0    0 -0.27974251745E+02 -0.46084480068E+02  0.10984230372E+02  0.55018100483E+02  0.00000000000E+00 0.  1.
</event>
<event>
 7    1  0.2989693E-009  0.1117079E+03  0.7561462E-02  0.1257439E+00
         -1   -1    0    0    0  501 -0.00000000000E+00  0.00000000000E+00  0.59160793733E+02  0.59160793733E+02  0.00000000000E+00 0.  1.
          1   -1    0    0  501    0  0.00000000000E+00 -0.00000000000E+00 -0.29311993517E+03  0.29311993517E+03  0.00000000000E+00 0. -1.
         25    2    1    2    0    0 -0.17345365777E+02 -0.55123831046E+02 -0.66394170702E+02  0.15295693369E+03  0.12509252255E+03 0.  0.
          5    1    3    3  502    0 -0.13379971550E+02 -0.85271343718E+02 -0.77455177033E+01  0.86762267966E+02  0.41800000000E+01 0.  1.
         -5    1    3    3    0  502 -0.39653942265E+01  0.30147512671E+02 -0.58648652998E+02  0.66194665723E+02  0.41800000000E+01 0.  1.
        -11    1    1    2    0    0  0.16119566230E+02 -0.23047878669E+02 -0.60841425116E+02  0.67027786303E+02  0.00000000000E+00 0. -1.
         11    1    1    2    0    0  0.12257995472E+01  0.78171709715E+02 -0.10672354562E+03  0.13229600891E+03  0.00000000000E+00 0.  1.
</event>
<event>
 6    1  0.2989693E-009  0.1117353E+03  0.7561462E-02  0.1257390E+00
          1   -1    0    0  501    0  0.00000000000E+00  0.00000000000E+00  0.22584435119E+03  0.22584435119E+03  0.00000000000E+00 0. -1.
         -1   -1    0    0    0  501 -0.00000000000E+00 -0.00000000000E+00 -0.70437759825E+02  0.70437759825E+02  0.00000000000E+00 0.  1.
          5    1    1    2  502    0  0.25683978109E+01  0.46208670522E+02  0.30730067540E+02  0.55710388167E+02  0.41800000000E+01 0. -1.
         -5    1    1    2    0  502  0.24216633324E+02 -0.76676561447E+02  0.11670457217E+03  0.14178564797E+03  0.41800000000E+01 0. -1.
        -11    1    1    2    0    0 -0.28426342705E+01  0.59095563372E+02  0.14462420702E+02  0.60905892920E+02  0.00000000000E+00 0. -1.
         11    1    1    2    0    0 -0.23942396864E+02 -0.28627672446E+02 -0.64904690390E+01  0.37880181964E+02  0.00000000000E+00 0.  1.
</event>
<event>
 7    1  0.2989693E-009  0.1858720E+03  0.7561462E-02  0.1162238E+00
         -3   -1    0    0    0  501 -0.00000000000E+00  0.00000000000E+00  0.12573046221E+04  0.12573046221E+04  0.00000000000E+00 0.  1.
          3   -1    0    0  501    0  0.00000000000E+00 -0.00000000000E+00 -0.62569417200E+02  0.62569417200E+02  0.00000000000E+00 0. -1.
         25    2    1    2    0    0 -0.17509390819E+03  0.26731667822E+02  0.10475547043E+04  0.10697606770E+04  0.12507833011E+03 0.  0.
          5    1    3    3  502    0 -0.42694322838E+02  0.24475290368E+02  0.62441747104E+03  0.62636769998E+03  0.41800000000E+01 0.  1.
         -5    1    3    3    0  502 -0.13239958535E+03  0.22563774538E+01  0.42313723330E+03  0.44339297699E+03  0.41800000000E+01 0.  1.
        -11    1    1    2    0    0  0.15070694788E+03  0.38486870988E+01  0.14762250797E+03  0.21099715967E+03  0.00000000000E+00 0.  1.
         11    1    1    2    0    0  0.24386960309E+02 -0.30580354921E+02 -0.44200740188E+00  0.39116202662E+02  0.00000000000E+00 0. -1.
</event>
<event>
 7    1  0.2989693E-009  0.1287609E+03  0.7561462E-02  0.1229306E+00
         -2   -1    0    0    0  501 -0.00000000000E+00  0.00000000000E+00  0.23790083238E+02  0.23790083238E+02  0.00000000000E+00 0. -1.
          2   -1    0    0  501    0  0.00000000000E+00 -0.00000000000E+00 -0.12314646251E+04  0.12314646251E+04  0.00000000000E+00 0.  1.
         25    2    1    2    0    0 -0.94175492868E+02 -0.32208585354E+02 -0.96171546740E+03  0.97490961495E+03  0.12508277526E+03 0.  0.
          5    1    3    3  502    0 -0.57634546925E+02 -0.55960756383E+02 -0.26795519651E+03  0.27976920307E+03  0.41800000000E+01 0. -1.
         -5    1    3    3    0  502 -0.36540945942E+02  0.23752171028E+02 -0.69376027089E+03  0.69514041188E+03  0.41800000000E+01 0. -1.
        -11    1    1    2    0    0  0.29405688138E+02 -0.31048400502E+02 -0.62037077868E+02  0.75347838051E+02  0.00000000000E+00 0. -1.
         11    1    1    2    0    0  0.64769804730E+02  0.63256985856E+02 -0.18392199664E+03  0.20499725538E+03  0.00000000000E+00 0.  1.
</event>
<event>
 7    1  0.2989693E-009  0.2143896E+03  0.7561462E-02  0.1138136E+00
          3   -1    0    0  501    0  0.00000000000E+00  0.00000000000E+00  0.35298598723E+03  0.35298598723E+03  0.00000000000E+00 0. -1.
         -3   -1    0    0    0  501 -0.00000000000E+00 -0.00000000000E+00 -0.15577644957E+03  0.15577644957E+03  0.00000000000E+00 0.  1.
         25    2    1    2    0    0 -0.69983390092E+02  0.18568075028E+03  0.16746733005E+03  0.28820713588E+03  0.12507210170E+03 0.  0.
          5    1    3    3  502    0 -0.34410145322E+02  0.56341139006E+01  0.74658206010E+02  0.82505281438E+02  0.41800000000E+01 0. -1.
         -5    1    3    3    0  502 -0.35573244770E+02  0.18004663638E+03  0.92809124041E+02  0.20570185444E+03  0.41800000000E+01 0. -1.
        -11    1    1    2    0    0  0.18006255739E+02 -0.78465996615E+00 -0.14885536215E+02  0.23375631016E+02  0.00000000000E+00 0.  1.
         11    1    1    2    0    0  0.51977134354E+02 -0.18489609031E+03  0.44627743823E+02  0.19717966991E+03  0.00000000000E+00 0. -1.
</event>
<event>
 7    1  0.2989693E-009  0.1176214E+03  0.7561462E-02  0.1247073E+00
         -1   -1    0    0    0  501 -0.00000000000E+00  0.00000000000E+00  0.38948436702E+02  0.38948436702E+02  0.00000000000E+00 0.  1.
          1   -1    0    0  501    0  0.00000000000E+00 -0.00000000000E+00 -0.86414879941E+03  0.86414879941E+03  0.00000000000E+00 0. -1.
         25    2    1    2    0    0  0.81055795261E+02  0.47076203751E+02 -0.69458159904E+03  0.71195332442E+03  0.12509087709E+03 0.  0.
          5    1    3    3  502    0  0.14237059170E+02  0.37658260817E+02 -0.55886751891E+03  0.56033134354E+03  0.41800000000E+01 0. -1.
         -5    1    3    3    0  502  0.66818736091E+02  0.94179429341E+01 -0.13571408013E+03  0.15162198088E+03  0.41800000000E+01 0. -1.
        -11    1    1    2    0    0 -0.31219252448E+02  0.24677869181E+02 -0.82041352959E+02  0.91183455441E+02  0.00000000000E+00 0. -1.
         11    1    1    2    0    0 -0.49836542813E+02 -0.71754072932E+02 -0.48577410712E+02  0.99960456248E+02  0.00000000000E+00 0.  1.
</event>
<event>
 7    1  0.2989693E-009  0.1438333E+03  0.7561462E-02  0.1208262E+00
          1   -1    0    0  501    0  0.00000000000E+00  0.00000000000E+00  0.60318070165E+03  0.60318070165E+03  0.00000000000E+00 0. -1.
         -1   -1    0    0    0  501 -0.00000000000E+00 -0.00000000000E+00 -0.39454811476E+02  0.39454811476E+02  0.00000000000E+00 0.  1.
         25    2    1    2    0    0 -0.62889727160E+02  0.75376806850E+02  0.41216021706E+03  0.44177082510E+03  0.12509451063E+03 0.  0.
          5    1    3    3  502    0 -0.31328147932E+02 -0.33074038489E+02  0.10804402735E+03  0.11733000094E+03  0.41800000000E+01 0.  1.
         -5    1    3    3    0  502 -0.31561579228E+02  0.10845084534E+03  0.30411618971E+03  0.32444082416E+03  0.41800000000E+01 0.  1.
        -11    1    1    2    0    0  0.12500534413E+02  0.18511153571E+02  0.44608625948E+02  0.49888432288E+02  0.00000000000E+00 0. -1.
         11    1    1    2    0    0  0.50389192747E+02 -0.93887960421E+02  0.10695704716E+03  0.15097625573E+03  0.00000000000E+00 0.  1.
</event>
<event>
 7    1  0.2989693E-009  0.7714509E+02  0.7561462E-02  0.1337354E+00
         -2   -1    0    0    0  501 -0.00000000000E+00  0.00000000000E+00  0.38864586920E+02  0.38864586920E+02  0.00000000000E+00 0.  1.
          2   -1    0    0  501    0  0.00000000000E+00 -0.00000000000E+00 -0.31669706050E+03  0.31669706050E+03  0.00000000000E+00 0. -1.
         25    2    1    2    0    0  0.13467179948E+02 -0.17101223475E+02 -0.15471005732E+03  0.20014045927E+03  0.12508870781E+03 0.  0.
          5    1    3    3  502    0  0.34006891130E+02  0.11160548524E+02  0.51973483814E+01  0.36407572261E+02  0.41800000000E+01 0.  1.
         -5    1    3    3    0  502 -0.20539711182E+02 -0.28261771999E+02 -0.15990740570E+03  0.16373288701E+03  0.41800000000E+01 0.  1.
        -11    1    1    2    0    0 -0.12932605164E+02 -0.31714759711E+02 -0.90345272153E+02  0.96619596668E+02  0.00000000000E+00 0. -1.
         11    1    1    2    0    0 -0.53457478432E+00  0.48815983186E+02 -0.32777144112E+02  0.58801591482E+02  0.00000000000E+00 0.  1.
</event>
<event>
 7    1  0.2989693E-009  0.2877797E+03  0.7561462E-02  0.1091514E+00
          2   -1    0    0  501    0  0.00000000000E+00  0.00000000000E+00  0.15643163065E+04  0.15643163065E+04  0.00000000000E+00 0.  1.
         -2   -1    0    0    0  501 -0.00000000000E+00 -0.00000000000E+00 -0.61513192745E+02  0.61513192745E+02  0.00000000000E+00 0. -1.
         25    2    1    2    0    0 -0.11426600082E+02 -0.28359878658E+03  0.61600404260E+03  0.68968775222E+03  0.12509746647E+03 0.  0.
          5    1    3    3  502    0 -0.26617946298E+02 -0.18816243241E+03  0.26850365344E+03  0.32897613948E+03  0.41800000000E+01 0.  1.
         -5    1    3    3    0  502  0.15191346216E+02 -0.95436354172E+02  0.34750038917E+03  0.36071161274E+03  0.41800000000E+01 0.  1.
        -11    1    1    2    0    0 -0.13945155827E+02  0.21753001343E+03  0.76316363629E+03  0.79368287739E+03  0.00000000000E+00 0.  1.
         11    1    1    2    0    0  0.25371755908E+02  0.66068773156E+02  0.12363543488E+03  0.14245886965E+03  0.00000000000E+00 0. -1.
</event>
<event>
 7    1  0.2989693E-009  0.1234270E+03  0.7561462E-02  0.1237548E+00
          2   -1    0    0  501    0  0.00000000000E+00  0.00000000000E+00  0.22649284885E+03  0.22649284885E+03  0.00000000000E+00 0. -1.
         -2   -1    0    0    0  501 -0.00000000000E+00 -0.00000000000E+00 -0.74235111576E+02  0.74235111576E+02  0.00000000000E+00 0.  1.
         25    2    1    2    0    0 -0.62344136094E-01 -0.64683692162E+02  0.60245964904E+02  0.15317124507E+03  0.12509144699E+03 0.  0.
          5    1    3    3  502    0  0.22428634711E+02  0.31672650110E+02  0.38978003150E+01  0.39228378342E+02  0.41800000000E+01 0.  1.
         -5    1    3    3    0  502 -0.22490978847E+02 -0.96356342272E+02  0.56348164589E+02  0.11394286673E+03  0.41800000000E+01 0.  1.
        -11    1    1    2    0    0 -0.32661181528E+02  0.68452447094E+02  0.84925619907E+02  0.11386330053E+03  0.00000000000E+00 0. -1.
         11    1    1    2    0    0  0.32723525664E+02 -0.37687549324E+01  0.70861524632E+01  0.33693414822E+02  0.00000000000E+00 0.  1.
</event>
<event>
 7    1  0.2989693E-009  0.8647429E+02  0.7561462E-02  0.1311622E+00
          2   -1    0    0  501    0  0.00000000000E+00  0.00000000000E+00  0.19218516414E+02  0.19218516414E+02  0.00000000000E+00 0. -1.
         -2   -1    0    0    0  501 -0.00000000000E+00 -0.00000000000E+00 -0.70056849572E+03  0.70056849572E+03  0.00000000000E+00 0.  1.
         25    2    1    2    0    0  0.31373304380E+01 -0.25750179157E+02 -0.47367445299E+03  0.49059955406E+03  0.12509004939E+03 0.  0.
          5    1    3    3  502    0 -0.37889517548E+02  0.32762019024E+01 -0.39692358415E+03  0.39876327952E+03  0.41800000000E+01 0. -1.
         -5    1    3    3    0  502  0.41026847986E+02 -0.29026381059E+02 -0.76750868840E+02  0.91836274537E+02  0.41800000000E+01 0. -1.
        -11    1    1    2    0    0 -0.37331651064E+02  0.32391321887E+02 -0.61398772080E+02  0.78820423227E+02  0.00000000000E+00 0. -1.
         11    1    1    2    0    0  0.34194320626E+02 -0.66411427298E+01 -0.14627675423E+03  0.15036703485E+03  0.00000000000E+00 0.  1.
</event>
<event>
 7    1  0.2989693E-009  0.5400940E+03  0.7561462E-02  0.1003813E+00
          1   -1    0    0  501    0  0.00000000000E+00  0.00000000000E+00  0.19641325081E+03  0.19641325081E+03  0.00000000000E+00 0. -1.
         -1   -1    0    0    0  501 -0.00000000000E+00 -0.00000000000E+00 -0.15736373125E+04  0.15736373125E+04  0.00000000000E+00 0.  1.
         25    2    1    2    0    0 -0.35549089095E+03 -0.39738174873E+03 -0.83525848420E+03  0.99879414126E+03  0.12508786280E+03 0.  0.
          5    1    3    3  502    0 -0.50603758724E+02 -0.12549834313E+03 -0.16017464811E+03  0.20972354380E+03  0.41800000000E+01 0. -1.
         -5    1    3    3    0  502 -0.30488713222E+03 -0.27188340560E+03 -0.67508383608E+03  0.78907059746E+03  0.41800000000E+01 0. -1.
        -11    1    1    2    0    0  0.11831812090E+03  0.17439526348E+03 -0.29546783374E+03  0.36292440870E+03  0.00000000000E+00 0.  1.
         11    1    1    2    0    0  0.23717277005E+03  0.22298648524E+03 -0.24649774375E+03  0.40833201335E+03  0.00000000000E+00 0. -1.
</event>
<event>
 7    1  0.2989693E-009  0.1471202E+03  0.7561462E-02  0.1204057E+00
          3   -1    0    0  501    0  0.00000000000E+00  0.00000000000E+00  0.93344787380E+02  0.93344787380E+02  0.00000000000E+00 0. -1.
         -3   -1    0    0    0  501 -0.00000000000E+00 -0.00000000000E+00 -0.31796746214E+03  0.31796746214E+03  0.00000000000E+00 0.  1.
         25    2    1    2    0    0  0.90911822120E+02 -0.87599824397E+02 -0.60518262176E+02  0.18775019258E+03  0.12509590770E+03 0.  0.
          5    1    3    3  502    0  0.47065585113E+02  0.16791924072E+02 -0.54831933757E+02  0.74304450578E+02  0.41800000000E+01 0.  1.
         -5    1    3    3    0  502  0.43846237007E+02 -0.10439174847E+03 -0.56863284181E+01  0.11344574200E+03  0.41800000000E+01 0.  1.
        -11    1    1    2    0    0 -0.15547059405E+02  0.36675119900E+02 -0.11169643627E+03  0.11858696957E+03  0.00000000000E+00 0.  1.
         11    1    1    2    0    0 -0.75364762715E+02  0.50924704497E+02 -0.52407976313E+02  0.10497508737E+03  0.00000000000E+00 0. -1.
</event>
<event>
 7    1  0.2989693E-009  0.9426402E+02  0.7561462E-02  0.1292842E+00
          2   -1    0    0  501    0  0.00000000000E+00  0.00000000000E+00  0.21195609539E+03  0.21195609539E+03  0.00000000000E+00 0. -1.
         -2   -1    0    0    0  501 -0.00000000000E+00 -0.00000000000E+00 -0.60590470898E+02  0.60590470898E+02  0.00000000000E+00 0.  1.
         25    2    1    2    0    0  0.13290488388E+02 -0.13354631583E+01  0.73581324841E+02  0.14574047845E+03  0.12509058777E+03 0.  0.
          5    1    3    3  502    0  0.55190476726E+02 -0.65027081067E+01  0.85151656599E+02  0.10176714084E+03  0.41800000000E+01 0. -1.
         -5    1    3    3    0  502 -0.41899988337E+02  0.51672449484E+01 -0.11570331758E+02  0.43973337604E+02  0.41800000000E+01 0. -1.
        -11    1    1    2    0    0 -0.48650852568E+02 -0.15704865564E+02  0.15927907046E+02  0.53546675722E+02  0.00000000000E+00 0.  1.
         11    1    1    2    0    0  0.35360364180E+02  0.17040328722E+02  0.61856392603E+02  0.73259412117E+02  0.00000000000E+00 0. -1.
</event>
<event>
 7    1  0.2989693E-009  0.1022012E+03  0.7561462E-02  0.1275734E+00
         -2   -1    0    0    0  501 -0.00000000000E+00  0.00000000000E+00  0.18364239845E+03  0.18364239845E+03  0.00000000000E+00 0.  1.
          2   -1    0    0  501    0  0.00000000000E+00 -0.00000000000E+00 -0.67387940160E+02  0.67387940160E+02  0.00000000000E+00 0. -1.
         25    2    1    2    0    0  0.50002906495E+01 -0.22437669192E+02  0.57242380068E+02  0.13947937136E+03  0.12509737428E+03 0.  0.
          5    1    3    3  502    0  0.49575805343E+02 -0.38666609440E+02  0.65789591921E+02  0.91096706670E+02  0.41800000000E+01 0.  1.
         -5    1    3    3    0  502 -0.44575514693E+02  0.16228940248E+02 -0.85472118525E+01  0.48382664687E+02  0.41800000000E+01 0.  1.
        -11    1    1    2    0    0 -0.45473918094E+02  0.27246356548E+02  0.25708104936E+02  0.58916447885E+02  0.00000000000E+00 0.  1.
         11    1    1    2    0    0  0.40473627444E+02 -0.48086873561E+01  0.33303973287E+02  0.52634519370E+02  0.00000000000E+00 0. -1.
</event>
<event>
 7    1  0.2989693E-009  0.1075749E+03  0.7561462E-02  0.1265128E+00
         -1   -1    0    0    0  501 -0.00000000000E+00  0.00000000000E+00  0.36152383496E+02  0.36152383496E+02  0.00000000000E+00 0.  1.
          1   -1    0    0  501    0  0.00000000000E+00 -0.00000000000E+00 -0.40261649444E+03  0.40261649444E+03  0.00000000000E+00 0. -1.
         25    2    1    2    0    0  0.44272637424E+01 -0.43000565018E+02 -0.25730180390E+03  0.28934366489E+03  0.12508752483E+03 0.  0.
          5    1    3    3  502    0 -0.17451753231E+01  0.35014306564E+02 -0.22641097262E+02  0.41942090867E+02  0.41800000000E+01 0. -1.
         -5    1    3    3    0  502  0.61724390655E+01 -0.78014871582E+02 -0.23466070664E+03  0.24740157403E+03  0.41800000000E+01 0. -1.
        -11    1    1    2    0    0  0.28142932408E+02 -0.17231561161E+02 -0.28360056646E+02  0.43511425597E+02  0.00000000000E+00 0. -1.
         11    1    1    2    0    0 -0.32570196150E+02  0.60232126178E+02 -0.80802250404E+02  0.10591378745E+03  0.00000000000E+00 0.  1.
</event>
<event>
 7    1  0.2989693E-009  0.1030528E+03  0.7561462E-02  0.1274004E+00
         -1   -1    0    0    0  501 -0.00000000000E+00  0.00000000000E+00  0.39612880257E+02  0.39612880257E+02  0.00000000000E+00 0.  1.
          1   -1    0    0  501    0  0.00000000000E+00 -0.00000000000E+00 -0.37274239720E+03  0.37274239720E+03  0.00000000000E+00 0. -1.
         25    2    1    2    0    0  0.34844935995E+01  0.15272636918E+02 -0.27858449256E+03  0.30578162364E+03  0.12509071397E+03 0.  0.
          5    1    3    3  502    0  0.51033158830E+02 -0.22181971196E+02 -0.19277446038E+03  0.20068853510E+03  0.41800000000E+01 0. -1.
         -5    1    3    3    0  502 -0.47548665230E+02  0.37454608114E+02 -0.85810032181E+02  0.10509308853E+03  0.41800000000E+01 0. -1.
        -11    1    1    2    0    0 -0.43916537641E+02  0.53527307265E+01 -0.37812299250E+02  0.58198659599E+02  0.00000000000E+00 0. -1.
         11    1    1    2    0    0  0.40432044041E+02 -0.20625367644E+02 -0.16732725130E+02  0.48374994224E+02  0.00000000000E+00 0.  1.
</event>
<event>
 7    1  0.2989693E-009  0.8481219E+02  0.7561462E-02  0.1315924E+00
         -1   -1    0    0    0  501 -0.00000000000E+00  0.00000000000E+00  0.21123975507E+03  0.21123975507E+03  0.00000000000E+00 0.  1.
          1   -1    0    0  501    0  0.00000000000E+00 -0.00000000000E+00 -0.11231230506E+03  0.11231230506E+03  0.00000000000E+00 0. -1.
         25    2    1    2    0    0 -0.41112184157E+02 -0.57977550508E+02  0.14026920526E+03  0.20093101534E+03  0.12508483094E+03 0.  0.
          5    1    3    3  502    0 -0.33232988477E+02 -0.12946093626E+02 -0.15075141590E+02  0.38945669300E+02  0.41800000000E+01 0. -1.
         -5    1    3    3    0  502 -0.78791956806E+01 -0.45031456882E+02  0.15534434685E+03  0.16198534604E+03  0.41800000000E+01 0. -1.
        -11    1    1    2    0    0  0.16896032967E+02 -0.71332982505E+01  0.21978054386E+02  0.28625072027E+02  0.00000000000E+00 0.  1.
         11    1    1    2    0    0  0.24216151190E+02  0.65110848758E+02 -0.63319809637E+02  0.93995972770E+02  0.00000000000E+00 0. -1.
</event>
<event>
 7    1  0.2989693E-009  0.9107135E+02  0.7561462E-02  0.1300278E+00
          1   -1    0    0  501    0  0.00000000000E+00  0.00000000000E+00  0.21394454163E+03  0.21394454163E+03  0.00000000000E+00 0. -1.
         -1   -1    0    0    0  501 -0.00000000000E+00 -0.00000000000E+00 -0.11375164691E+03  0.11375164691E+03  0.00000000000E+00 0.  1.
         25    2    1    2    0    0 -0.14147092910E+02  0.41131702803E+02  0.16269359039E+03  0.20978242431E+03  0.12508998354E+03 0.  0.
          5    1    3    3  502    0 -0.62526795093E+02 -0.60400668080E+01  0.61343343040E+02  0.87900856919E+02  0.41800000000E+01 0.  1.
         -5    1    3    3    0  502  0.48379702183E+02  0.47171769611E+02  0.10135024735E+03  0.12188156739E+03  0.41800000000E+01 0.  1.
        -11    1    1    2    0    0  0.39609996466E+00 -0.37175324410E+02  0.14269215243E+02  0.39821754655E+02  0.00000000000E+00 0. -1.
         11    1    1    2    0    0  0.13750992946E+02 -0.39563783935E+01 -0.76769910916E+02  0.78092009573E+02  0.00000000000E+00 0.  1.
</event>
<event>
 7    1  0.2989693E-009  0.6152348E+02  0.7561462E-02  0.1391547E+00
         -4   -1    0    0    0  501 -0.00000000000E+00  0.00000000000E+00  0.46360785058E+02  0.46360785058E+02  0.00000000000E+00 0.  1.
          4   -1    0    0  501    0  0.00000000000E+00 -0.00000000000E+00 -0.31882882283E+03  0.31882882283E+03  0.00000000000E+00 0. -1.
         25    2    1    2    0    0  0.14702008563E+02 -0.28980630641E+00 -0.10208504953E+03  0.16213232312E+03  0.12509716152E+03 0.  0.
          5    1    3    3  502    0  0.19231480346E+02 -0.35534103008E+01  0.26588412220E+02  0.33269995874E+02  0.41800000000E+01 0.  1.
         -5    1    3    3    0  502 -0.45294717822E+01  0.32636039944E+01 -0.12867346175E+03  0.12886232725E+03  0.41800000000E+01 0.  1.
        -11    1    1    2    0    0  0.22699954097E+02  0.37166103898E+02 -0.29233260390E+02  0.52451794135E+02  0.00000000000E+00 0.  1.
         11    1    1    2    0    0 -0.37401962660E+02 -0.36876297592E+02 -0.14114972785E+03  0.15060549063E+03  0.00000000000E+00 0. -1.
</event>
<event>
 7    1  0.2989693E-009  0.1071833E+03  0.7561462E-02  0.1265877E+00
          2   -1    0    0  501    0  0.00000000000E+00  0.00000000000E+00  0.39828066943E+03  0.39828066943E+03  0.00000000000E+00 0. -1.
         -2   -1    0    0    0  501 -0.00000000000E+00 -0.00000000000E+00 -0.45108847577E+02  0.45108847577E+02  0.00000000000E+00 0.  1.
         25    2    1    2    0    0 -0.46817492595E+02 -0.41109566983E+02  0.11771472657E+03  0.18270774684E+03  0.12507393731E+03 0.  0.
          5    1    3    3  502    0  0.23225091527E+02  0.86138611546E+00 -0.14166921384E+02  0.27537627421E+02  0.41800000000E+01 0.  1.
         -5    1    3    3    0  502 -0.70042584122E+02 -0.41970953098E+02  0.13188164796E+03  0.15517011942E+03  0.41800000000E+01 0.  1.
        -11    1    1    2    0    0 -0.25380860364E+02  0.23693838012E+02  0.49696295026E+02  0.60624316671E+02  0.00000000000E+00 0.  1.
         11    1    1    2    0    0  0.72198352959E+02  0.17415728971E+02  0.18576080026E+03  0.20005745349E+03  0.00000000000E+00 0. -1.
</event>
<event>
 7    1  0.2989693E-009  0.1497560E+03  0.7561462E-02  0.1200773E+00
         -1   -1    0    0    0  501 -0.00000000000E+00  0.00000000000E+00  0.87254917373E+03  0.87254917373E+03  0.00000000000E+00 0.  1.
          1   -1    0    0  501    0  0.00000000000E+00 -0.00000000000E+00 -0.47467433455E+02  0.47467433455E+02  0.00000000000E+00 0. -1.
         25    2    1    2    0    0 -0.12654262847E+03  0.11720046169E+02  0.16882603861E+03  0.24556142271E+03  0.12509110563E+03 0.  0.
          5    1    3    3  502    0 -0.11555657411E+03 -0.13985281641E+02  0.55979463448E+02  0.12922879962E+03  0.41800000000E+01 0.  1.
         -5    1    3    3    0  502 -0.10986054355E+02  0.25705327810E+02  0.11284657517E+03  0.11633262309E+03  0.41800000000E+01 0.  1.
        -11    1    1    2    0    0  0.85028279924E+02 -0.49714570403E+02  0.45054580087E+03  0.46118636751E+03  0.00000000000E+00 0.  1.
         11    1    1    2    0    0  0.41514348543E+02  0.37994524234E+02  0.20570990079E+03  0.21326881696E+03  0.00000000000E+00 0. -1.
</event>
<event>
 7    1  0.2989693E-009  0.1067742E+03  0.7561462E-02  0.1266663E+00
          1   -1    0    0  501    0  0.00000000000E+00  0.00000000000E+00  0.51529916353E+03  0.51529916353E+03  0.00000000000E+00 0. -1.
         -1   -1    0    0    0  501 -0.00000000000E+00 -0.00000000000E+00 -0.24954182060E+02  0.24954182060E+02  0.00000000000E+00 0.  1.
         25    2    1    2    0    0  0.10438988275E+02  0.59516731732E+01  0.30047610802E+03  0.32569574250E+03  0.12508968903E+03 0.  0.
          5    1    3    3  502    0  0.61589733185E+02  0.94347593671E+01  0.93596861962E+02  0.11251735372E+03  0.41800000000E+01 0. -1.
         -5    1    3    3    0  502 -0.51150744910E+02 -0.34830861939E+01  0.20687924606E+03  0.21317838878E+03  0.41800000000E+01 0. -1.
        -11    1    1    2    0    0 -0.54116639919E+02 -0.12374556790E+02  0.97975936915E+02  0.11261005544E+03  0.00000000000E+00 0.  1.
         11    1    1    2    0    0  0.43677651644E+02  0.64228836166E+01  0.91892936535E+02  0.10194754765E+03  0.00000000000E+00 0. -1.
</event>
<event>
 7    1  0.2989693E-009  0.2805854E+03  0.7561462E-02  0.1095370E+00
         -2   -1    0    0    0  501 -0.00000000000E+00  0.00000000000E+00  0.44401742790E+02  0.44401742790E+02  0.00000000000E+00 0.  1.
          2   -1    0    0  501    0  0.00000000000E+00 -0.00000000000E+00 -0.18714411624E+04  0.18714411624E+04  0.00000000000E+00 0. -1.
         25    2    1    2    0    0 -0.19520203688E+03  0.18256153247E+03 -0.92500916246E+03  0.97093864937E+03  0.12508941545E+03 0.  0.
          5    1    3    3  502    0 -0.18653377161E+03  0.13216101853E+03 -0.60350887154E+03  0.64536951678E+03  0.41800000000E+01 0.  1.
         -5    1    3    3    0  502 -0.86682652791E+01  0.50400513941E+02 -0.32150029093E+03  0.32556913259E+03  0.41800000000E+01 0.  1.
        -11    1    1    2    0    0  0.98363498512E+02 -0.14936371273E+03 -0.55701607792E+03  0.58502291202E+03  0.00000000000E+00 0.  1.
         11    1    1    2    0    0  0.96838538372E+02 -0.33197819742E+02 -0.34501417918E+03  0.35988134376E+03  0.00000000000E+00 0. -1.
</event>
<event>
 7    1  0.2989693E-009  0.1170312E+03  0.7561462E-02  0.1248077E+00
          1   -1    0    0  501    0  0.00000000000E+00  0.00000000000E+00  0.31569665511E+02  0.31569665511E+02  0.00000000000E+00 0. -1.
         -1   -1    0    0    0  501 -0.00000000000E+00 -0.00000000000E+00 -0.53955478564E+03  0.53955478564E+03  0.00000000000E+00 0.  1.
         25    2    1    2    0    0  0.49074742890E+02  0.41832144282E+02 -0.33612781737E+03  0.36440035058E+03  0.12508975661E+03 0.  0.
          5    1    3    3  502    0 -0.36187050594E+02 -0.11266570059E+02 -0.12255730921E+03  0.12835187834E+03  0.41800000000E+01 0.  1.
         -5    1    3    3    0  502  0.85261793483E+02  0.53098714342E+02 -0.21357050816E+03  0.23604847224E+03  0.41800000000E+01 0.  1.
        -11    1    1    2    0    0 -0.58914373220E+02 -0.71458432421E+01 -0.43993587174E+02  0.73874232043E+02  0.00000000000E+00 0.  1.
         11    1    1    2    0    0  0.98396303305E+01 -0.34686301040E+02 -0.12786371559E+03  0.13284986853E+03  0.00000000000E+00 0. -1.
</event>
<event>
 7    1  0.2989693E-009  0.1887587E+03  0.7561462E-02  0.1159586E+00
         -1   -1    0    0    0  501 -0.00000000000E+00  0.00000000000E+00  0.11120759648E+03  0.11120759648E+03  0.00000000000E+00 0.  1.
          1   -1    0    0  501    0  0.00000000000E+00 -0.00000000000E+00 -0.39535388742E+03  0.39535388742E+03  0.00000000000E+00 0. -1.
         25    2    1    2    0    0 -0.24166288674E+02 -0.15791330070E+03 -0.46374997566E+02  0.20813393040E+03  0.12509385492E+03 0.  0.
          5    1    3    3  502    0  0.17404122573E+02 -0.15670582987E+03 -0.51738173679E+02  0.16599376980E+03  0.41800000000E+01 0.  1.
         -5    1    3    3    0  502 -0.41570411246E+02 -0.12074708302E+01  0.53631761132E+01  0.42140160596E+02  0.41800000000E+01 0.  1.
        -11    1    1    2    0    0 -0.19986355267E+02  0.11394332018E+03 -0.13068351415E+03  0.17452998447E+03  0.00000000000E+00 0.  1.
         11    1    1    2    0    0  0.44152643941E+02  0.43969980521E+02 -0.10708777922E+03  0.12389756903E+03  0.00000000000E+00 0. -1.
</event>
<event>
 7    1  0.2989693E-009  0.1167190E+03  0.7561462E-02  0.1248610E+00
         -1   -1    0    0    0  501 -0.00000000000E+00  0.00000000000E+00  0.38950158163E+03  0.38950158163E+03  0.00000000000E+00 0.  1.
          1   -1    0    0  501    0  0.00000000000E+00 -0.00000000000E+00 -0.62177963714E+02  0.62177963714E+02  0.00000000000E+00 0. -1.
         25    2    1    2    0    0 -0.67988442503E+01  0.27835068778E+02  0.59740133931E+02  0.14154048190E+03  0.12507521368E+03 0.  0.
          5    1    3    3  502    0 -0.39205733866E+02  0.34156957464E+02  0.85019147517E+02  0.99747256381E+02  0.41800000000E+01 0. -1.
         -5    1    3    3    0  502  0.32406889616E+02 -0.63218886856E+01 -0.25279013586E+02  0.41793225516E+02  0.41800000000E+01 0. -1.
        -11    1    1    2    0    0 -0.20472566412E+02  0.56109504053E+02  0.16119080121E+03  0.17190077608E+03  0.00000000000E+00 0.  1.
         11    1    1    2    0    0  0.27271410662E+02 -0.83944572831E+02  0.10639268277E+03  0.13823828737E+03  0.00000000000E+00 0. -1.
</event>
<event>
 7    1  0.2989693E-009  0.2627376E+03  0.7561462E-02  0.1105509E+00
          2   -1    0    0  501    0  0.00000000000E+00  0.00000000000E+00  0.69290479791E+03  0.69290479791E+03  0.00000000000E+00 0. -1.
         -2   -1    0    0    0  501 -0.00000000000E+00 -0.00000000000E+00 -0.11044354362E+03  0.11044354362E+03  0.00000000000E+00 0.  1.
         25    2    1    2    0    0 -0.14836707451E+03  0.19395013631E+03  0.40362433961E+03  0.48804752506E+03  0.12509330525E+03 0.  0.
          5    1    3    3  502    0 -0.15920863580E+03  0.19845264924E+03  0.34836534149E+03  0.43140088926E+03  0.41800000000E+01 0. -1.
         -5    1    3    3    0  502  0.10841561295E+02 -0.45025129299E+01  0.55258998120E+02  0.56646635798E+02  0.41800000000E+01 0. -1.
        -11    1    1    2    0    0  0.12635847235E+02 -0.80990760433E+02  0.70596988575E+02  0.10818087958E+03  0.00000000000E+00 0.  1.
         11    1    1    2    0    0  0.13573122727E+03 -0.11295937588E+03  0.10823992611E+03  0.20711993689E+03  0.00000000000E+00 0. -1.
</event>
<event>
 7    1  0.2989693E-009  0.9818922E+02  0.7561462E-02  0.1284150E+00
          2   -1    0    0  501    0  0.00000000000E+00  0.00000000000E+00  0.19607925282E+03  0.19607925282E+03  0.00000000000E+00 0. -1.
         -2   -1    0    0    0  501 -0.00000000000E+00 -0.00000000000E+00 -0.80141743472E+02  0.80141743472E+02  0.00000000000E+00 0.  1.
         25    2    1    2    0    0  0.46425466129E+02  0.20424955353E+02  0.22728407275E+02  0.13688239899E+03  0.12509079883E+03 0.  0.
          5    1    3    3  502    0 -0.11431475454E+02  0.36445018576E+02  0.56155340952E+02  0.68042727220E+02  0.41800000000E+01 0.  1.
         -5    1    3    3    0  502  0.57856941583E+02 -0.16020063224E+02 -0.33426933677E+02  0.68839671775E+02  0.41800000000E+01 0.  1.
        -11    1    1    2    0    0 -0.29535770080E+01 -0.46823053146E+02  0.21964423403E+02  0.51803067656E+02  0.00000000000E+00 0. -1.
         11    1    1    2    0    0 -0.43471889121E+02  0.26398097794E+02  0.71244678674E+02  0.87535529646E+02  0.00000000000E+00 0.  1.
</event>
<event>
 7    1  0.2989693E-009  0.1265735E+03  0.7561462E-02  0.1232630E+00
         -1   -1    0    0    0  501 -0.00000000000E+00  0.00000000000E+00  0.10376253379E+04  0.10376253379E+04  0.00000000000E+00 0.  1.
          1   -1    0    0  501    0  0.00000000000E+00 -0.00000000000E+00 -0.18717162604E+02  0.18717162604E+02  0.00000000000E+00 0. -1.
         25    2    1    2    0    0 -0.76327936947E+02 -0.38138227330E+02  0.58047406355E+03  0.59989879968E+03  0.12509177859E+03 0.  0.
          5    1    3    3  502    0 -0.96473914705E+02 -0.66603886432E+01  0.26375637150E+03  0.28095635409E+03  0.41800000000E+01 0. -1.
         -5    1    3    3    0  502  0.20145977757E+02 -0.31477838687E+02  0.31671769204E+03  0.31894244559E+03  0.41800000000E+01 0. -1.
        -11    1    1    2    0    0  0.69317255384E+02 -0.10058766372E+02  0.33324200403E+03  0.34052355855E+03  0.00000000000E+00 0.  1.
         11    1    1    2    0    0  0.70106815632E+01  0.48196993702E+02  0.10519210769E+03  0.11592014225E+03  0.00000000000E+00 0. -1.
</event>
<event>
 7    1  0.2989693E-009  0.1409724E+03  0.7561462E-02  0.1212027E+00
          2   -1    0    0  501    0  0.00000000000E+00  0.00000000000E+00  0.15509196769E+04  0.15509196769E+04  0.00000000000E+00 0. -1.
         -2   -1    0    0    0  501 -0.00000000000E+00 -0.00000000000E+00 -0.39072505204E+02  0.39072505204E+02  0.00000000000E+00 0.  1.
         25    2    1    2    0    0 -0.62288685239E+02 -0.95393511189E+02  0.13935754310E+04  0.14038086500E+04  0.12508573654E+03 0.  0.
          5    1    3    3  502    0  0.28494902723E+02 -0.66527324802E+02  0.69091888989E+03  0.69471161587E+03  0.41800000000E+01 0. -1.
         -5    1    3    3    0  502 -0.90783587961E+02 -0.28866186387E+02  0.70265654115E+03  0.70909703410E+03  0.41800000000E+01 0. -1.
        -11    1    1    2    0    0  0.43256697740E+02  0.60860318908E+02  0.12556148003E+03  0.14608492593E+03  0.00000000000E+00 0. -1.
         11    1    1    2    0    0  0.19031987499E+02  0.34533192280E+02 -0.72897393838E+01  0.40098606179E+02  0.00000000000E+00 0.  1.
</event>
<event>
 7    1  0.2989693E-009  0.1875999E+03  0.7561462E-02  0.1160644E+00
         -1   -1    0    0    0  501 -0.00000000000E+00  0.00000000000E+00  0.16246220956E+03  0.16246220956E+03  0.00000000000E+00 0.  1.
          1   -1    0    0  501    0  0.00000000000E+00 -0.00000000000E+00 -0.47149648802E+03  0.47149648802E+03  0.00000000000E+00 0. -1.
         25    2    1    2    0    0  0.17665732939E+03 -0.28676545392E+02  0.49146859418E+02  0.22381415064E+03  0.12508878427E+03 0.  0.
          5    1    3    3  502    0  0.52806005131E+02  0.15915048492E+02  0.71326430314E+02  0.90259043911E+02  0.41800000000E+01 0. -1.
         -5    1    3    3    0  502  0.12385132426E+03 -0.44591593884E+02 -0.22179570896E+02  0.13355510672E+03  0.41800000000E+01 0. -1.
        -11    1    1    2    0    0 -0.70541514233E+02 -0.17156701894E+02 -0.75489137695E+02  0.10473331638E+03  0.00000000000E+00 0.  1.
         11    1    1    2    0    0 -0.10611581516E+03  0.45833247286E+02 -0.28269200019E+03  0.30541123056E+03  0.00000000000E+00 0. -1.
</event>
<event>
 7    1  0.3589957E-009  0.1086399E+03  0.7561462E-02  0.1263109E+00
          1   -1    0    0  501    0  0.00000000000E+00  0.00000000000E+00  0.62235491511E+03  0.62235491511E+03  0.00000000000E+00 0. -1.
         -1   -1    0    0    0  501 -0.00000000000E+00 -0.00000000000E+00 -0.23379109271E+02  0.23379109271E+02  0.00000000000E+00 0.  1.
         25    2    1    2    0    0 -0.17129071513E+02  0.20192463849E+02  0.46082100611E+03  0.47823140698E+03  0.12509251880E+03 0.  0.
          5    1    3    3  502    0 -0.70449321772E+02  0.20074881055E+02  0.29556037409E+03  0.30453163205E+03  0.41800000000E+01 0. -1.
         -5    1    3    3    0  502  0.53320250259E+02  0.11758279479E+00  0.16526063202E+03  0.17369977493E+03  0.41800000000E+01 0. -1.
        -11    1    1    2    0    0  0.39459390360E+02 -0.43098186815E+02  0.63563962882E+02  0.86341615526E+02  0.00000000000E+00 0.  1.
         11    1    1    2    0    0 -0.22330318847E+02  0.22905722966E+02  0.74590836847E+02  0.81161001879E+02  0.00000000000E+00 0. -1.
</event>
<event>
 7    1  0.2989693E-009  0.8007515E+02  0.7561462E-02  0.1328838E+00
         -2   -1    0    0    0  501 -0.00000000000E+00  0.00000000000E+00  0.75710960995E+02  0.75710960995E+02  0.00000000000E+00 0.  1.
          2   -1    0    0  501    0  0.00000000000E+00 -0.00000000000E+00 -0.22940808415E+03  0.22940808415E+03  0.00000000000E+00 0. -1.
         25    2    1    2    0    0  0.21956923235E+01  0.34659544890E+02 -0.16094063983E+03  0.20677463334E+03  0.12509098419E+03 0.  0.
          5    1    3    3  502    0 -0.12441904432E+02  0.57265893192E+02 -0.16853557623E+03  0.17848220182E+03  0.41800000000E+01 0.  1.
         -5    1    3    3    0  502  0.14637596756E+02 -0.22606348302E+02  0.75949364057E+01  0.28292431520E+02  0.41800000000E+01 0.  1.
        -11    1    1    2    0    0 -0.21199407875E+02 -0.46949678769E+02 -0.26331867630E+02  0.57853733532E+02  0.00000000000E+00 0. -1.
         11    1    1    2    0    0  0.19003715551E+02  0.12290133879E+02  0.33575384307E+02  0.40490678271E+02  0.00000000000E+00 0.  1.
</event>
<event>
 7    1  0.2989693E-009  0.1927809E+03  0.7561462E-02  0.1155977E+00
          1   -1    0    0  501    0  0.00000000000E+00  0.00000000000E+00  0.53227088976E+03  0.53227088976E+03  0.00000000000E+00 0. -1.
         -1   -1    0    0    0  501 -0.00000000000E+00 -0.00000000000E+00 -0.11346919659E+03  0.11346919659E+03  0.00000000000E+00 0.  1.
         25    2    1    2    0    0  0.87718586889E+02  0.17068631334E+03  0.35763679120E+03  0.42471225504E+03  0.12509219443E+03 0.  0.
          5    1    3    3  502    0  0.40178672273E+02  0.91242963758E+02  0.29859578333E+03  0.31482775983E+03  0.41800000000E+01 0.  1.
         -5    1    3    3    0  502  0.47539914617E+02  0.79443349586E+02  0.59041007874E+02  0.10988449520E+03  0.41800000000E+01 0.  1.
        -11    1    1    2    0    0 -0.55493281932E+01 -0.27130745631E+02  0.47593169074E+02  0.55063437455E+02  0.00000000000E+00 0. -1.
         11    1    1    2    0    0 -0.82169258696E+02 -0.14355556771E+03  0.13571732887E+02  0.16596439386E+03  0.00000000000E+00 0.  1.
</event>
<event>
 7    1  0.2989693E-009  0.1272021E+03  0.7561462E-02  0.1231667E+00
         -1   -1    0    0    0  501 -0.00000000000E+00  0.00000000000E+00  0.22114723893E+03  0.22114723893E+03  0.00000000000E+00 0.  1.
          1   -1    0    0  501    0  0.00000000000E+00 -0.00000000000E+00 -0.10762536245E+03  0.10762536245E+03  0.00000000000E+00 0. -1.
         25    2    1    2    0    0  0.10068865052E+03  0.39713790852E+02  0.43227241941E+02  0.17096781809E+03  0.12508401516E+03 0.  0.
          5    1    3    3  502    0  0.60288032755E+02 -0.21191861204E+02 -0.27021537452E+02  0.69508112915E+02  0.41800000000E+01 0.  1.
         -5    1    3    3    0  502  0.40400617768E+02  0.60905652056E+02  0.70248779393E+02  0.10145970518E+03  0.41800000000E+01 0.  1.
        -11    1    1    2    0    0 -0.29752956898E+02 -0.35182947734E+02 -0.13413171717E+02  0.47989492922E+02  0.00000000000E+00 0. -1.
         11    1    1    2    0    0 -0.70935693626E+02 -0.45308431183E+01  0.83707806252E+02  0.10981529036E+03  0.00000000000E+00 0.  1.
</event>
<event>
 7    1  0.2989693E-009  0.1297433E+03  0.7561462E-02  0.1227837E+00
         -2   -1    0    0    0  501 -0.00000000000E+00  0.00000000000E+00  0.88041176039E+02  0.88041176039E+02  0.00000000000E+00 0.  1.
          2   -1    0    0  501    0  0.00000000000E+00 -0.00000000000E+00 -0.50327261448E+03  0.50327261448E+03  0.00000000000E+00 0. -1.
         25    2    1    2    0    0 -0.51527924030E+02 -0.89398750579E+01  0.16763419111E+02  0.13661580171E+03  0.12509123364E+03 0.  0.
          5    1    3    3  502    0  0.26686545258E+02  0.21712159299E+02  0.36383477768E+02  0.50247581173E+02  0.41800000000E+01 0.  1.
         -5    1    3    3    0  502 -0.78214469288E+02 -0.30652034357E+02 -0.19620058657E+02  0.86368220533E+02  0.41800000000E+01 0.  1.
        -11    1    1    2    0    0  0.92905835873E+02  0.25198515309E+02 -0.26717659619E+03  0.28398907209E+03  0.00000000000E+00 0.  1.
         11    1    1    2    0    0 -0.41377911843E+02 -0.16258640251E+02 -0.16481826136E+03  0.17070891673E+03  0.00000000000E+00 0. -1.
</event>
<event>
 7    1  0.2989693E-009  0.6479576E+02  0.7561462E-02  0.1378741E+00
         -2   -1    0    0    0  501 -0.00000000000E+00  0.00000000000E+00  0.15331800372E+03  0.15331800372E+03  0.00000000000E+00 0.  1.
          2   -1    0    0  501    0  0.00000000000E+00 -0.00000000000E+00 -0.78447626215E+02  0.78447626215E+02  0.00000000000E+00 0. -1.
         25    2    1    2    0    0  0.18539516460E+02  0.47080805963E+01  0.49750409057E+02  0.13597088962E+03  0.12508836848E+03 0.  0.
          5    1    3    3  502    0 -0.28485590009E+02  0.25152001755E+01  0.76421198233E+02  0.81703286405E+02  0.41800000000E+01 0.  1.
         -5    1    3    3    0  502  0.47025106469E+02  0.21928804208E+01 -0.26670789176E+02  0.54267603210E+02  0.41800000000E+01 0.  1.
        -11    1    1    2    0    0 -0.61014671389E+01 -0.27119957479E+02  0.51806079058E+02  0.58792770153E+02  0.00000000000E+00 0.  1.
         11    1    1    2    0    0 -0.12438049321E+02  0.22411876883E+02 -0.26686110614E+02  0.37001970164E+02  0.00000000000E+00 0. -1.
</event>
<event>
 6    1  0.2989693E-009  0.1195263E+03  0.7561462E-02  0.1243881E+00
          1   -1    0    0  501    0  0.00000000000E+00  0.00000000000E+00  0.15936981541E+03  0.15936981541E+03  0.00000000000E+00 0. -1.
         -1   -1    0    0    0  501 -0.00000000000E+00 -0.00000000000E+00 -0.11988827778E+03  0.11988827778E+03  0.00000000000E+00 0.  1.
          5    1    1    2  502    0 -0.11793078968E+02 -0.49937799567E+02  0.69493855633E+02  0.86485425986E+02  0.41800000000E+01 0. -1.
         -5    1    1    2    0  502 -0.63867539418E+02  0.17220256250E+02 -0.23497954386E+02  0.70322301420E+02  0.41800000000E+01 0. -1.
        -11    1    1    2    0    0  0.49935129080E+02  0.63751935817E+02  0.29862177379E+01  0.81035448620E+02  0.00000000000E+00 0. -1.
         11    1    1    2    0    0  0.25725489307E+02 -0.31034392500E+02 -0.95005813606E+01  0.41414917169E+02  0.00000000000E+00 0.  1.
</event>
<event>
 7    1  0.3006646E-009  0.8733771E+02  0.7561462E-02  0.1309430E+00
         -2   -1    0    0    0  501 -0.00000000000E+00  0.00000000000E+00  0.41445961983E+02  0.41445961983E+02  0.00000000000E+00 0.  1.
          2   -1    0    0  501    0  0.00000000000E+00 -0.00000000000E+00 -0.33228035895E+03  0.33228035895E+03  0.00000000000E+00 0. -1.
         25    2    1    2    0    0 -0.40910515021E+02  0.85963170128E+01 -0.19306494385E+03  0.23381359331E+03  0.12508859647E+03 0.  0.
          5    1    3    3  502    0 -0.59265046538E+02  0.39804606668E+02 -0.18227793096E+03  0.19580467044E+03  0.41800000000E+01 0. -1.
         -5    1    3    3    0  502  0.18354531516E+02 -0.31208289655E+02 -0.10787012893E+02  0.38008922867E+02  0.41800000000E+01 0. -1.
        -11    1    1    2    0    0  0.41422161362E+02  0.14294277933E+02 -0.47026426397E+01  0.44070814394E+02  0.00000000000E+00 0.  1.
         11    1    1    2    0    0 -0.51164634067E+00 -0.22890594946E+02 -0.93066810475E+02  0.95841913227E+02  0.00000000000E+00 0. -1.
</event>
<event>
 7    1  0.2989693E-009  0.1318816E+03  0.7561462E-02  0.1224690E+00
         -2   -1    0    0    0  501 -0.00000000000E+00  0.00000000000E+00  0.14085165236E+02  0.14085165236E+02  0.00000000000E+00 0.  1.
          2   -1    0    0  501    0  0.00000000000E+00 -0.00000000000E+00 -0.12726990379E+04  0.12726990379E+04  0.00000000000E+00 0. -1.
         25    2    1    2    0    0  0.12184079965E+02 -0.75682108806E+02 -0.77043350268E+03  0.78427796060E+03  0.12509158255E+03 0.  0.
          5    1    3    3  502    0 -0.27784485570E+02 -0.96815385126E+02 -0.50035630477E+03  0.51041071752E+03  0.41800000000E+01 0. -1.
         -5    1    3    3    0  502  0.39968565535E+02  0.21133276320E+02 -0.27007719792E+03  0.27386724308E+03  0.41800000000E+01 0. -1.
        -11    1    1    2    0    0 -0.47456851661E+02  0.19705059111E+02 -0.25472651159E+03  0.25985772614E+03  0.00000000000E+00 0.  1.
         11    1    1    2    0    0  0.35272771696E+02  0.55977049695E+02 -0.23345385839E+03  0.24264851640E+03  0.00000000000E+00 0. -1.
</event>
<event>
 7    1  0.2989693E-009  0.9081189E+02  0.7561462E-02  0.1300897E+00
         -2   -1    0    0    0  501 -0.00000000000E+00  0.00000000000E+00  0.36386396378E+03  0.36386396378E+03  0.00000000000E+00 0.  1.
          2   -1    0    0  501    0  0.00000000000E+00 -0.00000000000E+00 -0.54304153983E+02  0.54304153983E+02  0.00000000000E+00 0. -1.
         25    2    1    2    0    0  0.22545201558E+02 -0.48186372160E+02  0.62428782157E+02  0.14958263685E+03  0.12508956724E+03 0.  0.
          5    1    3    3  502    0  0.55445262101E+02 -0.27024027488E+02 -0.14211847226E+02  0.63434408271E+02  0.41800000000E+01 0.  1.
         -5    1    3    3    0  502 -0.32900060542E+02 -0.21162344673E+02  0.76640629383E+02  0.86148228583E+02  0.41800000000E+01 0.  1.
        -11    1    1    2    0    0  0.92746241005E+01  0.47745306651E+02  0.22406293751E+03  0.22928112204E+03  0.00000000000E+00 0.  1.
         11    1    1    2    0    0 -0.31819825659E+02  0.44106550966E+00  0.23068090131E+02  0.39304358868E+02  0.00000000000E+00 0. -1.
</event>
<event>
 7    1  0.2989693E-009  0.1098252E+03  0.7561462E-02  0.1260894E+00
         -1   -1    0    0    0  501 -0.00000000000E+00  0.00000000000E+00  0.41966328390E+03  0.41966328390E+03  0.00000000000E+00 0.  1.
          1   -1    0    0  501    0  0.00000000000E+00 -0.00000000000E+00 -0.46492722898E+02  0.46492722898E+02  0.00000000000E+00 0. -1.
         25    2    1    2    0    0 -0.37255108937E+02  0.31375947229E+02  0.32715765176E+03  0.35362909348E+03  0.12509601689E+03 0.  0.
          5    1    3    3  502    0 -0.41399591752E+01 -0.43529086622E+02  0.17879155083E+03  0.18410815216E+03  0.41800000000E+01 0. -1.
         -5    1    3    3    0  502 -0.33115149762E+02  0.74905033851E+02  0.14836610093E+03  0.16952094132E+03  0.41800000000E+01 0. -1.
        -11    1    1    2    0    0 -0.24705787220E+02 -0.10294002560E+01  0.34705141930E+02  0.42613172417E+02  0.00000000000E+00 0.  1.
         11    1    1    2    0    0  0.61960896157E+02 -0.30346546973E+02  0.11307767315E+02  0.69913740905E+02  0.00000000000E+00 0. -1.
</event>
<event>
 7    1  0.2989693E-009  0.1086845E+03  0.7561462E-02  0.1263026E+00
          2   -1    0    0  501    0  0.00000000000E+00  0.00000000000E+00  0.16953023902E+04  0.16953023902E+04  0.00000000000E+00 0. -1.
         -2   -1    0    0    0  501 -0.00000000000E+00 -0.00000000000E+00 -0.11384173851E+02  0.11384173851E+02  0.00000000000E+00 0.  1.
         25    2    1    2    0    0  0.36005450321E+02 -0.51322716687E+02  0.12888284937E+04  0.12964016021E+04  0.12509122226E+03 0.  0.
          5    1    3    3  502    0 -0.62845563937E+01 -0.77073421965E+02  0.10259199974E+04  0.10288387247E+04  0.41800000000E+01 0. -1.
         -5    1    3    3    0  502  0.42290006715E+02  0.25750705278E+02  0.26290849637E+03  0.26756287738E+03  0.41800000000E+01 0. -1.
        -11    1    1    2    0    0  0.18395631035E+02  0.21145218043E+02  0.34892583977E+02  0.44755020990E+02  0.00000000000E+00 0.  1.
         11    1    1    2    0    0 -0.54401081356E+02  0.30177498644E+02  0.36019713863E+03  0.36552994098E+03  0.00000000000E+00 0. -1.
</event>
<event>
 7    1  0.2989693E-009  0.1112051E+03  0.7561462E-02  0.1258354E+00
         -1   -1    0    0    0  501 -0.00000000000E+00  0.00000000000E+00  0.65135637596E+02  0.65135637596E+02  0.00000000000E+00 0.  1.
          1   -1    0    0  501    0  0.00000000000E+00 -0.00000000000E+00 -0.29491824702E+03  0.29491824702E+03  0.00000000000E+00 0. -1.
         25    2    1    2    0    0  0.19285747411E+02 -0.75728835805E+02 -0.16988434431E+03  0.22497776548E+03  0.12508999918E+03 0.  0.
          5    1    3    3  502    0  0.56497751096E+02 -0.23399078716E+02 -0.14235227073E+03  0.15498759353E+03  0.41800000000E+01 0.  1.
         -5    1    3    3    0  502 -0.37212003685E+02 -0.52329757089E+02 -0.27532073573E+02  0.69990171956E+02  0.41800000000E+01 0.  1.
        -11    1    1    2    0    0  0.14475870192E+02  0.69926930687E+00 -0.50177099103E+02  0.52228163568E+02  0.00000000000E+00 0. -1.
         11    1    1    2    0    0 -0.33761617603E+02  0.75029566498E+02 -0.97211660083E+01  0.82847955561E+02  0.00000000000E+00 0.  1.
</event>
<event>
 7    1  0.2989693E-009  0.9303026E+02  0.7561462E-02  0.1295675E+00
          2   -1    0    0  501    0  0.00000000000E+00  0.00000000000E+00  0.21581580475E+03  0.21581580475E+03  0.00000000000E+00 0. -1.
         -2   -1    0    0    0  501 -0.00000000000E+00 -0.00000000000E+00 -0.13414637329E+03  0.13414637329E+03  0.00000000000E+00 0.  1.
         25    2    1    2    0    0  0.65837617049E+02  0.34782820482E+02  0.15203567771E+03  0.21049429131E+03  0.12509421633E+03 0.  0.
          5    1    3    3  502    0 -0.14140745820E+02  0.10275062901E+02 -0.15148132378E+02  0.23504806412E+02  0.41800000000E+01 0.  1.
         -5    1    3    3    0  502  0.79978362869E+02  0.24507757582E+02  0.16718381009E+03  0.18698948490E+03  0.41800000000E+01 0.  1.
        -11    1    1    2    0    0 -0.34144262995E+01 -0.19861437642E+02  0.20155144746E+02  0.28502015226E+02  0.00000000000E+00 0. -1.
         11    1    1    2    0    0 -0.62423190750E+02 -0.14921382840E+02 -0.90521390994E+02  0.11096587150E+03  0.00000000000E+00 0.  1.
</event>
<event>
 7    1  0.2989693E-009  0.1099114E+03  0.7561462E-02  0.1260734E+00
         -3   -1    0    0    0  501 -0.00000000000E+00  0.00000000000E+00  0.56910081173E+03  0.56910081173E+03  0.00000000000E+00 0.  1.
          3   -1    0    0  501    0  0.00000000000E+00 -0.00000000000E+00 -0.42770682527E+02  0.42770682527E+02  0.00000000000E+00 0. -1.
         25    2    1    2    0    0 -0.79454642621E+01 -0.79809894590E+02  0.13077043413E+03  0.19794285184E+03  0.12509083291E+03 0.  0.
          5    1    3    3  502    0  0.17004485112E+02 -0.71321495725E+02  0.14866445029E+03  0.16581465389E+03  0.41800000000E+01 0.  1.
         -5    1    3    3    0  502 -0.24949949375E+02 -0.84883988650E+01 -0.17894016161E+02  0.32128197949E+02  0.41800000000E+01 0.  1.
        -11    1    1    2    0    0  0.18628813237E+02  0.97374767663E+02  0.35309384086E+03  0.36674805864E+03  0.00000000000E+00 0.  1.
         11    1    1    2    0    0 -0.10683348975E+02 -0.17564873074E+02  0.42465854217E+02  0.47180583780E+02  0.00000000000E+00 0. -1.
</event>
<event>
 7    1  0.2989693E-009  0.9664948E+02  0.7561462E-02  0.1287504E+00
          1   -1    0    0  501    0  0.00000000000E+00  0.00000000000E+00  0.19726693106E+03  0.19726693106E+03  0.00000000000E+00 0. -1.
         -1   -1    0    0    0  501 -0.00000000000E+00 -0.00000000000E+00 -0.10223141433E+03  0.10223141433E+03  0.00000000000E+00 0.  1.
         25    2    1    2    0    0 -0.90337925254E+01  0.47961610911E+02  0.13377075170E+03  0.18952466854E+03  0.12507222092E+03 0.  0.
          5    1    3    3  502    0  0.22323401686E+02 -0.18528250338E+02 -0.74662866431E+01  0.30246456977E+02  0.41800000000E+01 0.  1.
         -5    1    3    3    0  502 -0.31357194211E+02  0.66489861249E+02  0.14123703834E+03  0.15927821156E+03  0.41800000000E+01 0.  1.
        -11    1    1    2    0    0  0.28591164714E+02  0.91257124305E+01  0.10805827202E+02  0.31898263724E+02  0.00000000000E+00 0.  1.
         11    1    1    2    0    0 -0.19557372189E+02 -0.57087323342E+02 -0.49541062170E+02  0.78075413122E+02  0.00000000000E+00 0. -1.
</event>
<event>
 7    1  0.2989693E-009  0.1053687E+03  0.7561462E-02  0.1269395E+00
         -2   -1    0    0    0  501 -0.00000000000E+00  0.00000000000E+00  0.15040439255E+02  0.15040439255E+02  0.00000000000E+00 0.  1.
          2   -1    0    0  501    0  0.00000000000E+00 -0.00000000000E+00 -0.12292201537E+04  0.12292201537E+04  0.00000000000E+00 0. -1.
         25    2    1    2    0    0  0.54413535146E+02  0.27836603735E+02 -0.94184488568E+03  0.95207895823E+03  0.12508734834E+03 0.  0.
          5    1    3    3  502    0  0.44909019021E+01  0.60055335982E+02 -0.23151259818E+03  0.23925377133E+03  0.41800000000E+01 0.  1.
         -5    1    3    3    0  502  0.49922633244E+02 -0.32218732247E+02 -0.71033228751E+03  0.71282518691E+03  0.41800000000E+01 0.  1.
        -11    1    1    2    0    0 -0.34855546540E+01  0.20378897917E+02 -0.15217552322E+02  0.25671432960E+02  0.00000000000E+00 0.  1.
         11    1    1    2    0    0 -0.50927980492E+02 -0.48215501652E+02 -0.25711727640E+03  0.26651020172E+03  0.00000000000E+00 0. -1.
</event>
<event>
 7    1  0.2989693E-009  0.8516629E+02  0.7561462E-02  0.1314998E+00
          1   -1    0    0  501    0  0.00000000000E+00  0.00000000000E+00  0.22599893243E+03  0.22599893243E+03  0.00000000000E+00 0. -1.
         -1   -1    0    0    0  501 -0.00000000000E+00 -0.00000000000E+00 -0.65634617032E+02  0.65634617032E+02  0.00000000000E+00 0.  1.
         25    2    1    2    0    0 -0.22003190618E+02  0.36076403786E+02  0.13339587015E+03  0.18769028236E+03  0.12509011396E+03 0.  0.
          5    1    3    3  502    0  0.21076988323E+02  0.13669277890E+02 -0.16315685906E+02  0.30245042592E+02  0.41800000000E+01 0.  1.
         -5    1    3    3    0  502 -0.43080178941E+02  0.22407125896E+02  0.14971155606E+03  0.15744523977E+03  0.41800000000E+01 0.  1.
        -11    1    1    2    0    0 -0.24864098976E+02 -0.42079964878E+02 -0.12783886437E+01  0.48893569511E+02  0.00000000000E+00 0.  1.
         11    1    1    2    0    0  0.46867289595E+02  0.60035610920E+01  0.28246833885E+02  0.55049697586E+02  0.00000000000E+00 0. -1.
</event>
<event>
 7    1  0.2989693E-009  0.1125343E+03  0.7561462E-02  0.1255947E+00
         -1   -1    0    0    0  501 -0.00000000000E+00  0.00000000000E+00  0.10556743268E+03  0.10556743268E+03  0.00000000000E+00 0.  1.
          1   -1    0    0  501    0  0.00000000000E+00 -0.00000000000E+00 -0.13760956263E+03  0.13760956263E+03  0.00000000000E+00 0. -1.
         25    2    1    2    0    0 -0.16825434773E+02  0.49177774471E+02 -0.79158159362E+01  0.13569197625E+03  0.12509237995E+03 0.  0.
          5    1    3    3  502    0 -0.62213200935E+02  0.17123007460E+02 -0.35228352535E+02  0.73635514376E+02  0.41800000000E+01 0. -1.
         -5    1    3    3    0  502  0.45387766162E+02  0.32054767011E+02  0.27312536599E+02  0.62056461878E+02  0.41800000000E+01 0. -1.
        -11    1    1    2    0    0 -0.37376290810E+02 -0.27058340809E+02 -0.12415955288E+02  0.47783855723E+02  0.00000000000E+00 0.  1.
         11    1    1    2    0    0  0.54201725583E+02 -0.22119433662E+02 -0.11710358728E+02  0.59701163333E+02  0.00000000000E+00 0. -1.
</event>
<event>
 7    1  0.2989693E-009  0.1938095E+03  0.7561462E-02  0.1155070E+00
          2   -1    0    0  501    0  0.00000000000E+00  0.00000000000E+00  0.11018639701E+04  0.11018639701E+04  0.00000000000E+00 0. -1.
         -2   -1    0    0    0  501 -0.00000000000E+00 -0.00000000000E+00 -0.36721588459E+02  0.36721588459E+02  0.00000000000E+00 0.  1.
         25    2    1    2    0    0  0.10573545172E+03 -0.13269122362E+03  0.60222530484E+03  0.63805264759E+03  0.12509563035E+03 0.  0.
          5    1    3    3  502    0  0.10111400780E+03 -0.15223113851E+03  0.47091408361E+03  0.50514939241E+03  0.41800000000E+01 0. -1.
         -5    1    3    3    0  502  0.46214439194E+01  0.19539914894E+02  0.13131122123E+03  0.13290325518E+03  0.41800000000E+01 0. -1.
        -11    1    1    2    0    0 -0.10863947348E+02  0.69443671567E+02  0.11900725513E+03  0.13821423822E+03  0.00000000000E+00 0.  1.
         11    1    1    2    0    0 -0.94871504374E+02  0.63247552049E+02  0.34390982171E+03  0.36231867279E+03  0.00000000000E+00 0. -1.
</event>
<event>
 7    1  0.2989693E-009  0.1872293E+03  0.7561462E-02  0.1160984E+00
         -2   -1    0    0    0  501 -0.00000000000E+00  0.00000000000E+00  0.11141191197E+03  0.11141191197E+03  0.00000000000E+00 0.  1.
          2   -1    0    0  501    0  0.00000000000E+00 -0.00000000000E+00 -0.33364613346E+03  0.33364613346E+03  0.00000000000E+00 0. -1.
         25    2    1    2    0    0  0.94678820590E+00 -0.15861114393E+03 -0.11047938292E+03  0.23024332210E+03  0.12509157420E+03 0.  0.
          5    1    3    3  502    0 -0.60934020241E+02 -0.90872351612E+02 -0.69391450181E+02  0.12962787072E+03  0.41800000000E+01 0.  1.
         -5    1    3    3    0  502  0.61880808447E+02 -0.67738792323E+02 -0.41087932734E+02  0.10061545138E+03  0.41800000000E+01 0.  1.
        -11    1    1    2    0    0  0.23722889582E+02  0.16521871051E+02  0.49046846505E+01  0.29322408576E+02  0.00000000000E+00 0.  1.
         11    1    1    2    0    0 -0.24669677788E+02  0.14208927288E+03 -0.11665952323E+03  0.18549231475E+03  0.00000000000E+00 0. -1.
</event>
<event>
 7    1  0.2989693E-009  0.1052248E+03  0.7561462E-02  0.1269677E+00
          1   -1    0    0  501    0  0.00000000000E+00  0.00000000000E+00  0.70085901385E+02  0.70085901385E+02  0.00000000000E+00 0.  1.
         -1   -1    0    0    0  501 -0.00000000000E+00 -0.00000000000E+00 -0.28604324256E+03  0.28604324256E+03  0.00000000000E+00 0. -1.
         25    2    1    2    0    0  0.49138908295E+02 -0.51646781184E+02 -0.18728297198E+03  0.23622733318E+03  0.12508564680E+03 0.  0.
          5    1    3    3  502    0  0.34062767302E+02  0.35714769727E+02 -0.37502076659E+02  0.62126444021E+02  0.41800000000E+01 0.  1.
         -5    1    3    3    0  502  0.15076140993E+02 -0.87361550911E+02 -0.14978089532E+03  0.17410088916E+03  0.41800000000E+01 0.  1.
        -11    1    1    2    0    0 -0.40460839535E+02  0.35456244359E+02  0.27770688834E+02  0.60542843989E+02  0.00000000000E+00 0.  1.
         11    1    1    2    0    0 -0.86780687593E+01  0.16190536826E+02 -0.56445058027E+02  0.59358966768E+02  0.00000000000E+00 0. -1.
</event>
<event>
 7    1  0.2989693E-009  0.1008568E+03  0.7561462E-02  0.1278505E+00
          1   -1    0    0  501    0  0.00000000000E+00  0.00000000000E+00  0.50661549139E+03  0.50661549139E+03  0.00000000000E+00 0. -1.
         -1   -1    0    0    0  501 -0.00000000000E+00 -0.00000000000E+00 -0.32237754374E+02  0.32237754374E+02  0.00000000000E+00 0.  1.
         25    2    1    2    0    0 -0.40318347761E+02 -0.52098338343E+02  0.27727582744E+03  0.31123758820E+03  0.12508855183E+03 0.  0.
          5    1    3    3  502    0  0.25571165042E+01  0.17076036505E+02 -0.41559976054E+01  0.18244850880E+02  0.41800000000E+01 0. -1.
         -5    1    3    3    0  502 -0.42875464265E+02 -0.69174374848E+02  0.28143182505E+03  0.29299273732E+03  0.41800000000E+01 0. -1.
        -11    1    1    2    0    0  0.63676125996E+02  0.45247082700E+02  0.18417129038E+03  0.20005252239E+03  0.00000000000E+00 0. -1.
         11    1    1    2    0    0 -0.23357778235E+02  0.68512556433E+01  0.12930619193E+02  0.27563135175E+02  0.00000000000E+00 0.  1.
</event>
<event>
 7    1  0.2989693E-009  0.1274883E+03  0.7561462E-02  0.1231231E+00
          2   -1    0    0  501    0  0.00000000000E+00  0.00000000000E+00  0.12043455720E+04  0.12043455720E+04  0.00000000000E+00 0. -1.
         -2   -1    0    0    0  501 -0.00000000000E+00 -0.00000000000E+00 -0.14438541439E+02  0.14438541439E+02  0.00000000000E+00 0.  1.
         25    2    1    2    0    0  0.31461170584E+02 -0.66633122851E+02  0.72964187820E+03  0.74394539969E+03  0.12509080292E+03 0.  0.
          5    1    3    3  502    0  0.38849147451E+02  0.27725822588E+02  0.31464126036E+03  0.31826808294E+03  0.41800000000E+01 0. -1.
         -5    1    3    3    0  502 -0.73879768671E+01 -0.94358945439E+02  0.41500061784E+03  0.42567731675E+03  0.41800000000E+01 0. -1.
        -11    1    1    2    0    0  0.28114820712E+02  0.34931617291E+02  0.12374967700E+03  0.13162311191E+03  0.00000000000E+00 0.  1.
         11    1    1    2    0    0 -0.59575991296E+02  0.31701505560E+02  0.33651547535E+03  0.34321560184E+03  0.00000000000E+00 0. -1.
</event>
<event>
 7    1  0.2989693E-009  0.1162911E+03  0.7561462E-02  0.1249344E+00
         -2   -1    0    0    0  501 -0.00000000000E+00  0.00000000000E+00  0.21761333623E+03  0.21761333623E+03  0.00000000000E+00 0.  1.
          2   -1    0    0  501    0  0.00000000000E+00 -0.00000000000E+00 -0.11587787019E+03  0.11587787019E+03  0.00000000000E+00 0. -1.
         25    2    1    2    0    0 -0.72171713177E+02  0.45572964611E+02 -0.32810609024E+02  0.15494862137E+03  0.12508752102E+03 0.  0.
          5    1    3    3  502    0 -0.78884170720E+02  0.59747028825E+02 -0.65297818081E+02  0.11863261478E+03  0.41800000000E+01 0.  1.
         -5    1    3    3    0  502  0.67124575426E+01 -0.14174064214E+02  0.32487209057E+02  0.36316006593E+02  0.41800000000E+01 0.  1.
        -11    1    1    2    0    0  0.42052388906E+02 -0.67863233095E+02  0.94195540993E+02  0.12347721151E+03  0.00000000000E+00 0.  1.
         11    1    1    2    0    0  0.30119324271E+02  0.22290268483E+02  0.40350534071E+02  0.55065373543E+02  0.00000000000E+00 0. -1.
</event>
<event>
 7    1  0.2989693E-009  0.9096811E+02  0.7561462E-02  0.1300524E+00
          2   -1    0    0  501    0  0.00000000000E+00  0.00000000000E+00  0.15886794244E+02  0.15886794244E+02  0.00000000000E+00 0. -1.
         -2   -1    0    0    0  501 -0.00000000000E+00 -0.00000000000E+00 -0.17422025394E+04  0.17422025394E+04  0.00000000000E+00 0.  1.
         25    2    1    2    0    0 -0.39887877067E+01  0.15901832020E+02 -0.15826559811E+04  0.15876762463E+04  0.12508848826E+03 0.  0.
          5    1    3    3  502    0  0.44145656631E+02  0.44547082790E+02 -0.56809432112E+03  0.57156094309E+03  0.41800000000E+01 0. -1.
         -5    1    3    3    0  502 -0.48134444338E+02 -0.28645250770E+02 -0.10145616599E+04  0.10161153032E+04  0.41800000000E+01 0. -1.
        -11    1    1    2    0    0 -0.20113196337E+02 -0.29145102753E+02 -0.14345538121E+02  0.38206964619E+02  0.00000000000E+00 0. -1.
         11    1    1    2    0    0  0.24101984044E+02  0.13243270733E+02 -0.12931422596E+03  0.13220612274E+03  0.00000000000E+00 0.  1.
</event>
<event>
 7    1  0.2989693E-009  0.8743804E+02  0.7561462E-02  0.1309177E+00
         -2   -1    0    0    0  501 -0.00000000000E+00  0.00000000000E+00  0.12452919138E+03  0.12452919138E+03  0.00000000000E+00 0.  1.
          2   -1    0    0  501    0  0.00000000000E+00 -0.00000000000E+00 -0.12726860544E+03  0.12726860544E+03  0.00000000000E+00 0. -1.
         25    2    1    2    0    0 -0.76226281970E+01  0.88477461010E+01  0.61274790614E+02  0.13977825727E+03  0.12508786579E+03 0.  0.
          5    1    3    3  502    0  0.92772665090E+01  0.43754884669E+02 -0.20346095387E+02  0.49315247174E+02  0.41800000000E+01 0. -1.
         -5    1    3    3    0  502 -0.16899894706E+02 -0.34907138568E+02  0.81620886002E+02  0.90463010097E+02  0.41800000000E+01 0. -1.
        -11    1    1    2    0    0  0.43771910865E+02  0.16518228659E+02 -0.24754080334E+02  0.52930110070E+02  0.00000000000E+00 0.  1.
         11    1    1    2    0    0 -0.36149282668E+02 -0.25365974760E+02 -0.39260124335E+02  0.59089429476E+02  0.00000000000E+00 0. -1.
</event>
<event>
 7    1  0.3191525E-009  0.1314126E+03  0.7561462E-02  0.1225375E+00
          4   -1    0    0  501    0  0.00000000000E+00  0.00000000000E+00  0.98500260327E+03  0.98500260327E+03  0.00000000000E+00 0.  1.
         -4   -1    0    0    0  501 -0.00000000000E+00 -0.00000000000E+00 -0.28062011976E+02  0.28062011976E+02  0.00000000000E+00 0. -1.
         25    2    1    2    0    0 -0.12077366614E+03 -0.15325520121E+02  0.41153499112E+03  0.44702295495E+03  0.12508926150E+03 0.  0.
          5    1    3    3  502    0 -0.67436878573E+02 -0.24721704716E+02  0.37433574759E+03  0.38118711888E+03  0.41800000000E+01 0. -1.
         -5    1    3    3    0  502 -0.53336787564E+02  0.93961845941E+01  0.37199243529E+02  0.65835836075E+02  0.41800000000E+01 0. -1.
        -11    1    1    2    0    0  0.30066336244E+02 -0.23232686779E+02  0.62209182209E+02  0.72895299309E+02  0.00000000000E+00 0. -1.
         11    1    1    2    0    0  0.90707329893E+02  0.38558206901E+02  0.48319641797E+03  0.49314636098E+03  0.00000000000E+00 0.  1.
</event>
<event>
 7    1  0.2989693E-009  0.1514657E+03  0.7561462E-02  0.1198683E+00
         -1   -1    0    0    0  501 -0.00000000000E+00  0.00000000000E+00  0.14646462749E+03  0.14646462749E+03  0.00000000000E+00 0.  1.
          1   -1    0    0  501    0  0.00000000000E+00 -0.00000000000E+00 -0.16699550827E+03  0.16699550827E+03  0.00000000000E+00 0. -1.
         25    2    1    2    0    0 -0.33616422713E+02  0.10453545523E+03 -0.36455199456E+02  0.17039268693E+03  0.12508781281E+03 0.  0.
          5    1    3    3  502    0 -0.70806742570E+02  0.21973561418E+02 -0.49295332532E+01  0.74419116448E+02  0.41800000000E+01 0.  1.
         -5    1    3    3    0  502  0.37190319856E+02  0.82561893813E+02 -0.31525666203E+02  0.95973570480E+02  0.41800000000E+01 0.  1.
        -11    1    1    2    0    0 -0.27095815085E+02 -0.47727577764E+02 -0.10390308535E+02  0.55857527565E+02  0.00000000000E+00 0. -1.
         11    1    1    2    0    0  0.60712237798E+02 -0.56807877468E+02  0.26314627213E+02  0.87209921260E+02  0.00000000000E+00 0.  1.
</event>
<event>
 7    1  0.2989693E-009  0.9808600E+02  0.7561462E-02  0.1284373E+00
          1   -1    0    0  501    0  0.00000000000E+00  0.00000000000E+00  0.13242431983E+03  0.13242431983E+03  0.00000000000E+00 0. -1.
         -1   -1    0    0    0  501 -0.00000000000E+00 -0.00000000000E+00 -0.11185772866E+03  0.11185772866E+03  0.00000000000E+00 0.  1.
         25    2    1    2    0    0  0.19735501378E+02  0.13510015524E+02  0.59501164546E+02  0.14057492121E+03  0.12509560087E+03 0.  0.
          5    1    3    3  502    0  0.65230098772E+02  0.34549582333E+02  0.19917684337E+02  0.76569092815E+02  0.41800000000E+01 0.  1.
         -5    1    3    3    0  502 -0.45494597394E+02 -0.21039566809E+02  0.39583480210E+02  0.64005828399E+02  0.41800000000E+01 0.  1.
        -11    1    1    2    0    0 -0.31175092534E+02 -0.35443673229E+02 -0.56309627436E+02  0.73477306078E+02  0.00000000000E+00 0.  1.
         11    1    1    2    0    0  0.11439591155E+02  0.21933657705E+02  0.17375054059E+02  0.30229821198E+02  0.00000000000E+00 0. -1.
</event>
<event>
 7    1  0.2989693E-009  0.1094453E+03  0.7561462E-02  0.1261601E+00
         -2   -1    0    0    0  501 -0.00000000000E+00  0.00000000000E+00  0.13919332274E+02  0.13919332274E+02  0.00000000000E+00 0.  1.
          2   -1    0    0  501    0  0.00000000000E+00 -0.00000000000E+00 -0.13644502843E+04  0.13644502843E+04  0.00000000000E+00 0. -1.
         25    2    1    2    0    0 -0.42949235361E+02 -0.24836878304E+02 -0.10776524285E+04  0.10860199030E+04  0.12507184165E+03 0.  0.
          5    1    3    3  502    0  0.14609227202E+01 -0.58458660332E+02 -0.83349720085E+03  0.83555646457E+03  0.41800000000E+01 0. -1.
         -5    1    3    3    0  502 -0.44410158082E+02  0.33621782027E+02 -0.24415522768E+03  0.25046343839E+03  0.41800000000E+01 0. -1.
        -11    1    1    2    0    0  0.48489102533E+02 -0.24798572378E+02 -0.12802196071E+03  0.13912506848E+03  0.00000000000E+00 0.  1.
         11    1    1    2    0    0 -0.55398671717E+01  0.49635450683E+02 -0.14485656283E+03  0.15322464517E+03  0.00000000000E+00 0. -1.
</event>
<event>
 7    1  0.2989693E-009  0.1122977E+03  0.7561462E-02  0.1256373E+00
          2   -1    0    0  501    0  0.00000000000E+00  0.00000000000E+00  0.59410737507E+03  0.59410737507E+03  0.00000000000E+00 0. -1.
         -2   -1    0    0    0  501 -0.00000000000E+00 -0.00000000000E+00 -0.22898326586E+02  0.22898326586E+02  0.00000000000E+00 0.  1.
         25    2    1    2    0    0 -0.20024890863E+02  0.23585314010E+02  0.25460229996E+03  0.28534941716E+03  0.12507875693E+03 0.  0.
          5    1    3    3  502    0  0.37436187596E+02 -0.30111069592E+02  0.12108842660E+03  0.13033811457E+03  0.41800000000E+01 0.  1.
         -5    1    3    3    0  502 -0.57461078460E+02  0.53696383601E+02  0.13351387336E+03  0.15501130258E+03  0.41800000000E+01 0.  1.
        -11    1    1    2    0    0 -0.22464363442E+02 -0.44804927555E+02  0.18777888042E+03  0.19435286746E+03  0.00000000000E+00 0.  1.
         11    1    1    2    0    0  0.42489254305E+02  0.21219613545E+02  0.12882786811E+03  0.13730341704E+03  0.00000000000E+00 0. -1.
</event>
<event>
 7    1  0.2989693E-009  0.1788723E+03  0.7561462E-02  0.1168899E+00
         -2   -1    0    0    0  501 -0.00000000000E+00  0.00000000000E+00  0.45251801008E+02  0.45251801008E+02  0.00000000000E+00 0. -1.
          2   -1    0    0  501    0  0.00000000000E+00 -0.00000000000E+00 -0.84973400065E+03  0.84973400065E+03  0.00000000000E+00 0.  1.
         25    2    1    2    0    0 -0.14473389688E+03 -0.32433621406E+02 -0.56695487016E+03  0.59923913096E+03  0.12509944276E+03 0.  0.
          5    1    3    3  502    0 -0.33674837991E+01  0.29185796234E+02 -0.37809849286E+02  0.48064620585E+02  0.41800000000E+01 0.  1.
         -5    1    3    3    0  502 -0.14136641308E+03 -0.61619417640E+02 -0.52914502087E+03  0.55117451038E+03  0.41800000000E+01 0.  1.
        -11    1    1    2    0    0  0.45407089818E+02  0.55622314863E+02 -0.12265572705E+03  0.14212696118E+03  0.00000000000E+00 0.  1.
         11    1    1    2    0    0  0.99326807064E+02 -0.23188693457E+02 -0.11487160244E+03  0.15361970952E+03  0.00000000000E+00 0. -1.
</event>
<event>
 7    1  0.2989693E-009  0.1394199E+03  0.7561462E-02  0.1214112E+00
          1   -1    0    0  501    0  0.00000000000E+00  0.00000000000E+00  0.95127841208E+03  0.95127841208E+03  0.00000000000E+00 0. -1.
         -1   -1    0    0    0  501 -0.00000000000E+00 -0.00000000000E+00 -0.23775050597E+02  0.23775050597E+02  0.00000000000E+00 0.  1.
         25    2    1    2    0    0  0.48896324904E+02 -0.91999746411E+02  0.51127136923E+03  0.53656379283E+03  0.12508991507E+03 0.  0.
          5    1    3    3  502    0 -0.10737539034E+01 -0.10383749421E+03  0.40964835352E+03  0.42262586775E+03  0.41800000000E+01 0.  1.
         -5    1    3    3    0  502  0.49970078807E+02  0.11837747796E+02  0.10162301570E+03  0.11393792507E+03  0.41800000000E+01 0.  1.
        -11    1    1    2    0    0 -0.43816640031E+02  0.15134588918E+02  0.71186707237E+02  0.84949991246E+02  0.00000000000E+00 0.  1.
         11    1    1    2    0    0 -0.50796848726E+01  0.76865157492E+02  0.34504528502E+03  0.35353967860E+03  0.00000000000E+00 0. -1.
</event>
<event>
 7    1  0.2989693E-009  0.6280815E+02  0.7561462E-02  0.1386411E+00
          2   -1    0    0  501    0  0.00000000000E+00  0.00000000000E+00  0.33558986183E+03  0.33558986183E+03  0.00000000000E+00 0. -1.
         -2   -1    0    0    0  501 -0.00000000000E+00 -0.00000000000E+00 -0.42719961347E+02  0.42719961347E+02  0.00000000000E+00 0.  1.
         25    2    1    2    0    0 -0.23394000541E+02 -0.12008616231E+02  0.97465812046E+02  0.16074397559E+03  0.12509018765E+03 0.  0.
          5    1    3    3  502    0 -0.23217273310E+02 -0.11104588554E+02 -0.26224043249E+02  0.36980082629E+02  0.41800000000E+01 0. -1.
         -5    1    3    3    0  502 -0.17672723075E+00 -0.90402767697E+00  0.12368985530E+03  0.12376389296E+03  0.41800000000E+01 0. -1.
        -11    1    1    2    0    0 -0.22975463178E+02  0.36266097741E+02  0.78200941799E+02  0.89210364039E+02  0.00000000000E+00 0.  1.
         11    1    1    2    0    0  0.46369463718E+02 -0.24257481509E+02  0.11720314663E+03  0.12835548354E+03  0.00000000000E+00 0. -1.
</event>
<event>
 7    1  0.2989693E-009  0.1461457E+03  0.7561462E-02  0.1205291E+00
          1   -1    0    0  501    0  0.00000000000E+00  0.00000000000E+00  0.12485033401E+04  0.12485033401E+04  0.00000000000E+00 0. -1.
         -1   -1    0    0    0  501 -0.00000000000E+00 -0.00000000000E+00 -0.54953559025E+02  0.54953559025E+02  0.00000000000E+00 0.  1.
         25    2    1    2    0    0 -0.18292042848E+02  0.10989512481E+03  0.11393770402E+04  0.11516246459E+04  0.12509095838E+03 0.  0.
          5    1    3    3  502    0 -0.34085623451E+02 -0.98760915722E+01  0.47486392977E+03  0.47620645849E+03  0.41800000000E+01 0.  1.
         -5    1    3    3    0  502  0.15793580603E+02  0.11977121639E+03  0.66451311047E+03  0.67541818739E+03  0.41800000000E+01 0.  1.
        -11    1    1    2    0    0  0.28496628133E+02 -0.34040115967E+01 -0.56687695869E+01  0.29253718713E+02  0.00000000000E+00 0.  1.
         11    1    1    2    0    0 -0.10204585285E+02 -0.10649111322E+03  0.59841510387E+02  0.12257853450E+03  0.00000000000E+00 0. -1.
</event>
<event>
 7    1  0.2989693E-009  0.9996128E+02  0.7561462E-02  0.1280377E+00
         -1   -1    0    0    0  501 -0.00000000000E+00  0.00000000000E+00  0.35072510333E+02  0.35072510333E+02  0.00000000000E+00 0.  1.
          1   -1    0    0  501    0  0.00000000000E+00 -0.00000000000E+00 -0.46711342805E+03  0.46711342805E+03  0.00000000000E+00 0. -1.
         25    2    1    2    0    0 -0.74266654188E+01  0.59062897164E+02 -0.32055900745E+03  0.34921237068E+03  0.12509045287E+03 0.  0.
          5    1    3    3  502    0 -0.25805906144E+02  0.87352808885E+02 -0.28819832106E+03  0.30227835297E+03  0.41800000000E+01 0. -1.
         -5    1    3    3    0  502  0.18379240725E+02 -0.28289911721E+02 -0.32360686388E+02  0.46934017709E+02  0.41800000000E+01 0. -1.
        -11    1    1    2    0    0 -0.96337597706E+01 -0.56714104962E+02 -0.12050480124E+03  0.13353166722E+03  0.00000000000E+00 0. -1.
         11    1    1    2    0    0  0.17060425189E+02 -0.23487922022E+01  0.90228909800E+01  0.19441900475E+02  0.00000000000E+00 0.  1.
</event>
<event>
 7    1  0.3316268E-009  0.1394890E+03  0.7561462E-02  0.1214018E+00
         -2   -1    0    0    0  501 -0.00000000000E+00  0.00000000000E+00  0.32644660776E+02  0.32644660776E+02  0.00000000000E+00 0.  1.
          2   -1    0    0  501    0  0.00000000000E+00 -0.00000000000E+00 -0.72337698037E+03  0.72337698037E+03  0.00000000000E+00 0. -1.
         25    2    1    2    0    0 -0.25475952908E+02  0.10543284463E+03 -0.37233544083E+03  0.40747929021E+03  0.12506231469E+03 0.  0.
          5    1    3    3  502    0  0.26611010835E+02  0.69715879264E+02 -0.30910558637E+03  0.31801287025E+03  0.41800000000E+01 0. -1.
         -5    1    3    3    0  502 -0.52086963743E+02  0.35716965362E+02 -0.63229854452E+02  0.89466419961E+02  0.41800000000E+01 0. -1.
        -11    1    1    2    0    0  0.59086149486E+02 -0.76016052316E+02 -0.19906897766E+03  0.22112908252E+03  0.00000000000E+00 0.  1.
         11    1    1    2    0    0 -0.33610196578E+02 -0.29416792309E+02 -0.11932790111E+03  0.12741326841E+03  0.00000000000E+00 0. -1.
</event>
<event>
 7    1  0.2989693E-009  0.1617357E+03  0.7561462E-02  0.1186751E+00
          2   -1    0    0  501    0  0.00000000000E+00  0.00000000000E+00  0.27330567793E+03  0.27330567793E+03  0.00000000000E+00 0. -1.
         -2   -1    0    0    0  501 -0.00000000000E+00 -0.00000000000E+00 -0.10890690273E+03  0.10890690273E+03  0.00000000000E+00 0.  1.
         25    2    1    2    0    0  0.58209653897E+02  0.11998706323E+03  0.90397422230E+02  0.20396862234E+03  0.12508495435E+03 0.  0.
          5    1    3    3  502    0 -0.34060555952E+02  0.20873977732E+02  0.46742852805E+02  0.61629628479E+02  0.41800000000E+01 0.  1.
         -5    1    3    3    0  502  0.92270209849E+02  0.99113085499E+02  0.43654569424E+02  0.14233899386E+03  0.41800000000E+01 0.  1.
        -11    1    1    2    0    0  0.49242520645E+01 -0.61711927386E+02  0.68233602546E+02  0.92132701885E+02  0.00000000000E+00 0. -1.
         11    1    1    2    0    0 -0.63133905961E+02 -0.58275135845E+02  0.57677504173E+01  0.86111256434E+02  0.00000000000E+00 0.  1.
</event>
<event>
 7    1  0.2989693E-009  0.6607296E+02  0.7561462E-02  0.1373980E+00
          1   -1    0    0  501    0  0.00000000000E+00  0.00000000000E+00  0.98590074704E+02  0.98590074704E+02  0.00000000000E+00 0. -1.
         -1   -1    0    0    0  501 -0.00000000000E+00 -0.00000000000E+00 -0.14533583467E+03  0.14533583467E+03  0.00000000000E+00 0.  1.
         25    2    1    2    0    0 -0.77583359552E-01  0.24283151686E+02 -0.71112748060E+02  0.14592539070E+03  0.12509004453E+03 0.  0.
          5    1    3    3  502    0  0.92509700010E+01  0.25132508362E+02 -0.10607819041E+03  0.10948642977E+03  0.41800000000E+01 0.  1.
         -5    1    3    3    0  502 -0.93285533605E+01 -0.84935667593E+00  0.34965442355E+02  0.36438960930E+02  0.41800000000E+01 0.  1.
        -11    1    1    2    0    0 -0.24048841913E+02 -0.52447313869E+02  0.12231242273E+02  0.58980257858E+02  0.00000000000E+00 0.  1.
         11    1    1    2    0    0  0.24126425273E+02  0.28164162182E+02  0.12135745817E+02  0.39020260819E+02  0.00000000000E+00 0. -1.
</event>
<event>
 7    1  0.2989693E-009  0.1303728E+03  0.7561462E-02  0.1226904E+00
          2   -1    0    0  501    0  0.00000000000E+00  0.00000000000E+00  0.53051298181E+03  0.53051298181E+03  0.00000000000E+00 0. -1.
         -2   -1    0    0    0  501 -0.00000000000E+00 -0.00000000000E+00 -0.42169852601E+02  0.42169852601E+02  0.00000000000E+00 0.  1.
         25    2    1    2    0    0  0.14856987333E+01 -0.10015255135E+03  0.22053739883E+03  0.27261230237E+03  0.12509189534E+03 0.  0.
          5    1    3    3  502    0 -0.42146868956E+02 -0.15842322329E+02  0.17589603021E+02  0.48520142972E+02  0.41800000000E+01 0. -1.
         -5    1    3    3    0  502  0.43632567689E+02 -0.84310229017E+02  0.20294779581E+03  0.22409215940E+03  0.41800000000E+01 0. -1.
        -11    1    1    2    0    0 -0.30813271031E+02  0.77638204886E+02  0.11073047512E+03  0.13870251134E+03  0.00000000000E+00 0.  1.
         11    1    1    2    0    0  0.29327572297E+02  0.22514346460E+02  0.15707525526E+03  0.16136802071E+03  0.00000000000E+00 0. -1.
</event>
<event>
 7    1  0.2989693E-009  0.1610854E+03  0.7561462E-02  0.1187477E+00
         -1   -1    0    0    0  501 -0.00000000000E+00  0.00000000000E+00  0.28704865080E+03  0.28704865080E+03  0.00000000000E+00 0.  1.
          1   -1    0    0  501    0  0.00000000000E+00 -0.00000000000E+00 -0.11941653533E+03  0.11941653533E+03  0.00000000000E+00 0. -1.
         25    2    1    2    0    0 -0.91612175766E+01 -0.13658555415E+03  0.15081206715E+03  0.23902466627E+03  0.12509584318E+03 0.  0.
          5    1    3    3  502    0 -0.16054380645E+02 -0.15968977083E+03  0.13608803070E+03  0.21046612683E+03  0.41800000000E+01 0. -1.
         -5    1    3    3    0  502  0.68931630689E+01  0.23104216681E+02  0.14724036449E+02  0.28558539440E+02  0.41800000000E+01 0. -1.
        -11    1    1    2    0    0 -0.10091543226E+01  0.43515294531E+02  0.51652191459E+02  0.67546636727E+02  0.00000000000E+00 0.  1.
         11    1    1    2    0    0  0.10170371899E+02  0.93070259617E+02 -0.34832143141E+02  0.99893883124E+02  0.00000000000E+00 0. -1.
</event>
<event>
 7    1  0.2989693E-009  0.1222227E+03  0.7561462E-02  0.1239475E+00
          2   -1    0    0  501    0  0.00000000000E+00  0.00000000000E+00  0.84178835702E+03  0.84178835702E+03  0.00000000000E+00 0. -1.
         -2   -1    0    0    0  501 -0.00000000000E+00 -0.00000000000E+00 -0.17901827694E+02  0.17901827694E+02  0.00000000000E+00 0.  1.
         25    2    1    2    0    0 -0.94727026783E+01  0.57379915926E+02  0.45513061691E+03  0.47557627050E+03  0.12508686490E+03 0.  0.
          5    1    3    3  502    0  0.43389717546E+02 -0.16503087296E+02  0.13766534511E+03  0.14534180102E+03  0.41800000000E+01 0.  1.
         -5    1    3    3    0  502 -0.52862420224E+02  0.73883003222E+02  0.31746527180E+03  0.33023446948E+03  0.41800000000E+01 0.  1.
        -11    1    1    2    0    0 -0.83855674334E+01 -0.78663557158E+02  0.25352303682E+03  0.26557899609E+03  0.00000000000E+00 0.  1.
         11    1    1    2    0    0  0.17858270112E+02  0.21283641232E+02  0.11523287560E+03  0.11853491812E+03  0.00000000000E+00 0. -1.
</event>
<event>
 7    1  0.2989693E-009  0.1155598E+03  0.7561462E-02  0.1250607E+00
          1   -1    0    0  501    0  0.00000000000E+00  0.00000000000E+00  0.45179580678E+03  0.45179580678E+03  0.00000000000E+00 0. -1.
         -1   -1    0    0    0  501 -0.00000000000E+00 -0.00000000000E+00 -0.34186954984E+02  0.34186954984E+02  0.00000000000E+00 0.  1.
         25    2    1    2    0    0  0.56760457095E+02 -0.67411719766E+01  0.27497865914E+03  0.30745532357E+03  0.12509324569E+03 0.  0.
          5    1    3    3  502    0  0.92744642257E+02 -0.24684586192E+02  0.20996708659E+03  0.23089943117E+03  0.41800000000E+01 0. -1.
         -5    1    3    3    0  502 -0.35984185162E+02  0.17943414216E+02  0.65011572543E+02  0.76555892393E+02  0.41800000000E+01 0. -1.
        -11    1    1    2    0    0 -0.19533425922E+02  0.40123997680E+02  0.26041847787E+02  0.51668827684E+02  0.00000000000E+00 0.  1.
         11    1    1    2    0    0 -0.37227031173E+02 -0.33382825704E+02  0.11658834487E+03  0.12685861052E+03  0.00000000000E+00 0. -1.
</event>
<event>
 7    1  0.2989693E-009  0.1952146E+03  0.7561462E-02  0.1153840E+00
          1   -1    0    0  501    0  0.00000000000E+00  0.00000000000E+00  0.41367872983E+02  0.41367872983E+02  0.00000000000E+00 0. -1.
         -1   -1    0    0    0  501 -0.00000000000E+00 -0.00000000000E+00 -0.10933655024E+04  0.10933655024E+04  0.00000000000E+00 0.  1.
         25    2    1    2    0    0 -0.16243982169E+03 -0.21121346913E+02 -0.76539419292E+03  0.79265973847E+03  0.12509349894E+03 0.  0.
          5    1    3    3  502    0 -0.12423522486E+03  0.40956384434E+02 -0.43331820276E+03  0.45265213328E+03  0.41800000000E+01 0.  1.
         -5    1    3    3    0  502 -0.38204596829E+02 -0.62077731347E+02 -0.33207599016E+03  0.34000760519E+03  0.41800000000E+01 0.  1.
        -11    1    1    2    0    0  0.20651153033E+02 -0.29477848003E+02 -0.49176591695E+02  0.60940551485E+02  0.00000000000E+00 0.  1.
         11    1    1    2    0    0  0.14178866866E+03  0.50599194916E+02 -0.23742684479E+03  0.28113308541E+03  0.00000000000E+00 0. -1.
</event>
<event>
 7    1  0.2989693E-009  0.1327656E+03  0.7561462E-02  0.1223409E+00
         -1   -1    0    0    0  501 -0.00000000000E+00  0.00000000000E+00  0.11738931939E+03  0.11738931939E+03  0.00000000000E+00 0.  1.
          1   -1    0    0  501    0  0.00000000000E+00 -0.00000000000E+00 -0.22072316322E+03  0.22072316322E+03  0.00000000000E+00 0. -1.
         25    2    1    2    0    0  0.91103642897E+02 -0.31114171512E+02 -0.13535848285E+03  0.20793587466E+03  0.12508974248E+03 0.  0.
          5    1    3    3  502    0 -0.16702303730E+02  0.14402510380E+02  0.70870743357E+01  0.23539292211E+02  0.41800000000E+01 0.  1.
         -5    1    3    3    0  502  0.10780594663E+03 -0.45516681892E+02 -0.14244555718E+03  0.18439658245E+03  0.41800000000E+01 0.  1.
        -11    1    1    2    0    0 -0.99189887298E+02  0.57385750628E+01  0.22329897287E+02  0.10183412640E+03  0.00000000000E+00 0. -1.
         11    1    1    2    0    0  0.80862444004E+01  0.25375596449E+02  0.96947417320E+01  0.28342481559E+02  0.00000000000E+00 0.  1.
</event>
<event>
 7    1  0.2989693E-009  0.1547846E+03  0.7561462E-02  0.1194714E+00
          1   -1    0    0  501    0  0.00000000000E+00  0.00000000000E+00  0.14502050089E+02  0.14502050089E+02  0.00000000000E+00 0. -1.
         -1   -1    0    0    0  501 -0.00000000000E+00 -0.00000000000E+00 -0.19670782870E+04  0.19670782870E+04  0.00000000000E+00 0.  1.
         25    2    1    2    0    0 -0.10254642248E+03  0.41401805696E+02 -0.14267502903E+04  0.14364865018E+04  0.12508877237E+03 0.  0.
          5    1    3    3  502    0 -0.12999292868E+03  0.20418089174E+02 -0.10802129965E+04  0.10882061616E+04  0.41800000000E+01 0.  1.
         -5    1    3    3    0  502  0.27446506201E+02  0.20983716522E+02 -0.34653729371E+03  0.34828034024E+03  0.41800000000E+01 0.  1.
        -11    1    1    2    0    0  0.67424251096E+02  0.21756949507E+02 -0.23690230619E+03  0.24726928068E+03  0.00000000000E+00 0.  1.
         11    1    1    2    0    0  0.35122171383E+02 -0.63158755204E+02 -0.28892364046E+03  0.29782455456E+03  0.00000000000E+00 0. -1.
</event>
<event>
 7    1  0.2989693E-009  0.8316674E+02  0.7561462E-02  0.1320298E+00
         -2   -1    0    0    0  501 -0.00000000000E+00  0.00000000000E+00  0.26289653075E+02  0.26289653075E+02  0.00000000000E+00 0.  1.
          2   -1    0    0  501    0  0.00000000000E+00 -0.00000000000E+00 -0.53253016239E+03  0.53253016239E+03  0.00000000000E+00 0. -1.
         25    2    1    2    0    0 -0.37681279083E+02  0.24292742274E+02 -0.25091895091E+03  0.28393359976E+03  0.12509177841E+03 0.  0.
          5    1    3    3  502    0 -0.48028583231E+02  0.10414185146E+02 -0.25951383321E+03  0.26415923623E+03  0.41800000000E+01 0. -1.
         -5    1    3    3    0  502  0.10347304148E+02  0.13878557128E+02  0.85948823020E+01  0.19774363526E+02  0.41800000000E+01 0. -1.
        -11    1    1    2    0    0  0.23579200415E+02 -0.58029480062E+02 -0.12939619892E+03  0.14375943636E+03  0.00000000000E+00 0. -1.
         11    1    1    2    0    0  0.14102078668E+02  0.33736737788E+02 -0.12592535949E+03  0.13112677935E+03  0.00000000000E+00 0.  1.
</event>
<event>
 7    1  0.2989693E-009  0.9650121E+02  0.7561462E-02  0.1287830E+00
         -2   -1    0    0    0  501 -0.00000000000E+00  0.00000000000E+00  0.76500351224E+02  0.76500351224E+02  0.00000000000E+00 0. -1.
          2   -1    0    0  501    0  0.00000000000E+00 -0.00000000000E+00 -0.28864864422E+03  0.28864864422E+03  0.00000000000E+00 0.  1.
         25    2    1    2    0    0  0.10540265126E+02 -0.93596589337E+02 -0.68349186871E+02  0.17085249205E+03  0.12509014338E+03 0.  0.
          5    1    3    3  502    0  0.16184167518E+02 -0.67975443771E+02  0.24587718399E+02  0.74193102983E+02  0.41800000000E+01 0. -1.
         -5    1    3    3    0  502 -0.56439023923E+01 -0.25621145565E+02 -0.92936905269E+02  0.96659389070E+02  0.41800000000E+01 0. -1.
        -11    1    1    2    0    0 -0.16812204802E+02  0.63137140977E+02 -0.22544286197E+02  0.69117245614E+02  0.00000000000E+00 0. -1.
         11    1    1    2    0    0  0.62719396762E+01  0.30459448359E+02 -0.12125481993E+03  0.12517925778E+03  0.00000000000E+00 0.  1.
</event>
<event>
 7    1  0.2989693E-009  0.1542873E+03  0.7561462E-02  0.1195302E+00
         -1   -1    0    0    0  501 -0.00000000000E+00  0.00000000000E+00  0.20866953445E+02  0.20866953445E+02  0.00000000000E+00 0.  1.
          1   -1    0    0  501    0  0.00000000000E+00 -0.00000000000E+00 -0.13810109189E+04  0.13810109189E+04  0.00000000000E+00 0. -1.
         25    2    1    2    0    0  0.97901814790E+02 -0.84390013675E+02 -0.79053532766E+03  0.81074248729E+03  0.12510330401E+03 0.  0.
          5    1    3    3  502    0  0.21921326711E+02  0.16308088126E+02 -0.38567290531E+03  0.38666207545E+03  0.41800000000E+01 0. -1.
         -5    1    3    3    0  502  0.75980488079E+02 -0.10069810180E+03 -0.40486242235E+03  0.42408041184E+03  0.41800000000E+01 0. -1.
        -11    1    1    2    0    0 -0.99421832668E+02  0.35146862528E+02 -0.32726983884E+03  0.34383942498E+03  0.00000000000E+00 0.  1.
         11    1    1    2    0    0  0.15200178777E+01  0.49243151147E+02 -0.24233879898E+03  0.24729596010E+03  0.00000000000E+00 0. -1.
</event>
<event>
 7    1  0.2989693E-009  0.1101398E+03  0.7561462E-02  0.1260311E+00
         -1   -1    0    0    0  501 -0.00000000000E+00  0.00000000000E+00  0.78618688960E+02  0.78618688960E+02  0.00000000000E+00 0.  1.
          1   -1    0    0  501    0  0.00000000000E+00 -0.00000000000E+00 -0.22705318008E+03  0.22705318008E+03  0.00000000000E+00 0. -1.
         25    2    1    2    0    0 -0.34818641270E+02 -0.11645497663E+02 -0.16053768998E+03  0.20680243306E+03  0.12508773329E+03 0.  0.
          5    1    3    3  502    0  0.84404117521E+01 -0.58906973926E+02 -0.45376126612E+02  0.74951566988E+02  0.41800000000E+01 0. -1.
         -5    1    3    3    0  502 -0.43259053022E+02  0.47261476263E+02 -0.11516156336E+03  0.13185086607E+03  0.41800000000E+01 0. -1.
        -11    1    1    2    0    0 -0.18074924374E+02  0.34382864149E+02 -0.40975880564E+01  0.39059883078E+02  0.00000000000E+00 0.  1.
         11    1    1    2    0    0  0.52893565644E+02 -0.22737366486E+02  0.16200786917E+02  0.59809552899E+02  0.00000000000E+00 0. -1.
</event>
<event>
 7    1  0.2989693E-009  0.2583140E+03  0.7561462E-02  0.1108160E+00
         -4   -1    0    0    0  501 -0.00000000000E+00  0.00000000000E+00  0.90490549335E+03  0.90490549335E+03  0.00000000000E+00 0.  1.
          4   -1    0    0  501    0  0.00000000000E+00 -0.00000000000E+00 -0.77084589804E+02  0.77084589804E+02  0.00000000000E+00 0. -1.
         25    2    1    2    0    0 -0.19141845754E+03 -0.13832913438E+03  0.50101556110E+03  0.56783752221E+03  0.12508750480E+03 0.  0.
          5    1    3    3  502    0  0.53711020868E+01 -0.50485675061E+02  0.79775412220E+02  0.94653266816E+02  0.41800000000E+01 0.  1.
         -5    1    3    3    0  502 -0.19678955962E+03 -0.87843459323E+02  0.42124014888E+03  0.47318425540E+03  0.41800000000E+01 0.  1.
        -11    1    1    2    0    0  0.69665844218E+02  0.10118252518E+03  0.12285093169E+03  0.17373423575E+03  0.00000000000E+00 0.  1.
         11    1    1    2    0    0  0.12175261332E+03  0.37146609203E+02  0.20395441074E+03  0.24041832519E+03  0.00000000000E+00 0. -1.
</event>
<event>
 7    1  0.2989693E-009  0.1105099E+03  0.7561462E-02  0.1259628E+00
         -2   -1    0    0    0  501 -0.00000000000E+00  0.00000000000E+00  0.14214606941E+03  0.14214606941E+03  0.00000000000E+00 0. -1.
          2   -1    0    0  501    0  0.00000000000E+00 -0.00000000000E+00 -0.12281194522E+03  0.12281194522E+03  0.00000000000E+00 0.  1.
         25    2    1    2    0    0  0.30807174469E+02  0.65658684624E+02  0.23034280626E+02  0.14643083623E+03  0.12510502327E+03 0.  0.
          5    1    3    3  502    0 -0.44208588672E+02  0.27976225699E+02 -0.14393909040E+02  0.54421737698E+02  0.41800000000E+01 0.  1.
         -5    1    3    3    0  502  0.75015763141E+02  0.37682458926E+02  0.37428189665E+02  0.92009098528E+02  0.41800000000E+01 0.  1.
        -11    1    1    2    0    0 -0.22892231348E+02 -0.51561696741E+01  0.37971541701E+02  0.44637185406E+02  0.00000000000E+00 0. -1.
         11    1    1    2    0    0 -0.79149431211E+01 -0.60502514950E+02 -0.41671698133E+02  0.73889992998E+02  0.00000000000E+00 0.  1.
</event>
<event>
 7    1  0.2989693E-009  0.3015279E+03  0.7561462E-02  0.1084479E+00
          2   -1    0    0  501    0  0.00000000000E+00  0.00000000000E+00  0.12396547182E+04  0.12396547182E+04  0.00000000000E+00 0. -1.
         -2   -1    0    0    0  501 -0.00000000000E+00 -0.00000000000E+00 -0.78816205335E+02  0.78816205335E+02  0.00000000000E+00 0.  1.
         25    2    1    2    0    0 -0.15887268041E+03 -0.23860007174E+03  0.46556866627E+03  0.56086742364E+03  0.12509021171E+03 0.  0.
          5    1    3    3  502    0 -0.88364351246E+02 -0.51922163866E+02  0.23180808143E+03  0.25348891236E+03  0.41800000000E+01 0.  1.
         -5    1    3    3    0  502 -0.70508329169E+02 -0.18667790788E+03  0.23376058484E+03  0.30737851128E+03  0.41800000000E+01 0.  1.
        -11    1    1    2    0    0  0.76502931667E+02  0.40978344410E+02  0.20680307679E+03  0.22427535717E+03  0.00000000000E+00 0. -1.
         11    1    1    2    0    0  0.82369748748E+02  0.19762172733E+03  0.48846676981E+03  0.53332814274E+03  0.00000000000E+00 0.  1.
</event>
<event>
 7    1  0.2989693E-009  0.1225157E+03  0.7561462E-02  0.1239004E+00
          3   -1    0    0  501    0  0.00000000000E+00  0.00000000000E+00  0.76293641350E+03  0.76293641350E+03  0.00000000000E+00 0. -1.
         -3   -1    0    0    0  501 -0.00000000000E+00 -0.00000000000E+00 -0.22543978057E+02  0.22543978057E+02  0.00000000000E+00 0.  1.
         25    2    1    2    0    0  0.48466103880E+02  0.46696098950E+02  0.32003007072E+03  0.35013681406E+03  0.12508818293E+03 0.  0.
          5    1    3    3  502    0  0.42614527075E+02 -0.32714831096E+02  0.74227246935E+02  0.91724667778E+02  0.41800000000E+01 0.  1.
         -5    1    3    3    0  502  0.58515768054E+01  0.79410930046E+02  0.24580282379E+03  0.25841214628E+03  0.41800000000E+01 0.  1.
        -11    1    1    2    0    0 -0.71580528769E+02 -0.51009032234E+02  0.35970559961E+03  0.37028882222E+03  0.00000000000E+00 0. -1.
         11    1    1    2    0    0  0.23114424889E+02  0.43129332839E+01  0.60656765109E+02  0.65054755284E+02  0.00000000000E+00 0.  1.
</event>
<event>
 7    1  0.2989693E-009  0.9184407E+02  0.7561462E-02  0.1298446E+00
         -2   -1    0    0    0  501 -0.00000000000E+00  0.00000000000E+00  0.60326413198E+02  0.60326413198E+02  0.00000000000E+00 0.  1.
          2   -1    0    0  501    0  0.00000000000E+00 -0.00000000000E+00 -0.22382466687E+03  0.22382466687E+03  0.00000000000E+00 0. -1.
         25    2    1    2    0    0 -0.30272236354E+02 -0.10202217769E+02 -0.56579603678E+02  0.14096020303E+03  0.12509210105E+03 0.  0.
          5    1    3    3  502    0 -0.30928890250E+02  0.46921718087E+02 -0.61566056542E+02  0.83463139160E+02  0.41800000000E+01 0. -1.
         -5    1    3    3    0  502  0.65665389578E+00 -0.57123935856E+02  0.49864528633E+01  0.57497063874E+02  0.41800000000E+01 0. -1.
        -11    1    1    2    0    0  0.77318009333E+01  0.35406634444E+02 -0.59695527643E+01  0.36729362485E+02  0.00000000000E+00 0.  1.
         11    1    1    2    0    0  0.22540435421E+02 -0.25204416675E+02 -0.10094909723E+03  0.10646151455E+03  0.00000000000E+00 0. -1.
</event>
<event>
 7    1  0.2989693E-009  0.2636766E+03  0.7561462E-02  0.1104954E+00
          2   -1    0    0  501    0  0.00000000000E+00  0.00000000000E+00  0.14708342502E+04  0.14708342502E+04  0.00000000000E+00 0.  1.
         -2   -1    0    0    0  501 -0.00000000000E+00 -0.00000000000E+00 -0.52366403054E+02  0.52366403054E+02  0.00000000000E+00 0. -1.
         25    2    1    2    0    0 -0.23679173378E+03 -0.89242345928E+02  0.82025967855E+03  0.86747215697E+03  0.12508989318E+03 0.  0.
          5    1    3    3  502    0 -0.22172460942E+03 -0.56523455130E+02  0.78182061810E+03  0.81462731030E+03  0.41800000000E+01 0.  1.
         -5    1    3    3    0  502 -0.15067124361E+02 -0.32718890798E+02  0.38439060452E+02  0.52844846674E+02  0.41800000000E+01 0.  1.
        -11    1    1    2    0    0  0.75976001263E+02  0.64227458366E+02  0.29907169270E+03  0.31518470228E+03  0.00000000000E+00 0.  1.
         11    1    1    2    0    0  0.16081573252E+03  0.25014887561E+02  0.29913647591E+03  0.34054379402E+03  0.00000000000E+00 0. -1.
</event>
<event>
 7    1  0.2989693E-009  0.9869082E+02  0.7561462E-02  0.1283073E+00
         -1   -1    0    0    0  501 -0.00000000000E+00  0.00000000000E+00  0.28485289928E+02  0.28485289928E+02  0.00000000000E+00 0.  1.
          1   -1    0    0  501    0  0.00000000000E+00 -0.00000000000E+00 -0.64975961613E+03  0.64975961613E+03  0.00000000000E+00 0. -1.
         25    2    1    2    0    0 -0.52336700067E+02  0.28638994900E+02 -0.20353142285E+03  0.24623463093E+03  0.12508849338E+03 0.  0.
          5    1    3    3  502    0 -0.64353040460E+02  0.10396702306E+02 -0.31050545597E+02  0.72325749337E+02  0.41800000000E+01 0. -1.
         -5    1    3    3    0  502  0.12016340394E+02  0.18242292594E+02 -0.17248087726E+03  0.17390888159E+03  0.41800000000E+01 0. -1.
        -11    1    1    2    0    0  0.30569724795E+01 -0.54213051122E+02 -0.19094278942E+03  0.19851334671E+03  0.00000000000E+00 0. -1.
         11    1    1    2    0    0  0.49279727587E+02  0.25574056222E+02 -0.22680011393E+03  0.23349692842E+03  0.00000000000E+00 0.  1.
</event>
<event>
 7    1  0.2989693E-009  0.1205763E+03  0.7561462E-02  0.1242149E+00
          2   -1    0    0  501    0  0.00000000000E+00  0.00000000000E+00  0.32137989597E+03  0.32137989597E+03  0.00000000000E+00 0. -1.
         -2   -1    0    0    0  501 -0.00000000000E+00 -0.00000000000E+00 -0.87867078518E+02  0.87867078518E+02  0.00000000000E+00 0.  1.
         25    2    1    2    0    0 -0.71207174002E+02  0.21584031381E+02  0.25007977141E+03  0.28934961972E+03  0.12508788240E+03 0.  0.
          5    1    3    3  502    0  0.13603851603E+02 -0.24033019897E+02  0.14118559800E+03  0.14392184097E+03  0.41800000000E+01 0.  1.
         -5    1    3    3    0  502 -0.84811025604E+02  0.45617051278E+02  0.10889417340E+03  0.14542777875E+03  0.41800000000E+01 0.  1.
        -11    1    1    2    0    0  0.50038143352E+02 -0.56827694587E+02 -0.39637675246E+00  0.75718952560E+02  0.00000000000E+00 0. -1.
         11    1    1    2    0    0  0.21169030650E+02  0.35243663206E+02 -0.16170577202E+02  0.44178402211E+02  0.00000000000E+00 0.  1.
</event>
<event>
 7    1  0.2989693E-009  0.3975533E+03  0.7561462E-02  0.1044630E+00
         -1   -1    0    0    0  501 -0.00000000000E+00  0.00000000000E+00  0.12138270278E+04  0.12138270278E+04  0.00000000000E+00 0.  1.
          1   -1    0    0  501    0  0.00000000000E+00 -0.00000000000E+00 -0.13854189086E+03  0.13854189086E+03  0.00000000000E+00 0. -1.
         25    2    1    2    0    0  0.37297976410E+03 -0.12699690202E+03  0.49107055602E+03  0.64190288500E+03  0.12508759020E+03 0.  0.
          5    1    3    3  502    0  0.24415745767E+03 -0.11593087920E+03  0.40353170970E+03  0.48570376365E+03  0.41800000000E+01 0. -1.
         -5    1    3    3    0  502  0.12882230643E+03 -0.11066022827E+02  0.87538846326E+02  0.15619912135E+03  0.41800000000E+01 0. -1.
        -11    1    1    2    0    0 -0.95873708891E+02  0.17425594980E+02  0.21464878357E+03  0.23573188097E+03  0.00000000000E+00 0.  1.
         11    1    1    2    0    0 -0.27710605521E+03  0.10957130704E+03  0.36956579736E+03  0.47473415270E+03  0.00000000000E+00 0. -1.
</event>
<event>
 7    1  0.2989693E-009  0.9883003E+02  0.7561462E-02  0.1282776E+00
          1   -1    0    0  501    0  0.00000000000E+00  0.00000000000E+00  0.53729520819E+03  0.53729520819E+03  0.00000000000E+00 0. -1.
         -1   -1    0    0    0  501 -0.00000000000E+00 -0.00000000000E+00 -0.36101068889E+02  0.36101068889E+02  0.00000000000E+00 0.  1.
         25    2    1    2    0    0 -0.79297146635E+02 -0.30526031098E+02  0.31313564778E+03  0.34773752394E+03  0.12509026983E+03 0.  0.
          5    1    3    3  502    0 -0.64981792488E+02 -0.25096445538E+02  0.32205712275E+03  0.32953107236E+03  0.41800000000E+01 0. -1.
         -5    1    3    3    0  502 -0.14315354147E+02 -0.54295855597E+01 -0.89214749682E+01  0.18206451585E+02  0.41800000000E+01 0. -1.
        -11    1    1    2    0    0 -0.64204601978E+01 -0.14007284363E+02  0.13812060421E+01  0.15470425156E+02  0.00000000000E+00 0.  1.
         11    1    1    2    0    0  0.85717606833E+02  0.44533315460E+02  0.18667728547E+03  0.21018832798E+03  0.00000000000E+00 0. -1.
</event>
<event>
 7    1  0.2989693E-009  0.1135761E+03  0.7561462E-02  0.1254087E+00
          2   -1    0    0  501    0  0.00000000000E+00  0.00000000000E+00  0.38935790675E+03  0.38935790675E+03  0.00000000000E+00 0. -1.
         -2   -1    0    0    0  501 -0.00000000000E+00 -0.00000000000E+00 -0.43098864889E+02  0.43098864889E+02  0.00000000000E+00 0.  1.
         25    2    1    2    0    0  0.69319340039E+02  0.10503651851E+02  0.18344654479E+03  0.23284207196E+03  0.12508916049E+03 0.  0.
          5    1    3    3  502    0 -0.25674761781E+02 -0.25284268496E+02  0.23062752357E+02  0.42986632483E+02  0.41800000000E+01 0.  1.
         -5    1    3    3    0  502  0.94994101820E+02  0.35787920347E+02  0.16038379244E+03  0.18985543948E+03  0.41800000000E+01 0.  1.
        -11    1    1    2    0    0 -0.76522987691E+02  0.22695429662E-01  0.16894079589E+03  0.18546363707E+03  0.00000000000E+00 0. -1.
         11    1    1    2    0    0  0.72036476526E+01 -0.10526347281E+02 -0.61282988174E+01  0.14151062609E+02  0.00000000000E+00 0.  1.
</event>
<event>
 7    1  0.2989693E-009  0.1324485E+03  0.7561462E-02  0.1223867E+00
         -1   -1    0    0    0  501 -0.00000000000E+00  0.00000000000E+00  0.77434415609E+02  0.77434415609E+02  0.00000000000E+00 0.  1.
          1   -1    0    0  501    0  0.00000000000E+00 -0.00000000000E+00 -0.27810535619E+03  0.27810535619E+03  0.00000000000E+00 0. -1.
         25    2    1    2    0    0  0.75538253253E+02 -0.63747525419E+02 -0.10889046583E+03  0.19306707846E+03  0.12509192034E+03 0.  0.
          5    1    3    3  502    0  0.89554298666E+02 -0.90439728748E+02 -0.76205934517E+02  0.14840530247E+03  0.41800000000E+01 0.  1.
         -5    1    3    3    0  502 -0.14016045414E+02  0.26692203329E+02 -0.32684531311E+02  0.44661775990E+02  0.41800000000E+01 0.  1.
        -11    1    1    2    0    0 -0.48928136847E+02  0.63929627252E+02 -0.15897548594E+02  0.82059075471E+02  0.00000000000E+00 0.  1.
         11    1    1    2    0    0 -0.26610116405E+02 -0.18210183319E+00 -0.75882926157E+02  0.80413617866E+02  0.00000000000E+00 0. -1.
</event>
<event>
 7    1  0.2989693E-009  0.9176403E+02  0.7561462E-02  0.1298635E+00
          1   -1    0    0  501    0  0.00000000000E+00  0.00000000000E+00  0.26956451212E+03  0.26956451212E+03  0.00000000000E+00 0. -1.
         -1   -1    0    0    0  501 -0.00000000000E+00 -0.00000000000E+00 -0.85323072311E+02  0.85323072311E+02  0.00000000000E+00 0.  1.
         25    2    1    2    0    0 -0.58002768517E+02 -0.19177103649E+02 -0.13656233341E+01  0.13921272223E+03  0.12508490974E+03 0.  0.
          5    1    3    3  502    0  0.72700441624E+01 -0.19862203989E+02  0.51034597397E+02  0.55401834093E+02  0.41800000000E+01 0.  1.
         -5    1    3    3    0  502 -0.65272812680E+02  0.68510033966E+00 -0.52400220731E+02  0.83810888137E+02  0.41800000000E+01 0.  1.
        -11    1    1    2    0    0  0.75127793598E+02  0.68131783537E+01  0.17782672908E+03  0.19316560342E+03  0.00000000000E+00 0. -1.
         11    1    1    2    0    0 -0.17125025081E+02  0.12363925296E+02  0.77803340664E+01  0.22509258782E+02  0.00000000000E+00 0.  1.
</event>
<event>
 7    1  0.2989693E-009  0.1341611E+03  0.7561462E-02  0.1221409E+00
         -2   -1    0    0    0  501 -0.00000000000E+00  0.00000000000E+00  0.89651126457E+02  0.89651126457E+02  0.00000000000E+00 0.  1.
          2   -1    0    0  501    0  0.00000000000E+00 -0.00000000000E+00 -0.32016911515E+03  0.32016911515E+03  0.00000000000E+00 0. -1.
         25    2    1    2    0    0  0.10464843431E+03 -0.23778472033E+02 -0.34987207686E+02  0.16848876212E+03  0.12509055809E+03 0.  0.
          5    1    3    3  502    0  0.76581317240E+02  0.17194638699E+02 -0.71855559013E+02  0.10649435436E+03  0.41800000000E+01 0. -1.
         -5    1    3    3    0  502  0.28067117071E+02 -0.40973110732E+02  0.36868351327E+02  0.61994407758E+02  0.41800000000E+01 0. -1.
        -11    1    1    2    0    0 -0.27143128383E+02 -0.33786293264E+02 -0.78004552986E+02  0.89235493597E+02  0.00000000000E+00 0.  1.
         11    1    1    2    0    0 -0.77505305928E+02  0.57564765297E+02 -0.11752622802E+03  0.15209598589E+03  0.00000000000E+00 0. -1.
</event>
<event>
 7    1  0.2989693E-009  0.9425570E+02  0.7561462E-02  0.1292861E+00
          4   -1    0    0  501    0  0.00000000000E+00  0.00000000000E+00  0.14945114668E+03  0.14945114668E+03  0.00000000000E+00 0. -1.
         -4   -1    0    0    0  501 -0.00000000000E+00 -0.00000000000E+00 -0.10932970670E+03  0.10932970670E+03  0.00000000000E+00 0.  1.
         25    2    1    2    0    0  0.40814606450E+01  0.42113727804E+02 -0.30616677982E+02  0.13555475546E+03  0.12508991313E+03 0.  0.
          5    1    3    3  502    0 -0.19820124370E+02 -0.18258678622E+02 -0.58670411531E+02  0.64698580079E+02  0.41800000000E+01 0.  1.
         -5    1    3    3    0  502  0.23901585015E+02  0.60372406425E+02  0.28053733549E+02  0.70856175383E+02  0.41800000000E+01 0.  1.
        -11    1    1    2    0    0 -0.45174886288E+02 -0.18819267618E+02  0.54568888843E+02  0.73298695857E+02  0.00000000000E+00 0. -1.
         11    1    1    2    0    0  0.41093425643E+02 -0.23294460186E+02  0.16169229123E+02  0.49927402064E+02  0.00000000000E+00 0.  1.
</event>
<event>
 7    1  0.2989693E-009  0.1601145E+03  0.7561462E-02  0.1188568E+00
          1   -1    0    0  501    0  0.00000000000E+00  0.00000000000E+00  0.13553799659E+03  0.13553799659E+03  0.00000000000E+00 0. -1.
         -1   -1    0    0    0  501 -0.00000000000E+00 -0.00000000000E+00 -0.29040218397E+03  0.29040218397E+03  0.00000000000E+00 0.  1.
         25    2    1    2    0    0  0.13193611779E+03  0.24239410416E+02 -0.18633740838E+03  0.26146487227E+03  0.12509021334E+03 0.  0.
          5    1    3    3  502    0 -0.52626370364E+01 -0.33180899098E+02 -0.25678454109E+02  0.42491444068E+02  0.41800000000E+01 0.  1.
         -5    1    3    3    0  502  0.13719875483E+03  0.57420309514E+02 -0.16065895427E+03  0.21897342820E+03  0.41800000000E+01 0.  1.
        -11    1    1    2    0    0 -0.98204778001E+02 -0.40804448773E+01  0.60682167290E+02  0.11551257022E+03  0.00000000000E+00 0. -1.
         11    1    1    2    0    0 -0.33731339790E+02 -0.20158965539E+02 -0.29208946287E+02  0.48962738065E+02  0.00000000000E+00 0.  1.
</event>
<event>
 7    1  0.2989693E-009  0.2018100E+03  0.7561462E-02  0.1148221E+00
          2   -1    0    0  501    0  0.00000000000E+00  0.00000000000E+00  0.45260786523E+02  0.45260786523E+02  0.00000000000E+00 0. -1.
         -2   -1    0    0    0  501 -0.00000000000E+00 -0.00000000000E+00 -0.11198298600E+04  0.11198298600E+04  0.00000000000E+00 0.  1.
         25    2    1    2    0    0 -0.18667913525E+03  0.41000168686E+02 -0.67443537958E+03  0.71206779533E+03  0.12508937020E+03 0.  0.
          5    1    3    3  502    0 -0.10225263067E+03  0.30372207719E+02 -0.55610716216E+03  0.56626029323E+03  0.41800000000E+01 0.  1.
         -5    1    3    3    0  502 -0.84426504580E+02  0.10627960967E+02 -0.11832821742E+03  0.14580750210E+03  0.41800000000E+01 0.  1.
        -11    1    1    2    0    0  0.19691525348E+03 -0.42144459219E+02 -0.38768598821E+03  0.43686633877E+03  0.00000000000E+00 0. -1.
         11    1    1    2    0    0 -0.10236118230E+02  0.11442905332E+01 -0.12447705731E+02  0.16156512470E+02  0.00000000000E+00 0.  1.
</event>
<event>
 7    1  0.2989693E-009  0.1352600E+03  0.7561462E-02  0.1219853E+00
         -2   -1    0    0    0  501 -0.00000000000E+00  0.00000000000E+00  0.99814805185E+02  0.99814805185E+02  0.00000000000E+00 0.  1.
          2   -1    0    0  501    0  0.00000000000E+00 -0.00000000000E+00 -0.20535827434E+03  0.20535827434E+03  0.00000000000E+00 0. -1.
         25    2    1    2    0    0  0.82169072717E+02 -0.32076824416E+02 -0.89648067287E+02  0.17738282122E+03  0.12508880893E+03 0.  0.
          5    1    3    3  502    0 -0.32418798128E+02  0.29092835888E+01 -0.24404816527E+02  0.40896330799E+02  0.41800000000E+01 0. -1.
         -5    1    3    3    0  502  0.11458787085E+03 -0.34986108005E+02 -0.65243250760E+02  0.13648649042E+03  0.41800000000E+01 0. -1.
        -11    1    1    2    0    0 -0.91462237927E+02  0.77625773720E+01 -0.31967631335E+02  0.97198395188E+02  0.00000000000E+00 0. -1.
         11    1    1    2    0    0  0.92931652097E+01  0.24314247044E+02  0.16072229465E+02  0.30591863116E+02  0.00000000000E+00 0.  1.
</event>
<event>
 7    1  0.2989693E-009  0.1519391E+03  0.7561462E-02  0.1198110E+00
         -2   -1    0    0    0  501 -0.00000000000E+00  0.00000000000E+00  0.10878089362E+03  0.10878089362E+03  0.00000000000E+00 0.  1.
          2   -1    0    0  501    0  0.00000000000E+00 -0.00000000000E+00 -0.25429047929E+03  0.25429047929E+03  0.00000000000E+00 0. -1.
         25    2    1    2    0    0  0.86961631758E+02  0.69870131347E+02 -0.11168124001E+03  0.20140345748E+03  0.12508594110E+03 0.  0.
          5    1    3    3  502    0  0.11890836639E+02  0.79313385060E+02 -0.93916950243E+02  0.12357131944E+03  0.41800000000E+01 0. -1.
         -5    1    3    3    0  502  0.75070795119E+02 -0.94432537134E+01 -0.17764289772E+02  0.77832138038E+02  0.41800000000E+01 0. -1.
        -11    1    1    2    0    0 -0.38992159542E+02 -0.88203894795E+02  0.60812236086E+01  0.96629689244E+02  0.00000000000E+00 0.  1.
         11    1    1    2    0    0 -0.47969472216E+02  0.18333763448E+02 -0.39909569262E+02  0.65038226187E+02  0.00000000000E+00 0. -1.
</event>
<event>
 7    1  0.2989693E-009  0.9656234E+02  0.7561462E-02  0.1287696E+00
         -1   -1    0    0    0  501 -0.00000000000E+00  0.00000000000E+00  0.27746070428E+02  0.27746070428E+02  0.00000000000E+00 0.  1.
          1   -1    0    0  501    0  0.00000000000E+00 -0.00000000000E+00 -0.55079112962E+03  0.55079112962E+03  0.00000000000E+00 0. -1.
         25    2    1    2    0    0 -0.31851691635E+02 -0.44478940032E+02 -0.28547204491E+03  0.31644342970E+03  0.12509696001E+03 0.  0.
          5    1    3    3  502    0 -0.64794352467E+02 -0.33496360828E+02 -0.26714812538E+03  0.27695831382E+03  0.41800000000E+01 0. -1.
         -5    1    3    3    0  502  0.32942660832E+02 -0.10982579204E+02 -0.18323919537E+02  0.39485115877E+02  0.41800000000E+01 0. -1.
        -11    1    1    2    0    0  0.42215526442E+02  0.55650108273E+02 -0.23674337199E+03  0.24683295851E+03  0.00000000000E+00 0. -1.
         11    1    1    2    0    0 -0.10363834807E+02 -0.11171168241E+02 -0.82964228396E+00  0.15260811843E+02  0.00000000000E+00 0.  1.
</event>
<event>
 7    1  0.2989693E-009  0.1244655E+03  0.7561462E-02  0.1235907E+00
          2   -1    0    0  501    0  0.00000000000E+00  0.00000000000E+00  0.10148735277E+04  0.10148735277E+04  0.00000000000E+00 0. -1.
         -2   -1    0    0    0  501 -0.00000000000E+00 -0.00000000000E+00 -0.31163535287E+02  0.31163535287E+02  0.00000000000E+00 0.  1.
         25    2    1    2    0    0 -0.90075220392E+02 -0.10687684552E+02  0.82766961762E+03  0.84196882036E+03  0.12508687619E+03 0.  0.
          5    1    3    3  502    0 -0.91707178885E+02 -0.35978611873E+02  0.79143572040E+03  0.79755416061E+03  0.41800000000E+01 0.  1.
         -5    1    3    3    0  502  0.16319584936E+01  0.25290927321E+02  0.36233897213E+02  0.44414659748E+02  0.41800000000E+01 0.  1.
        -11    1    1    2    0    0  0.85033896136E+01 -0.31627007959E+02  0.15700651807E+02  0.36319219905E+02  0.00000000000E+00 0.  1.
         11    1    1    2    0    0  0.81571830778E+02  0.42314692512E+02  0.14033972302E+03  0.16774902276E+03  0.00000000000E+00 0. -1.
</event>
<event>
 7    1  0.2989693E-009  0.1672076E+03  0.7561462E-02  0.1180792E+00
          1   -1    0    0  501    0  0.00000000000E+00  0.00000000000E+00  0.47455425633E+03  0.47455425633E+03  0.00000000000E+00 0. -1.
         -1   -1    0    0    0  501 -0.00000000000E+00 -0.00000000000E+00 -0.10064635743E+03  0.10064635743E+03  0.00000000000E+00 0.  1.
         25    2    1    2    0    0  0.63078604415E+02 -0.14444938554E+03  0.32552272109E+03  0.38269546847E+03  0.12508494843E+03 0.  0.
          5    1    3    3  502    0  0.13558635122E+02 -0.24012318488E+02 -0.41625926887E+01  0.28199780202E+02  0.41800000000E+01 0.  1.
         -5    1    3    3    0  502  0.49519969293E+02 -0.12043706705E+03  0.32968531378E+03  0.35449568826E+03  0.41800000000E+01 0.  1.
        -11    1    1    2    0    0 -0.81338740646E+02  0.12801565025E+03  0.16958091483E+02  0.15261577345E+03  0.00000000000E+00 0.  1.
         11    1    1    2    0    0  0.18260136232E+02  0.16433735290E+02  0.31427086332E+02  0.39889371844E+02  0.00000000000E+00 0. -1.
</event>
<event>
 7    1  0.2989693E-009  0.1292205E+03  0.7561462E-02  0.1228617E+00
          2   -1    0    0  501    0  0.00000000000E+00  0.00000000000E+00  0.14029089904E+04  0.14029089904E+04  0.00000000000E+00 0. -1.
         -2   -1    0    0    0  501 -0.00000000000E+00 -0.00000000000E+00 -0.25232333107E+02  0.25232333107E+02  0.00000000000E+00 0.  1.
         25    2    1    2    0    0 -0.58086576386E+02 -0.11101847129E+03  0.10760029440E+04  0.10904716777E+04  0.12508794101E+03 0.  0.
          5    1    3    3  502    0 -0.40162547633E+02 -0.49665659800E+02  0.91439384926E+03  0.91663149191E+03  0.41800000000E+01 0. -1.
         -5    1    3    3    0  502 -0.17924028753E+02 -0.61352811486E+02  0.16160909477E+03  0.17384018580E+03  0.41800000000E+01 0. -1.
        -11    1    1    2    0    0  0.44008688991E+02  0.45257688103E+02  0.61027208110E+02  0.87802865379E+02  0.00000000000E+00 0.  1.
         11    1    1    2    0    0  0.14077887395E+02  0.65760783183E+02  0.24064650519E+03  0.24986678046E+03  0.00000000000E+00 0. -1.
</event>
<event>
 7    1  0.2989693E-009  0.9143659E+02  0.7561462E-02  0.1299410E+00
         -1   -1    0    0    0  501 -0.00000000000E+00  0.00000000000E+00  0.40311243813E+02  0.40311243813E+02  0.00000000000E+00 0. -1.
          1   -1    0    0  501    0  0.00000000000E+00 -0.00000000000E+00 -0.72375047232E+03  0.72375047232E+03  0.00000000000E+00 0.  1.
         25    2    1    2    0    0 -0.19559022301E+02  0.45690871327E+02 -0.63556818014E+03  0.64966500146E+03  0.12508993338E+03 0.  0.
          5    1    3    3  502    0 -0.33350692705E+01  0.87554719595E+02 -0.36696639755E+03  0.37730459968E+03  0.41800000000E+01 0.  1.
         -5    1    3    3    0  502 -0.16223953030E+02 -0.41863848268E+02 -0.26860178259E+03  0.27236040178E+03  0.41800000000E+01 0.  1.
        -11    1    1    2    0    0  0.46038563061E+01 -0.18142672628E+02 -0.72282476927E+02  0.74666649407E+02  0.00000000000E+00 0.  1.
         11    1    1    2    0    0  0.14955165995E+02 -0.27548198699E+02  0.24411428564E+02  0.39730065266E+02  0.00000000000E+00 0. -1.
</event>
<event>
 7    1  0.2989693E-009  0.1827128E+03  0.7561462E-02  0.1165203E+00
          2   -1    0    0  501    0  0.00000000000E+00  0.00000000000E+00  0.18361999680E+03  0.18361999680E+03  0.00000000000E+00 0. -1.
         -2   -1    0    0    0  501 -0.00000000000E+00 -0.00000000000E+00 -0.21784560234E+03  0.21784560234E+03  0.00000000000E+00 0.  1.
         25    2    1    2    0    0  0.13267691239E+03 -0.69814027228E+02 -0.91907087050E+02  0.21581416302E+03  0.12510666981E+03 0.  0.
          5    1    3    3  502    0  0.13678671376E+03 -0.15439271093E+02 -0.48560085082E+02  0.14602921084E+03  0.41800000000E+01 0. -1.
         -5    1    3    3    0  502 -0.41098013734E+01 -0.54374756135E+02 -0.43347001968E+02  0.69784952186E+02  0.41800000000E+01 0. -1.
        -11    1    1    2    0    0 -0.25086749525E+02  0.59936080806E+02  0.39642775730E+02  0.76113260682E+02  0.00000000000E+00 0.  1.
         11    1    1    2    0    0 -0.10759016286E+03  0.98779464222E+01  0.18038705775E+02  0.10953817543E+03  0.00000000000E+00 0. -1.
</event>
<event>
 7    1  0.2989693E-009  0.1321033E+03  0.7561462E-02  0.1224368E+00
          2   -1    0    0  501    0  0.00000000000E+00  0.00000000000E+00  0.62523315944E+03  0.62523315944E+03  0.00000000000E+00 0. -1.
         -2   -1    0    0    0  501 -0.00000000000E+00 -0.00000000000E+00 -0.38002253127E+02  0.38002253127E+02  0.00000000000E+00 0.  1.
         25    2    1    2    0    0  0.10884798703E+03  0.47641744754E+02  0.32268685224E+03  0.36591472482E+03  0.12509660713E+03 0.  0.
          5    1    3    3  502    0 -0.18276690359E+01  0.11578351726E+02  0.18563932014E+03  0.18605598132E+03  0.41800000000E+01 0. -1.
         -5    1    3    3    0  502  0.11067565606E+03  0.36063393028E+02  0.13704753210E+03  0.17985874351E+03  0.41800000000E+01 0. -1.
        -11    1    1    2    0    0 -0.70328838288E+00  0.11839640127E+02  0.17201248466E+02  0.20893890056E+02  0.00000000000E+00 0.  1.
         11    1    1    2    0    0 -0.10814469864E+03 -0.59481384881E+02  0.24734280561E+03  0.27642679769E+03  0.00000000000E+00 0. -1.
</event>
<event>
 7    1  0.2989693E-009  0.6766850E+02  0.7561462E-02  0.1368206E+00
         -2   -1    0    0    0  501 -0.00000000000E+00  0.00000000000E+00  0.40018387698E+02  0.40018387698E+02  0.00000000000E+00 0.  1.
          2   -1    0    0  501    0  0.00000000000E+00 -0.00000000000E+00 -0.30187658445E+03  0.30187658445E+03  0.00000000000E+00 0. -1.
         25    2    1    2    0    0  0.46951809408E+01  0.82560729844E+01 -0.18125798366E+03  0.22043494594E+03  0.12508757447E+03 0.  0.
          5    1    3    3  502    0 -0.19550117063E+01 -0.42658384882E+02 -0.13554801532E+02  0.44997387880E+02  0.41800000000E+01 0. -1.
         -5    1    3    3    0  502  0.66501926472E+01  0.50914457866E+02 -0.16770318213E+03  0.17543755806E+03  0.41800000000E+01 0. -1.
        -11    1    1    2    0    0 -0.17426845746E+01 -0.24419746946E+02  0.12104243300E+02  0.27310688316E+02  0.00000000000E+00 0.  1.
         11    1    1    2    0    0 -0.29524963662E+01  0.16163673962E+02 -0.92704456393E+02  0.94149337894E+02  0.00000000000E+00 0. -1.
</event>
<event>
 7    1  0.2989693E-009  0.2359646E+03  0.7561462E-02  0.1122511E+00
         -1   -1    0    0    0  501 -0.00000000000E+00  0.00000000000E+00  0.12863318357E+03  0.12863318357E+03  0.00000000000E+00 0.  1.
          1   -1    0    0  501    0  0.00000000000E+00 -0.00000000000E+00 -0.48314823154E+03  0.48314823154E+03  0.00000000000E+00 0. -1.
         25    2    1    2    0    0  0.58203130137E+02  0.20941662600E+03 -0.11594408762E+03  0.27628506073E+03  0.12508987059E+03 0.  0.
          5    1    3    3  502    0 -0.33823817522E+02  0.10916863658E+03 -0.46587886925E+02  0.12348985971E+03  0.41800000000E+01 0.  1.
         -5    1    3    3    0  502  0.92026947659E+02  0.10024798942E+03 -0.69356200690E+02  0.15279520101E+03  0.41800000000E+01 0.  1.
        -11    1    1    2    0    0 -0.58423636758E+02 -0.13622127968E+03 -0.10005771201E+03  0.17883261476E+03  0.00000000000E+00 0.  1.
         11    1    1    2    0    0  0.22050662090E+00 -0.73195346323E+02 -0.13851324835E+03  0.15666373963E+03  0.00000000000E+00 0. -1.
</event>
<event>
 7    1  0.2989693E-009  0.1518839E+03  0.7561462E-02  0.1198177E+00
          2   -1    0    0  501    0  0.00000000000E+00  0.00000000000E+00  0.11774134127E+03  0.11774134127E+03  0.00000000000E+00 0. -1.
         -2   -1    0    0    0  501 -0.00000000000E+00 -0.00000000000E+00 -0.23306726931E+03  0.23306726931E+03  0.00000000000E+00 0.  1.
         25    2    1    2    0    0  0.11028405786E+03  0.63865709344E+02 -0.58104550128E+02  0.18778897906E+03  0.12508860726E+03 0.  0.
          5    1    3    3  502    0  0.16173852015E+02  0.68463953328E+02  0.10379084624E+02  0.71232746626E+02  0.41800000000E+01 0. -1.
         -5    1    3    3    0  502  0.94110205842E+02 -0.45982439837E+01 -0.68483634752E+02  0.11655623244E+03  0.41800000000E+01 0. -1.
        -11    1    1    2    0    0 -0.73925373708E+02 -0.10883450612E+02 -0.64028074269E+02  0.98402259475E+02  0.00000000000E+00 0.  1.
         11    1    1    2    0    0 -0.36358684149E+02 -0.52982258732E+02  0.68066963594E+01  0.64617372035E+02  0.00000000000E+00 0. -1.
</event>
<event>
 7    1  0.2989693E-009  0.1014337E+03  0.7561462E-02  0.1277310E+00
          2   -1    0    0  501    0  0.00000000000E+00  0.00000000000E+00  0.48125098020E+03  0.48125098020E+03  0.00000000000E+00 0. -1.
         -2   -1    0    0    0  501 -0.00000000000E+00 -0.00000000000E+00 -0.28955834466E+02  0.28955834466E+02  0.00000000000E+00 0.  1.
         25    2    1    2    0    0  0.20780980295E+01 -0.13334062119E+02  0.26217863677E+03  0.29080492764E+03  0.12509097753E+03 0.  0.
          5    1    3    3  502    0  0.33068293082E+01 -0.66593034295E+02  0.10184480389E+03  0.12180067248E+03  0.41800000000E+01 0.  1.
         -5    1    3    3    0  502 -0.12287312787E+01  0.53258972176E+02  0.16033383288E+03  0.16900425516E+03  0.41800000000E+01 0.  1.
        -11    1    1    2    0    0  0.25235250159E+02  0.38136958125E+02  0.17260934531E+03  0.17856436238E+03  0.00000000000E+00 0. -1.
         11    1    1    2    0    0 -0.27313348188E+02 -0.24802896006E+02  0.17507163659E+02  0.40837524643E+02  0.00000000000E+00 0.  1.
</event>
<event>
 7    1  0.2989693E-009  0.9603047E+02  0.7561462E-02  0.1288872E+00
          1   -1    0    0  501    0  0.00000000000E+00  0.00000000000E+00  0.19422213213E+03  0.19422213213E+03  0.00000000000E+00 0. -1.
         -1   -1    0    0    0  501 -0.00000000000E+00 -0.00000000000E+00 -0.69649948349E+02  0.69649948349E+02  0.00000000000E+00 0.  1.
         25    2    1    2    0    0 -0.20613567487E+01 -0.37108350228E+02  0.98026906166E+02  0.16321658959E+03  0.12509637060E+03 0.  0.
          5    1    3    3  502    0  0.60107869629E+02 -0.13311375625E+02  0.32613353412E+02  0.69794354594E+02  0.41800000000E+01 0. -1.
         -5    1    3    3    0  502 -0.62169226378E+02 -0.23796974603E+02  0.65413552754E+02  0.93422235001E+02  0.41800000000E+01 0. -1.
        -11    1    1    2    0    0  0.10465722448E+02 -0.10786438141E+02  0.45915672259E+02  0.48312809411E+02  0.00000000000E+00 0. -1.
         11    1    1    2    0    0 -0.84043656995E+01  0.47894788369E+02 -0.19370394640E+02  0.52342681478E+02  0.00000000000E+00 0.  1.
</event>
<event>
 7    1  0.2989693E-009  0.1259288E+03  0.7561462E-02  0.1233625E+00
         -2   -1    0    0    0  501 -0.00000000000E+00  0.00000000000E+00  0.30376732590E+02  0.30376732590E+02  0.00000000000E+00 0.  1.
          2   -1    0    0  501    0  0.00000000000E+00 -0.00000000000E+00 -0.68340401448E+03  0.68340401448E+03  0.00000000000E+00 0. -1.
         25    2    1    2    0    0  0.59194028705E+02 -0.70999612619E+02 -0.37170122038E+03  0.40293168881E+03  0.12508905061E+03 0.  0.
          5    1    3    3  502    0  0.88064273959E+02 -0.62989106456E+02 -0.18995816195E+03  0.21868817886E+03  0.41800000000E+01 0. -1.
         -5    1    3    3    0  502 -0.28870245253E+02 -0.80105061631E+01 -0.18174305843E+03  0.18424350995E+03  0.41800000000E+01 0. -1.
        -11    1    1    2    0    0 -0.27799964678E+02 -0.74283544595E+01 -0.17158686158E+02  0.33502820728E+02  0.00000000000E+00 0.  1.
         11    1    1    2    0    0 -0.31394064027E+02  0.78427967079E+02 -0.26416737535E+03  0.27734623754E+03  0.00000000000E+00 0. -1.
</event>
<event>
 7    1  0.2989693E-009  0.1025733E+03  0.7561462E-02  0.1274976E+00
         -2   -1    0    0    0  501 -0.00000000000E+00  0.00000000000E+00  0.69000557854E+02  0.69000557854E+02  0.00000000000E+00 0. -1.
          2   -1    0    0  501    0  0.00000000000E+00 -0.00000000000E+00 -0.22071649826E+03  0.22071649826E+03  0.00000000000E+00 0.  1.
         25    2    1    2    0    0  0.16860778244E+02  0.30524887175E+02 -0.30359331349E+02  0.13336502193E+03  0.12509390670E+03 0.  0.
          5    1    3    3  502    0  0.15542093291E+02  0.69698483875E+02 -0.51963841297E+02  0.88414639741E+02  0.41800000000E+01 0. -1.
         -5    1    3    3    0  502  0.13186849532E+01 -0.39173596699E+02  0.21604509948E+02  0.44950382184E+02  0.41800000000E+01 0. -1.
        -11    1    1    2    0    0 -0.22517797926E+02  0.27699491885E+02 -0.24833601856E+02  0.43485869605E+02  0.00000000000E+00 0.  1.
         11    1    1    2    0    0  0.56570196819E+01 -0.58224379061E+02 -0.96523007206E+02  0.11286616459E+03  0.00000000000E+00 0. -1.
</event>
<event>
 7    1  0.2989693E-009  0.5843065E+02  0.7561462E-02  0.1404538E+00
          1   -1    0    0  501    0  0.00000000000E+00  0.00000000000E+00  0.35384285522E+03  0.35384285522E+03  0.00000000000E+00 0. -1.
         -1   -1    0    0    0  501 -0.00000000000E+00 -0.00000000000E+00 -0.35229276098E+02  0.35229276098E+02  0.00000000000E+00 0.  1.
         25    2    1    2    0    0  0.22046430249E+02  0.20030478716E+02  0.14804578353E+03  0.19609992064E+03  0.12510139764E+03 0.  0.
          5    1    3    3  502    0 -0.18748625897E+02  0.79873058022E+01 -0.16210852018E+02  0.26373701866E+02  0.41800000000E+01 0.  1.
         -5    1    3    3    0  502  0.40795056146E+02  0.12043172914E+02  0.16425663555E+03  0.16972621878E+03  0.41800000000E+01 0.  1.
        -11    1    1    2    0    0  0.74522630989E+01  0.91659754903E+01 -0.48065120095E+01  0.12753583406E+02  0.00000000000E+00 0.  1.
         11    1    1    2    0    0 -0.29498693348E+02 -0.29196454206E+02  0.17537430760E+03  0.18021862727E+03  0.00000000000E+00 0. -1.
</event>
<event>
 7    1  0.2989693E-009  0.1184373E+03  0.7561462E-02  0.1245697E+00
          2   -1    0    0  501    0  0.00000000000E+00  0.00000000000E+00  0.64683553743E+03  0.64683553743E+03  0.00000000000E+00 0. -1.
         -2   -1    0    0    0  501 -0.00000000000E+00 -0.00000000000E+00 -0.33563975877E+02  0.33563975877E+02  0.00000000000E+00 0.  1.
         25    2    1    2    0    0 -0.56375227530E+02  0.62644650963E+02  0.45662707381E+03  0.48089376115E+03  0.12509199176E+03 0.  0.
          5    1    3    3  502    0 -0.85118768122E+02  0.38149842814E+02  0.19141367248E+03  0.21297249025E+03  0.41800000000E+01 0. -1.
         -5    1    3    3    0  502  0.28743540591E+02  0.24494808149E+02  0.26521340134E+03  0.26792127090E+03  0.41800000000E+01 0. -1.
        -11    1    1    2    0    0 -0.13234698425E+02 -0.24034097338E+01 -0.42759569692E+01  0.14114440433E+02  0.00000000000E+00 0.  1.
         11    1    1    2    0    0  0.69609925955E+02 -0.60241241229E+02  0.16092044470E+03  0.18539131172E+03  0.00000000000E+00 0. -1.
</event>
<event>
 7    1  0.2989693E-009  0.1151408E+03  0.7561462E-02  0.1251335E+00
          2   -1    0    0  501    0  0.00000000000E+00  0.00000000000E+00  0.69359270661E+03  0.69359270661E+03  0.00000000000E+00 0. -1.
         -2   -1    0    0    0  501 -0.00000000000E+00 -0.00000000000E+00 -0.20786706130E+02  0.20786706130E+02  0.00000000000E+00 0.  1.
         25    2    1    2    0    0  0.94953196789E-02  0.50637303371E+02  0.42282277063E+03  0.44383720604E+03  0.12509289954E+03 0.  0.
          5    1    3    3  502    0 -0.52788509139E+02 -0.10074319035E+02  0.15140411793E+03  0.16071340308E+03  0.41800000000E+01 0. -1.
         -5    1    3    3    0  502  0.52798004459E+02  0.60711622406E+02  0.27141865270E+03  0.28312380296E+03  0.41800000000E+01 0. -1.
        -11    1    1    2    0    0  0.40653121182E+02 -0.26407903129E+02  0.17727613950E+03  0.18378488307E+03  0.00000000000E+00 0. -1.
         11    1    1    2    0    0 -0.40662616502E+02 -0.24229400242E+02  0.72707090350E+02  0.86757323633E+02  0.00000000000E+00 0.  1.
</event>
<event>
 7    1  0.2989693E-009  0.1044012E+03  0.7561462E-02  0.1271304E+00
         -4   -1    0    0    0  501 -0.00000000000E+00  0.00000000000E+00  0.37331711458E+03  0.37331711458E+03  0.00000000000E+00 0.  1.
          4   -1    0    0  501    0  0.00000000000E+00 -0.00000000000E+00 -0.43877214026E+02  0.43877214026E+02  0.00000000000E+00 0. -1.
         25    2    1    2    0    0  0.35474243652E+02  0.52436760568E+02  0.21890178606E+03  0.25995020516E+03  0.12509229153E+03 0.  0.
          5    1    3    3  502    0  0.54301037106E+02 -0.24041791808E+02  0.74009394107E+02  0.94981436082E+02  0.41800000000E+01 0. -1.
         -5    1    3    3    0  502 -0.18826793454E+02  0.76478552376E+02  0.14489239195E+03  0.16496876908E+03  0.41800000000E+01 0. -1.
        -11    1    1    2    0    0 -0.75184108196E+01 -0.38374689823E+02  0.11864057960E+03  0.12491889548E+03  0.00000000000E+00 0.  1.
         11    1    1    2    0    0 -0.27955832833E+02 -0.14062070745E+02 -0.81024650951E+01  0.32325227975E+02  0.00000000000E+00 0. -1.
</event>
<event>
 7    1  0.2989693E-009  0.8936540E+02  0.7561462E-02  0.1304396E+00
          2   -1    0    0  501    0  0.00000000000E+00  0.00000000000E+00  0.55322423009E+03  0.55322423009E+03  0.00000000000E+00 0. -1.
         -2   -1    0    0    0  501 -0.00000000000E+00 -0.00000000000E+00 -0.30167103324E+02  0.30167103324E+02  0.00000000000E+00 0.  1.
         25    2    1    2    0    0  0.57596099883E+02  0.91659652756E+01  0.20073684415E+03  0.24360905669E+03  0.12509502892E+03 0.  0.
          5    1    3    3  502    0  0.36449108466E+02 -0.19465248474E+02  0.20347075574E+03  0.20766620873E+03  0.41800000000E+01 0.  1.
         -5    1    3    3    0  502  0.21146991417E+02  0.28631213749E+02 -0.27339115931E+01  0.35942847958E+02  0.41800000000E+01 0.  1.
        -11    1    1    2    0    0  0.40186899589E+01 -0.34505119958E+02  0.17026227109E+03  0.17376994599E+03  0.00000000000E+00 0.  1.
         11    1    1    2    0    0 -0.61614789842E+02  0.25339154683E+02  0.15205801153E+03  0.16601233074E+03  0.00000000000E+00 0. -1.
</event>
<event>
 7    1  0.2989693E-009  0.7294679E+02  0.7561462E-02  0.1350350E+00
          1   -1    0    0  501    0  0.00000000000E+00  0.00000000000E+00  0.94524482261E+03  0.94524482261E+03  0.00000000000E+00 0. -1.
         -1   -1    0    0    0  501 -0.00000000000E+00 -0.00000000000E+00 -0.14900445308E+02  0.14900445308E+02  0.00000000000E+00 0.  1.
         25    2    1    2    0    0  0.15825360866E+02 -0.37733577167E+02  0.63389083974E+03  0.64740989107E+03  0.12509078886E+03 0.  0.
          5    1    3    3  502    0  0.18833376695E+02 -0.67090899647E+01  0.10026289548E+02  0.22753172262E+02  0.41800000000E+01 0.  1.
         -5    1    3    3    0  502 -0.30080158294E+01 -0.31024487202E+02  0.62386455019E+03  0.62465671881E+03  0.41800000000E+01 0.  1.
        -11    1    1    2    0    0  0.34662881551E+02  0.85427073216E+01  0.16667226900E+03  0.17045274553E+03  0.00000000000E+00 0. -1.
         11    1    1    2    0    0 -0.50488242417E+02  0.29190869845E+02  0.12978126857E+03  0.14228263132E+03  0.00000000000E+00 0.  1.
</event>
<event>
 7    1  0.2989693E-009  0.1240765E+03  0.7561462E-02  0.1236520E+00
          2   -1    0    0  501    0  0.00000000000E+00  0.00000000000E+00  0.20596005511E+03  0.20596005511E+03  0.00000000000E+00 0.  1.
         -2   -1    0    0    0  501 -0.00000000000E+00 -0.00000000000E+00 -0.16746965702E+03  0.16746965702E+03  0.00000000000E+00 0. -1.
         25    2    1    2    0    0 -0.57508630672E+02 -0.40376095264E+02 -0.11229470672E+03  0.18218622128E+03  0.12507696189E+03 0.  0.
          5    1    3    3  502    0 -0.93286482254E+02 -0.28035729586E+02 -0.51008813164E+02  0.11003518221E+03  0.41800000000E+01 0. -1.
         -5    1    3    3    0  502  0.35777851582E+02 -0.12340365678E+02 -0.61285893559E+02  0.72151039065E+02  0.41800000000E+01 0. -1.
        -11    1    1    2    0    0  0.78047256278E+01 -0.27423097433E+02  0.65762570181E+02  0.71677441721E+02  0.00000000000E+00 0.  1.
         11    1    1    2    0    0  0.49703905044E+02  0.67799192697E+02  0.85022534636E+02  0.11956604912E+03  0.00000000000E+00 0. -1.
</event>
<event>
 7    1  0.2989693E-009  0.1762094E+03  0.7561462E-02  0.1171523E+00
         -2   -1    0    0    0  501 -0.00000000000E+00  0.00000000000E+00  0.43875844949E+02  0.43875844949E+02  0.00000000000E+00 0.  1.
          2   -1    0    0  501    0  0.00000000000E+00 -0.00000000000E+00 -0.10587391433E+04  0.10587391433E+04  0.00000000000E+00 0. -1.
         25    2    1    2    0    0  0.50328537045E+02 -0.14426145378E+03 -0.79838259417E+03  0.82243960386E+03  0.12509119324E+03 0.  0.
          5    1    3    3  502    0 -0.39281906906E+02 -0.26974008121E+02 -0.14942102647E+03  0.15689098405E+03  0.41800000000E+01 0. -1.
         -5    1    3    3    0  502  0.89610443951E+02 -0.11728744566E+03 -0.64896156770E+03  0.66554861981E+03  0.41800000000E+01 0. -1.
        -11    1    1    2    0    0 -0.13958002172E+02  0.93160628655E+02 -0.19004330220E+03  0.21210889954E+03  0.00000000000E+00 0.  1.
         11    1    1    2    0    0 -0.36370534873E+02  0.51100825125E+02 -0.26437401977E+02  0.68066484842E+02  0.00000000000E+00 0. -1.
</event>
<event>
 7    1  0.2989693E-009  0.1410499E+03  0.7561462E-02  0.1211923E+00
          2   -1    0    0  501    0  0.00000000000E+00  0.00000000000E+00  0.47002658345E+03  0.47002658345E+03  0.00000000000E+00 0.  1.
         -2   -1    0    0    0  501 -0.00000000000E+00 -0.00000000000E+00 -0.43510179912E+02  0.43510179912E+02  0.00000000000E+00 0. -1.
         25    2    1    2    0    0  0.89709471107E+02 -0.83448398137E+01  0.19145223890E+03  0.24580376014E+03  0.12509237851E+03 0.  0.
          5    1    3    3  502    0  0.12751545822E+02 -0.59860260062E+02  0.71686152869E+02  0.94351627271E+02  0.41800000000E+01 0.  1.
         -5    1    3    3    0  502  0.76957925285E+02  0.51515420248E+02  0.11976608603E+03  0.15145213287E+03  0.41800000000E+01 0.  1.
        -11    1    1    2    0    0 -0.86625725332E+02  0.40586340556E+02  0.17063442086E+03  0.19562048183E+03  0.00000000000E+00 0. -1.
         11    1    1    2    0    0 -0.30837457749E+01 -0.32241500742E+02  0.64429743777E+02  0.72112521390E+02  0.00000000000E+00 0.  1.
</event>
<event>
 7    1  0.2989693E-009  0.1521025E+03  0.7561462E-02  0.1197913E+00
          2   -1    0    0  501    0  0.00000000000E+00  0.00000000000E+00  0.49821043014E+03  0.49821043014E+03  0.00000000000E+00 0. -1.
         -2   -1    0    0    0  501 -0.00000000000E+00 -0.00000000000E+00 -0.61558446220E+02  0.61558446220E+02  0.00000000000E+00 0.  1.
         25    2    1    2    0    0 -0.11493951650E+03 -0.56652314604E+02  0.29588306922E+03  0.34585214213E+03  0.12508531633E+03 0.  0.
          5    1    3    3  502    0  0.16823482634E+02  0.16461288796E+02  0.18784025825E+02  0.30402559480E+02  0.41800000000E+01 0.  1.
         -5    1    3    3    0  502 -0.13176299913E+03 -0.73113603400E+02  0.27709904339E+03  0.31544958265E+03  0.41800000000E+01 0.  1.
        -11    1    1    2    0    0  0.68505446073E+02  0.44026095241E+02  0.14427395232E+03  0.16566914776E+03  0.00000000000E+00 0. -1.
         11    1    1    2    0    0  0.46434070427E+02  0.12626219363E+02 -0.35050376114E+01  0.48247586473E+02  0.00000000000E+00 0.  1.
</event>
<event>
 7    1  0.2989693E-009  0.1348959E+03  0.7561462E-02  0.1220367E+00
         -2   -1    0    0    0  501 -0.00000000000E+00  0.00000000000E+00  0.51258984791E+02  0.51258984791E+02  0.00000000000E+00 0.  1.
          2   -1    0    0  501    0  0.00000000000E+00 -0.00000000000E+00 -0.50006111367E+03  0.50006111367E+03  0.00000000000E+00 0. -1.
         25    2    1    2    0    0  0.54960996771E+02 -0.62556032358E+02 -0.10167112667E+03  0.18143362655E+03  0.12508866653E+03 0.  0.
          5    1    3    3  502    0 -0.21906942744E+02  0.19531235143E+02 -0.48793178045E+02  0.57093168683E+02  0.41800000000E+01 0. -1.
         -5    1    3    3    0  502  0.76867939515E+02 -0.82087267501E+02 -0.52877948622E+02  0.12434045786E+03  0.41800000000E+01 0. -1.
        -11    1    1    2    0    0 -0.64614302783E+02  0.82891176250E+02 -0.29190738361E+03  0.31025131076E+03  0.00000000000E+00 0.  1.
         11    1    1    2    0    0  0.96533060111E+01 -0.20335143893E+02 -0.55223618603E+02  0.59635161153E+02  0.00000000000E+00 0. -1.
</event>
<event>
 7    1  0.2989693E-009  0.8729319E+02  0.7561462E-02  0.1309542E+00
         -1   -1    0    0    0  501 -0.00000000000E+00  0.00000000000E+00  0.24951201908E+02  0.24951201908E+02  0.00000000000E+00 0.  1.
          1   -1    0    0  501    0  0.00000000000E+00 -0.00000000000E+00 -0.55362902310E+03  0.55362902310E+03  0.00000000000E+00 0. -1.
         25    2    1    2    0    0 -0.21115238666E+02 -0.34641081240E+02 -0.26139521164E+03  0.29261166025E+03  0.12509304232E+03 0.  0.
          5    1    3    3  502    0  0.34448207044E+02 -0.44177236431E+02 -0.55012137061E+02  0.78626425655E+02  0.41800000000E+01 0. -1.
         -5    1    3    3    0  502 -0.55563445710E+02  0.95361551909E+01 -0.20638307457E+03  0.21398523460E+03  0.41800000000E+01 0. -1.
        -11    1    1    2    0    0  0.35047973250E+02  0.32472623012E+02 -0.26763234186E+03  0.27186375647E+03  0.00000000000E+00 0. -1.
         11    1    1    2    0    0 -0.13932734584E+02  0.21684582283E+01  0.34973230037E+00  0.14104808285E+02  0.00000000000E+00 0.  1.
</event>
<event>
 7    1  0.2989693E-009  0.1061763E+03  0.7561462E-02  0.1267819E+00
          2   -1    0    0  501    0  0.00000000000E+00  0.00000000000E+00  0.24019813528E+03  0.24019813528E+03  0.00000000000E+00 0. -1.
         -2   -1    0    0    0  501 -0.00000000000E+00 -0.00000000000E+00 -0.13199927616E+03  0.13199927616E+03  0.00000000000E+00 0.  1.
         25    2    1    2    0    0  0.44027724691E+02 -0.36575007669E+02  0.19189800405E+03  0.23611128242E+03  0.12509005556E+03 0.  0.
          5    1    3    3  502    0 -0.36882370701E+02  0.14369770229E+02  0.38959978380E+02  0.55696964732E+02  0.41800000000E+01 0. -1.
         -5    1    3    3    0  502  0.80910095392E+02 -0.50944777897E+02  0.15293802567E+03  0.18041431769E+03  0.41800000000E+01 0. -1.
        -11    1    1    2    0    0 -0.36573128562E+02  0.49726734364E+02 -0.12092740393E+02  0.62901321239E+02  0.00000000000E+00 0. -1.
         11    1    1    2    0    0 -0.74545961287E+01 -0.13151726696E+02 -0.71606404539E+02  0.73184807778E+02  0.00000000000E+00 0.  1.
</event>
<event>
 7    1  0.2989693E-009  0.1044259E+03  0.7561462E-02  0.1271255E+00
         -2   -1    0    0    0  501 -0.00000000000E+00  0.00000000000E+00  0.16205382866E+03  0.16205382866E+03  0.00000000000E+00 0.  1.
          2   -1    0    0  501    0  0.00000000000E+00 -0.00000000000E+00 -0.20138806905E+03  0.20138806905E+03  0.00000000000E+00 0. -1.
         25    2    1    2    0    0 -0.37188972359E+01  0.10074398396E+03  0.81679658473E+02  0.18024204418E+03  0.12510974135E+03 0.  0.
          5    1    3    3  502    0 -0.41632108329E+01  0.72492636968E+02 -0.19342001401E+02  0.75260216298E+02  0.41800000000E+01 0. -1.
         -5    1    3    3    0  502  0.44431359697E+00  0.28251346997E+02  0.10102165987E+03  0.10498182788E+03  0.41800000000E+01 0. -1.
        -11    1    1    2    0    0  0.19573515434E+02 -0.36854657523E+02  0.39926478564E+01  0.41920514364E+02  0.00000000000E+00 0.  1.
         11    1    1    2    0    0 -0.15854618199E+02 -0.63889326441E+02 -0.12500654672E+03  0.14127933916E+03  0.00000000000E+00 0. -1.
</event>
<event>
 7    1  0.2989693E-009  0.1117452E+03  0.7561462E-02  0.1257372E+00
          4   -1    0    0  501    0  0.00000000000E+00  0.00000000000E+00  0.18484713781E+02  0.18484713781E+02  0.00000000000E+00 0. -1.
         -4   -1    0    0    0  501 -0.00000000000E+00 -0.00000000000E+00 -0.10213381333E+04  0.10213381333E+04  0.00000000000E+00 0.  1.
         25    2    1    2    0    0  0.28352773700E+02 -0.40376937068E+02 -0.81645661701E+03  0.82745542295E+03  0.12508754010E+03 0.  0.
          5    1    3    3  502    0 -0.10711519799E+02  0.41776085016E+02 -0.27609202841E+03  0.27947139118E+03  0.41800000000E+01 0.  1.
         -5    1    3    3    0  502  0.39064293499E+02 -0.82153022085E+02 -0.54036458860E+03  0.54798403177E+03  0.41800000000E+01 0.  1.
        -11    1    1    2    0    0  0.24165534008E+02  0.23960055930E+01 -0.13639337267E+02  0.27852206336E+02  0.00000000000E+00 0. -1.
         11    1    1    2    0    0 -0.52518307708E+02  0.37980931475E+02 -0.17275746520E+03  0.18451521776E+03  0.00000000000E+00 0.  1.
</event>
<event>
 7    1  0.2989693E-009  0.1328974E+03  0.7561462E-02  0.1223219E+00
         -2   -1    0    0    0  501 -0.00000000000E+00  0.00000000000E+00  0.17428758289E+02  0.17428758289E+02  0.00000000000E+00 0.  1.
          2   -1    0    0  501    0  0.00000000000E+00 -0.00000000000E+00 -0.12505746085E+04  0.12505746085E+04  0.00000000000E+00 0. -1.
         25    2    1    2    0    0 -0.52343171696E+02 -0.75996111977E+02 -0.82284548805E+03  0.83739927662E+03  0.12509050572E+03 0.  0.
          5    1    3    3  502    0  0.17728375859E+02  0.14476227665E+02 -0.35432178161E+03  0.35508485437E+03  0.41800000000E+01 0.  1.
         -5    1    3    3    0  502 -0.70071547555E+02 -0.90472339642E+02 -0.46852370644E+03  0.48231442225E+03  0.41800000000E+01 0.  1.
        -11    1    1    2    0    0 -0.13142549111E+02  0.58883947589E+02 -0.23689976106E+03  0.24446174071E+03  0.00000000000E+00 0. -1.
         11    1    1    2    0    0  0.65485720807E+02  0.17112164388E+02 -0.17340060112E+03  0.18614234947E+03  0.00000000000E+00 0.  1.
</event>
<event>
 7    1  0.2989693E-009  0.1077690E+03  0.7561462E-02  0.1264758E+00
          4   -1    0    0  501    0  0.00000000000E+00  0.00000000000E+00  0.15963480453E+03  0.15963480453E+03  0.00000000000E+00 0. -1.
         -4   -1    0    0    0  501 -0.00000000000E+00 -0.00000000000E+00 -0.79404071682E+02  0.79404071682E+02  0.00000000000E+00 0.  1.
         25    2    1    2    0    0 -0.33253168354E+02  0.56445085206E+01  0.30806838180E+02  0.13316314014E+03  0.12508288024E+03 0.  0.
          5    1    3    3  502    0 -0.35501912715E+02 -0.56648978686E+02  0.13435606509E+02  0.68318961605E+02  0.41800000000E+01 0.  1.
         -5    1    3    3    0  502  0.22487443609E+01  0.62293487207E+02  0.17371231671E+02  0.64844178531E+02  0.41800000000E+01 0.  1.
        -11    1    1    2    0    0  0.58260708281E+02  0.58552095527E+01  0.51893579702E+02  0.78240253211E+02  0.00000000000E+00 0. -1.
         11    1    1    2    0    0 -0.25007539926E+02 -0.11499718073E+02 -0.24696850356E+01  0.27635482864E+02  0.00000000000E+00 0.  1.
</event>
<event>
 7    1  0.2989693E-009  0.1526988E+03  0.7561462E-02  0.1197195E+00
         -2   -1    0    0    0  501 -0.00000000000E+00  0.00000000000E+00  0.22918554394E+02  0.22918554394E+02  0.00000000000E+00 0. -1.
          2   -1    0    0  501    0  0.00000000000E+00 -0.00000000000E+00 -0.14019436550E+04  0.14019436550E+04  0.00000000000E+00 0.  1.
         25    2    1    2    0    0 -0.30922326331E+02  0.13227460075E+03 -0.87828849452E+03  0.89749098251E+03  0.12508646535E+03 0.  0.
          5    1    3    3  502    0 -0.36691406512E+02  0.13804343138E+03 -0.87659877718E+03  0.88816954283E+03  0.41800000000E+01 0.  1.
         -5    1    3    3    0  502  0.57690801809E+01 -0.57688306314E+01 -0.16897173366E+01  0.93214396777E+01  0.41800000000E+01 0.  1.
        -11    1    1    2    0    0 -0.76186568980E+01 -0.10693953912E+03 -0.24385655299E+03  0.26638342177E+03  0.00000000000E+00 0.  1.
         11    1    1    2    0    0  0.38540983229E+02 -0.25335061627E+02 -0.25688005310E+03  0.26098780511E+03  0.00000000000E+00 0. -1.
</event>
<event>
 7    1  0.2989693E-009  0.2534846E+03  0.7561462E-02  0.1111122E+00
         -1   -1    0    0    0  501 -0.00000000000E+00  0.00000000000E+00  0.12613063286E+03  0.12613063286E+03  0.00000000000E+00 0.  1.
          1   -1    0    0  501    0  0.00000000000E+00 -0.00000000000E+00 -0.60439146090E+03  0.60439146090E+03  0.00000000000E+00 0. -1.
         25    2    1    2    0    0  0.89087251681E+02  0.22636891809E+03 -0.34210442623E+03  0.43802071000E+03  0.12508908209E+03 0.  0.
          5    1    3    3  502    0  0.32962058940E+02  0.19732793010E+03 -0.20233744527E+03  0.28457463606E+03  0.41800000000E+01 0.  1.
         -5    1    3    3    0  502  0.56125192741E+02  0.29040987988E+02 -0.13976698096E+03  0.15344607395E+03  0.41800000000E+01 0.  1.
        -11    1    1    2    0    0 -0.46718338549E+02 -0.10327665665E+03 -0.14412722527E+02  0.11426459442E+03  0.00000000000E+00 0. -1.
         11    1    1    2    0    0 -0.42368913132E+02 -0.12309226144E+03 -0.12174367929E+03  0.17823678934E+03  0.00000000000E+00 0.  1.
</event>
<event>
 7    1  0.2989693E-009  0.1108120E+03  0.7561462E-02  0.1259074E+00
         -3   -1    0    0    0  501 -0.00000000000E+00  0.00000000000E+00  0.89736313893E+03  0.89736313893E+03  0.00000000000E+00 0.  1.
          3   -1    0    0  501    0  0.00000000000E+00 -0.00000000000E+00 -0.19971685183E+02  0.19971685183E+02  0.00000000000E+00 0. -1.
         25    2    1    2    0    0  0.29671252460E+02 -0.64599637673E+02  0.60386400579E+03  0.62076759436E+03  0.12508865782E+03 0.  0.
          5    1    3    3  502    0 -0.30735180415E+02 -0.12905786292E+02  0.40742532211E+03  0.40880811652E+03  0.41800000000E+01 0.  1.
         -5    1    3    3    0  502  0.60406432875E+02 -0.51693851381E+02  0.19643868368E+03  0.21195947785E+03  0.41800000000E+01 0.  1.
        -11    1    1    2    0    0  0.15938099986E+02  0.60562595827E+02  0.20334004701E+03  0.21276518927E+03  0.00000000000E+00 0.  1.
         11    1    1    2    0    0 -0.45609352446E+02  0.40370418457E+01  0.70187400944E+02  0.83802040481E+02  0.00000000000E+00 0. -1.
</event>
<event>
 7    1  0.2989693E-009  0.1138926E+03  0.7561462E-02  0.1253527E+00
         -1   -1    0    0    0  501 -0.00000000000E+00  0.00000000000E+00  0.79585862887E+02  0.79585862887E+02  0.00000000000E+00 0.  1.
          1   -1    0    0  501    0  0.00000000000E+00 -0.00000000000E+00 -0.18963044186E+03  0.18963044186E+03  0.00000000000E+00 0. -1.
         25    2    1    2    0    0 -0.33452433500E+02 -0.16516097777E+02 -0.11123060270E+03  0.17149447061E+03  0.12508500982E+03 0.  0.
          5    1    3    3  502    0 -0.34775611237E+02  0.51500557640E+02 -0.56288363753E+02  0.83949406598E+02  0.41800000000E+01 0.  1.
         -5    1    3    3    0  502  0.13231777374E+01 -0.68016655417E+02 -0.54942238945E+02  0.87545064017E+02  0.41800000000E+01 0.  1.
        -11    1    1    2    0    0  0.64645457696E+02  0.13162905730E+02 -0.31703734979E+01  0.66048077610E+02  0.00000000000E+00 0.  1.
         11    1    1    2    0    0 -0.31193024196E+02  0.33531920477E+01  0.43563972240E+01  0.31673756521E+02  0.00000000000E+00 0. -1.
</event>
<event>
 7    1  0.2989693E-009  0.1151632E+03  0.7561462E-02  0.1251296E+00
         -2   -1    0    0    0  501 -0.00000000000E+00  0.00000000000E+00  0.74727822456E+02  0.74727822456E+02  0.00000000000E+00 0.  1.
          2   -1    0    0  501    0  0.00000000000E+00 -0.00000000000E+00 -0.23524812309E+03  0.23524812309E+03  0.00000000000E+00 0. -1.
         25    2    1    2    0    0  0.36270798979E+02  0.81965026690E+01 -0.15569155177E+03  0.20315232673E+03  0.12509298562E+03 0.  0.
          5    1    3    3  502    0 -0.11607800446E+02  0.59028940472E+02 -0.78277853499E+02  0.98813215679E+02  0.41800000000E+01 0. -1.
         -5    1    3    3    0  502  0.47878599426E+02 -0.50832437803E+02 -0.77413698269E+02  0.10433911105E+03  0.41800000000E+01 0. -1.
        -11    1    1    2    0    0 -0.17771956517E+02  0.42518339711E+02  0.16259579290E+02  0.48867428507E+02  0.00000000000E+00 0.  1.
         11    1    1    2    0    0 -0.18498842463E+02 -0.50714842380E+02 -0.21088328156E+02  0.57956190303E+02  0.00000000000E+00 0. -1.
</event>
<event>
 7    1  0.2989693E-009  0.9206688E+02  0.7561462E-02  0.1297922E+00
         -1   -1    0    0    0  501 -0.00000000000E+00  0.00000000000E+00  0.25171715147E+02  0.25171715147E+02  0.00000000000E+00 0.  1.
          1   -1    0    0  501    0  0.00000000000E+00 -0.00000000000E+00 -0.89678451317E+03  0.89678451317E+03  0.00000000000E+00 0. -1.
         25    2    1    2    0    0  0.67025214572E+02  0.36783340883E+02 -0.70839895017E+03  0.72341002756E+03  0.12509037456E+03 0.  0.
          5    1    3    3  502    0  0.11920204285E+02 -0.56664092333E+01 -0.24861246233E+01  0.14066011497E+02  0.41800000000E+01 0. -1.
         -5    1    3    3    0  502  0.55105010287E+02  0.42449750116E+02 -0.70591282555E+03  0.70934401606E+03  0.41800000000E+01 0. -1.
        -11    1    1    2    0    0 -0.34172284284E+01 -0.36837908866E+02 -0.20493456275E+02  0.42292915835E+02  0.00000000000E+00 0.  1.
         11    1    1    2    0    0 -0.63607986143E+02  0.54567982751E-01 -0.14272039157E+03  0.15625328492E+03  0.00000000000E+00 0. -1.
</event>
<event>
 7    1  0.2989693E-009  0.9795838E+02  0.7561462E-02  0.1284649E+00
         -1   -1    0    0    0  501 -0.00000000000E+00  0.00000000000E+00  0.13415509131E+02  0.13415509131E+02  0.00000000000E+00 0.  1.
          1   -1    0    0  501    0  0.00000000000E+00 -0.00000000000E+00 -0.10631409036E+04  0.10631409036E+04  0.00000000000E+00 0. -1.
         25    2    1    2    0    0  0.95056695346E+00 -0.26803382649E+01 -0.82321032306E+03  0.83266431759E+03  0.12508613832E+03 0.  0.
          5    1    3    3  502    0  0.48817755843E+02 -0.34221604924E+02 -0.27328910097E+03  0.27974755877E+03  0.41800000000E+01 0. -1.
         -5    1    3    3    0  502 -0.47867188890E+02  0.31541266659E+02 -0.54992122209E+03  0.55291675882E+03  0.41800000000E+01 0. -1.
        -11    1    1    2    0    0  0.11022608343E+02 -0.36279752739E+02 -0.50106008343E+02  0.62835741625E+02  0.00000000000E+00 0.  1.
         11    1    1    2    0    0 -0.11973175297E+02  0.38960091003E+02 -0.17640906303E+03  0.18105635348E+03  0.00000000000E+00 0. -1.
</event>
<event>
 7    1  0.2989693E-009  0.1125774E+03  0.7561462E-02  0.1255870E+00
          2   -1    0    0  501    0  0.00000000000E+00  0.00000000000E+00  0.13663943928E+04  0.13663943928E+04  0.00000000000E+00 0. -1.
         -2   -1    0    0    0  501 -0.00000000000E+00 -0.00000000000E+00 -0.13786893606E+02  0.13786893606E+02  0.00000000000E+00 0.  1.
         25    2    1    2    0    0 -0.45660538425E+01 -0.82449061292E+02  0.75323373170E+03  0.76800102079E+03  0.12508323955E+03 0.  0.
          5    1    3    3  502    0 -0.29225460641E+02 -0.60853047337E+02  0.71178875594E+03  0.71499505342E+03  0.41800000000E+01 0.  1.
         -5    1    3    3    0  502  0.24659406799E+02 -0.21596013954E+02  0.41444975751E+02  0.53005967375E+02  0.41800000000E+01 0.  1.
        -11    1    1    2    0    0  0.10925238960E+02 -0.19486407827E+02  0.11670696435E+03  0.11882590822E+03  0.00000000000E+00 0.  1.
         11    1    1    2    0    0 -0.63591851178E+01  0.10193546912E+03  0.48266680318E+03  0.49335435743E+03  0.00000000000E+00 0. -1.
</event>
<event>
 7    1  0.2989693E-009  0.9923288E+02  0.7561462E-02  0.1281917E+00
          2   -1    0    0  501    0  0.00000000000E+00  0.00000000000E+00  0.66140245751E+02  0.66140245751E+02  0.00000000000E+00 0. -1.
         -2   -1    0    0    0  501 -0.00000000000E+00 -0.00000000000E+00 -0.19952338237E+03  0.19952338237E+03  0.00000000000E+00 0.  1.
         25    2    1    2    0    0  0.10443523512E+02 -0.32193346071E+02 -0.74262515572E+02  0.14935848832E+03  0.12509019985E+03 0.  0.
          5    1    3    3  502    0 -0.55691450046E+02 -0.29693676031E+02 -0.34859450482E+02  0.72221227436E+02  0.41800000000E+01 0. -1.
         -5    1    3    3    0  502  0.66134973558E+02 -0.24996700400E+01 -0.39403065090E+02  0.77137260882E+02  0.41800000000E+01 0. -1.
        -11    1    1    2    0    0 -0.22002135989E+00 -0.17835902605E+02 -0.62630965142E+02  0.65121468240E+02  0.00000000000E+00 0.  1.
         11    1    1    2    0    0 -0.10223502152E+02  0.50029248676E+02  0.35103440920E+01  0.51183671566E+02  0.00000000000E+00 0. -1.
</event>
<event>
 7    1  0.2989693E-009  0.1061319E+03  0.7561462E-02  0.1267905E+00
         -3   -1    0    0    0  501 -0.00000000000E+00  0.00000000000E+00  0.49759512044E+03  0.49759512044E+03  0.00000000000E+00 0.  1.
          3   -1    0    0  501    0  0.00000000000E+00 -0.00000000000E+00 -0.36946142391E+02  0.36946142391E+02  0.00000000000E+00 0. -1.
         25    2    1    2    0    0 -0.17717836135E+02 -0.75764189768E+02  0.20618085088E+03  0.25340410112E+03  0.12509580739E+03 0.  0.
          5    1    3    3  502    0 -0.34521063035E+02 -0.22587217139E+02  0.17937890593E+01  0.41503930541E+02  0.41800000000E+01 0. -1.
         -5    1    3    3    0  502  0.16803226901E+02 -0.53176972630E+02  0.20438706182E+03  0.21190017058E+03  0.41800000000E+01 0. -1.
        -11    1    1    2    0    0  0.36645266835E+02 -0.13967809055E+00  0.12105872042E+03  0.12648363088E+03  0.00000000000E+00 0.  1.
         11    1    1    2    0    0 -0.18927430700E+02  0.75903867859E+02  0.13340940676E+03  0.15465353084E+03  0.00000000000E+00 0. -1.
</event>
<event>
 7    1  0.2989693E-009  0.1495102E+03  0.7561462E-02  0.1201076E+00
         -1   -1    0    0    0  501 -0.00000000000E+00  0.00000000000E+00  0.11062495648E+03  0.11062495648E+03  0.00000000000E+00 0.  1.
          1   -1    0    0  501    0  0.00000000000E+00 -0.00000000000E+00 -0.27610617897E+03  0.27610617897E+03  0.00000000000E+00 0. -1.
         25    2    1    2    0    0  0.78617185410E+02 -0.87520583490E+02 -0.16683259927E+03  0.23941942835E+03  0.12509209454E+03 0.  0.
          5    1    3    3  502    0 -0.31805748454E+02 -0.29560966627E+02 -0.65399186820E+02  0.78612864210E+02  0.41800000000E+01 0. -1.
         -5    1    3    3    0  502  0.11042293386E+03 -0.57959616863E+02 -0.10143341245E+03  0.16080656414E+03  0.41800000000E+01 0. -1.
        -11    1    1    2    0    0 -0.63861699486E+02  0.28770553006E+02 -0.33267743231E+02  0.77542273124E+02  0.00000000000E+00 0. -1.
         11    1    1    2    0    0 -0.14755485924E+02  0.58750030484E+02  0.34619120016E+02  0.69769433977E+02  0.00000000000E+00 0.  1.
</event>
<event>
 7    1  0.2989693E-009  0.7289726E+02  0.7561462E-02  0.1350509E+00
         -1   -1    0    0    0  501 -0.00000000000E+00  0.00000000000E+00  0.12662999273E+02  0.12662999273E+02  0.00000000000E+00 0.  1.
          1   -1    0    0  501    0  0.00000000000E+00 -0.00000000000E+00 -0.99586490967E+03  0.99586490967E+03  0.00000000000E+00 0. -1.
         25    2    1    2    0    0  0.75952356402E+00  0.14894992698E+02 -0.67863829001E+03  0.69023400305E+03  0.12510240851E+03 0.  0.
          5    1    3    3  502    0  0.16129010527E+02 -0.14243553710E+02 -0.63509418849E+03  0.63547236325E+03  0.41800000000E+01 0.  1.
         -5    1    3    3    0  502 -0.15369486963E+02  0.29138546408E+02 -0.43544101520E+02  0.54761639799E+02  0.41800000000E+01 0.  1.
        -11    1    1    2    0    0  0.19853220962E+02 -0.47844898611E+02 -0.20419234830E+03  0.21066038976E+03  0.00000000000E+00 0. -1.
         11    1    1    2    0    0 -0.20612744526E+02  0.32949905912E+02 -0.10037127208E+03  0.10763351614E+03  0.00000000000E+00 0.  1.
</event>
<event>
 7    1  0.2989693E-009  0.8648275E+02  0.7561462E-02  0.1311600E+00
          1   -1    0    0  501    0  0.00000000000E+00  0.00000000000E+00  0.21113402881E+03  0.21113402881E+03  0.00000000000E+00 0. -1.
         -1   -1    0    0    0  501 -0.00000000000E+00 -0.00000000000E+00 -0.71929377250E+02  0.71929377250E+02  0.00000000000E+00 0.  1.
         25    2    1    2    0    0  0.12753616406E+02  0.29251568795E+02  0.13042214166E+03  0.18350929441E+03  0.12508963622E+03 0.  0.
          5    1    3    3  502    0 -0.11212708511E+02 -0.34894654903E+02  0.85411283451E+00  0.36899372375E+02  0.41800000000E+01 0. -1.
         -5    1    3    3    0  502  0.23966324917E+02  0.64146223698E+02  0.12956802883E+03  0.14660992204E+03  0.41800000000E+01 0. -1.
        -11    1    1    2    0    0 -0.23622690437E+02  0.10797656015E+02 -0.32105886569E+02  0.41296595880E+02  0.00000000000E+00 0.  1.
         11    1    1    2    0    0  0.10869074031E+02 -0.40049224810E+02  0.40888396468E+02  0.58257515772E+02  0.00000000000E+00 0. -1.
</event>
<event>
 7    1  0.2989693E-009  0.1707126E+03  0.7561462E-02  0.1177107E+00
          2   -1    0    0  501    0  0.00000000000E+00  0.00000000000E+00  0.36999814956E+03  0.36999814956E+03  0.00000000000E+00 0. -1.
         -2   -1    0    0    0  501 -0.00000000000E+00 -0.00000000000E+00 -0.84830309221E+02  0.84830309221E+02  0.00000000000E+00 0.  1.
         25    2    1    2    0    0  0.78706992206E+01  0.13411574748E+03  0.11405065206E+03  0.21611156898E+03  0.12509067665E+03 0.  0.
          5    1    3    3  502    0  0.58518486982E+02  0.10035942816E+03  0.46815064322E+02  0.12532178896E+03  0.41800000000E+01 0. -1.
         -5    1    3    3    0  502 -0.50647787762E+02  0.33756319316E+02  0.67235587733E+02  0.90789780024E+02  0.41800000000E+01 0. -1.
        -11    1    1    2    0    0  0.37629000275E+02 -0.10131210850E+03  0.93206191628E+02  0.14271467741E+03  0.00000000000E+00 0.  1.
         11    1    1    2    0    0 -0.45499699496E+02 -0.32803638981E+02  0.77910996657E+02  0.96002212395E+02  0.00000000000E+00 0. -1.
</event>
<event>
 7    1  0.2989693E-009  0.1097389E+03  0.7561462E-02  0.1261054E+00
         -2   -1    0    0    0  501 -0.00000000000E+00  0.00000000000E+00  0.73809304614E+02  0.73809304614E+02  0.00000000000E+00 0.  1.
          2   -1    0    0  501    0  0.00000000000E+00 -0.00000000000E+00 -0.25397369614E+03  0.25397369614E+03  0.00000000000E+00 0. -1.
         25    2    1    2    0    0 -0.27860277767E+02 -0.59197053699E+02 -0.45947678842E+02  0.14845376150E+03  0.12508734496E+03 0.  0.
          5    1    3    3  502    0  0.20705058302E+02 -0.59915210671E+02  0.19855142870E+02  0.66559980525E+02  0.41800000000E+01 0. -1.
         -5    1    3    3    0  502 -0.48565336069E+02  0.71815697187E+00 -0.65802821712E+02  0.81893780974E+02  0.41800000000E+01 0. -1.
        -11    1    1    2    0    0  0.35649888952E+02 -0.10424020520E+02 -0.13050871957E+02  0.39368769919E+02  0.00000000000E+00 0.  1.
         11    1    1    2    0    0 -0.77896111850E+01  0.69621074219E+02 -0.12116584073E+03  0.13996046934E+03  0.00000000000E+00 0. -1.
</event>
<event>
 7    1  0.2989693E-009  0.9900173E+02  0.7561462E-02  0.1282409E+00
          2   -1    0    0  501    0  0.00000000000E+00  0.00000000000E+00  0.17244544608E+03  0.17244544608E+03  0.00000000000E+00 0. -1.
         -2   -1    0    0    0  501 -0.00000000000E+00 -0.00000000000E+00 -0.11194090774E+03  0.11194090774E+03  0.00000000000E+00 0.  1.
         25    2    1    2    0    0 -0.42634615334E+02 -0.77343308157E+02  0.31604011267E+02  0.15635322742E+03  0.12509124852E+03 0.  0.
          5    1    3    3  502    0  0.43125287315E+01 -0.43692469129E+02  0.72915380639E+02  0.85215931001E+02  0.41800000000E+01 0.  1.
         -5    1    3    3    0  502 -0.46947144065E+02 -0.33650839028E+02 -0.41311369372E+02  0.71137296424E+02  0.41800000000E+01 0.  1.
        -11    1    1    2    0    0  0.62136228485E+01  0.50152690055E+02 -0.25940990125E+02  0.56805249734E+02  0.00000000000E+00 0.  1.
         11    1    1    2    0    0  0.36420992485E+02  0.27190618102E+02  0.54841517195E+02  0.71227876668E+02  0.00000000000E+00 0. -1.
</event>
<event>
 7    1  0.2989693E-009  0.2073020E+03  0.7561462E-02  0.1143721E+00
          2   -1    0    0  501    0  0.00000000000E+00  0.00000000000E+00  0.36780131570E+03  0.36780131570E+03  0.00000000000E+00 0. -1.
         -2   -1    0    0    0  501 -0.00000000000E+00 -0.00000000000E+00 -0.12855979573E+03  0.12855979573E+03  0.00000000000E+00 0.  1.
         25    2    1    2    0    0  0.10108489804E+03  0.15898130823E+03  0.11796412419E+03  0.25505952118E+03  0.12508641719E+03 0.  0.
          5    1    3    3  502    0  0.41097532911E+02  0.16058437905E+03  0.82091712729E+02  0.18502127365E+03  0.41800000000E+01 0. -1.
         -5    1    3    3    0  502  0.59987365134E+02 -0.16030708181E+01  0.35872411465E+02  0.70038247523E+02  0.41800000000E+01 0. -1.
        -11    1    1    2    0    0 -0.33154838460E+02 -0.60699095586E+02  0.97411070567E+02  0.11946773701E+03  0.00000000000E+00 0. -1.
         11    1    1    2    0    0 -0.67930059584E+02 -0.98282212643E+02  0.23866325208E+02  0.12183385324E+03  0.00000000000E+00 0.  1.
</event>
<event>
 7    1  0.2989693E-009  0.1013085E+03  0.7561462E-02  0.1277568E+00
          2   -1    0    0  501    0  0.00000000000E+00  0.00000000000E+00  0.29867988555E+03  0.29867988555E+03  0.00000000000E+00 0. -1.
         -2   -1    0    0    0  501 -0.00000000000E+00 -0.00000000000E+00 -0.45377484195E+02  0.45377484195E+02  0.00000000000E+00 0.  1.
         25    2    1    2    0    0  0.10312232197E+02 -0.41960416063E+02  0.13110782235E+03  0.18628948057E+03  0.12508993100E+03 0.  0.
          5    1    3    3  502    0 -0.53080133839E+02 -0.40629948387E+02  0.82630430477E+02  0.10636519052E+03  0.41800000000E+01 0.  1.
         -5    1    3    3    0  502  0.63392366036E+02 -0.13304676759E+01  0.48477391874E+02  0.79924290042E+02  0.41800000000E+01 0.  1.
        -11    1    1    2    0    0  0.20076686538E+02 -0.25881011802E+00  0.98643532020E+02  0.10066621446E+03  0.00000000000E+00 0. -1.
         11    1    1    2    0    0 -0.30388918735E+02  0.42219226181E+02  0.23551046983E+02  0.57101674714E+02  0.00000000000E+00 0.  1.
</event>
<event>
 7    1  0.2989693E-009  0.1654331E+03  0.7561462E-02  0.1182696E+00
          2   -1    0    0  501    0  0.00000000000E+00  0.00000000000E+00  0.60842221007E+02  0.60842221007E+02  0.00000000000E+00 0. -1.
         -2   -1    0    0    0  501 -0.00000000000E+00 -0.00000000000E+00 -0.49979907565E+03  0.49979907565E+03  0.00000000000E+00 0.  1.
         25    2    1    2    0    0 -0.13545490274E+03  0.24546936420E+02 -0.23470993464E+03  0.29948033160E+03  0.12509649408E+03 0.  0.
          5    1    3    3  502    0 -0.15035452443E+03  0.33046078480E+02 -0.23597438770E+03  0.28177989703E+03  0.41800000000E+01 0. -1.
         -5    1    3    3    0  502  0.14899621695E+02 -0.84991420600E+01  0.12644530566E+01  0.17700434570E+02  0.41800000000E+01 0. -1.
        -11    1    1    2    0    0  0.12718327575E+03 -0.46760840725E+02 -0.15106414337E+03  0.20293481039E+03  0.00000000000E+00 0. -1.
         11    1    1    2    0    0  0.82716269919E+01  0.22213904305E+02 -0.53182776634E+02  0.58226154673E+02  0.00000000000E+00 0.  1.
</event>
<event>
 7    1  0.2989693E-009  0.1547562E+03  0.7561462E-02  0.1194747E+00
          1   -1    0    0  501    0  0.00000000000E+00  0.00000000000E+00  0.89236849007E+02  0.89236849007E+02  0.00000000000E+00 0. -1.
         -1   -1    0    0    0  501 -0.00000000000E+00 -0.00000000000E+00 -0.57841472768E+03  0.57841472768E+03  0.00000000000E+00 0.  1.
         25    2    1    2    0    0 -0.12510542469E+03  0.32504604436E+02 -0.47870432961E+03  0.51138355541E+03  0.12508952376E+03 0.  0.
          5    1    3    3  502    0 -0.14751739902E+03  0.37909494370E+02 -0.44477949025E+03  0.47015399618E+03  0.41800000000E+01 0. -1.
         -5    1    3    3    0  502  0.22411974326E+02 -0.54048899341E+01 -0.33924839364E+02  0.41229559229E+02  0.41800000000E+01 0. -1.
        -11    1    1    2    0    0  0.54900306341E+02 -0.31922362184E+02 -0.45192328331E+02  0.77945027960E+02  0.00000000000E+00 0.  1.
         11    1    1    2    0    0  0.70205118353E+02 -0.58224225171E+00  0.34718779268E+02  0.78322993322E+02  0.00000000000E+00 0. -1.
</event>
<event>
 7    1  0.3516927E-009  0.1101311E+03  0.7561462E-02  0.1260327E+00
          1   -1    0    0  501    0  0.00000000000E+00  0.00000000000E+00  0.16361322089E+03  0.16361322089E+03  0.00000000000E+00 0. -1.
         -1   -1    0    0    0  501 -0.00000000000E+00 -0.00000000000E+00 -0.12614068895E+03  0.12614068895E+03  0.00000000000E+00 0.  1.
         25    2    1    2    0    0 -0.66153973134E+02 -0.65375529614E+02  0.35322522449E+02  0.15982740075E+03  0.12508720720E+03 0.  0.
          5    1    3    3  502    0 -0.42882493574E+02  0.12705482303E+02  0.59671162827E+02  0.74689072887E+02  0.41800000000E+01 0.  1.
         -5    1    3    3    0  502 -0.23271479560E+02 -0.78081011918E+02 -0.24348640378E+02  0.85138327863E+02  0.41800000000E+01 0.  1.
        -11    1    1    2    0    0  0.46796650917E+02  0.38273911441E+02 -0.42735357172E+02  0.74034651256E+02  0.00000000000E+00 0.  1.
         11    1    1    2    0    0  0.19357322217E+02  0.27101618174E+02  0.44885366664E+02  0.55891857829E+02  0.00000000000E+00 0. -1.
</event>
<event>
 7    1  0.2989693E-009  0.8424420E+02  0.7561462E-02  0.1317421E+00
         -2   -1    0    0    0  501 -0.00000000000E+00  0.00000000000E+00  0.85428643432E+02  0.85428643432E+02  0.00000000000E+00 0.  1.
          2   -1    0    0  501    0  0.00000000000E+00 -0.00000000000E+00 -0.27416528255E+03  0.27416528255E+03  0.00000000000E+00 0. -1.
         25    2    1    2    0    0 -0.18428489152E+02  0.67920459220E+02 -0.19729518494E+03  0.24397864537E+03  0.12508953354E+03 0.  0.
          5    1    3    3  502    0 -0.19602748832E+02  0.47554390566E+02 -0.21219062275E+03  0.21837587002E+03  0.41800000000E+01 0. -1.
         -5    1    3    3    0  502  0.11742596792E+01  0.20366068653E+02  0.14895437806E+02  0.25602775350E+02  0.41800000000E+01 0. -1.
        -11    1    1    2    0    0  0.32046787572E+02 -0.74377202964E+02 -0.19914021346E+02  0.83399839092E+02  0.00000000000E+00 0. -1.
         11    1    1    2    0    0 -0.13618298420E+02  0.64567437441E+01  0.28472567167E+02  0.32215441526E+02  0.00000000000E+00 0.  1.
</event>
<event>
 7    1  0.2989693E-009  0.2362160E+03  0.7561462E-02  0.1122340E+00
         -2   -1    0    0    0  501 -0.00000000000E+00  0.00000000000E+00  0.40888158579E+03  0.40888158579E+03  0.00000000000E+00 0. -1.
          2   -1    0    0  501    0  0.00000000000E+00 -0.00000000000E+00 -0.16577076617E+03  0.16577076617E+03  0.00000000000E+00 0.  1.
         25    2    1    2    0    0 -0.18358919557E+03 -0.11439564309E+03  0.20065474350E+02  0.25068194808E+03  0.12508980751E+03 0.  0.
          5    1    3    3  502    0 -0.40750908177E+01  0.18558395915E+02  0.19084799635E+02  0.27252933810E+02  0.41800000000E+01 0.  1.
         -5    1    3    3    0  502 -0.17951410476E+03 -0.13295403901E+03  0.98067471480E+00  0.22342901427E+03  0.41800000000E+01 0.  1.
        -11    1    1    2    0    0  0.65000462446E+02  0.32086400304E+00  0.34048844611E+02  0.73379063031E+02  0.00000000000E+00 0. -1.
         11    1    1    2    0    0  0.11858873313E+03  0.11407477909E+03  0.18899650065E+03  0.25059134085E+03  0.00000000000E+00 0.  1.
</event>
<event>
 7    1  0.2989693E-009  0.8884754E+02  0.7561462E-02  0.1305667E+00
          3   -1    0    0  501    0  0.00000000000E+00  0.00000000000E+00  0.92588043311E+02  0.92588043311E+02  0.00000000000E+00 0. -1.
         -3   -1    0    0    0  501 -0.00000000000E+00 -0.00000000000E+00 -0.17430356359E+03  0.17430356359E+03  0.00000000000E+00 0.  1.
         25    2    1    2    0    0 -0.65612197363E+02 -0.83402686970E+01 -0.44161679408E+02  0.14823091004E+03  0.12509048021E+03 0.  0.
          5    1    3    3  502    0 -0.29055909568E+00 -0.85891804552E+01 -0.75188872607E+02  0.75793782129E+02  0.41800000000E+01 0. -1.
         -5    1    3    3    0  502 -0.65321638267E+02  0.24891175819E+00  0.31027193198E+02  0.72437127916E+02  0.41800000000E+01 0. -1.
        -11    1    1    2    0    0  0.61727692843E+02  0.38186598054E+02 -0.47749869657E+02  0.86882532117E+02  0.00000000000E+00 0.  1.
         11    1    1    2    0    0  0.38845045195E+01 -0.29846329357E+02  0.10196028784E+02  0.31778164743E+02  0.00000000000E+00 0. -1.
</event>
<event>
 7    1  0.2989693E-009  0.1355616E+03  0.7561462E-02  0.1219429E+00
         -2   -1    0    0    0  501 -0.00000000000E+00  0.00000000000E+00  0.59529853321E+02  0.59529853321E+02  0.00000000000E+00 0.  1.
          2   -1    0    0  501    0  0.00000000000E+00 -0.00000000000E+00 -0.56731248121E+03  0.56731248121E+03  0.00000000000E+00 0. -1.
         25    2    1    2    0    0 -0.10143128038E+03  0.34436547156E+02 -0.94351030425E+02  0.18980159510E+03  0.12509335770E+03 0.  0.
          5    1    3    3  502    0  0.46672301450E+01 -0.35982628678E+02 -0.13688838199E+02  0.39004990642E+02  0.41800000000E+01 0.  1.
         -5    1    3    3    0  502 -0.10609851052E+03  0.70419175834E+02 -0.80662192226E+02  0.15079660446E+03  0.41800000000E+01 0.  1.
        -11    1    1    2    0    0  0.64979013841E+02 -0.24041134037E+02 -0.38071743658E+03  0.38697030233E+03  0.00000000000E+00 0. -1.
         11    1    1    2    0    0  0.36452266538E+02 -0.10395413119E+02 -0.32714160877E+02  0.50070437102E+02  0.00000000000E+00 0.  1.
</event>
<event>
 7    1  0.3082647E-009  0.1704544E+03  0.7561462E-02  0.1177375E+00
          1   -1    0    0  501    0  0.00000000000E+00  0.00000000000E+00  0.67609596071E+02  0.67609596071E+02  0.00000000000E+00 0. -1.
         -1   -1    0    0    0  501 -0.00000000000E+00 -0.00000000000E+00 -0.44097091245E+03  0.44097091245E+03  0.00000000000E+00 0.  1.
         25    2    1    2    0    0 -0.85956725905E+02  0.10227074269E+03 -0.18777653701E+03  0.26221289818E+03  0.12509081734E+03 0.  0.
          5    1    3    3  502    0 -0.92369605760E+02  0.12588867806E+03 -0.14711152829E+03  0.21456788550E+03  0.41800000000E+01 0. -1.
         -5    1    3    3    0  502  0.64128798551E+01 -0.23617935374E+02 -0.40665008717E+02  0.47645012680E+02  0.41800000000E+01 0. -1.
        -11    1    1    2    0    0  0.24999894439E+02 -0.95306352211E+02 -0.13327037592E+03  0.16573861527E+03  0.00000000000E+00 0. -1.
         11    1    1    2    0    0  0.60956831466E+02 -0.69643904797E+01 -0.52314403445E+02  0.80628995063E+02  0.00000000000E+00 0.  1.
</event>
<event>
 7    1  0.2989693E-009  0.9325513E+02  0.7561462E-02  0.1295155E+00
          2   -1    0    0  501    0  0.00000000000E+00  0.00000000000E+00  0.11110483489E+03  0.11110483489E+03  0.00000000000E+00 0. -1.
         -2   -1    0    0    0  501 -0.00000000000E+00 -0.00000000000E+00 -0.13651369118E+03  0.13651369118E+03  0.00000000000E+00 0.  1.
         25    2    1    2    0    0  0.98270647597E+01 -0.36077408336E+02  0.32164915264E+02  0.13447378683E+03  0.12510182643E+03 0.  0.
          5    1    3    3  502    0 -0.43833548351E+02 -0.46636527218E+02 -0.10489601712E+02  0.64991151521E+02  0.41800000000E+01 0.  1.
         -5    1    3    3    0  502  0.53660613111E+02  0.10559118882E+02  0.42654516976E+02  0.69482635309E+02  0.41800000000E+01 0.  1.
        -11    1    1    2    0    0  0.20151542914E+02 -0.58911753368E+00 -0.62363623978E+02  0.65541233868E+02  0.00000000000E+00 0.  1.
         11    1    1    2    0    0 -0.29978607674E+02  0.36666525870E+02  0.47898524279E+01  0.47603505372E+02  0.00000000000E+00 0. -1.
</event>
<event>
 7    1  0.2989693E-009  0.1253296E+03  0.7561462E-02  0.1234555E+00
         -2   -1    0    0    0  501 -0.00000000000E+00  0.00000000000E+00  0.14261751541E+03  0.14261751541E+03  0.00000000000E+00 0.  1.
          2   -1    0    0  501    0  0.00000000000E+00 -0.00000000000E+00 -0.11663323754E+03  0.11663323754E+03  0.00000000000E+00 0. -1.
         25    2    1    2    0    0  0.60245089431E+02  0.32727970840E+02  0.30667164441E+02  0.14590527225E+03  0.12508909872E+03 0.  0.
          5    1    3    3  502    0  0.25770706524E+02 -0.45150151387E+02  0.30926711368E+02  0.60634968138E+02  0.41800000000E+01 0. -1.
         -5    1    3    3    0  502  0.34474382907E+02  0.77878122227E+02 -0.25954692705E+00  0.85270304110E+02  0.41800000000E+01 0. -1.
        -11    1    1    2    0    0 -0.37588218075E+02 -0.64236367265E+02 -0.39335569545E+01  0.74529577268E+02  0.00000000000E+00 0.  1.
         11    1    1    2    0    0 -0.22656871355E+02  0.31508396425E+02 -0.74932961389E+00  0.38815903439E+02  0.00000000000E+00 0. -1.
</event>
<event>
 7    1  0.2989693E-009  0.1743807E+03  0.7561462E-02  0.1173355E+00
         -1   -1    0    0    0  501 -0.00000000000E+00  0.00000000000E+00  0.20323940124E+03  0.20323940124E+03  0.00000000000E+00 0.  1.
          1   -1    0    0  501    0  0.00000000000E+00 -0.00000000000E+00 -0.19492796699E+03  0.19492796699E+03  0.00000000000E+00 0. -1.
         25    2    1    2    0    0 -0.53746172032E+02  0.15651669028E+03 -0.14970560865E+02  0.20798545534E+03  0.12509079341E+03 0.  0.
          5    1    3    3  502    0 -0.21294588175E+02  0.51993780563E+02 -0.66320193858E+02  0.87020992962E+02  0.41800000000E+01 0. -1.
         -5    1    3    3    0  502 -0.32451583857E+02  0.10452290971E+03  0.51349632993E+02  0.12096446238E+03  0.41800000000E+01 0. -1.
        -11    1    1    2    0    0  0.26035618157E+02 -0.22192449658E+01 -0.13129084722E+02  0.29242970552E+02  0.00000000000E+00 0. -1.
         11    1    1    2    0    0  0.27710553875E+02 -0.15429744531E+03  0.36411079845E+02  0.16093894234E+03  0.00000000000E+00 0.  1.
</event>
<event>
 7    1  0.2989693E-009  0.1159467E+03  0.7561462E-02  0.1249938E+00
         -2   -1    0    0    0  501 -0.00000000000E+00  0.00000000000E+00  0.89866818830E+02  0.89866818830E+02  0.00000000000E+00 0.  1.
          2   -1    0    0  501    0  0.00000000000E+00 -0.00000000000E+00 -0.23133536597E+03  0.23133536597E+03  0.00000000000E+00 0. -1.
         25    2    1    2    0    0  0.18689303883E+02  0.48309548743E+02  0.56270094452E+01  0.13550991478E+03  0.12509265042E+03 0.  0.
          5    1    3    3  502    0 -0.76342513818E+01  0.82741908471E+02 -0.19201744405E+02  0.85385505794E+02  0.41800000000E+01 0. -1.
         -5    1    3    3    0  502  0.26323555264E+02 -0.34432359727E+02  0.24828753850E+02  0.50124408983E+02  0.41800000000E+01 0. -1.
        -11    1    1    2    0    0  0.87506660485E+01 -0.69770029917E+02 -0.62015607083E+02  0.93756955757E+02  0.00000000000E+00 0.  1.
         11    1    1    2    0    0 -0.27439969931E+02  0.21460481174E+02 -0.85079949507E+02  0.91935314271E+02  0.00000000000E+00 0. -1.
</event>
<event>
 7    1  0.2989693E-009  0.1623630E+03  0.7561462E-02  0.1186055E+00
         -2   -1    0    0    0  501 -0.00000000000E+00  0.00000000000E+00  0.85917812328E+02  0.85917812328E+02  0.00000000000E+00 0.  1.
          2   -1    0    0  501    0  0.00000000000E+00 -0.00000000000E+00 -0.48647653941E+03  0.48647653941E+03  0.00000000000E+00 0. -1.
         25    2    1    2    0    0 -0.14419736649E+03  0.46104993894E+02 -0.91292424742E+02  0.21656378555E+03  0.12508803073E+03 0.  0.
          5    1    3    3  502    0 -0.92865547183E+02 -0.11191698630E+02  0.43740356761E+01  0.93732964105E+02  0.41800000000E+01 0.  1.
         -5    1    3    3    0  502 -0.51331819304E+02  0.57296692524E+02 -0.95666460418E+02  0.12283082144E+03  0.41800000000E+01 0.  1.
        -11    1    1    2    0    0  0.75235729850E+02 -0.90801186181E+01 -0.23871452635E+03  0.25045456412E+03  0.00000000000E+00 0. -1.
         11    1    1    2    0    0  0.68961636637E+02 -0.37024875276E+02 -0.70551775998E+02  0.10537600208E+03  0.00000000000E+00 0.  1.
</event>
<event>
 7    1  0.2989693E-009  0.1827818E+03  0.7561462E-02  0.1165138E+00
         -1   -1    0    0    0  501 -0.00000000000E+00  0.00000000000E+00  0.12713399524E+03  0.12713399524E+03  0.00000000000E+00 0.  1.
          1   -1    0    0  501    0  0.00000000000E+00 -0.00000000000E+00 -0.31082301302E+03  0.31082301302E+03  0.00000000000E+00 0. -1.
         25    2    1    2    0    0  0.13658496403E+03 -0.90921178575E+02 -0.12241524500E+03  0.23990823873E+03  0.12509339588E+03 0.  0.
          5    1    3    3  502    0  0.14782334796E+03 -0.10480537951E+03 -0.12660187527E+03  0.22109142226E+03  0.41800000000E+01 0. -1.
         -5    1    3    3    0  502 -0.11238383934E+02  0.13884200936E+02  0.41866302699E+01  0.18816816471E+02  0.41800000000E+01 0. -1.
        -11    1    1    2    0    0 -0.59258466772E+02  0.54416500766E+02  0.16879003215E+02  0.82204757705E+02  0.00000000000E+00 0.  1.
         11    1    1    2    0    0 -0.77326497253E+02  0.36504677808E+02 -0.78152775998E+02  0.11584401182E+03  0.00000000000E+00 0. -1.
</event>
<event>
 7    1  0.2989693E-009  0.1110050E+03  0.7561462E-02  0.1258720E+00
         -1   -1    0    0    0  501 -0.00000000000E+00  0.00000000000E+00  0.45134497131E+02  0.45134497131E+02  0.00000000000E+00 0.  1.
          1   -1    0    0  501    0  0.00000000000E+00 -0.00000000000E+00 -0.46732043307E+03  0.46732043307E+03  0.00000000000E+00 0. -1.
         25    2    1    2    0    0  0.58750211289E+02 -0.73797035381E+02 -0.19040693580E+03  0.24657744105E+03  0.12509213995E+03 0.  0.
          5    1    3    3  502    0  0.14761973616E+02  0.53143611721E+01  0.14978779477E+02  0.22090598325E+02  0.41800000000E+01 0.  1.
         -5    1    3    3    0  502  0.43988237672E+02 -0.79111396553E+02 -0.20538571528E+03  0.22448684273E+03  0.41800000000E+01 0.  1.
        -11    1    1    2    0    0 -0.73086166076E+02  0.54749008144E+02 -0.22211286681E+03  0.24015238323E+03  0.00000000000E+00 0. -1.
         11    1    1    2    0    0  0.14335954788E+02  0.19048027237E+02 -0.96661333260E+01  0.25725105924E+02  0.00000000000E+00 0.  1.
</event>
<event>
 7    1  0.2989693E-009  0.9639385E+02  0.7561462E-02  0.1288067E+00
          1   -1    0    0  501    0  0.00000000000E+00  0.00000000000E+00  0.79125519418E+03  0.79125519418E+03  0.00000000000E+00 0. -1.
         -1   -1    0    0    0  501 -0.00000000000E+00 -0.00000000000E+00 -0.20012039693E+02  0.20012039693E+02  0.00000000000E+00 0.  1.
         25    2    1    2    0    0  0.13165386517E+02 -0.43900582503E+02  0.57966604726E+03  0.59477760676E+03  0.12508831523E+03 0.  0.
          5    1    3    3  502    0 -0.99866801776E+01  0.28339969087E+02  0.42226763684E+02  0.51994803587E+02  0.41800000000E+01 0. -1.
         -5    1    3    3    0  502  0.23152066695E+02 -0.72240551590E+02  0.53743928358E+03  0.54278280317E+03  0.41800000000E+01 0. -1.
        -11    1    1    2    0    0 -0.32328201652E+01  0.63986308356E+02  0.79047170658E+02  0.10175044949E+03  0.00000000000E+00 0.  1.
         11    1    1    2    0    0 -0.99325663519E+01 -0.20085725853E+02  0.11252993657E+03  0.11473917762E+03  0.00000000000E+00 0. -1.
</event>
<event>
 7    1  0.2989693E-009  0.1172990E+03  0.7561462E-02  0.1247620E+00
         -1   -1    0    0    0  501 -0.00000000000E+00  0.00000000000E+00  0.33614596903E+02  0.33614596903E+02  0.00000000000E+00 0.  1.
          1   -1    0    0  501    0  0.00000000000E+00 -0.00000000000E+00 -0.63395688197E+03  0.63395688197E+03  0.00000000000E+00 0. -1.
         25    2    1    2    0    0  0.61223145194E+02  0.15592331921E+02 -0.49745969197E+03  0.51682236499E+03  0.12509123670E+03 0.  0.
          5    1    3    3  502    0  0.65361521719E+02 -0.43254639352E+02 -0.33068380886E+03  0.33987107289E+03  0.41800000000E+01 0. -1.
         -5    1    3    3    0  502 -0.41383765249E+01  0.58846971273E+02 -0.16677588311E+03  0.17695129210E+03  0.41800000000E+01 0. -1.
        -11    1    1    2    0    0 -0.59388030676E+02 -0.40570648730E+02 -0.38310591198E+02  0.81489981740E+02  0.00000000000E+00 0.  1.
         11    1    1    2    0    0 -0.18351145177E+01  0.24978316809E+02 -0.64572001901E+02  0.69259132144E+02  0.00000000000E+00 0. -1.
</event>
<event>
 7    1  0.2989693E-009  0.1683768E+03  0.7561462E-02  0.1179551E+00
          2   -1    0    0  501    0  0.00000000000E+00  0.00000000000E+00  0.23401440995E+04  0.23401440995E+04  0.00000000000E+00 0. -1.
         -2   -1    0    0    0  501 -0.00000000000E+00 -0.00000000000E+00 -0.16424911913E+02  0.16424911913E+02  0.00000000000E+00 0.  1.
         25    2    1    2    0    0  0.34851390516E+02  0.15643491428E+03  0.14094066373E+04  0.14239950296E+04  0.12509305921E+03 0.  0.
          5    1    3    3  502    0  0.25900554737E+02  0.12826568353E+03  0.13598815043E+04  0.13661691339E+04  0.41800000000E+01 0.  1.
         -5    1    3    3    0  502  0.89508357791E+01  0.28169230751E+02  0.49525132941E+02  0.57825895713E+02  0.41800000000E+01 0.  1.
        -11    1    1    2    0    0 -0.57114520757E+02 -0.12532303867E+03  0.80650060168E+03  0.81817550257E+03  0.00000000000E+00 0.  1.
         11    1    1    2    0    0  0.22263130241E+02 -0.31111875608E+02  0.10781194866E+03  0.11439847921E+03  0.00000000000E+00 0. -1.
</event>
<event>
 7    1  0.2989693E-009  0.2139155E+03  0.7561462E-02  0.1138502E+00
         -2   -1    0    0    0  501 -0.00000000000E+00  0.00000000000E+00  0.87589556285E+02  0.87589556285E+02  0.00000000000E+00 0. -1.
          2   -1    0    0  501    0  0.00000000000E+00 -0.00000000000E+00 -0.57160829786E+03  0.57160829786E+03  0.00000000000E+00 0.  1.
         25    2    1    2    0    0 -0.11232737372E+03  0.14906428119E+03 -0.16834598353E+03  0.28076263377E+03  0.12509871118E+03 0.  0.
          5    1    3    3  502    0  0.10345384217E+02  0.84266362519E+02 -0.76247034870E+02  0.11418813228E+03  0.41800000000E+01 0. -1.
         -5    1    3    3    0  502 -0.12267275793E+03  0.64797918666E+02 -0.92098948655E+02  0.16657450149E+03  0.41800000000E+01 0. -1.
        -11    1    1    2    0    0  0.10686093185E+03 -0.15965258535E+03 -0.31116759875E+03  0.36569588633E+03  0.00000000000E+00 0.  1.
         11    1    1    2    0    0  0.54664418667E+01  0.10588304166E+02 -0.45051593003E+01  0.12739334053E+02  0.00000000000E+00 0. -1.
</event>
<event>
 7    1  0.2989693E-009  0.1301348E+03  0.7561462E-02  0.1227256E+00
         -2   -1    0    0    0  501 -0.00000000000E+00  0.00000000000E+00  0.88241841865E+02  0.88241841865E+02  0.00000000000E+00 0.  1.
          2   -1    0    0  501    0  0.00000000000E+00 -0.00000000000E+00 -0.27631537951E+03  0.27631537951E+03  0.00000000000E+00 0. -1.
         25    2    1    2    0    0  0.95874366630E+02  0.58976975230E+02 -0.10785841990E+03  0.19987774883E+03  0.12508995943E+03 0.  0.
          5    1    3    3  502    0  0.11137117340E+03  0.31385391314E+02 -0.36005637109E+02  0.12125369832E+03  0.41800000000E+01 0.  1.
         -5    1    3    3    0  502 -0.15496806775E+02  0.27591583916E+02 -0.71852782786E+02  0.78624050502E+02  0.41800000000E+01 0.  1.
        -11    1    1    2    0    0 -0.28650939787E+02 -0.17209800541E+02 -0.78722071078E+02  0.85523201881E+02  0.00000000000E+00 0. -1.
         11    1    1    2    0    0 -0.67223426843E+02 -0.41767174689E+02 -0.14930466729E+01  0.79156270670E+02  0.00000000000E+00 0.  1.
</event>
<event>
 7    1  0.2989693E-009  0.1664825E+03  0.7561462E-02  0.1181566E+00
          1   -1    0    0  501    0  0.00000000000E+00  0.00000000000E+00  0.11629435595E+04  0.11629435595E+04  0.00000000000E+00 0. -1.
         -1   -1    0    0    0  501 -0.00000000000E+00 -0.00000000000E+00 -0.64535635358E+02  0.64535635358E+02  0.00000000000E+00 0.  1.
         25    2    1    2    0    0  0.96930641260E+02  0.13372900935E+03  0.98576276826E+03  0.10073004947E+04  0.12508818574E+03 0.  0.
          5    1    3    3  502    0  0.88013321936E+02  0.10648570786E+03  0.44981648879E+03  0.47057188272E+03  0.41800000000E+01 0. -1.
         -5    1    3    3    0  502  0.89173193239E+01  0.27243301487E+02  0.53594627947E+03  0.53672861200E+03  0.41800000000E+01 0. -1.
        -11    1    1    2    0    0 -0.40116203285E+02 -0.67523941408E+02  0.10746528896E+01  0.78549012139E+02  0.00000000000E+00 0.  1.
         11    1    1    2    0    0 -0.56814437975E+02 -0.66205067943E+02  0.11157050296E+03  0.14162968797E+03  0.00000000000E+00 0. -1.
</event>
<event>
 7    1  0.2989693E-009  0.1159464E+03  0.7561462E-02  0.1249938E+00
         -3   -1    0    0    0  501 -0.00000000000E+00  0.00000000000E+00  0.18823586127E+03  0.18823586127E+03  0.00000000000E+00 0.  1.
          3   -1    0    0  501    0  0.00000000000E+00 -0.00000000000E+00 -0.20961009175E+03  0.20961009175E+03  0.00000000000E+00 0. -1.
         25    2    1    2    0    0 -0.10032380185E+03  0.49437135975E+02  0.11278038044E+03  0.20217138778E+03  0.12507981529E+03 0.  0.
          5    1    3    3  502    0 -0.41344713908E+02  0.17144297026E+02  0.12576774077E+03  0.13356013367E+03  0.41800000000E+01 0.  1.
         -5    1    3    3    0  502 -0.58979087940E+02  0.32292838950E+02 -0.12987360324E+02  0.68611254105E+02  0.41800000000E+01 0.  1.
        -11    1    1    2    0    0  0.73319478346E+02 -0.55421684004E+02 -0.45012347608E+02  0.10233973031E+03  0.00000000000E+00 0.  1.
         11    1    1    2    0    0  0.27004323503E+02  0.59845480287E+01 -0.89142263316E+02  0.93334834934E+02  0.00000000000E+00 0. -1.
</event>
<event>
 7    1  0.2989693E-009  0.1064915E+03  0.7561462E-02  0.1267208E+00
         -1   -1    0    0    0  501 -0.00000000000E+00  0.00000000000E+00  0.71999541731E+02  0.71999541731E+02  0.00000000000E+00 0.  1.
          1   -1    0    0  501    0  0.00000000000E+00 -0.00000000000E+00 -0.20357943658E+03  0.20357943658E+03  0.00000000000E+00 0. -1.
         25    2    1    2    0    0  0.36882569571E+02 -0.40696255030E+02 -0.80704668597E+02  0.15868162631E+03  0.12510038323E+03 0.  0.
          5    1    3    3  502    0 -0.19505201278E+02 -0.46942478810E+02  0.96506981387E+01  0.51910091199E+02  0.41800000000E+01 0.  1.
         -5    1    3    3    0  502  0.56387770849E+02  0.62462237807E+01 -0.90355366736E+02  0.10677153511E+03  0.41800000000E+01 0.  1.
        -11    1    1    2    0    0 -0.39998532103E+02 -0.19719607405E+02 -0.18471584342E+02  0.48269502946E+02  0.00000000000E+00 0.  1.
         11    1    1    2    0    0  0.31159625313E+01  0.60415862434E+02 -0.32403641908E+02  0.68627849049E+02  0.00000000000E+00 0. -1.
</event>
<event>
 7    1  0.2989693E-009  0.9327108E+02  0.7561462E-02  0.1295118E+00
          4   -1    0    0  501    0  0.00000000000E+00  0.00000000000E+00  0.35537663432E+02  0.35537663432E+02  0.00000000000E+00 0. -1.
         -4   -1    0    0    0  501 -0.00000000000E+00 -0.00000000000E+00 -0.39043142492E+03  0.39043142492E+03  0.00000000000E+00 0.  1.
         25    2    1    2    0    0 -0.40326435678E+02  0.28491519730E+02 -0.18010236097E+03  0.22477283132E+03  0.12509187489E+03 0.  0.
          5    1    3    3  502    0 -0.29955551722E+02 -0.35702112313E+02 -0.14150136717E+03  0.14903719406E+03  0.41800000000E+01 0. -1.
         -5    1    3    3    0  502 -0.10370883956E+02  0.64193632043E+02 -0.38600993797E+02  0.75735637258E+02  0.41800000000E+01 0. -1.
        -11    1    1    2    0    0  0.23557903397E+02 -0.45167249752E+02 -0.41170002846E+02  0.65498277817E+02  0.00000000000E+00 0. -1.
         11    1    1    2    0    0  0.16768532282E+02  0.16675730022E+02 -0.13362139767E+03  0.13569797921E+03  0.00000000000E+00 0.  1.
</event>
<event>
 7    1  0.2989693E-009  0.1516070E+03  0.7561462E-02  0.1198512E+00
          2   -1    0    0  501    0  0.00000000000E+00  0.00000000000E+00  0.56284058797E+03  0.56284058797E+03  0.00000000000E+00 0.  1.
         -2   -1    0    0    0  501 -0.00000000000E+00 -0.00000000000E+00 -0.41864876646E+02  0.41864876646E+02  0.00000000000E+00 0. -1.
         25    2    1    2    0    0  0.80559331172E+02 -0.69263635225E+02  0.31514587179E+03  0.35531495172E+03  0.12507812522E+03 0.  0.
          5    1    3    3  502    0  0.98922795780E+02 -0.72612557418E+01  0.18721145181E+03  0.21190574661E+03  0.41800000000E+01 0. -1.
         -5    1    3    3    0  502 -0.18363464608E+02 -0.62002379484E+02  0.12793441998E+03  0.14340920511E+03  0.41800000000E+01 0. -1.
        -11    1    1    2    0    0  0.11200802190E+02  0.41918826750E+02  0.47275729378E+02  0.64168844419E+02  0.00000000000E+00 0. -1.
         11    1    1    2    0    0 -0.91760133363E+02  0.27344808475E+02  0.15855411016E+03  0.18522166847E+03  0.00000000000E+00 0.  1.
</event>
<event>
 7    1  0.2989693E-009  0.7942367E+02  0.7561462E-02  0.1330695E+00
         -1   -1    0    0    0  501 -0.00000000000E+00  0.00000000000E+00  0.28641040276E+02  0.28641040276E+02  0.00000000000E+00 0.  1.
          1   -1    0    0  501    0  0.00000000000E+00 -0.00000000000E+00 -0.42982420887E+03  0.42982420887E+03  0.00000000000E+00 0. -1.
         25    2    1    2    0    0 -0.10575659750E+02 -0.22969891202E+02 -0.27389029082E+03  0.30216321458E+03  0.12508899376E+03 0.  0.
          5    1    3    3  502    0 -0.46526246622E+02  0.26575536009E+02 -0.64437031889E+02  0.83908010449E+02  0.41800000000E+01 0.  1.
         -5    1    3    3    0  502  0.35950586871E+02 -0.49545427211E+02 -0.20945325893E+03  0.21825520413E+03  0.41800000000E+01 0.  1.
        -11    1    1    2    0    0  0.43867316119E+00  0.30883270595E+02 -0.13684200153E+03  0.14028436199E+03  0.00000000000E+00 0. -1.
         11    1    1    2    0    0  0.10136986589E+02 -0.79133793928E+01  0.95491237484E+01  0.16017672580E+02  0.00000000000E+00 0.  1.
</event>
<event>
 7    1  0.2989693E-009  0.3132668E+03  0.7561462E-02  0.1078791E+00
         -1   -1    0    0    0  501 -0.00000000000E+00  0.00000000000E+00  0.88617950998E+03  0.88617950998E+03  0.00000000000E+00 0.  1.
          1   -1    0    0  501    0  0.00000000000E+00 -0.00000000000E+00 -0.13359697077E+03  0.13359697077E+03  0.00000000000E+00 0. -1.
         25    2    1    2    0    0  0.33259430302E+02 -0.29440652910E+03  0.57846929846E+03  0.66185749600E+03  0.12508885508E+03 0.  0.
          5    1    3    3  502    0 -0.33700630235E+02 -0.19122337983E+03  0.29968948485E+03  0.35711815020E+03  0.41800000000E+01 0. -1.
         -5    1    3    3    0  502  0.66960060537E+02 -0.10318314927E+03  0.27877981361E+03  0.30473934579E+03  0.41800000000E+01 0. -1.
        -11    1    1    2    0    0 -0.21191722139E+02  0.81097468271E+01  0.14085207555E+00  0.22690899500E+02  0.00000000000E+00 0. -1.
         11    1    1    2    0    0 -0.12067708163E+02  0.28629678227E+03  0.17397238867E+03  0.33522808525E+03  0.00000000000E+00 0.  1.
</event>
<event>
 7    1  0.2989693E-009  0.9899501E+02  0.7561462E-02  0.1282424E+00
          3   -1    0    0  501    0  0.00000000000E+00  0.00000000000E+00  0.22652674791E+03  0.22652674791E+03  0.00000000000E+00 0. -1.
         -3   -1    0    0    0  501 -0.00000000000E+00 -0.00000000000E+00 -0.61360867849E+02  0.61360867849E+02  0.00000000000E+00 0.  1.
         25    2    1    2    0    0 -0.33238620008E+02  0.18250061295E+02  0.62800469523E+02  0.14501404553E+03  0.12508918351E+03 0.  0.
          5    1    3    3  502    0  0.45824124094E+02  0.22762537618E+02  0.27035291075E+02  0.58020365660E+02  0.41800000000E+01 0.  1.
         -5    1    3    3    0  502 -0.79062744102E+02 -0.45124763235E+01  0.35765178448E+02  0.86993679868E+02  0.41800000000E+01 0.  1.
        -11    1    1    2    0    0  0.48338061003E+02 -0.19667182572E+02  0.11292056018E+03  0.12439621828E+03  0.00000000000E+00 0. -1.
         11    1    1    2    0    0 -0.15099440994E+02  0.14171212773E+01 -0.10555149642E+02  0.18477351949E+02  0.00000000000E+00 0.  1.
</event>
<event>
 7    1  0.2989693E-009  0.1145929E+03  0.7561462E-02  0.1252293E+00
         -2   -1    0    0    0  501 -0.00000000000E+00  0.00000000000E+00  0.24801521280E+03  0.24801521280E+03  0.00000000000E+00 0. -1.
          2   -1    0    0  501    0  0.00000000000E+00 -0.00000000000E+00 -0.55371423046E+02  0.55371423046E+02  0.00000000000E+00 0.  1.
         25    2    1    2    0    0  0.49730183832E+02 -0.19708264504E+02  0.91955732516E+02  0.16421017569E+03  0.12509044001E+03 0.  0.
          5    1    3    3  502    0  0.45556220660E+02  0.48807446131E+02  0.51500941970E+02  0.84423666483E+02  0.41800000000E+01 0. -1.
         -5    1    3    3    0  502  0.41739631719E+01 -0.68515710636E+02  0.40454790546E+02  0.79786509202E+02  0.41800000000E+01 0. -1.
        -11    1    1    2    0    0 -0.37610744670E+01  0.42183763593E+02  0.29949159228E+02  0.51870682765E+02  0.00000000000E+00 0.  1.
         11    1    1    2    0    0 -0.45969109365E+02 -0.22475499089E+02  0.70738898007E+02  0.87305777394E+02  0.00000000000E+00 0. -1.
</event>
<event>
 7    1  0.2989693E-009  0.1387101E+03  0.7561462E-02  0.1215075E+00
          2   -1    0    0  501    0  0.00000000000E+00  0.00000000000E+00  0.55508246570E+03  0.55508246570E+03  0.00000000000E+00 0. -1.
         -2   -1    0    0    0  501 -0.00000000000E+00 -0.00000000000E+00 -0.35692374788E+02  0.35692374788E+02  0.00000000000E+00 0.  1.
         25    2    1    2    0    0 -0.77478565311E+02  0.44276418444E+02  0.29370481661E+03  0.33147161802E+03  0.12509030713E+03 0.  0.
          5    1    3    3  502    0 -0.67032182707E+02 -0.33397478356E+02  0.13583397999E+03  0.15516780465E+03  0.41800000000E+01 0. -1.
         -5    1    3    3    0  502 -0.10446382604E+02  0.77673896800E+02  0.15787083662E+03  0.17630381337E+03  0.41800000000E+01 0. -1.
        -11    1    1    2    0    0  0.53719456234E+01 -0.51207678646E+02  0.12568429307E+03  0.13582203679E+03  0.00000000000E+00 0. -1.
         11    1    1    2    0    0  0.72106619688E+02  0.69312602022E+01  0.10000098122E+03  0.12348118568E+03  0.00000000000E+00 0.  1.
</event>
<event>
 7    1  0.2989693E-009  0.1287336E+03  0.7561462E-02  0.1229347E+00
         -2   -1    0    0    0  501 -0.00000000000E+00  0.00000000000E+00  0.26988720773E+03  0.26988720773E+03  0.00000000000E+00 0.  1.
          2   -1    0    0  501    0  0.00000000000E+00 -0.00000000000E+00 -0.18073651462E+03  0.18073651462E+03  0.00000000000E+00 0. -1.
         25    2    1    2    0    0 -0.96123154557E+02  0.47904761164E+02  0.20848244425E+03  0.26579960036E+03  0.12509984415E+03 0.  0.
          5    1    3    3  502    0 -0.13158795271E+02  0.27579272556E+02 -0.89820975781E+01  0.32123521672E+02  0.41800000000E+01 0. -1.
         -5    1    3    3    0  502 -0.82964359286E+02  0.20325488608E+02  0.21746454183E+03  0.23367607869E+03  0.41800000000E+01 0. -1.
        -11    1    1    2    0    0  0.58987110691E+02  0.21177755183E+02 -0.51023184765E+02  0.80816718108E+02  0.00000000000E+00 0.  1.
         11    1    1    2    0    0  0.37136043866E+02 -0.69082516347E+02 -0.68308566381E+02  0.10400740387E+03  0.00000000000E+00 0. -1.
</event>
<event>
 7    1  0.2989693E-009  0.1979103E+03  0.7561462E-02  0.1151514E+00
         -1   -1    0    0    0  501 -0.00000000000E+00  0.00000000000E+00  0.65960362704E+02  0.65960362704E+02  0.00000000000E+00 0.  1.
          1   -1    0    0  501    0  0.00000000000E+00 -0.00000000000E+00 -0.84952923389E+03  0.84952923389E+03  0.00000000000E+00 0. -1.
         25    2    1    2    0    0 -0.16280777883E+03  0.41137993118E+02 -0.65563296980E+03  0.68825883684E+03  0.12508768159E+03 0.  0.
          5    1    3    3  502    0  0.59611520443E+01 -0.25568888764E+02 -0.61126020412E+02  0.66657078976E+02  0.41800000000E+01 0. -1.
         -5    1    3    3    0  502 -0.16876893087E+03  0.66706881882E+02 -0.59450694938E+03  0.62160175787E+03  0.41800000000E+01 0. -1.
        -11    1    1    2    0    0  0.85469224334E+02 -0.64328571880E+02 -0.69622429803E+02  0.12763399312E+03  0.00000000000E+00 0. -1.
         11    1    1    2    0    0  0.77338554494E+02  0.23190578762E+02 -0.58313471592E+02  0.99596766633E+02  0.00000000000E+00 0.  1.
</event>
<event>
 7    1  0.2989693E-009  0.8317413E+02  0.7561462E-02  0.1320278E+00
         -2   -1    0    0    0  501 -0.00000000000E+00  0.00000000000E+00  0.65321174603E+02  0.65321174603E+02  0.00000000000E+00 0.  1.
          2   -1    0    0  501    0  0.00000000000E+00 -0.00000000000E+00 -0.36793129156E+03  0.36793129156E+03  0.00000000000E+00 0. -1.
         25    2    1    2    0    0  0.33874671001E+01  0.56422668475E+02 -0.29738767633E+03  0.32753839071E+03  0.12508786873E+03 0.  0.
          5    1    3    3  502    0  0.77207275391E+01  0.72288511092E+02 -0.75112743465E+02  0.10461661006E+03  0.41800000000E+01 0.  1.
         -5    1    3    3    0  502 -0.43332604389E+01 -0.15865842616E+02 -0.22227493286E+03  0.22292178065E+03  0.41800000000E+01 0.  1.
        -11    1    1    2    0    0 -0.26469904125E+02 -0.40985234533E+02  0.32683304470E+02  0.58725153599E+02  0.00000000000E+00 0.  1.
         11    1    1    2    0    0  0.23082437024E+02 -0.15437433942E+02 -0.37905745098E+02  0.46988921856E+02  0.00000000000E+00 0. -1.
</event>
<event>
 7    1  0.2989693E-009  0.8872085E+02  0.7561462E-02  0.1305979E+00
         -1   -1    0    0    0  501 -0.00000000000E+00  0.00000000000E+00  0.87439029205E+02  0.87439029205E+02  0.00000000000E+00 0.  1.
          1   -1    0    0  501    0  0.00000000000E+00 -0.00000000000E+00 -0.14481263713E+03  0.14481263713E+03  0.00000000000E+00 0. -1.
         25    2    1    2    0    0 -0.32379543573E+01  0.21245341337E+02 -0.57912880799E+02  0.13950995388E+03  0.12508907463E+03 0.  0.
          5    1    3    3  502    0  0.17412936580E+02  0.57690842090E+02  0.83751639157E+01  0.60984091302E+02  0.41800000000E+01 0. -1.
         -5    1    3    3    0  502 -0.20650890937E+02 -0.36445500753E+02 -0.66288044715E+02  0.78525862579E+02  0.41800000000E+01 0. -1.
        -11    1    1    2    0    0  0.36852252837E+02 -0.18435657327E+02  0.27516597796E+02  0.49549219514E+02  0.00000000000E+00 0.  1.
         11    1    1    2    0    0 -0.33614298480E+02 -0.28096840099E+01 -0.26977324924E+02  0.43192492943E+02  0.00000000000E+00 0. -1.
</event>
<event>
 7    1  0.2989693E-009  0.1273650E+03  0.7561462E-02  0.1231419E+00
          2   -1    0    0  501    0  0.00000000000E+00  0.00000000000E+00  0.73174258323E+03  0.73174258323E+03  0.00000000000E+00 0. -1.
         -2   -1    0    0    0  501 -0.00000000000E+00 -0.00000000000E+00 -0.43066583517E+02  0.43066583517E+02  0.00000000000E+00 0.  1.
         25    2    1    2    0    0  0.43238431569E+02  0.11561081447E+03  0.50986515736E+03  0.53930089782E+03  0.12509019671E+03 0.  0.
          5    1    3    3  502    0  0.12508364921E+02  0.18966077367E+02  0.41124938534E+01  0.23463935931E+02  0.41800000000E+01 0. -1.
         -5    1    3    3    0  502  0.30730066649E+02  0.96644737101E+02  0.50575266351E+03  0.51583696189E+03  0.41800000000E+01 0. -1.
        -11    1    1    2    0    0 -0.33061306305E+02 -0.32369266829E+02  0.10474910176E+02  0.47439889890E+02  0.00000000000E+00 0.  1.
         11    1    1    2    0    0 -0.10177125265E+02 -0.83241547639E+02  0.16833593217E+03  0.18806837903E+03  0.00000000000E+00 0. -1.
</event>
<event>
 7    1  0.2989693E-009  0.8816742E+02  0.7561462E-02  0.1307351E+00
         -1   -1    0    0    0  501 -0.00000000000E+00  0.00000000000E+00  0.10500335761E+03  0.10500335761E+03  0.00000000000E+00 0.  1.
          1   -1    0    0  501    0  0.00000000000E+00 -0.00000000000E+00 -0.12830017945E+03  0.12830017945E+03  0.00000000000E+00 0. -1.
         25    2    1    2    0    0 -0.27949534349E+02 -0.30079054590E+02 -0.30741930049E+02  0.13519803049E+03  0.12509002834E+03 0.  0.
          5    1    3    3  502    0 -0.57167148425E+02 -0.64473116802E+02 -0.18123770533E+02  0.88152192869E+02  0.41800000000E+01 0. -1.
         -5    1    3    3    0  502  0.29217614076E+02  0.34394062212E+02 -0.12618159516E+02  0.47045837620E+02  0.41800000000E+01 0. -1.
        -11    1    1    2    0    0  0.77234836510E+01  0.21369104035E+02 -0.39884919109E+02  0.45903132565E+02  0.00000000000E+00 0. -1.
         11    1    1    2    0    0  0.20226050698E+02  0.87099505549E+01  0.47330027322E+02  0.52202374005E+02  0.00000000000E+00 0.  1.
</event>
<event>
 7    1  0.2989693E-009  0.9737606E+02  0.7561462E-02  0.1285913E+00
         -2   -1    0    0    0  501 -0.00000000000E+00  0.00000000000E+00  0.38958519597E+02  0.38958519597E+02  0.00000000000E+00 0.  1.
          2   -1    0    0  501    0  0.00000000000E+00 -0.00000000000E+00 -0.98964274370E+03  0.98964274370E+03  0.00000000000E+00 0. -1.
         25    2    1    2    0    0 -0.45681913928E+02 -0.62777922704E+02 -0.87448387094E+03  0.88679273510E+03  0.12510559403E+03 0.  0.
          5    1    3    3  502    0 -0.55172253751E+02 -0.39483977279E+02 -0.84534294670E+03  0.84807141915E+03  0.41800000000E+01 0. -1.
         -5    1    3    3    0  502  0.94903398229E+01 -0.23293945426E+02 -0.29140924242E+02  0.38721315953E+02  0.41800000000E+01 0. -1.
        -11    1    1    2    0    0 -0.10693565894E+02 -0.60697600833E+01  0.11524928726E+02  0.16852843118E+02  0.00000000000E+00 0.  1.
         11    1    1    2    0    0  0.56375479822E+02  0.68847682788E+02 -0.87725281891E+02  0.12495568508E+03  0.00000000000E+00 0. -1.
</event>
<event>
 7    1  0.2989693E-009  0.9319234E+02  0.7561462E-02  0.1295300E+00
          2   -1    0    0  501    0  0.00000000000E+00  0.00000000000E+00  0.46166750628E+03  0.46166750628E+03  0.00000000000E+00 0. -1.
         -2   -1    0    0    0  501 -0.00000000000E+00 -0.00000000000E+00 -0.26882501543E+02  0.26882501543E+02  0.00000000000E+00 0.  1.
         25    2    1    2    0    0 -0.88925053812E+01 -0.10376013208E+02  0.28764419413E+03  0.31396400869E+03  0.12508987981E+03 0.  0.
          5    1    3    3  502    0  0.17398993992E+02 -0.62022591062E+02  0.18601597098E+03  0.19689830028E+03  0.41800000000E+01 0.  1.
         -5    1    3    3    0  502 -0.26291499373E+02  0.51646577854E+02  0.10162822315E+03  0.11706570841E+03  0.41800000000E+01 0.  1.
        -11    1    1    2    0    0  0.71311530159E+01  0.36679307387E+02  0.15704741925E+02  0.40532256940E+02  0.00000000000E+00 0.  1.
         11    1    1    2    0    0  0.17613523652E+01 -0.26303294179E+02  0.13143606868E+03  0.13405374219E+03  0.00000000000E+00 0. -1.
</event>
<event>
 7    1  0.2989693E-009  0.1295055E+03  0.7561462E-02  0.1228191E+00
         -2   -1    0    0    0  501 -0.00000000000E+00  0.00000000000E+00  0.27287620318E+02  0.27287620318E+02  0.00000000000E+00 0.  1.
          2   -1    0    0  501    0  0.00000000000E+00 -0.00000000000E+00 -0.67294528049E+03  0.67294528049E+03  0.00000000000E+00 0. -1.
         25    2    1    2    0    0  0.40887581819E+02 -0.66818786456E+02 -0.30949645294E+03  0.34288780912E+03  0.12508977052E+03 0.  0.
          5    1    3    3  502    0 -0.42453229841E+02 -0.71425753619E+01 -0.69151676948E+02  0.81564207417E+02  0.41800000000E+01 0. -1.
         -5    1    3    3    0  502  0.83340811660E+02 -0.59676211094E+02 -0.24034477599E+03  0.26132360170E+03  0.41800000000E+01 0. -1.
        -11    1    1    2    0    0 -0.43246837230E+00  0.72338772785E+02 -0.27065793088E+03  0.28015852767E+03  0.00000000000E+00 0. -1.
         11    1    1    2    0    0 -0.40455113446E+02 -0.55199863293E+01 -0.65503276354E+02  0.77186564026E+02  0.00000000000E+00 0.  1.
</event>
<event>
 7    1  0.2989693E-009  0.1084543E+03  0.7561462E-02  0.1263459E+00
          1   -1    0    0  501    0  0.00000000000E+00  0.00000000000E+00  0.60430050385E+03  0.60430050385E+03  0.00000000000E+00 0. -1.
         -1   -1    0    0    0  501 -0.00000000000E+00 -0.00000000000E+00 -0.26530997751E+02  0.26530997751E+02  0.00000000000E+00 0.  1.
         25    2    1    2    0    0  0.85262456928E+01 -0.64980572687E+02  0.30636607080E+03  0.33734605120E+03  0.12508803794E+03 0.  0.
          5    1    3    3  502    0  0.42579512565E+02 -0.10217993123E+02  0.29321177918E+02  0.52864223708E+02  0.41800000000E+01 0. -1.
         -5    1    3    3    0  502 -0.34053266872E+02 -0.54762579564E+02  0.27704489288E+03  0.28448182750E+03  0.41800000000E+01 0. -1.
        -11    1    1    2    0    0 -0.42313805102E+02  0.95432825056E+01  0.14551156734E+03  0.15183921948E+03  0.00000000000E+00 0.  1.
         11    1    1    2    0    0  0.33787559409E+02  0.55437290181E+02  0.12589186796E+03  0.14164623092E+03  0.00000000000E+00 0. -1.
</event>
<event>
 7    1  0.2989693E-009  0.1693833E+03  0.7561462E-02  0.1178492E+00
          1   -1    0    0  501    0  0.00000000000E+00  0.00000000000E+00  0.38909113754E+03  0.38909113754E+03  0.00000000000E+00 0. -1.
         -1   -1    0    0    0  501 -0.00000000000E+00 -0.00000000000E+00 -0.14169799446E+03  0.14169799446E+03  0.00000000000E+00 0.  1.
         25    2    1    2    0    0  0.11383999612E+03  0.20777756669E+02  0.30099594419E+03  0.34588712602E+03  0.12509230846E+03 0.  0.
          5    1    3    3  502    0 -0.23455326841E+02  0.18281782569E+01  0.15448677795E+02  0.28453974038E+02  0.41800000000E+01 0. -1.
         -5    1    3    3    0  502  0.13729532296E+03  0.18949578412E+02  0.28554726640E+03  0.31743315198E+03  0.41800000000E+01 0. -1.
        -11    1    1    2    0    0 -0.23664194084E+02 -0.69708764080E+02 -0.30818815101E+02  0.79806674128E+02  0.00000000000E+00 0.  1.
         11    1    1    2    0    0 -0.90175802031E+02  0.48931007411E+02 -0.22783986011E+02  0.10509533185E+03  0.00000000000E+00 0. -1.
</event>
<event>
 7    1  0.2989693E-009  0.1311939E+03  0.7561462E-02  0.1225695E+00
         -1   -1    0    0    0  501 -0.00000000000E+00  0.00000000000E+00  0.57827054284E+02  0.57827054284E+02  0.00000000000E+00 0.  1.
          1   -1    0    0  501    0  0.00000000000E+00 -0.00000000000E+00 -0.64012569407E+03  0.64012569407E+03  0.00000000000E+00 0. -1.
         25    2    1    2    0    0 -0.76747788887E+02 -0.15576781848E+02 -0.54684855887E+03  0.56641340370E+03  0.12509171961E+03 0.  0.
          5    1    3    3  502    0 -0.58301977405E+02 -0.64942555259E+02 -0.41996020175E+03  0.42895302715E+03  0.41800000000E+01 0.  1.
         -5    1    3    3    0  502 -0.18445811482E+02  0.49365773411E+02 -0.12688835713E+03  0.13746037655E+03  0.41800000000E+01 0.  1.
        -11    1    1    2    0    0  0.98188871955E+02  0.20127733519E+02 -0.14601137211E+02  0.10128856520E+03  0.00000000000E+00 0.  1.
         11    1    1    2    0    0 -0.21441083068E+02 -0.45509516712E+01 -0.20848943707E+02  0.30250779460E+02  0.00000000000E+00 0. -1.
</event>
<event>
 7    1  0.2989693E-009  0.3707542E+03  0.7561462E-02  0.1054405E+00
          1   -1    0    0  501    0  0.00000000000E+00  0.00000000000E+00  0.12639891628E+03  0.12639891628E+03  0.00000000000E+00 0. -1.
         -1   -1    0    0    0  501 -0.00000000000E+00 -0.00000000000E+00 -0.12046675511E+04  0.12046675511E+04  0.00000000000E+00 0.  1.
         25    2    1    2    0    0  0.33951356968E+03 -0.12456278229E+03 -0.38017447672E+03  0.53941227883E+03  0.12509045955E+03 0.  0.
          5    1    3    3  502    0  0.94988861740E+02  0.20686466912E+01 -0.43872677987E+02  0.10473512986E+03  0.41800000000E+01 0.  1.
         -5    1    3    3    0  502  0.24452470794E+03 -0.12663142898E+03 -0.33630179873E+03  0.43467714896E+03  0.41800000000E+01 0. -1.
        -11    1    1    2    0    0 -0.36074297850E+02  0.44299344056E+02 -0.14258056367E+03  0.15360014319E+03  0.00000000000E+00 0.  1.
         11    1    1    2    0    0 -0.30343927183E+03  0.80263438237E+02 -0.55551359439E+03  0.63805404533E+03  0.00000000000E+00 0. -1.
</event>
<event>
 7    1  0.2989693E-009  0.1165401E+03  0.7561462E-02  0.1248916E+00
          2   -1    0    0  501    0  0.00000000000E+00  0.00000000000E+00  0.48683616382E+02  0.48683616382E+02  0.00000000000E+00 0. -1.
         -2   -1    0    0    0  501 -0.00000000000E+00 -0.00000000000E+00 -0.33168217358E+03  0.33168217358E+03  0.00000000000E+00 0.  1.
         25    2    1    2    0    0 -0.53689672331E+01 -0.54995380669E+02 -0.21214395742E+03  0.25240284521E+03  0.12509524330E+03 0.  0.
          5    1    3    3  502    0 -0.59886811017E+02 -0.15754155617E+02 -0.61339169305E+02  0.87261616098E+02  0.41800000000E+01 0. -1.
         -5    1    3    3    0  502  0.54517843784E+02 -0.39241225052E+02 -0.15080478812E+03  0.16514122912E+03  0.41800000000E+01 0. -1.
        -11    1    1    2    0    0 -0.33399197501E+02  0.55691393176E+02 -0.29663597230E+02  0.71393043557E+02  0.00000000000E+00 0.  1.
         11    1    1    2    0    0  0.38768164734E+02 -0.69601250717E+00 -0.41191002549E+02  0.56569901195E+02  0.00000000000E+00 0. -1.
</event>
<event>
 7    1  0.2989693E-009  0.1761296E+03  0.7561462E-02  0.1171602E+00
          2   -1    0    0  501    0  0.00000000000E+00  0.00000000000E+00  0.58337305383E+03  0.58337305383E+03  0.00000000000E+00 0. -1.
         -2   -1    0    0    0  501 -0.00000000000E+00 -0.00000000000E+00 -0.79080662462E+02  0.79080662462E+02  0.00000000000E+00 0.  1.
         25    2    1    2    0    0  0.12115315994E+03 -0.99954235536E+02  0.26631124669E+03  0.33352659139E+03  0.12509744076E+03 0.  0.
          5    1    3    3  502    0  0.42983191434E+02  0.86286027939E+01  0.11218784127E+02  0.45446023471E+02  0.41800000000E+01 0. -1.
         -5    1    3    3    0  502  0.78169968505E+02 -0.10858283833E+03  0.25509246256E+03  0.28808056792E+03  0.41800000000E+01 0. -1.
        -11    1    1    2    0    0 -0.54013749128E+02  0.76018119103E-01  0.19305394731E+03  0.20046774664E+03  0.00000000000E+00 0. -1.
         11    1    1    2    0    0 -0.67139410810E+02  0.99878217417E+02  0.44927197368E+02  0.12845937826E+03  0.00000000000E+00 0.  1.
</event>
<event>
 7    1  0.2989693E-009  0.1130263E+03  0.7561462E-02  0.1255066E+00
          2   -1    0    0  501    0  0.00000000000E+00  0.00000000000E+00  0.91125790940E+03  0.91125790940E+03  0.00000000000E+00 0. -1.
         -2   -1    0    0    0  501 -0.00000000000E+00 -0.00000000000E+00 -0.15011022967E+02  0.15011022967E+02  0.00000000000E+00 0.  1.
         25    2    1    2    0    0  0.32662212128E+02  0.29730719135E+02  0.49153776394E+03  0.50912370720E+03  0.12508732987E+03 0.  0.
          5    1    3    3  502    0 -0.40538549829E+02 -0.97544569489E+01  0.25348427440E+03  0.25692464502E+03  0.41800000000E+01 0. -1.
         -5    1    3    3    0  502  0.73200761957E+02  0.39485176084E+02  0.23805348954E+03  0.25219906218E+03  0.41800000000E+01 0. -1.
        -11    1    1    2    0    0  0.26158226444E+02 -0.32821616057E+02  0.18226266732E+03  0.18703259393E+03  0.00000000000E+00 0. -1.
         11    1    1    2    0    0 -0.58820438572E+02  0.30908969217E+01  0.22244645517E+03  0.23011263124E+03  0.00000000000E+00 0.  1.
</event>
<event>
 7    1  0.2989693E-009  0.1139984E+03  0.7561462E-02  0.1253340E+00
          1   -1    0    0  501    0  0.00000000000E+00  0.00000000000E+00  0.15673431752E+03  0.15673431752E+03  0.00000000000E+00 0. -1.
         -1   -1    0    0    0  501 -0.00000000000E+00 -0.00000000000E+00 -0.87629574334E+02  0.87629574334E+02  0.00000000000E+00 0.  1.
         25    2    1    2    0    0  0.30349375349E+02 -0.20862621979E+02  0.11719639864E+02  0.13092489855E+03  0.12509054929E+03 0.  0.
          5    1    3    3  502    0 -0.46919478772E+02  0.79934802309E+01  0.28654803816E+01  0.47864565100E+02  0.41800000000E+01 0.  1.
         -5    1    3    3    0  502  0.77268854120E+02 -0.28856102210E+02  0.88541594829E+01  0.83060333445E+02  0.41800000000E+01 0.  1.
        -11    1    1    2    0    0 -0.28769192561E+02  0.55735440493E+02  0.40496192702E+02  0.74659543200E+02  0.00000000000E+00 0. -1.
         11    1    1    2    0    0 -0.15801827879E+01 -0.34872818513E+02  0.16888910618E+02  0.38779450107E+02  0.00000000000E+00 0.  1.
</event>
<event>
 7    1  0.2989693E-009  0.9602035E+02  0.7561462E-02  0.1288894E+00
          1   -1    0    0  501    0  0.00000000000E+00  0.00000000000E+00  0.68203924827E+03  0.68203924827E+03  0.00000000000E+00 0. -1.
         -1   -1    0    0    0  501 -0.00000000000E+00 -0.00000000000E+00 -0.28321320352E+02  0.28321320352E+02  0.00000000000E+00 0.  1.
         25    2    1    2    0    0  0.41173149033E+02 -0.94522992430E+01  0.16309961346E+03  0.20984416188E+03  0.12509402145E+03 0.  0.
          5    1    3    3  502    0  0.80202585823E+01  0.35728584590E+02 -0.50351772989E+00  0.36858950536E+02  0.41800000000E+01 0.  1.
         -5    1    3    3    0  502  0.33152890450E+02 -0.45180883833E+02  0.16360313119E+03  0.17298521134E+03  0.41800000000E+01 0.  1.
        -11    1    1    2    0    0 -0.66632384791E+02 -0.94251304627E+01  0.34136588653E+03  0.34793587955E+03  0.00000000000E+00 0. -1.
         11    1    1    2    0    0  0.25459235758E+02  0.18877429706E+02  0.14925242793E+03  0.15258052720E+03  0.00000000000E+00 0.  1.
</event>
<event>
 7    1  0.2989693E-009  0.9421386E+02  0.7561462E-02  0.1292957E+00
          2   -1    0    0  501    0  0.00000000000E+00  0.00000000000E+00  0.74274440800E+02  0.74274440800E+02  0.00000000000E+00 0. -1.
         -2   -1    0    0    0  501 -0.00000000000E+00 -0.00000000000E+00 -0.16250568770E+03  0.16250568770E+03  0.00000000000E+00 0.  1.
         25    2    1    2    0    0  0.96601818614E+01  0.46475365992E+01 -0.67915909332E+02  0.14274352818E+03  0.12509286705E+03 0.  0.
          5    1    3    3  502    0  0.55596856169E+02 -0.82510630307E+01  0.38171149075E+01  0.56490116155E+02  0.41800000000E+01 0. -1.
         -5    1    3    3    0  502 -0.45936674308E+02  0.12898599630E+02 -0.71733024239E+02  0.86253412021E+02  0.41800000000E+01 0. -1.
        -11    1    1    2    0    0 -0.33916633667E+02  0.27663775914E+02 -0.29270103920E+02  0.52653219470E+02  0.00000000000E+00 0.  1.
         11    1    1    2    0    0  0.24256451805E+02 -0.32311312513E+02  0.89547663509E+01  0.41383380854E+02  0.00000000000E+00 0. -1.
</event>
<event>
 7    1  0.2989693E-009  0.9414422E+02  0.7561462E-02  0.1293115E+00
         -2   -1    0    0    0  501 -0.00000000000E+00  0.00000000000E+00  0.10528050699E+03  0.10528050699E+03  0.00000000000E+00 0. -1.
          2   -1    0    0  501    0  0.00000000000E+00 -0.00000000000E+00 -0.16963387988E+03  0.16963387988E+03  0.00000000000E+00 0.  1.
         25    2    1    2    0    0  0.47671084479E+02  0.24287292165E+02 -0.93434776260E+02  0.16504085189E+03  0.12508405383E+03 0.  0.
          5    1    3    3  502    0  0.10829014449E+02  0.67968194078E+02 -0.19796230931E+02  0.71737759368E+02  0.41800000000E+01 0.  1.
         -5    1    3    3    0  502  0.36842070030E+02 -0.43680901913E+02 -0.73638545329E+02  0.93303092522E+02  0.41800000000E+01 0.  1.
        -11    1    1    2    0    0 -0.12817055578E+02  0.75149392467E+01  0.54354537269E+02  0.56348619746E+02  0.00000000000E+00 0. -1.
         11    1    1    2    0    0 -0.34854028900E+02 -0.31802231412E+02 -0.25273133900E+02  0.53524915231E+02  0.00000000000E+00 0.  1.
</event>
<event>
 7    1  0.2989693E-009  0.9847512E+02  0.7561462E-02  0.1283536E+00
         -2   -1    0    0    0  501 -0.00000000000E+00  0.00000000000E+00  0.24105385059E+02  0.24105385059E+02  0.00000000000E+00 0. -1.
          2   -1    0    0  501    0  0.00000000000E+00 -0.00000000000E+00 -0.57985177121E+03  0.57985177121E+03  0.00000000000E+00 0.  1.
         25    2    1    2    0    0  0.35427537813E+02  0.35087322068E+02 -0.30272793651E+03  0.33132813517E+03  0.12509156250E+03 0.  0.
          5    1    3    3  502    0  0.82074252975E+02  0.14280728184E+02 -0.18638058390E+03  0.20419431102E+03  0.41800000000E+01 0. -1.
         -5    1    3    3    0  502 -0.46646715162E+02  0.20806593885E+02 -0.11634735261E+03  0.12713382415E+03  0.41800000000E+01 0. -1.
        -11    1    1    2    0    0 -0.20039206339E+02  0.38652333654E+01 -0.48840283078E+01  0.20984841010E+02  0.00000000000E+00 0. -1.
         11    1    1    2    0    0 -0.15388331474E+02 -0.38952555434E+02 -0.24813442133E+03  0.25164418008E+03  0.00000000000E+00 0.  1.
</event>
<event>
 7    1  0.2989693E-009  0.1040973E+03  0.7561462E-02  0.1271908E+00
          2   -1    0    0  501    0  0.00000000000E+00  0.00000000000E+00  0.82206279313E+02  0.82206279313E+02  0.00000000000E+00 0. -1.
         -2   -1    0    0    0  501 -0.00000000000E+00 -0.00000000000E+00 -0.19247958575E+03  0.19247958575E+03  0.00000000000E+00 0.  1.
         25    2    1    2    0    0 -0.16909229333E+02 -0.49046993082E+02 -0.21160107566E+02  0.13705170571E+03  0.12507553845E+03 0.  0.
          5    1    3    3  502    0  0.52944076932E+02 -0.34761204467E+02 -0.40109666658E+01  0.63600132640E+02  0.41800000000E+01 0.  1.
         -5    1    3    3    0  502 -0.69853306265E+02 -0.14285788614E+02 -0.17149140901E+02  0.73451573067E+02  0.41800000000E+01 0.  1.
        -11    1    1    2    0    0  0.35644871433E+02  0.30104220660E+02 -0.21772375158E+01  0.46707187072E+02  0.00000000000E+00 0. -1.
         11    1    1    2    0    0 -0.18735642100E+02  0.18942772422E+02 -0.86935961353E+02  0.90926972282E+02  0.00000000000E+00 0.  1.
</event>
<event>
 7    1  0.2989693E-009  0.1107431E+03  0.7561462E-02  0.1259200E+00
         -1   -1    0    0    0  501 -0.00000000000E+00  0.00000000000E+00  0.77890204453E+03  0.77890204453E+03  0.00000000000E+00 0.  1.
          1   -1    0    0  501    0  0.00000000000E+00 -0.00000000000E+00 -0.18080231578E+02  0.18080231578E+02  0.00000000000E+00 0. -1.
         25    2    1    2    0    0 -0.23814105472E+01 -0.34584447164E+02  0.31625471064E+03  0.34185398011E+03  0.12508135998E+03 0.  0.
          5    1    3    3  502    0 -0.85853793421E+00  0.47117773212E+02  0.99669045224E+02  0.11032775089E+03  0.41800000000E+01 0.  1.
         -5    1    3    3    0  502 -0.15228726130E+01 -0.81702220376E+02  0.21658566542E+03  0.23152622923E+03  0.41800000000E+01 0.  1.
        -11    1    1    2    0    0  0.35624174755E+02  0.45112518299E+02  0.34196696580E+03  0.34676451207E+03  0.00000000000E+00 0.  1.
         11    1    1    2    0    0 -0.33242764208E+02 -0.10528071135E+02  0.10260013651E+03  0.10836378392E+03  0.00000000000E+00 0. -1.
</event>
<event>
 6    1  0.2989693E-009  0.1131467E+03  0.7561462E-02  0.1254851E+00
          1   -1    0    0  501    0  0.00000000000E+00  0.00000000000E+00  0.13971275232E+04  0.13971275232E+04  0.00000000000E+00 0. -1.
         -1   -1    0    0    0  501 -0.00000000000E+00 -0.00000000000E+00 -0.12199924251E+02  0.12199924251E+02  0.00000000000E+00 0.  1.
          5    1    1    2  502    0  0.53402354505E+02 -0.41751957030E+02  0.77708762485E+03  0.78004979743E+03  0.41800000000E+01 0.  1.
         -5    1    1    2    0  502  0.73923544294E+01  0.53558197112E+02  0.21331046334E+03  0.22009532833E+03  0.41800000000E+01 0.  1.
        -11    1    1    2    0    0  0.19043471610E+02  0.98325329933E+01  0.42916897222E+02  0.47970747161E+02  0.00000000000E+00 0.  1.
         11    1    1    2    0    0 -0.79838180544E+02 -0.21638773075E+02  0.35161261352E+03  0.36121157451E+03  0.00000000000E+00 0. -1.
</event>
<event>
 7    1  0.2989693E-009  0.1286278E+03  0.7561462E-02  0.1229506E+00
         -2   -1    0    0    0  501 -0.00000000000E+00  0.00000000000E+00  0.34230560222E+02  0.34230560222E+02  0.00000000000E+00 0.  1.
          2   -1    0    0  501    0  0.00000000000E+00 -0.00000000000E+00 -0.62717137639E+03  0.62717137639E+03  0.00000000000E+00 0. -1.
         25    2    1    2    0    0  0.37627054425E+02  0.83048040398E+02 -0.19607895820E+03  0.24981908491E+03  0.12509934092E+03 0.  0.
          5    1    3    3  502    0 -0.44162570104E+02  0.30569838921E+02 -0.97117054082E+02  0.11105873331E+03  0.41800000000E+01 0. -1.
         -5    1    3    3    0  502  0.81789624529E+02  0.52478201477E+02 -0.98961904116E+02  0.13876035160E+03  0.41800000000E+01 0. -1.
        -11    1    1    2    0    0  0.10102286656E+02 -0.41888400935E+02 -0.11621174562E+03  0.12394298749E+03  0.00000000000E+00 0.  1.
         11    1    1    2    0    0 -0.47729341081E+02 -0.41159639463E+02 -0.28065011235E+03  0.28763986421E+03  0.00000000000E+00 0. -1.
</event>
<event>
 7    1  0.2989693E-009  0.1331527E+03  0.7561462E-02  0.1222851E+00
         -1   -1    0    0    0  501 -0.00000000000E+00  0.00000000000E+00  0.28768239828E+03  0.28768239828E+03  0.00000000000E+00 0.  1.
          1   -1    0    0  501    0  0.00000000000E+00 -0.00000000000E+00 -0.85307335574E+02  0.85307335574E+02  0.00000000000E+00 0. -1.
         25    2    1    2    0    0 -0.10220964752E+03 -0.48005628925E+02  0.12658457714E+03  0.21077177234E+03  0.12509889044E+03 0.  0.
          5    1    3    3  502    0 -0.11190553409E+03 -0.66609515971E+02  0.65063703111E+02  0.14563802402E+03  0.41800000000E+01 0.  1.
         -5    1    3    3    0  502  0.96958865633E+01  0.18603887046E+02  0.61520874026E+02  0.65133748321E+02  0.41800000000E+01 0.  1.
        -11    1    1    2    0    0  0.46789811393E+02  0.11269354696E+02  0.82373724142E+02  0.95402909989E+02  0.00000000000E+00 0.  1.
         11    1    1    2    0    0  0.55419836130E+02  0.36736274229E+02 -0.65832385684E+01  0.66815051530E+02  0.00000000000E+00 0. -1.
</event>
<event>
 7    1  0.2989693E-009  0.9939290E+02  0.7561462E-02  0.1281578E+00
         -1   -1    0    0    0  501 -0.00000000000E+00  0.00000000000E+00  0.26001628358E+03  0.26001628358E+03  0.00000000000E+00 0.  1.
          1   -1    0    0  501    0  0.00000000000E+00 -0.00000000000E+00 -0.51955066223E+02  0.51955066223E+02  0.00000000000E+00 0. -1.
         25    2    1    2    0    0 -0.13671439898E+02 -0.31990639282E+02  0.85818429634E+02  0.15563498329E+03  0.12508851221E+03 0.  0.
          5    1    3    3  502    0  0.29984273942E+02  0.37159456304E+02  0.33048904908E+02  0.58220137344E+02  0.41800000000E+01 0.  1.
         -5    1    3    3    0  502 -0.43655713840E+02 -0.69150095587E+02  0.52769524725E+02  0.97414845944E+02  0.41800000000E+01 0.  1.
        -11    1    1    2    0    0 -0.93623262440E+01  0.42596056998E+02  0.14975165107E+02  0.46112176206E+02  0.00000000000E+00 0. -1.
         11    1    1    2    0    0  0.23033766142E+02 -0.10605417716E+02  0.10726762261E+03  0.11022419030E+03  0.00000000000E+00 0.  1.
</event>
<event>
 7    1  0.2989693E-009  0.9395273E+02  0.7561462E-02  0.1293552E+00
         -2   -1    0    0    0  501 -0.00000000000E+00  0.00000000000E+00  0.19052169535E+03  0.19052169535E+03  0.00000000000E+00 0.  1.
          2   -1    0    0  501    0  0.00000000000E+00 -0.00000000000E+00 -0.70782248289E+02  0.70782248289E+02  0.00000000000E+00 0. -1.
         25    2    1    2    0    0 -0.32746428859E+01 -0.20440395150E+02  0.94502895513E+02  0.15814433357E+03  0.12510115882E+03 0.  0.
          5    1    3    3  502    0  0.59480114759E+02 -0.37604753572E+01  0.31361074868E+02  0.67476030141E+02  0.41800000000E+01 0. -1.
         -5    1    3    3    0  502 -0.62754757645E+02 -0.16679919793E+02  0.63141820645E+02  0.90668303424E+02  0.41800000000E+01 0. -1.
        -11    1    1    2    0    0  0.20085007798E+02  0.35327173439E+02 -0.25292653904E+02  0.47865802647E+02  0.00000000000E+00 0. -1.
         11    1    1    2    0    0 -0.16810364912E+02 -0.14886778289E+02  0.50529205455E+02  0.55293807431E+02  0.00000000000E+00 0.  1.
</event>
<event>
 7    1  0.2989693E-009  0.1211709E+03  0.7561462E-02  0.1241178E+00
          1   -1    0    0  501    0  0.00000000000E+00  0.00000000000E+00  0.63538750153E+03  0.63538750153E+03  0.00000000000E+00 0. -1.
         -1   -1    0    0    0  501 -0.00000000000E+00 -0.00000000000E+00 -0.25540745280E+02  0.25540745280E+02  0.00000000000E+00 0.  1.
         25    2    1    2    0    0  0.49191724627E+02  0.41095316362E+02  0.28651457489E+03  0.31913432003E+03  0.12508981494E+03 0.  0.
          5    1    3    3  502    0 -0.38854244381E+02 -0.71725381509E+01  0.71621344871E+02  0.81903522825E+02  0.41800000000E+01 0.  1.
         -5    1    3    3    0  502  0.88045969008E+02  0.48267854513E+02  0.21489323001E+03  0.23723079721E+03  0.41800000000E+01 0.  1.
        -11    1    1    2    0    0 -0.40158646317E+02 -0.65087070449E+02  0.28898972633E+03  0.29893829720E+03  0.00000000000E+00 0. -1.
         11    1    1    2    0    0 -0.90330783097E+01  0.23991754087E+02  0.34342455033E+02  0.42855629567E+02  0.00000000000E+00 0.  1.
</event>
<event>
 7    1  0.2989693E-009  0.1374852E+03  0.7561462E-02  0.1216753E+00
          2   -1    0    0  501    0  0.00000000000E+00  0.00000000000E+00  0.27956278738E+03  0.27956278738E+03  0.00000000000E+00 0.  1.
         -2   -1    0    0    0  501 -0.00000000000E+00 -0.00000000000E+00 -0.95483158325E+02  0.95483158325E+02  0.00000000000E+00 0. -1.
         25    2    1    2    0    0 -0.11467693879E+03 -0.32093476445E+02  0.12536143338E+03  0.21340982547E+03  0.12508986013E+03 0.  0.
          5    1    3    3  502    0 -0.87195312612E+02 -0.65098086002E+02  0.13048607683E+03  0.16995550003E+03  0.41800000000E+01 0. -1.
         -5    1    3    3    0  502 -0.27481626177E+02  0.33004609557E+02 -0.51246434509E+01  0.43454325445E+02  0.41800000000E+01 0. -1.
        -11    1    1    2    0    0  0.16663171987E+02  0.16910753286E+02  0.57759961553E+02  0.62448763286E+02  0.00000000000E+00 0.  1.
         11    1    1    2    0    0  0.98013766802E+02  0.15182723158E+02  0.95823412007E+00  0.99187356946E+02  0.00000000000E+00 0. -1.
</event>
<event>
 7    1  0.2989693E-009  0.1064869E+03  0.7561462E-02  0.1267217E+00
          1   -1    0    0  501    0  0.00000000000E+00  0.00000000000E+00  0.34435654434E+03  0.34435654434E+03  0.00000000000E+00 0. -1.
         -1   -1    0    0    0  501 -0.00000000000E+00 -0.00000000000E+00 -0.44553001729E+02  0.44553001729E+02  0.00000000000E+00 0.  1.
         25    2    1    2    0    0  0.54749047770E+02 -0.52498434605E+01  0.12800706574E+03  0.18724008929E+03  0.12509205839E+03 0.  0.
          5    1    3    3  502    0  0.23295651753E+02 -0.64416596724E+02  0.54062244319E+02  0.87363516326E+02  0.41800000000E+01 0.  1.
         -5    1    3    3    0  502  0.31453396017E+02  0.59166753263E+02  0.73944821419E+02  0.99876572966E+02  0.41800000000E+01 0.  1.
        -11    1    1    2    0    0 -0.41760355966E+02  0.28512559197E+02  0.16714113982E+03  0.17462260444E+03  0.00000000000E+00 0. -1.
         11    1    1    2    0    0 -0.12988691804E+02 -0.23262715736E+02  0.46553370564E+01  0.27046852336E+02  0.00000000000E+00 0.  1.
</event>
<event>
 7    1  0.2989693E-009  0.1740284E+03  0.7561462E-02  0.1173711E+00
          2   -1    0    0  501    0  0.00000000000E+00  0.00000000000E+00  0.41695550509E+03  0.41695550509E+03  0.00000000000E+00 0. -1.
         -2   -1    0    0    0  501 -0.00000000000E+00 -0.00000000000E+00 -0.10193523333E+03  0.10193523333E+03  0.00000000000E+00 0.  1.
         25    2    1    2    0    0  0.12620395939E+03 -0.77322031639E+02  0.28350709393E+03  0.34340735113E+03  0.12508477351E+03 0.  0.
          5    1    3    3  502    0  0.18894523641E+02  0.33905747759E+02  0.52140390620E+02  0.65135976915E+02  0.41800000000E+01 0.  1.
         -5    1    3    3    0  502  0.10730943575E+03 -0.11122777940E+03  0.23136670331E+03  0.27827137422E+03  0.41800000000E+01 0.  1.
        -11    1    1    2    0    0 -0.11865822866E+02  0.26985236602E+02 -0.24730407431E+02  0.38478484878E+02  0.00000000000E+00 0.  1.
         11    1    1    2    0    0 -0.11433813653E+03  0.50336795037E+02  0.56243585264E+02  0.13700490240E+03  0.00000000000E+00 0. -1.
</event>
<event>
 7    1  0.2989693E-009  0.2067340E+03  0.7561462E-02  0.1144179E+00
          2   -1    0    0  501    0  0.00000000000E+00  0.00000000000E+00  0.43495863714E+02  0.43495863714E+02  0.00000000000E+00 0. -1.
         -2   -1    0    0    0  501 -0.00000000000E+00 -0.00000000000E+00 -0.11666604320E+04  0.11666604320E+04  0.00000000000E+00 0.  1.
         25    2    1    2    0    0  0.17401773054E+03  0.88950822363E+02 -0.53392727319E+03  0.58216805351E+03  0.12508752986E+03 0.  0.
          5    1    3    3  502    0  0.16995198345E+02  0.13040677561E+02 -0.14888970583E+01  0.21876591428E+02  0.41800000000E+01 0.  1.
         -5    1    3    3    0  502  0.15702253219E+03  0.75910144802E+02 -0.53243837613E+03  0.56029146208E+03  0.41800000000E+01 0.  1.
        -11    1    1    2    0    0 -0.15350257519E+03 -0.32207073926E+02 -0.42530797585E+03  0.45330697162E+03  0.00000000000E+00 0.  1.
         11    1    1    2    0    0 -0.20515155346E+02 -0.56743748437E+02 -0.16392931929E+03  0.17468127063E+03  0.00000000000E+00 0. -1.
</event>
<event>
 7    1  0.2989693E-009  0.2797937E+03  0.7561462E-02  0.1095802E+00
         -4   -1    0    0    0  501 -0.00000000000E+00  0.00000000000E+00  0.14983144714E+04  0.14983144714E+04  0.00000000000E+00 0.  1.
          4   -1    0    0  501    0  0.00000000000E+00 -0.00000000000E+00 -0.79188989182E+02  0.79188989182E+02  0.00000000000E+00 0. -1.
         25    2    1    2    0    0 -0.35534485367E+02  0.26991118391E+03  0.30781830819E+03  0.42955157733E+03  0.12509076654E+03 0.  0.
          5    1    3    3  502    0 -0.46306750160E+01  0.21366439268E+03  0.29446001198E+03  0.36386547913E+03  0.41800000000E+01 0.  1.
         -5    1    3    3    0  502 -0.30903810351E+02  0.56246791231E+02  0.13358296215E+02  0.65686098192E+02  0.41800000000E+01 0.  1.
        -11    1    1    2    0    0 -0.21623914590E+02 -0.53975390685E+02  0.14633647634E+03  0.15746523676E+03  0.00000000000E+00 0. -1.
         11    1    1    2    0    0  0.57158399956E+02 -0.21593579323E+03  0.96497069766E+03  0.99048664647E+03  0.00000000000E+00 0.  1.
</event>
<event>
 7    1  0.2989693E-009  0.1525665E+03  0.7561462E-02  0.1197354E+00
          1   -1    0    0  501    0  0.00000000000E+00  0.00000000000E+00  0.35142302217E+03  0.35142302217E+03  0.00000000000E+00 0. -1.
         -1   -1    0    0    0  501 -0.00000000000E+00 -0.00000000000E+00 -0.87454598161E+02  0.87454598161E+02  0.00000000000E+00 0.  1.
         25    2    1    2    0    0 -0.95351733336E+02 -0.71832337490E+02  0.58792626068E+02  0.18259700655E+03  0.12503302029E+03 0.  0.
          5    1    3    3  502    0 -0.86350586861E+02  0.13031313848E+02  0.30249327231E+02  0.92513421674E+02  0.41800000000E+01 0.  1.
         -5    1    3    3    0  502 -0.90011464752E+01 -0.84863651339E+02  0.28543298838E+02  0.90083584881E+02  0.41800000000E+01 0.  1.
        -11    1    1    2    0    0  0.82460865020E+02  0.28807236407E+02  0.64423862884E+02  0.10853610108E+03  0.00000000000E+00 0.  1.
         11    1    1    2    0    0  0.12890868317E+02  0.43025101083E+02  0.14075193505E+03  0.14774451269E+03  0.00000000000E+00 0. -1.
</event>
<event>
 7    1  0.2989693E-009  0.1057831E+03  0.7561462E-02  0.1268584E+00
          1   -1    0    0  501    0  0.00000000000E+00  0.00000000000E+00  0.61070310462E+03  0.61070310462E+03  0.00000000000E+00 0. -1.
         -1   -1    0    0    0  501 -0.00000000000E+00 -0.00000000000E+00 -0.30419342875E+02  0.30419342875E+02  0.00000000000E+00 0.  1.
         25    2    1    2    0    0 -0.35720318665E+01 -0.62655571951E+02  0.44552543064E+03  0.46698942805E+03  0.12509091276E+03 0.  0.
          5    1    3    3  502    0 -0.30981991788E+02  0.19138173642E+01  0.33200818700E+03  0.33348231609E+03  0.41800000000E+01 0.  1.
         -5    1    3    3    0  502  0.27409959922E+02 -0.64569389315E+02  0.11351724364E+03  0.13350711196E+03  0.41800000000E+01 0.  1.
        -11    1    1    2    0    0  0.43357166264E+02  0.54011215032E+02  0.91068130725E+02  0.11441354662E+03  0.00000000000E+00 0. -1.
         11    1    1    2    0    0 -0.39785134397E+02  0.86443569184E+01  0.43690200377E+02  0.59719472825E+02  0.00000000000E+00 0.  1.
</event>
<event>
 7    1  0.2989693E-009  0.7457122E+02  0.7561462E-02  0.1345204E+00
         -2   -1    0    0    0  501 -0.00000000000E+00  0.00000000000E+00  0.14414907480E+02  0.14414907480E+02  0.00000000000E+00 0. -1.
          2   -1    0    0  501    0  0.00000000000E+00 -0.00000000000E+00 -0.15149798602E+04  0.15149798602E+04  0.00000000000E+00 0.  1.
         25    2    1    2    0    0 -0.79625569894E+01  0.83783262996E+01 -0.13216120314E+04  0.13275691611E+04  0.12509163561E+03 0.  0.
          5    1    3    3  502    0  0.18241732452E+02  0.25669209519E+02 -0.88128875133E+02  0.93679454270E+02  0.41800000000E+01 0. -1.
         -5    1    3    3    0  502 -0.26204289442E+02 -0.17290883219E+02 -0.12334831562E+04  0.12338897068E+04  0.41800000000E+01 0. -1.
        -11    1    1    2    0    0 -0.33581735752E+02 -0.24045936554E+02 -0.12666761417E+03  0.13323146971E+03  0.00000000000E+00 0.  1.
         11    1    1    2    0    0  0.41544292742E+02  0.15667610254E+02 -0.52285307181E+02  0.68594136903E+02  0.00000000000E+00 0. -1.
</event>
<event>
 7    1  0.2989693E-009  0.7855837E+02  0.7561462E-02  0.1333193E+00
          1   -1    0    0  501    0  0.00000000000E+00  0.00000000000E+00  0.27647736831E+03  0.27647736831E+03  0.00000000000E+00 0. -1.
         -1   -1    0    0    0  501 -0.00000000000E+00 -0.00000000000E+00 -0.51785065505E+02  0.51785065505E+02  0.00000000000E+00 0.  1.
         25    2    1    2    0    0 -0.38640977771E+02 -0.41859493085E+01  0.85999874556E+02  0.15668728708E+03  0.12507709692E+03 0.  0.
          5    1    3    3  502    0  0.16180906291E+02 -0.27933172196E+00  0.98715039761E+02  0.10012008405E+03  0.41800000000E+01 0. -1.
         -5    1    3    3    0  502 -0.54821884063E+02 -0.39066175866E+01 -0.12715165204E+02  0.56567203036E+02  0.41800000000E+01 0. -1.
        -11    1    1    2    0    0  0.73261151235E+01 -0.34637638688E+02  0.10644903318E+03  0.11218214939E+03  0.00000000000E+00 0. -1.
         11    1    1    2    0    0  0.31314862648E+02  0.38823587996E+02  0.32243395065E+02  0.59392997339E+02  0.00000000000E+00 0.  1.
</event>
<event>
 7    1  0.2989693E-009  0.2157885E+03  0.7561462E-02  0.1137062E+00
          1   -1    0    0  501    0  0.00000000000E+00  0.00000000000E+00  0.12150778557E+04  0.12150778557E+04  0.00000000000E+00 0.  1.
         -1   -1    0    0    0  501 -0.00000000000E+00 -0.00000000000E+00 -0.44480928148E+02  0.44480928148E+02  0.00000000000E+00 0. -1.
         25    2    1    2    0    0  0.14091346548E+03 -0.15262466137E+03  0.53227647271E+03  0.58490726777E+03  0.12508947387E+03 0.  0.
          5    1    3    3  502    0  0.10773434610E+03 -0.14760193027E+03  0.51592038749E+03  0.54734298002E+03  0.41800000000E+01 0.  1.
         -5    1    3    3    0  502  0.33179119376E+02 -0.50227310965E+01  0.16356085227E+02  0.37564287750E+02  0.41800000000E+01 0.  1.
        -11    1    1    2    0    0 -0.63447164454E+02  0.30607472048E+02  0.15656368310E+03  0.17168152751E+03  0.00000000000E+00 0.  1.
         11    1    1    2    0    0 -0.77466301024E+02  0.12201718932E+03  0.48175677172E+03  0.50296998855E+03  0.00000000000E+00 0. -1.
</event>
<event>
 7    1  0.2989693E-009  0.9969603E+02  0.7561462E-02  0.1280936E+00
          2   -1    0    0  501    0  0.00000000000E+00  0.00000000000E+00  0.52728543265E+03  0.52728543265E+03  0.00000000000E+00 0. -1.
         -2   -1    0    0    0  501 -0.00000000000E+00 -0.00000000000E+00 -0.40073967163E+02  0.40073967163E+02  0.00000000000E+00 0.  1.
         25    2    1    2    0    0 -0.78153737510E+02  0.30758473691E+01  0.37839707819E+03  0.40613909267E+03  0.12508855379E+03 0.  0.
          5    1    3    3  502    0 -0.19633479385E+01 -0.28853394484E+02  0.13870395602E+02  0.32345531106E+02  0.41800000000E+01 0.  1.
         -5    1    3    3    0  502 -0.76190389572E+02  0.31929241853E+02  0.36452668259E+03  0.37379356157E+03  0.41800000000E+01 0.  1.
        -11    1    1    2    0    0  0.38228570894E+02 -0.21083620353E+02  0.10900398147E+03  0.11742150849E+03  0.00000000000E+00 0. -1.
         11    1    1    2    0    0  0.39925166616E+02  0.18007772984E+02 -0.18959417656E+00  0.43798798649E+02  0.00000000000E+00 0.  1.
</event>
<event>
 7    1  0.2989693E-009  0.6941577E+02  0.7561462E-02  0.1362091E+00
         -2   -1    0    0    0  501 -0.00000000000E+00  0.00000000000E+00  0.21122659089E+02  0.21122659089E+02  0.00000000000E+00 0.  1.
          2   -1    0    0  501    0  0.00000000000E+00 -0.00000000000E+00 -0.10049074707E+04  0.10049074707E+04  0.00000000000E+00 0. -1.
         25    2    1    2    0    0 -0.16018253537E+02  0.48558957986E+02 -0.83355470606E+03  0.84443807886E+03  0.12509062389E+03 0.  0.
          5    1    3    3  502    0  0.91019042773E+01 -0.86638623621E-01 -0.99032016109E+00  0.10065053489E+02  0.41800000000E+01 0. -1.
         -5    1    3    3    0  502 -0.25120157814E+02  0.48645596609E+02 -0.83256438589E+03  0.83437302537E+03  0.41800000000E+01 0. -1.
        -11    1    1    2    0    0 -0.15611062314E+02 -0.37126842519E+02 -0.16207747581E+02  0.43414269355E+02  0.00000000000E+00 0.  1.
         11    1    1    2    0    0  0.31629315851E+02 -0.11432115466E+02 -0.13402235798E+03  0.13817778158E+03  0.00000000000E+00 0. -1.
</event>
<event>
 7    1  0.2989693E-009  0.8851101E+02  0.7561462E-02  0.1306498E+00
          1   -1    0    0  501    0  0.00000000000E+00  0.00000000000E+00  0.25849562123E+03  0.25849562123E+03  0.00000000000E+00 0. -1.
         -1   -1    0    0    0  501 -0.00000000000E+00 -0.00000000000E+00 -0.53779692141E+02  0.53779692141E+02  0.00000000000E+00 0.  1.
         25    2    1    2    0    0 -0.56301233277E+02  0.24521776383E+02  0.19996036062E+03  0.24372623834E+03  0.12508871672E+03 0.  0.
          5    1    3    3  502    0  0.27441979253E+02  0.94737774158E+01  0.34335537481E+01  0.29530939287E+02  0.41800000000E+01 0.  1.
         -5    1    3    3    0  502 -0.83743212530E+02  0.15047998967E+02  0.19652680687E+03  0.21419529905E+03  0.41800000000E+01 0.  1.
        -11    1    1    2    0    0  0.33251249455E+02 -0.81609698750E+01  0.16418560457E+02  0.37971254220E+02  0.00000000000E+00 0.  1.
         11    1    1    2    0    0  0.23049983822E+02 -0.16360806508E+02 -0.11662991983E+02  0.30577820815E+02  0.00000000000E+00 0. -1.
</event>
<event>
 7    1  0.2989693E-009  0.1390074E+03  0.7561462E-02  0.1214671E+00
         -1   -1    0    0    0  501 -0.00000000000E+00  0.00000000000E+00  0.41068180944E+02  0.41068180944E+02  0.00000000000E+00 0.  1.
          1   -1    0    0  501    0  0.00000000000E+00 -0.00000000000E+00 -0.76719444057E+03  0.76719444057E+03  0.00000000000E+00 0. -1.
         25    2    1    2    0    0 -0.11551634034E+02 -0.13154127509E+03 -0.27565720403E+03  0.33025317447E+03  0.12507484882E+03 0.  0.
          5    1    3    3  502    0  0.15352522475E+02 -0.51900828737E+02 -0.22621971145E+03  0.23264184108E+03  0.41800000000E+01 0. -1.
         -5    1    3    3    0  502 -0.26904156509E+02 -0.79640446358E+02 -0.49437492581E+02  0.97611333391E+02  0.41800000000E+01 0. -1.
        -11    1    1    2    0    0  0.26410045279E+02  0.48696541514E+02 -0.30462802280E+03  0.30962408808E+03  0.00000000000E+00 0. -1.
         11    1    1    2    0    0 -0.14858411245E+02  0.82844733581E+02 -0.14584103279E+03  0.16838535896E+03  0.00000000000E+00 0.  1.
</event>
<event>
 7    1  0.2989693E-009  0.1171004E+03  0.7561462E-02  0.1247959E+00
          2   -1    0    0  501    0  0.00000000000E+00  0.00000000000E+00  0.54388355858E+03  0.54388355858E+03  0.00000000000E+00 0. -1.
         -2   -1    0    0    0  501 -0.00000000000E+00 -0.00000000000E+00 -0.26482316403E+02  0.26482316403E+02  0.00000000000E+00 0.  1.
         25    2    1    2    0    0 -0.50050936093E+02  0.83449198867E+01  0.31340405233E+03  0.34124000913E+03  0.12509160613E+03 0.  0.
          5    1    3    3  502    0 -0.58522357026E+01 -0.54359611695E+02  0.94648324408E+02  0.10938461391E+03  0.41800000000E+01 0. -1.
         -5    1    3    3    0  502 -0.44198700391E+02  0.62704531582E+02  0.21875572792E+03  0.23185539523E+03  0.41800000000E+01 0. -1.
        -11    1    1    2    0    0  0.53449236680E+02 -0.42454952598E+02  0.15461842164E+03  0.16901508871E+03  0.00000000000E+00 0. -1.
         11    1    1    2    0    0 -0.33983005867E+01  0.34110032711E+02  0.49378768213E+02  0.60110777143E+02  0.00000000000E+00 0.  1.
</event>
<event>
 7    1  0.2989693E-009  0.1026459E+03  0.7561462E-02  0.1274828E+00
          4   -1    0    0  501    0  0.00000000000E+00  0.00000000000E+00  0.21999437296E+03  0.21999437296E+03  0.00000000000E+00 0.  1.
         -4   -1    0    0    0  501 -0.00000000000E+00 -0.00000000000E+00 -0.57041462935E+02  0.57041462935E+02  0.00000000000E+00 0. -1.
         25    2    1    2    0    0  0.45594614198E+00  0.15067852765E+02  0.65928361109E+02  0.14220342698E+03  0.12509203721E+03 0.  0.
          5    1    3    3  502    0  0.40859259505E+02  0.51382319061E+02  0.56899875109E+02  0.86975226282E+02  0.41800000000E+01 0.  1.
         -5    1    3    3    0  502 -0.40403313363E+02 -0.36314466296E+02  0.90284860003E+01  0.55228200700E+02  0.41800000000E+01 0.  1.
        -11    1    1    2    0    0 -0.34285067404E+02 -0.32262302211E+02  0.80899389250E+02  0.93600390875E+02  0.00000000000E+00 0.  1.
         11    1    1    2    0    0  0.33829121262E+02  0.17194449447E+02  0.16125159663E+02  0.41232018036E+02  0.00000000000E+00 0. -1.
</event>
<event>
 7    1  0.2989693E-009  0.6027941E+02  0.7561462E-02  0.1396663E+00
         -1   -1    0    0    0  501 -0.00000000000E+00  0.00000000000E+00  0.51204704408E+02  0.51204704408E+02  0.00000000000E+00 0.  1.
          1   -1    0    0  501    0  0.00000000000E+00 -0.00000000000E+00 -0.23974699093E+03  0.23974699093E+03  0.00000000000E+00 0. -1.
         25    2    1    2    0    0  0.20373362323E+02  0.13148970591E+02 -0.12498443446E+03  0.17848526180E+03  0.12509160844E+03 0.  0.
          5    1    3    3  502    0 -0.86500627362E+01  0.25988466108E+02 -0.14029263446E+03  0.14300251620E+03  0.41800000000E+01 0. -1.
         -5    1    3    3    0  502  0.29023425059E+02 -0.12839495517E+02  0.15308200006E+02  0.35482745592E+02  0.41800000000E+01 0. -1.
        -11    1    1    2    0    0  0.11229921784E+02 -0.24747579193E+02 -0.72674369835E+02  0.77589418416E+02  0.00000000000E+00 0. -1.
         11    1    1    2    0    0 -0.31603284107E+02  0.11598608602E+02  0.91165177707E+01  0.34877015126E+02  0.00000000000E+00 0.  1.
</event>
<event>
 7    1  0.2989693E-009  0.1364528E+03  0.7561462E-02  0.1218183E+00
         -1   -1    0    0    0  501 -0.00000000000E+00  0.00000000000E+00  0.39039247837E+03  0.39039247837E+03  0.00000000000E+00 0.  1.
          1   -1    0    0  501    0  0.00000000000E+00 -0.00000000000E+00 -0.90073526998E+02  0.90073526998E+02  0.00000000000E+00 0. -1.
         25    2    1    2    0    0 -0.68008282313E+02  0.88321103145E+02  0.29135464386E+03  0.33609512369E+03  0.12508660979E+03 0.  0.
          5    1    3    3  502    0  0.10965593434E+02  0.25005642944E+02  0.19276314740E+03  0.19473220025E+03  0.41800000000E+01 0.  1.
         -5    1    3    3    0  502 -0.78973875747E+02  0.63315460201E+02  0.98591496461E+02  0.14136292345E+03  0.41800000000E+01 0.  1.
        -11    1    1    2    0    0  0.50177717418E+02  0.36327998018E+01  0.36616201299E+00  0.50310382967E+02  0.00000000000E+00 0.  1.
         11    1    1    2    0    0  0.17830564896E+02 -0.91953902946E+02  0.85981455036E+01  0.94060498711E+02  0.00000000000E+00 0. -1.
</event>
<event>
 7    1  0.2989693E-009  0.1194359E+03  0.7561462E-02  0.1244031E+00
          1   -1    0    0  501    0  0.00000000000E+00  0.00000000000E+00  0.13360975408E+04  0.13360975408E+04  0.00000000000E+00 0. -1.
         -1   -1    0    0    0  501 -0.00000000000E+00 -0.00000000000E+00 -0.10856324165E+02  0.10856324165E+02  0.00000000000E+00 0.  1.
         25    2    1    2    0    0  0.14570238749E+02  0.50422648165E+02  0.75914880834E+03  0.77117375175E+03  0.12508919566E+03 0.  0.
          5    1    3    3  502    0  0.15358628272E+01 -0.41168436285E+02  0.29335009532E+03  0.29625824857E+03  0.41800000000E+01 0.  1.
         -5    1    3    3    0  502  0.13034375922E+02  0.91591084451E+02  0.46579871302E+03  0.47491550317E+03  0.41800000000E+01 0.  1.
        -11    1    1    2    0    0 -0.40647713980E+02  0.74989733817E+01  0.24551289671E+03  0.24896797727E+03  0.00000000000E+00 0. -1.
         11    1    1    2    0    0  0.26077475232E+02 -0.57921621547E+02  0.32057951158E+03  0.32681213595E+03  0.00000000000E+00 0.  1.
</event>
<event>
 7    1  0.2989693E-009  0.1231628E+03  0.7561462E-02  0.1237969E+00
          1   -1    0    0  501    0  0.00000000000E+00  0.00000000000E+00  0.64249441412E+03  0.64249441412E+03  0.00000000000E+00 0. -1.
         -1   -1    0    0    0  501 -0.00000000000E+00 -0.00000000000E+00 -0.31383902350E+02  0.31383902350E+02  0.00000000000E+00 0.  1.
         25    2    1    2    0    0 -0.82600630714E+02 -0.40280062966E+02  0.33368769706E+03  0.36802220391E+03  0.12509003052E+03 0.  0.
          5    1    3    3  502    0  0.24798073571E+02  0.19044186336E+02  0.53282951265E+02  0.61920681372E+02  0.41800000000E+01 0.  1.
         -5    1    3    3    0  502 -0.10739870428E+03 -0.59324249302E+02  0.28040474580E+03  0.30610152254E+03  0.41800000000E+01 0.  1.
        -11    1    1    2    0    0  0.38993847590E+02  0.16448262622E+02  0.26219936027E+02  0.49785043321E+02  0.00000000000E+00 0.  1.
         11    1    1    2    0    0  0.43606783124E+02  0.23831800344E+02  0.25120287868E+03  0.25607106924E+03  0.00000000000E+00 0. -1.
</event>
<event>
 7    1  0.2989693E-009  0.7739877E+02  0.7561462E-02  0.1336600E+00
          1   -1    0    0  501    0  0.00000000000E+00  0.00000000000E+00  0.70890930522E+03  0.70890930522E+03  0.00000000000E+00 0. -1.
         -1   -1    0    0    0  501 -0.00000000000E+00 -0.00000000000E+00 -0.55551954121E+02  0.55551954121E+02  0.00000000000E+00 0.  1.
         25    2    1    2    0    0 -0.33945573070E+02 -0.16178163955E+01  0.65557781841E+03  0.66827009290E+03  0.12509085427E+03 0.  0.
          5    1    3    3  502    0  0.99543474766E+01 -0.28088153537E+02  0.55008081859E+03  0.55090326990E+03  0.41800000000E+01 0. -1.
         -5    1    3    3    0  502 -0.43899920547E+02  0.26470337142E+02  0.10549699981E+03  0.11736682300E+03  0.41800000000E+01 0. -1.
        -11    1    1    2    0    0  0.48351810767E+02 -0.15615859177E+02 -0.31124067369E+02  0.59585738494E+02  0.00000000000E+00 0.  1.
         11    1    1    2    0    0 -0.14406237696E+02  0.17233675573E+02  0.28903600057E+02  0.36605427939E+02  0.00000000000E+00 0. -1.
</event>
<event>
 7    1  0.2989693E-009  0.7396431E+02  0.7561462E-02  0.1347109E+00
          4   -1    0    0  501    0  0.00000000000E+00  0.00000000000E+00  0.64708765524E+02  0.64708765524E+02  0.00000000000E+00 0. -1.
         -4   -1    0    0    0  501 -0.00000000000E+00 -0.00000000000E+00 -0.20570506971E+03  0.20570506971E+03  0.00000000000E+00 0.  1.
         25    2    1    2    0    0 -0.12356803941E+02 -0.38121505810E+02 -0.10056738624E+03  0.16543022455E+03  0.12508964870E+03 0.  0.
          5    1    3    3  502    0  0.92051354839E+01 -0.28260055580E+02  0.24079602337E+02  0.38479408901E+02  0.41800000000E+01 0. -1.
         -5    1    3    3    0  502 -0.21561939425E+02 -0.98614502301E+01 -0.12464698858E+03  0.12695081565E+03  0.41800000000E+01 0. -1.
        -11    1    1    2    0    0 -0.60812490121E+01 -0.26215746389E+02 -0.24024731374E+02  0.36075402504E+02  0.00000000000E+00 0.  1.
         11    1    1    2    0    0  0.18438052953E+02  0.64337252199E+02 -0.16404186570E+02  0.68908208178E+02  0.00000000000E+00 0. -1.
</event>
<event>
 7    1  0.2989693E-009  0.1089003E+03  0.7561462E-02  0.1262620E+00
          1   -1    0    0  501    0  0.00000000000E+00  0.00000000000E+00  0.23408561808E+02  0.23408561808E+02  0.00000000000E+00 0. -1.
         -1   -1    0    0    0  501 -0.00000000000E+00 -0.00000000000E+00 -0.54097664838E+03  0.54097664838E+03  0.00000000000E+00 0.  1.
         25    2    1    2    0    0 -0.74526269294E+01  0.26329887880E+02 -0.26302617636E+03  0.29253882765E+03  0.12508953428E+03 0.  0.
          5    1    3    3  502    0 -0.63079883427E+02  0.28751551991E+02 -0.17523633293E+03  0.18849660001E+03  0.41800000000E+01 0.  1.
         -5    1    3    3    0  502  0.55627256498E+02 -0.24216641114E+01 -0.87789843431E+02  0.10404222764E+03  0.41800000000E+01 0.  1.
        -11    1    1    2    0    0 -0.37812824749E+02  0.40055410273E+01 -0.73090800509E+02  0.82390043048E+02  0.00000000000E+00 0. -1.
         11    1    1    2    0    0  0.45265451678E+02 -0.30335428907E+02 -0.18145110970E+03  0.18945633950E+03  0.00000000000E+00 0.  1.
</event>
<event>
 7    1  0.2989693E-009  0.8411647E+02  0.7561462E-02  0.1317759E+00
         -1   -1    0    0    0  501 -0.00000000000E+00  0.00000000000E+00  0.22360068518E+02  0.22360068518E+02  0.00000000000E+00 0.  1.
          1   -1    0    0  501    0  0.00000000000E+00 -0.00000000000E+00 -0.55125853508E+03  0.55125853508E+03  0.00000000000E+00 0. -1.
         25    2    1    2    0    0  0.10222866837E+02 -0.23950521802E+02 -0.30787370115E+03  0.33333388040E+03  0.12508847054E+03 0.  0.
          5    1    3    3  502    0 -0.26832694661E+02  0.39884300133E+01 -0.62734763040E+01  0.28155460956E+02  0.41800000000E+01 0.  1.
         -5    1    3    3    0  502  0.37055561497E+02 -0.27938951815E+02 -0.30160022484E+03  0.30517841944E+03  0.41800000000E+01 0.  1.
        -11    1    1    2    0    0  0.11731559249E+02 -0.32001631300E+02 -0.84469018168E+02  0.91086491417E+02  0.00000000000E+00 0.  1.
         11    1    1    2    0    0 -0.21954426085E+02  0.55952153101E+02 -0.13655574725E+03  0.14919823178E+03  0.00000000000E+00 0. -1.
</event>
<event>
 7    1  0.2989693E-009  0.9497057E+02  0.7561462E-02  0.1291242E+00
          2   -1    0    0  501    0  0.00000000000E+00  0.00000000000E+00  0.11161143797E+04  0.11161143797E+04  0.00000000000E+00 0.  1.
         -2   -1    0    0    0  501 -0.00000000000E+00 -0.00000000000E+00 -0.12168949495E+02  0.12168949495E+02  0.00000000000E+00 0. -1.
         25    2    1    2    0    0  0.40825569531E+02  0.90933332535E+01  0.57301178432E+03  0.58799565964E+03  0.12508786891E+03 0.  0.
          5    1    3    3  502    0 -0.21477290822E+02 -0.11578727734E+02  0.42854843506E+03  0.42926282689E+03  0.41800000000E+01 0. -1.
         -5    1    3    3    0  502  0.62302860353E+02  0.20672060987E+02  0.14446334926E+03  0.15873283275E+03  0.41800000000E+01 0. -1.
        -11    1    1    2    0    0 -0.38902496714E+02  0.36756292913E+02  0.25397299904E+03  0.25955098451E+03  0.00000000000E+00 0.  1.
         11    1    1    2    0    0 -0.19230728172E+01 -0.45849626167E+02  0.27696064687E+03  0.28073668507E+03  0.00000000000E+00 0. -1.
</event>
<event>
 7    1  0.2989693E-009  0.9417748E+02  0.7561462E-02  0.1293039E+00
         -2   -1    0    0    0  501 -0.00000000000E+00  0.00000000000E+00  0.13541981123E+03  0.13541981123E+03  0.00000000000E+00 0.  1.
          2   -1    0    0  501    0  0.00000000000E+00 -0.00000000000E+00 -0.14062019932E+03  0.14062019932E+03  0.00000000000E+00 0. -1.
         25    2    1    2    0    0 -0.22266781386E+02  0.56680615185E+02 -0.62169105332E+02  0.15242524520E+03  0.12513974599E+03 0.  0.
          5    1    3    3  502    0 -0.63644298805E+02  0.39728137039E+02 -0.74539646809E+02  0.10584211350E+03  0.41800000000E+01 0.  1.
         -5    1    3    3    0  502  0.41377517419E+02  0.16952478147E+02  0.12370541477E+02  0.46583131705E+02  0.41800000000E+01 0.  1.
        -11    1    1    2    0    0 -0.11727977991E+01 -0.38808060467E+02 -0.18195199720E+02  0.42877806669E+02  0.00000000000E+00 0. -1.
         11    1    1    2    0    0  0.23439579185E+02 -0.17872554718E+02  0.75163916954E+02  0.80736958677E+02  0.00000000000E+00 0.  1.
</event>
<event>
 7    1  0.2989693E-009  0.1127010E+03  0.7561462E-02  0.1255648E+00
          1   -1    0    0  501    0  0.00000000000E+00  0.00000000000E+00  0.57649294091E+02  0.57649294091E+02  0.00000000000E+00 0. -1.
         -1   -1    0    0    0  501 -0.00000000000E+00 -0.00000000000E+00 -0.25948171599E+03  0.25948171599E+03  0.00000000000E+00 0.  1.
         25    2    1    2    0    0  0.29261499617E+02  0.14844251860E+02 -0.53002106466E+02  0.13976656770E+03  0.12509549545E+03 0.  0.
          5    1    3    3  502    0 -0.36169960852E+02 -0.31967592913E+02 -0.15229531668E+02  0.50789803105E+02  0.41800000000E+01 0. -1.
         -5    1    3    3    0  502  0.65431460469E+02  0.46811844773E+02 -0.37772574797E+02  0.88976764590E+02  0.41800000000E+01 0. -1.
        -11    1    1    2    0    0 -0.51689929406E+02  0.19603554314E+02 -0.81592054478E+02  0.98556641063E+02  0.00000000000E+00 0.  1.
         11    1    1    2    0    0  0.22428429789E+02 -0.34447806174E+02 -0.67238260952E+02  0.78807801319E+02  0.00000000000E+00 0. -1.
</event>
<event>
 7    1  0.2989693E-009  0.8895036E+02  0.7561462E-02  0.1305414E+00
          3   -1    0    0  501    0  0.00000000000E+00  0.00000000000E+00  0.72810271579E+03  0.72810271579E+03  0.00000000000E+00 0. -1.
         -3   -1    0    0    0  501 -0.00000000000E+00 -0.00000000000E+00 -0.34818129724E+02  0.34818129724E+02  0.00000000000E+00 0.  1.
         25    2    1    2    0    0 -0.30959830276E+02 -0.53281777409E+02  0.61269915108E+03  0.62836520378E+03  0.12508045687E+03 0.  0.
          5    1    3    3  502    0 -0.61399817505E+02 -0.26363178424E+02  0.54643812149E+03  0.55052433895E+03  0.41800000000E+01 0.  1.
         -5    1    3    3    0  502  0.30439987229E+02 -0.26918598986E+02  0.66261029596E+02  0.77840864827E+02  0.41800000000E+01 0.  1.
        -11    1    1    2    0    0  0.38251033715E+02  0.44173683155E+02  0.97701060498E+02  0.11384178972E+03  0.00000000000E+00 0. -1.
         11    1    1    2    0    0 -0.72912034390E+01  0.91080942545E+01 -0.17115625515E+02  0.20713852015E+02  0.00000000000E+00 0.  1.
</event>
<event>
 7    1  0.2989693E-009  0.1059512E+03  0.7561462E-02  0.1268257E+00
          2   -1    0    0  501    0  0.00000000000E+00  0.00000000000E+00  0.42533991825E+03  0.42533991825E+03  0.00000000000E+00 0. -1.
         -2   -1    0    0    0  501 -0.00000000000E+00 -0.00000000000E+00 -0.33867369654E+02  0.33867369654E+02  0.00000000000E+00 0.  1.
         25    2    1    2    0    0  0.25109584052E+02 -0.43573113205E+02  0.20359537685E+03  0.24418817172E+03  0.12509068041E+03 0.  0.
          5    1    3    3  502    0 -0.44425796759E+02 -0.45339984421E+02  0.78984512268E+02  0.10141691764E+03  0.41800000000E+01 0.  1.
         -5    1    3    3    0  502  0.69535380812E+02  0.17668712159E+01  0.12461086459E+03  0.14277125408E+03  0.41800000000E+01 0.  1.
        -11    1    1    2    0    0 -0.43893985102E+02  0.40197336497E+02  0.18663240546E+03  0.19589324276E+03  0.00000000000E+00 0. -1.
         11    1    1    2    0    0  0.18784401050E+02  0.33757767077E+01  0.12447662753E+01  0.19125873424E+02  0.00000000000E+00 0.  1.
</event>
<event>
 7    1  0.2989693E-009  0.1739401E+03  0.7561462E-02  0.1173800E+00
          2   -1    0    0  501    0  0.00000000000E+00  0.00000000000E+00  0.27825786469E+03  0.27825786469E+03  0.00000000000E+00 0. -1.
         -2   -1    0    0    0  501 -0.00000000000E+00 -0.00000000000E+00 -0.11923223270E+03  0.11923223270E+03  0.00000000000E+00 0.  1.
         25    2    1    2    0    0  0.44997359809E+02 -0.13108446856E+03  0.13435663149E+03  0.23001572235E+03  0.12509047852E+03 0.  0.
          5    1    3    3  502    0 -0.21167713643E+02  0.14947756152E+02  0.21142682537E+02  0.33704494355E+02  0.41800000000E+01 0.  1.
         -5    1    3    3    0  502  0.66165073452E+02 -0.14603222471E+03  0.11321394895E+03  0.19631122800E+03  0.41800000000E+01 0.  1.
        -11    1    1    2    0    0  0.20694079250E+02  0.64422367604E+02  0.29374647730E+02  0.73765549499E+02  0.00000000000E+00 0. -1.
         11    1    1    2    0    0 -0.65691439059E+02  0.66662100957E+02 -0.47056472304E+01  0.93708825547E+02  0.00000000000E+00 0.  1.
</event>
<event>
 7    1  0.2989693E-009  0.1202494E+03  0.7561462E-02  0.1242686E+00
          2   -1    0    0  501    0  0.00000000000E+00  0.00000000000E+00  0.49675549702E+03  0.49675549702E+03  0.00000000000E+00 0. -1.
         -2   -1    0    0    0  501 -0.00000000000E+00 -0.00000000000E+00 -0.40478172646E+02  0.40478172646E+02  0.00000000000E+00 0.  1.
         25    2    1    2    0    0 -0.32965362868E+02  0.78923013769E+02  0.26624766052E+03  0.30635156370E+03  0.12509159283E+03 0.  0.
          5    1    3    3  502    0 -0.63500837900E+02  0.35529005488E+02  0.23170992317E+03  0.24290250625E+03  0.41800000000E+01 0. -1.
         -5    1    3    3    0  502  0.30535475031E+02  0.43394008281E+02  0.34537737348E+02  0.63449057450E+02  0.41800000000E+01 0. -1.
        -11    1    1    2    0    0 -0.51646291170E+00  0.14828893076E+02  0.84552575759E+02  0.85844632164E+02  0.00000000000E+00 0. -1.
         11    1    1    2    0    0  0.33481825780E+02 -0.93751906845E+02  0.10547708809E+03  0.14503747380E+03  0.00000000000E+00 0.  1.
</event>
<event>
 7    1  0.2989693E-009  0.8231651E+02  0.7561462E-02  0.1322603E+00
          3   -1    0    0  501    0  0.00000000000E+00  0.00000000000E+00  0.25445304671E+02  0.25445304671E+02  0.00000000000E+00 0. -1.
         -3   -1    0    0    0  501 -0.00000000000E+00 -0.00000000000E+00 -0.62965871243E+03  0.62965871243E+03  0.00000000000E+00 0.  1.
         25    2    1    2    0    0  0.50978545278E+02 -0.43876966228E+02 -0.33536164670E+03  0.36419558594E+03  0.12508793108E+03 0.  0.
          5    1    3    3  502    0  0.70356351803E+01  0.18816639069E+02 -0.24426838031E+03  0.24512870107E+03  0.41800000000E+01 0.  1.
         -5    1    3    3    0  502  0.43942910097E+02 -0.62693605297E+02 -0.91093266389E+02  0.11906688488E+03  0.41800000000E+01 0.  1.
        -11    1    1    2    0    0 -0.31453727375E+02  0.30167771944E+02 -0.26267323849E+03  0.26626427032E+03  0.00000000000E+00 0.  1.
         11    1    1    2    0    0 -0.19524817903E+02  0.13709194284E+02 -0.61785225675E+01  0.24644160833E+02  0.00000000000E+00 0. -1.
</event>
<event>
 7    1  0.3026126E-009  0.8438593E+02  0.7561462E-02  0.1317046E+00
         -1   -1    0    0    0  501 -0.00000000000E+00  0.00000000000E+00  0.15740788814E+02  0.15740788814E+02  0.00000000000E+00 0.  1.
          1   -1    0    0  501    0  0.00000000000E+00 -0.00000000000E+00 -0.10999821196E+04  0.10999821196E+04  0.00000000000E+00 0. -1.
         25    2    1    2    0    0 -0.39665571513E+02  0.33116441155E+02 -0.82854344809E+03  0.83952516833E+03  0.12509279219E+03 0.  0.
          5    1    3    3  502    0 -0.49836293620E+02  0.31638485509E+02 -0.82603236531E+03  0.82814949790E+03  0.41800000000E+01 0. -1.
         -5    1    3    3    0  502  0.10170722107E+02  0.14779556464E+01 -0.25110827731E+01  0.11375670432E+02  0.41800000000E+01 0. -1.
        -11    1    1    2    0    0  0.64970966673E+02 -0.33689638314E+02 -0.22388654814E+03  0.23554491011E+03  0.00000000000E+00 0. -1.
         11    1    1    2    0    0 -0.25305395160E+02  0.57319715841E+00 -0.31811334607E+02  0.40652830021E+02  0.00000000000E+00 0.  1.
</event>
<event>
 7    1  0.2989693E-009  0.1019747E+03  0.7561462E-02  0.1276197E+00
          1   -1    0    0  501    0  0.00000000000E+00  0.00000000000E+00  0.40069922569E+02  0.40069922569E+02  0.00000000000E+00 0. -1.
         -1   -1    0    0    0  501 -0.00000000000E+00 -0.00000000000E+00 -0.34083678304E+03  0.34083678304E+03  0.00000000000E+00 0.  1.
         25    2    1    2    0    0  0.16709228041E+02 -0.36545916527E+02 -0.19465260008E+03  0.23483230986E+03  0.12506708888E+03 0.  0.
          5    1    3    3  502    0 -0.35921877925E+02  0.58917265649E+01 -0.14828391506E+03  0.15274385625E+03  0.41800000000E+01 0. -1.
         -5    1    3    3    0  502  0.52631105966E+02 -0.42437643091E+02 -0.46368685023E+02  0.82088453616E+02  0.41800000000E+01 0. -1.
        -11    1    1    2    0    0 -0.52082651314E+02  0.52622226891E+01 -0.65028720862E+02  0.83480704911E+02  0.00000000000E+00 0. -1.
         11    1    1    2    0    0  0.35373423273E+02  0.31283693838E+02 -0.41085539524E+02  0.62593690833E+02  0.00000000000E+00 0.  1.
</event>
<event>
 7    1  0.2989693E-009  0.4779020E+03  0.7561462E-02  0.1019713E+00
         -3   -1    0    0    0  501 -0.00000000000E+00  0.00000000000E+00  0.49528903271E+03  0.49528903271E+03  0.00000000000E+00 0.  1.
          3   -1    0    0  501    0  0.00000000000E+00 -0.00000000000E+00 -0.10157285068E+04  0.10157285068E+04  0.00000000000E+00 0. -1.
         25    2    1    2    0    0 -0.41126719375E+03  0.23446139857E+03  0.28911187194E+03  0.56863669206E+03  0.12509660661E+03 0.  0.
          5    1    3    3  502    0 -0.28522555713E+03  0.16752776370E+03  0.26494988463E+03  0.42383379267E+03  0.41800000000E+01 0. -1.
         -5    1    3    3    0  502 -0.12604163662E+03  0.66933634877E+02  0.24161987310E+02  0.14480289938E+03  0.41800000000E+01 0. -1.
        -11    1    1    2    0    0  0.31564871089E+03 -0.13219043325E+03 -0.56271390436E+03  0.65860106095E+03  0.00000000000E+00 0. -1.
         11    1    1    2    0    0  0.95618482855E+02 -0.10227096532E+03 -0.24683744167E+03  0.28377978649E+03  0.00000000000E+00 0.  1.
</event>
<event>
 7    1  0.2989693E-009  0.7654556E+02  0.7561462E-02  0.1339151E+00
          4   -1    0    0  501    0  0.00000000000E+00  0.00000000000E+00  0.14767893486E+03  0.14767893486E+03  0.00000000000E+00 0. -1.
         -4   -1    0    0    0  501 -0.00000000000E+00 -0.00000000000E+00 -0.82679248542E+02  0.82679248542E+02  0.00000000000E+00 0.  1.
         25    2    1    2    0    0 -0.24255003753E+02 -0.11925094482E+02  0.92713984353E+01  0.12830731666E+03  0.12508515337E+03 0.  0.
          5    1    3    3  502    0 -0.21234340001E+02  0.41807076640E+02  0.43741217839E+02  0.64261149931E+02  0.41800000000E+01 0.  1.
         -5    1    3    3    0  502 -0.30206637521E+01 -0.53732171122E+02 -0.34469819403E+02  0.64046166729E+02  0.41800000000E+01 0.  1.
        -11    1    1    2    0    0  0.32896835379E+02 -0.47656200661E+01 -0.91731104514E+01  0.34482732895E+02  0.00000000000E+00 0.  1.
         11    1    1    2    0    0 -0.86418316256E+01  0.16690714548E+02  0.64901398333E+02  0.67568133847E+02  0.00000000000E+00 0. -1.
</event>
<event>
 7    1  0.2989693E-009  0.1766415E+03  0.7561462E-02  0.1171094E+00
          2   -1    0    0  501    0  0.00000000000E+00  0.00000000000E+00  0.14770715359E+03  0.14770715359E+03  0.00000000000E+00 0. -1.
         -2   -1    0    0    0  501 -0.00000000000E+00 -0.00000000000E+00 -0.24666611899E+03  0.24666611899E+03  0.00000000000E+00 0.  1.
         25    2    1    2    0    0  0.42561509016E+02 -0.14831314759E+03 -0.76682246020E+02  0.21292014204E+03  0.12508616324E+03 0.  0.
          5    1    3    3  502    0 -0.39694362530E+02 -0.19773172137E+02 -0.69386467442E+01  0.45080350173E+02  0.41800000000E+01 0.  1.
         -5    1    3    3    0  502  0.82255871547E+02 -0.12853997546E+03 -0.69743599276E+02  0.16783979187E+03  0.41800000000E+01 0.  1.
        -11    1    1    2    0    0 -0.30878349047E+01  0.50563653502E+02 -0.51315833814E+02  0.72107784461E+02  0.00000000000E+00 0.  1.
         11    1    1    2    0    0 -0.39473674112E+02  0.97749494093E+02  0.29039114433E+02  0.10934534608E+03  0.00000000000E+00 0. -1.
</event>
<event>
 7    1  0.2989693E-009  0.1127145E+03  0.7561462E-02  0.1255624E+00
         -2   -1    0    0    0  501 -0.00000000000E+00  0.00000000000E+00  0.22519499069E+04  0.22519499069E+04  0.00000000000E+00 0.  1.
          2   -1    0    0  501    0  0.00000000000E+00 -0.00000000000E+00 -0.11784415485E+02  0.11784415485E+02  0.00000000000E+00 0. -1.
         25    2    1    2    0    0 -0.38207145113E+02 -0.26406035060E+02  0.19788490761E+04  0.19833429380E+04  0.12509388175E+03 0.  0.
          5    1    3    3  502    0 -0.73398130483E+02 -0.45671539288E+02  0.10273163030E+04  0.10309555926E+04  0.41800000000E+01 0.  1.
         -5    1    3    3    0  502  0.35190985370E+02  0.19265504228E+02  0.95153277301E+03  0.95238734537E+03  0.41800000000E+01 0.  1.
        -11    1    1    2    0    0  0.40558486795E+02  0.55840603221E+02  0.21156049706E+03  0.22253316097E+03  0.00000000000E+00 0.  1.
         11    1    1    2    0    0 -0.23513416818E+01 -0.29434568161E+02  0.49755918288E+02  0.57858223402E+02  0.00000000000E+00 0. -1.
</event>
<event>
 7    1  0.2989693E-009  0.1181477E+03  0.7561462E-02  0.1246184E+00
          1   -1    0    0  501    0  0.00000000000E+00  0.00000000000E+00  0.16425091680E+03  0.16425091680E+03  0.00000000000E+00 0. -1.
         -1   -1    0    0    0  501 -0.00000000000E+00 -0.00000000000E+00 -0.15961678249E+03  0.15961678249E+03  0.00000000000E+00 0.  1.
         25    2    1    2    0    0  0.49286086233E+02 -0.35520214982E+02  0.10673300645E+03  0.17529987824E+03  0.12508920287E+03 0.  0.
          5    1    3    3  502    0  0.74461468514E+02  0.14442681985E+02  0.33439257548E+02  0.82998540358E+02  0.41800000000E+01 0.  1.
         -5    1    3    3    0  502 -0.25175382281E+02 -0.49962896967E+02  0.73293748899E+02  0.92301337878E+02  0.41800000000E+01 0.  1.
        -11    1    1    2    0    0 -0.16647611919E+02 -0.28135921996E+02 -0.15316962744E+02  0.36102388243E+02  0.00000000000E+00 0. -1.
         11    1    1    2    0    0 -0.32638474313E+02  0.63656136978E+02 -0.86781909388E+02  0.11246543281E+03  0.00000000000E+00 0.  1.
</event>
<event>
 7    1  0.2989693E-009  0.1068750E+03  0.7561462E-02  0.1266469E+00
          2   -1    0    0  501    0  0.00000000000E+00  0.00000000000E+00  0.50170395140E+03  0.50170395140E+03  0.00000000000E+00 0. -1.
         -2   -1    0    0    0  501 -0.00000000000E+00 -0.00000000000E+00 -0.27536369730E+02  0.27536369730E+02  0.00000000000E+00 0.  1.
         25    2    1    2    0    0  0.20297954211E+02 -0.40180537525E+02  0.26581126263E+03  0.29720959921E+03  0.12510569922E+03 0.  0.
          5    1    3    3  502    0 -0.44346381530E+02 -0.48447525487E+02  0.10875891835E+03  0.12712096209E+03  0.41800000000E+01 0.  1.
         -5    1    3    3    0  502  0.64644335742E+02  0.82669879622E+01  0.15705234428E+03  0.17008863712E+03  0.41800000000E+01 0.  1.
        -11    1    1    2    0    0 -0.42664419757E+02  0.79447288215E+01  0.39521228286E+02  0.58696668683E+02  0.00000000000E+00 0.  1.
         11    1    1    2    0    0  0.22366465546E+02  0.32235808703E+02  0.16883509075E+03  0.17333405324E+03  0.00000000000E+00 0. -1.
</event>
<event>
 7    1  0.2989693E-009  0.7616660E+02  0.7561462E-02  0.1340296E+00
          2   -1    0    0  501    0  0.00000000000E+00  0.00000000000E+00  0.67082363519E+03  0.67082363519E+03  0.00000000000E+00 0. -1.
         -2   -1    0    0    0  501 -0.00000000000E+00 -0.00000000000E+00 -0.18865010651E+02  0.18865010651E+02  0.00000000000E+00 0.  1.
         25    2    1    2    0    0 -0.26648319486E+02 -0.13037597455E+02  0.40510889540E+03  0.42501731909E+03  0.12508554077E+03 0.  0.
          5    1    3    3  502    0 -0.23389384293E+02 -0.33905413642E+02  0.34804616035E+02  0.54087651726E+02  0.41800000000E+01 0.  1.
         -5    1    3    3    0  502 -0.32589351924E+01  0.20867816187E+02  0.37030427937E+03  0.37092966736E+03  0.41800000000E+01 0.  1.
        -11    1    1    2    0    0 -0.30441435848E+02 -0.15368236512E+01  0.44649317966E+02  0.54061117620E+02  0.00000000000E+00 0.  1.
         11    1    1    2    0    0  0.57089755334E+02  0.14574421106E+02  0.20220041117E+03  0.21061020914E+03  0.00000000000E+00 0. -1.
</event>
<event>
 7    1  0.2989693E-009  0.1077304E+03  0.7561462E-02  0.1264831E+00
          1   -1    0    0  501    0  0.00000000000E+00  0.00000000000E+00  0.15237323345E+03  0.15237323345E+03  0.00000000000E+00 0. -1.
         -1   -1    0    0    0  501 -0.00000000000E+00 -0.00000000000E+00 -0.12019957278E+03  0.12019957278E+03  0.00000000000E+00 0.  1.
         25    2    1    2    0    0 -0.15988642787E+02  0.72430097542E+02  0.10403810746E+02  0.14580533584E+03  0.12509676635E+03 0.  0.
          5    1    3    3  502    0  0.22556507144E+02  0.74168896956E+02  0.48404174577E+02  0.91489113050E+02  0.41800000000E+01 0. -1.
         -5    1    3    3    0  502 -0.38545149931E+02 -0.17387994134E+01 -0.38000363831E+02  0.54316222787E+02  0.41800000000E+01 0. -1.
        -11    1    1    2    0    0  0.34378679752E+02 -0.12916721192E+02  0.46926972839E+02  0.59589227950E+02  0.00000000000E+00 0. -1.
         11    1    1    2    0    0 -0.18390036965E+02 -0.59513376351E+02 -0.25157122908E+02  0.67178242440E+02  0.00000000000E+00 0.  1.
</event>
<event>
 7    1  0.2989693E-009  0.1031542E+03  0.7561462E-02  0.1273800E+00
          2   -1    0    0  501    0  0.00000000000E+00  0.00000000000E+00  0.13427844004E+03  0.13427844004E+03  0.00000000000E+00 0. -1.
         -2   -1    0    0    0  501 -0.00000000000E+00 -0.00000000000E+00 -0.11383630419E+03  0.11383630419E+03  0.00000000000E+00 0.  1.
         25    2    1    2    0    0  0.32436968726E+02 -0.49609777683E+02  0.18981231200E+02  0.13970906733E+03  0.12508017178E+03 0.  0.
          5    1    3    3  502    0  0.71066207079E+02 -0.11545771826E+02  0.38707128511E+02  0.81850014253E+02  0.41800000000E+01 0.  1.
         -5    1    3    3    0  502 -0.38629238353E+02 -0.38064005857E+02 -0.19725897312E+02  0.57859053072E+02  0.41800000000E+01 0.  1.
        -11    1    1    2    0    0 -0.40590631430E+02  0.13498683683E+02 -0.35874218683E+02  0.55828069885E+02  0.00000000000E+00 0. -1.
         11    1    1    2    0    0  0.81536627034E+01  0.36111093999E+02  0.37335123334E+02  0.52577607017E+02  0.00000000000E+00 0.  1.
</event>
<event>
 7    1  0.2989693E-009  0.6902279E+02  0.7561462E-02  0.1363448E+00
         -1   -1    0    0    0  501 -0.00000000000E+00  0.00000000000E+00  0.15539982779E+03  0.15539982779E+03  0.00000000000E+00 0.  1.
          1   -1    0    0  501    0  0.00000000000E+00 -0.00000000000E+00 -0.92275462047E+02  0.92275462047E+02  0.00000000000E+00 0. -1.
         25    2    1    2    0    0 -0.15078274891E+02  0.84059248562E+01  0.83522425842E+02  0.15140251218E+03  0.12509480856E+03 0.  0.
          5    1    3    3  502    0 -0.36464939000E+02  0.28587835545E+01  0.11038987450E+03  0.11636692490E+03  0.41800000000E+01 0. -1.
         -5    1    3    3    0  502  0.21386664109E+02  0.55471413018E+01 -0.26867448657E+02  0.35035587275E+02  0.41800000000E+01 0. -1.
        -11    1    1    2    0    0  0.13654585780E+02 -0.42490252031E+02  0.15027207563E+02  0.47092315696E+02  0.00000000000E+00 0. -1.
         11    1    1    2    0    0  0.14236891105E+01  0.34084327175E+02 -0.35425267663E+02  0.49180461961E+02  0.00000000000E+00 0.  1.
</event>
<event>
 7    1  0.2989693E-009  0.1205218E+03  0.7561462E-02  0.1242239E+00
         -2   -1    0    0    0  501 -0.00000000000E+00  0.00000000000E+00  0.41997790735E+02  0.41997790735E+02  0.00000000000E+00 0.  1.
          2   -1    0    0  501    0  0.00000000000E+00 -0.00000000000E+00 -0.56803224197E+03  0.56803224197E+03  0.00000000000E+00 0. -1.
         25    2    1    2    0    0 -0.99208572978E+02  0.41970578054E+02 -0.23647173360E+03  0.28839801965E+03  0.12510262418E+03 0.  0.
          5    1    3    3  502    0 -0.56895240386E+02  0.61779966428E+01 -0.22427139261E+03  0.23149593077E+03  0.41800000000E+01 0. -1.
         -5    1    3    3    0  502 -0.42313332592E+02  0.35792581411E+02 -0.12200340990E+02  0.56902088884E+02  0.41800000000E+01 0. -1.
        -11    1    1    2    0    0  0.87394048931E+02 -0.30920790782E+01 -0.12787840796E+03  0.15491987594E+03  0.00000000000E+00 0.  1.
         11    1    1    2    0    0  0.11814524047E+02 -0.38878498976E+02 -0.16168430968E+03  0.16671213711E+03  0.00000000000E+00 0. -1.
</event>
<event>
 7    1  0.2989693E-009  0.1293213E+03  0.7561462E-02  0.1228466E+00
          1   -1    0    0  501    0  0.00000000000E+00  0.00000000000E+00  0.18523226557E+03  0.18523226557E+03  0.00000000000E+00 0. -1.
         -1   -1    0    0    0  501 -0.00000000000E+00 -0.00000000000E+00 -0.10935312186E+03  0.10935312186E+03  0.00000000000E+00 0.  1.
         25    2    1    2    0    0 -0.75137071670E+02  0.17948916164E+02 -0.10621082884E+02  0.14740438659E+03  0.12508997823E+03 0.  0.
          5    1    3    3  502    0 -0.11102321023E+02  0.65850471145E+02 -0.63843494593E+01  0.67214421072E+02  0.41800000000E+01 0. -1.
         -5    1    3    3    0  502 -0.64034750647E+02 -0.47901554981E+02 -0.42367334246E+01  0.80189965520E+02  0.41800000000E+01 0. -1.
        -11    1    1    2    0    0  0.36960507954E+02 -0.49743497917E+02  0.21991820762E+02  0.65758154731E+02  0.00000000000E+00 0.  1.
         11    1    1    2    0    0  0.38176563716E+02  0.31794581753E+02  0.64508405833E+02  0.81422846113E+02  0.00000000000E+00 0. -1.
</event>
<event>
 7    1  0.2989693E-009  0.8930968E+02  0.7561462E-02  0.1304532E+00
         -3   -1    0    0    0  501 -0.00000000000E+00  0.00000000000E+00  0.59141540731E+02  0.59141540731E+02  0.00000000000E+00 0.  1.
          3   -1    0    0  501    0  0.00000000000E+00 -0.00000000000E+00 -0.21347294899E+03  0.21347294899E+03  0.00000000000E+00 0. -1.
         25    2    1    2    0    0  0.35107567981E+02 -0.24283166386E+02 -0.10896331864E+03  0.17129583692E+03  0.12508815067E+03 0.  0.
          5    1    3    3  502    0 -0.28490864227E+02  0.16008046573E+02 -0.86586200980E+02  0.92642482154E+02  0.41800000000E+01 0.  1.
         -5    1    3    3    0  502  0.63598432208E+02 -0.40291212959E+02 -0.22377117664E+02  0.78653354766E+02  0.41800000000E+01 0.  1.
        -11    1    1    2    0    0  0.24493156485E+01 -0.15422650000E+02  0.13750670967E+02  0.20807167808E+02  0.00000000000E+00 0.  1.
         11    1    1    2    0    0 -0.37556883630E+02  0.39705816385E+02 -0.59118760584E+02  0.80511484993E+02  0.00000000000E+00 0. -1.
</event>
<event>
 7    1  0.2989693E-009  0.1284558E+03  0.7561462E-02  0.1229765E+00
         -1   -1    0    0    0  501 -0.00000000000E+00  0.00000000000E+00  0.59243545645E+02  0.59243545645E+02  0.00000000000E+00 0.  1.
          1   -1    0    0  501    0  0.00000000000E+00 -0.00000000000E+00 -0.39921516728E+03  0.39921516728E+03  0.00000000000E+00 0. -1.
         25    2    1    2    0    0  0.12022233157E+01  0.88998674950E+02 -0.26550449318E+03  0.30669642584E+03  0.12509137557E+03 0.  0.
          5    1    3    3  502    0 -0.11556035104E+02  0.10532614362E+03 -0.26513570164E+03  0.28555481289E+03  0.41800000000E+01 0. -1.
         -5    1    3    3    0  502  0.12758258420E+02 -0.16327468673E+02 -0.36879153800E+00  0.21141612955E+02  0.41800000000E+01 0. -1.
        -11    1    1    2    0    0  0.88974257327E+01 -0.10791914102E+03 -0.50138294724E+02  0.11932960144E+03  0.00000000000E+00 0.  1.
         11    1    1    2    0    0 -0.10099649048E+02  0.18920466068E+02 -0.24328833736E+02  0.32432685644E+02  0.00000000000E+00 0. -1.
</event>
<event>
 7    1  0.2989693E-009  0.1216930E+03  0.7561462E-02  0.1240330E+00
         -2   -1    0    0    0  501 -0.00000000000E+00  0.00000000000E+00  0.18141408499E+02  0.18141408499E+02  0.00000000000E+00 0.  1.
          2   -1    0    0  501    0  0.00000000000E+00 -0.00000000000E+00 -0.82135644978E+03  0.82135644978E+03  0.00000000000E+00 0. -1.
         25    2    1    2    0    0 -0.27756199601E+02  0.47121714956E+02 -0.42860138361E+03  0.44981186821E+03  0.12506281666E+03 0.  0.
          5    1    3    3  502    0 -0.53319479531E+02  0.78755500435E+02 -0.28328368075E+03  0.29885198999E+03  0.41800000000E+01 0.  1.
         -5    1    3    3    0  502  0.25563279929E+02 -0.31633785478E+02 -0.14531770287E+03  0.15095987822E+03  0.41800000000E+01 0.  1.
        -11    1    1    2    0    0  0.62076294468E+02 -0.30820371177E+02 -0.23759041614E+03  0.24749256040E+03  0.00000000000E+00 0. -1.
         11    1    1    2    0    0 -0.34320094867E+02 -0.16301343779E+02 -0.13702324153E+03  0.14219342966E+03  0.00000000000E+00 0.  1.
</event>
<event>
 7    1  0.2989693E-009  0.1117661E+03  0.7561462E-02  0.1257334E+00
         -2   -1    0    0    0  501 -0.00000000000E+00  0.00000000000E+00  0.71043604195E+02  0.71043604195E+02  0.00000000000E+00 0.  1.
          2   -1    0    0  501    0  0.00000000000E+00 -0.00000000000E+00 -0.30905546216E+03  0.30905546216E+03  0.00000000000E+00 0. -1.
         25    2    1    2    0    0  0.87355000262E+02  0.86375483676E+01 -0.66292920747E+02  0.16657645064E+03  0.12508980476E+03 0.  0.
          5    1    3    3  502    0  0.43868583683E+02 -0.19443434505E+02  0.30302508225E+02  0.56905308930E+02  0.41800000000E+01 0.  1.
         -5    1    3    3    0  502  0.43486416579E+02  0.28080982872E+02 -0.96595428972E+02  0.10967114171E+03  0.41800000000E+01 0.  1.
        -11    1    1    2    0    0  0.32375326690E+01  0.26180301146E+02 -0.18754942506E+02  0.32367231180E+02  0.00000000000E+00 0.  1.
         11    1    1    2    0    0 -0.90592532931E+02 -0.34817849514E+02 -0.15296399472E+03  0.18115538454E+03  0.00000000000E+00 0. -1.
</event>
<event>
 7    1  0.2989693E-009  0.1251106E+03  0.7561462E-02  0.1234896E+00
          1   -1    0    0  501    0  0.00000000000E+00  0.00000000000E+00  0.13203531965E+03  0.13203531965E+03  0.00000000000E+00 0. -1.
         -1   -1    0    0    0  501 -0.00000000000E+00 -0.00000000000E+00 -0.16158706116E+03  0.16158706116E+03  0.00000000000E+00 0.  1.
         25    2    1    2    0    0 -0.41978786393E+02  0.20441297227E+02 -0.87974236420E+02  0.15989655305E+03  0.12508947304E+03 0.  0.
          5    1    3    3  502    0  0.71036763481E+01  0.64060759793E+02 -0.26379483068E+02  0.69768135204E+02  0.41800000000E+01 0. -1.
         -5    1    3    3    0  502 -0.49082462741E+02 -0.43619462566E+02 -0.61594753352E+02  0.90128417848E+02  0.41800000000E+01 0. -1.
        -11    1    1    2    0    0  0.72132020982E+02 -0.41348940422E+02  0.45797849109E+02  0.94922106530E+02  0.00000000000E+00 0. -1.
         11    1    1    2    0    0 -0.30153234590E+02  0.20907643195E+02  0.12624645803E+02  0.38803721237E+02  0.00000000000E+00 0.  1.
</event>
<event>
 7    1  0.2989693E-009  0.6906711E+02  0.7561462E-02  0.1363294E+00
         -2   -1    0    0    0  501 -0.00000000000E+00  0.00000000000E+00  0.23842930344E+02  0.23842930344E+02  0.00000000000E+00 0.  1.
          2   -1    0    0  501    0  0.00000000000E+00 -0.00000000000E+00 -0.62879577105E+03  0.62879577105E+03  0.00000000000E+00 0. -1.
         25    2    1    2    0    0 -0.43156161404E+02 -0.16666673484E+01 -0.24271479929E+03  0.27644798106E+03  0.12509108835E+03 0.  0.
          5    1    3    3  502    0 -0.21198549491E+02  0.30071612916E+00 -0.25144448036E+03  0.25237129004E+03  0.41800000000E+01 0.  1.
         -5    1    3    3    0  502 -0.21957611913E+02 -0.19673834776E+01  0.87296810700E+01  0.24076691015E+02  0.41800000000E+01 0.  1.
        -11    1    1    2    0    0  0.65162780650E+02 -0.14529435801E+02 -0.31138434799E+03  0.31846115095E+03  0.00000000000E+00 0. -1.
         11    1    1    2    0    0 -0.22006619246E+02  0.16196103149E+02 -0.50853693418E+02  0.57729569391E+02  0.00000000000E+00 0.  1.
</event>
<event>
 7    1  0.2989693E-009  0.2015391E+03  0.7561462E-02  0.1148447E+00
         -1   -1    0    0    0  501 -0.00000000000E+00  0.00000000000E+00  0.35808273025E+02  0.35808273025E+02  0.00000000000E+00 0.  1.
          1   -1    0    0  501    0  0.00000000000E+00 -0.00000000000E+00 -0.15269582003E+04  0.15269582003E+04  0.00000000000E+00 0. -1.
         25    2    1    2    0    0 -0.46806798691E+02  0.17832841679E+03 -0.10837891478E+04  0.11064528024E+04  0.12508791434E+03 0.  0.
          5    1    3    3  502    0 -0.38831250337E+02  0.30485519453E+02 -0.55812259439E+03  0.56031735264E+03  0.41800000000E+01 0.  1.
         -5    1    3    3    0  502 -0.79755483539E+01  0.14784289734E+03 -0.52566655343E+03  0.54613544974E+03  0.41800000000E+01 0.  1.
        -11    1    1    2    0    0  0.63825851184E+02 -0.66028132867E+02 -0.19223803303E+03  0.21304674358E+03  0.00000000000E+00 0.  1.
         11    1    1    2    0    0 -0.17019052493E+02 -0.11230028392E+03 -0.21512274639E+03  0.24326692732E+03  0.00000000000E+00 0. -1.
</event>
<event>
 7    1  0.2997387E-009  0.2046553E+03  0.7561462E-02  0.1145870E+00
         -1   -1    0    0    0  501 -0.00000000000E+00  0.00000000000E+00  0.37331484542E+03  0.37331484542E+03  0.00000000000E+00 0.  1.
          1   -1    0    0  501    0  0.00000000000E+00 -0.00000000000E+00 -0.12532088315E+03  0.12532088315E+03  0.00000000000E+00 0. -1.
         25    2    1    2    0    0  0.10603254615E+03 -0.15360113654E+03  0.13936060099E+03  0.26439028776E+03  0.12507852399E+03 0.  0.
          5    1    3    3  502    0 -0.10547111968E+02  0.14173064279E+02  0.22134022777E+01  0.18289036923E+02  0.41800000000E+01 0.  1.
         -5    1    3    3    0  502  0.11657965812E+03 -0.16777420082E+03  0.13714719871E+03  0.24610125083E+03  0.41800000000E+01 0.  1.
        -11    1    1    2    0    0 -0.75594613287E+02  0.11561646592E+03  0.12142441568E+03  0.18391737676E+03  0.00000000000E+00 0.  1.
         11    1    1    2    0    0 -0.30437932867E+02  0.37984670619E+02 -0.12791054398E+02  0.50328064058E+02  0.00000000000E+00 0. -1.
</event>
<event>
 7    1  0.2989693E-009  0.1121259E+03  0.7561462E-02  0.1256683E+00
          2   -1    0    0  501    0  0.00000000000E+00  0.00000000000E+00  0.92192102514E+02  0.92192102514E+02  0.00000000000E+00 0. -1.
         -2   -1    0    0    0  501 -0.00000000000E+00 -0.00000000000E+00 -0.20657462102E+03  0.20657462102E+03  0.00000000000E+00 0.  1.
         25    2    1    2    0    0  0.10912077934E+01 -0.37211018597E+02 -0.14895208846E+03  0.19804146742E+03  0.12509135671E+03 0.  0.
          5    1    3    3  502    0  0.61650654152E+02 -0.78133606273E+01 -0.82360107385E+02  0.10325943758E+03  0.41800000000E+01 0.  1.
         -5    1    3    3    0  502 -0.60559446359E+02 -0.29397657970E+02 -0.66591981073E+02  0.94782029840E+02  0.41800000000E+01 0.  1.
        -11    1    1    2    0    0  0.42896818401E+02  0.18728014899E+02  0.19278738748E+02  0.50621589650E+02  0.00000000000E+00 0.  1.
         11    1    1    2    0    0 -0.43988026195E+02  0.18483003698E+02  0.15290831200E+02  0.50103666463E+02  0.00000000000E+00 0. -1.
</event>
<event>
 7    1  0.2989693E-009  0.2549230E+03  0.7561462E-02  0.1110233E+00
         -1   -1    0    0    0  501 -0.00000000000E+00  0.00000000000E+00  0.62695481389E+03  0.62695481389E+03  0.00000000000E+00 0.  1.
          1   -1    0    0  501    0  0.00000000000E+00 -0.00000000000E+00 -0.10856122085E+03  0.10856122085E+03  0.00000000000E+00 0. -1.
         25    2    1    2    0    0  0.22244227077E+03 -0.80810250837E+02  0.27045249127E+03  0.38053035470E+03  0.12509172772E+03 0.  0.
          5    1    3    3  502    0  0.10140517333E+03 -0.96077667241E+02  0.18350143819E+03  0.23066030768E+03  0.41800000000E+01 0.  1.
         -5    1    3    3    0  502  0.12103709744E+03  0.15267416404E+02  0.86951053081E+02  0.14987004702E+03  0.41800000000E+01 0.  1.
        -11    1    1    2    0    0 -0.55398523815E+02  0.56660879131E+02  0.45356505451E+02  0.91305335284E+02  0.00000000000E+00 0. -1.
         11    1    1    2    0    0 -0.16704374696E+03  0.24149371707E+02  0.20258459632E+03  0.26368034477E+03  0.00000000000E+00 0.  1.
</event>
<event>
 7    1  0.2989693E-009  0.1360135E+03  0.7561462E-02  0.1218796E+00
          1   -1    0    0  501    0  0.00000000000E+00  0.00000000000E+00  0.26926423965E+03  0.26926423965E+03  0.00000000000E+00 0. -1.
         -1   -1    0    0    0  501 -0.00000000000E+00 -0.00000000000E+00 -0.76062349788E+02  0.76062349788E+02  0.00000000000E+00 0.  1.
         25    2    1    2    0    0  0.80951670209E+02 -0.34682195510E+02  0.70258723061E+02  0.16834013583E+03  0.12508431384E+03 0.  0.
          5    1    3    3  502    0 -0.16327129301E+02 -0.43790267335E+02  0.49812693473E+02  0.68432006368E+02  0.41800000000E+01 0. -1.
         -5    1    3    3    0  502  0.97278799510E+02  0.91080718251E+01  0.20446029587E+02  0.99908129461E+02  0.41800000000E+01 0. -1.
        -11    1    1    2    0    0  0.14747741118E+02 -0.13654123636E+02  0.18928430158E+02  0.27608267396E+02  0.00000000000E+00 0. -1.
         11    1    1    2    0    0 -0.95699411327E+02  0.48336319147E+02  0.10401473664E+03  0.14937818621E+03  0.00000000000E+00 0.  1.
</event>
<event>
 7    1  0.4644849E-009  0.8897077E+02  0.7561462E-02  0.1305363E+00
          2   -1    0    0  501    0  0.00000000000E+00  0.00000000000E+00  0.99890783637E+03  0.99890783637E+03  0.00000000000E+00 0. -1.
         -2   -1    0    0    0  501 -0.00000000000E+00 -0.00000000000E+00 -0.13041580324E+02  0.13041580324E+02  0.00000000000E+00 0.  1.
         25    2    1    2    0    0 -0.13985543233E+02  0.29115688583E+02  0.64317937224E+03  0.65602724955E+03  0.12509487812E+03 0.  0.
          5    1    3    3  502    0  0.97558112773E+01  0.54451105858E+02  0.58857740800E+03  0.59118604212E+03  0.41800000000E+01 0. -1.
         -5    1    3    3    0  502 -0.23741354510E+02 -0.25335417275E+02  0.54601964240E+02  0.64841207432E+02  0.41800000000E+01 0. -1.
        -11    1    1    2    0    0 -0.34117699453E+02 -0.15689551111E+02  0.78049202298E+02  0.86613263473E+02  0.00000000000E+00 0.  1.
         11    1    1    2    0    0  0.48103242686E+02 -0.13426137472E+02  0.26463768150E+03  0.26930890367E+03  0.00000000000E+00 0. -1.
</event>
<event>
 7    1  0.2989693E-009  0.1592891E+03  0.7561462E-02  0.1189502E+00
          2   -1    0    0  501    0  0.00000000000E+00  0.00000000000E+00  0.87457652604E+03  0.87457652604E+03  0.00000000000E+00 0. -1.
         -2   -1    0    0    0  501 -0.00000000000E+00 -0.00000000000E+00 -0.50369633831E+02  0.50369633831E+02  0.00000000000E+00 0.  1.
         25    2    1    2    0    0  0.11671753476E+03  0.59435787839E+02  0.15939761284E+03  0.24125039395E+03  0.12505421946E+03 0.  0.
          5    1    3    3  502    0  0.11871377266E+03  0.81617011039E+02  0.94077227305E+02  0.17211128205E+03  0.41800000000E+01 0.  1.
         -5    1    3    3    0  502 -0.19962379005E+01 -0.22181223199E+02  0.65320385537E+02  0.69139111905E+02  0.41800000000E+01 0.  1.
        -11    1    1    2    0    0 -0.10705496092E+03 -0.17151649938E+02  0.55763551433E+03  0.56807773288E+03  0.00000000000E+00 0. -1.
         11    1    1    2    0    0 -0.96625738354E+01 -0.42284137902E+02  0.10717376504E+03  0.11561803304E+03  0.00000000000E+00 0.  1.
</event>
<event>
 7    1  0.2989693E-009  0.6827122E+02  0.7561462E-02  0.1366072E+00
          1   -1    0    0  501    0  0.00000000000E+00  0.00000000000E+00  0.17652568272E+04  0.17652568272E+04  0.00000000000E+00 0. -1.
         -1   -1    0    0    0  501 -0.00000000000E+00 -0.00000000000E+00 -0.10619537410E+02  0.10619537410E+02  0.00000000000E+00 0.  1.
         25    2    1    2    0    0 -0.21275504843E+02  0.19188674013E+02  0.15079580767E+04  0.15134085061E+04  0.12508754170E+03 0.  0.
          5    1    3    3  502    0  0.92957021043E+01  0.13510849879E+02  0.14186324308E+04  0.14187333785E+04  0.41800000000E+01 0. -1.
         -5    1    3    3    0  502 -0.30571206948E+02  0.56778241339E+01  0.89325645911E+02  0.94675127665E+02  0.41800000000E+01 0. -1.
        -11    1    1    2    0    0 -0.53936371935E+01 -0.48394633958E+02  0.15881726694E+03  0.16611458755E+03  0.00000000000E+00 0.  1.
         11    1    1    2    0    0  0.26669142037E+02  0.29205959945E+02  0.87861946115E+02  0.96353270876E+02  0.00000000000E+00 0. -1.
</event>
<event>
 7    1  0.2989693E-009  0.2206264E+03  0.7561462E-02  0.1133417E+00
         -2   -1    0    0    0  501 -0.00000000000E+00  0.00000000000E+00  0.73546488425E+02  0.73546488425E+02  0.00000000000E+00 0. -1.
          2   -1    0    0  501    0  0.00000000000E+00 -0.00000000000E+00 -0.68910916681E+03  0.68910916681E+03  0.00000000000E+00 0.  1.
         25    2    1    2    0    0  0.19561438123E+03 -0.23865037507E+01 -0.27243812460E+03  0.35796871904E+03  0.12509352716E+03 0.  0.
          5    1    3    3  502    0  0.21066189851E+03 -0.69026085281E+01 -0.26825734298E+03  0.34118258448E+03  0.41800000000E+01 0. -1.
         -5    1    3    3    0  502 -0.15047517284E+02  0.45161047774E+01 -0.41807816182E+01  0.16786134567E+02  0.41800000000E+01 0. -1.
        -11    1    1    2    0    0 -0.80271538137E+02 -0.41994196667E+02 -0.15717379390E+03  0.18141288234E+03  0.00000000000E+00 0.  1.
         11    1    1    2    0    0 -0.11534284309E+03  0.44380700418E+02 -0.18595075989E+03  0.22327405385E+03  0.00000000000E+00 0. -1.
</event>
<event>
 7    1  0.2989693E-009  0.1171248E+03  0.7561462E-02  0.1247917E+00
         -1   -1    0    0    0  501 -0.00000000000E+00  0.00000000000E+00  0.67484629760E+02  0.67484629760E+02  0.00000000000E+00 0.  1.
          1   -1    0    0  501    0  0.00000000000E+00 -0.00000000000E+00 -0.28496182770E+03  0.28496182770E+03  0.00000000000E+00 0. -1.
         25    2    1    2    0    0  0.81832612976E+02  0.27348746936E+02 -0.12818104007E+03  0.19880317967E+03  0.12509114560E+03 0.  0.
          5    1    3    3  502    0  0.28033972979E+02  0.50379253434E+02 -0.12765262469E+03  0.14013078822E+03  0.41800000000E+01 0. -1.
         -5    1    3    3    0  502  0.53798639997E+02 -0.23030506498E+02 -0.52841537721E+00  0.58672391445E+02  0.41800000000E+01 0. -1.
        -11    1    1    2    0    0 -0.80908741389E+02 -0.49995129269E+02 -0.47997727447E+02  0.10653412234E+03  0.00000000000E+00 0. -1.
         11    1    1    2    0    0 -0.92387158694E+00  0.22646382333E+02 -0.41298430424E+02  0.47109155447E+02  0.00000000000E+00 0.  1.
</event>
<event>
 7    1  0.2989693E-009  0.1058020E+03  0.7561462E-02  0.1268547E+00
          1   -1    0    0  501    0  0.00000000000E+00  0.00000000000E+00  0.13985136585E+03  0.13985136585E+03  0.00000000000E+00 0. -1.
         -1   -1    0    0    0  501 -0.00000000000E+00 -0.00000000000E+00 -0.11405978481E+03  0.11405978481E+03  0.00000000000E+00 0.  1.
         25    2    1    2    0    0  0.23133629797E+02 -0.56179691336E+02  0.36657951212E+02  0.14381555789E+03  0.12509111382E+03 0.  0.
          5    1    3    3  502    0  0.51737519479E+02  0.12255566533E+02 -0.12442660449E+02  0.54765518640E+02  0.41800000000E+01 0. -1.
         -5    1    3    3    0  502 -0.28603889682E+02 -0.68435257869E+02  0.49100611662E+02  0.89050039248E+02  0.41800000000E+01 0. -1.
        -11    1    1    2    0    0 -0.42706541545E+02  0.41114176889E+02 -0.40292104070E+02  0.71677596796E+02  0.00000000000E+00 0.  1.
         11    1    1    2    0    0  0.19572911748E+02  0.15065514447E+02  0.29425733889E+02  0.38417995975E+02  0.00000000000E+00 0. -1.
</event>
<event>
 7    1  0.3217149E-009  0.6960902E+02  0.7561462E-02  0.1361428E+00
          1   -1    0    0  501    0  0.00000000000E+00  0.00000000000E+00  0.21608473926E+03  0.21608473926E+03  0.00000000000E+00 0. -1.
         -1   -1    0    0    0  501 -0.00000000000E+00 -0.00000000000E+00 -0.74767739692E+02  0.74767739692E+02  0.00000000000E+00 0.  1.
         25    2    1    2    0    0 -0.19920524045E+02  0.23413602442E+02  0.14610731308E+03  0.19478234568E+03  0.12509113157E+03 0.  0.
          5    1    3    3  502    0 -0.75481450192E+01 -0.25847931891E+02 -0.11172778013E+02  0.29451544014E+02  0.41800000000E+01 0.  1.
         -5    1    3    3    0  502 -0.12372379025E+02  0.49261534333E+02  0.15728009109E+03  0.16533080167E+03  0.41800000000E+01 0.  1.
        -11    1    1    2    0    0  0.34348458348E+02 -0.10172835581E+01  0.34438298030E+02  0.48650260307E+02  0.00000000000E+00 0. -1.
         11    1    1    2    0    0 -0.14427934304E+02 -0.22396318884E+02 -0.39228611541E+02  0.47419872957E+02  0.00000000000E+00 0.  1.
</event>
<event>
 7    1  0.2989693E-009  0.9056308E+02  0.7561462E-02  0.1301494E+00
          3   -1    0    0  501    0  0.00000000000E+00  0.00000000000E+00  0.67205910666E+02  0.67205910666E+02  0.00000000000E+00 0. -1.
         -3   -1    0    0    0  501 -0.00000000000E+00 -0.00000000000E+00 -0.23229570557E+03  0.23229570557E+03  0.00000000000E+00 0.  1.
         25    2    1    2    0    0 -0.46423628745E+02  0.14855933874E+02 -0.13829522476E+03  0.19273325215E+03  0.12507871607E+03 0.  0.
          5    1    3    3  502    0 -0.53090850846E+02 -0.37052602315E+02 -0.12128187798E+03  0.13754381159E+03  0.41800000000E+01 0. -1.
         -5    1    3    3    0  502  0.66672221005E+01  0.51908536189E+02 -0.17013346782E+02  0.55189440553E+02  0.41800000000E+01 0. -1.
        -11    1    1    2    0    0  0.10634644584E+02  0.14135722444E+02 -0.51534627529E+02  0.54486072982E+02  0.00000000000E+00 0.  1.
         11    1    1    2    0    0  0.35788984162E+02 -0.28991656318E+02  0.24740057390E+02  0.52282291104E+02  0.00000000000E+00 0. -1.
</event>
<event>
 7    1  0.2989693E-009  0.1314575E+03  0.7561462E-02  0.1225309E+00
         -4   -1    0    0    0  501 -0.00000000000E+00  0.00000000000E+00  0.20532892160E+02  0.20532892160E+02  0.00000000000E+00 0.  1.
          4   -1    0    0  501    0  0.00000000000E+00 -0.00000000000E+00 -0.17754374684E+04  0.17754374684E+04  0.00000000000E+00 0. -1.
         25    2    1    2    0    0  0.81381478602E+02  0.58404742157E+02 -0.14391468057E+04  0.14480416039E+04  0.12508756701E+03 0.  0.
          5    1    3    3  502    0  0.29137566172E+02 -0.19458383755E+02 -0.10860640542E+03  0.11419479042E+03  0.41800000000E+01 0. -1.
         -5    1    3    3    0  502  0.52243912430E+02  0.77863125912E+02 -0.13305404003E+04  0.13338468135E+04  0.41800000000E+01 0. -1.
        -11    1    1    2    0    0 -0.40355986726E+02 -0.78365434700E+02 -0.26691023283E+03  0.28108863266E+03  0.00000000000E+00 0.  1.
         11    1    1    2    0    0 -0.41025491876E+02  0.19960692542E+02 -0.48847537700E+02  0.66840123951E+02  0.00000000000E+00 0. -1.
</event>
<event>
 7    1  0.2989693E-009  0.1602087E+03  0.7561462E-02  0.1188461E+00
         -1   -1    0    0    0  501 -0.00000000000E+00  0.00000000000E+00  0.23632579267E+03  0.23632579267E+03  0.00000000000E+00 0.  1.
          1   -1    0    0  501    0  0.00000000000E+00 -0.00000000000E+00 -0.13143171350E+03  0.13143171350E+03  0.00000000000E+00 0. -1.
         25    2    1    2    0    0  0.66439931221E+02  0.11002563743E+03  0.10798982820E+03  0.20935270624E+03  0.12508735852E+03 0.  0.
          5    1    3    3  502    0  0.55586681153E+02 -0.80024433121E+01  0.14010304138E+02  0.58031708941E+02  0.41800000000E+01 0. -1.
         -5    1    3    3    0  502  0.10853250068E+02  0.11802808074E+03  0.93979524065E+02  0.15132099730E+03  0.41800000000E+01 0. -1.
        -11    1    1    2    0    0 -0.53898817286E+02 -0.24750201018E+02  0.29516665637E+02  0.66248686821E+02  0.00000000000E+00 0.  1.
         11    1    1    2    0    0 -0.12541113936E+02 -0.85275436409E+02 -0.32612414665E+02  0.92156113111E+02  0.00000000000E+00 0. -1.
</event>
<event>
 7    1  0.2989693E-009  0.1194685E+03  0.7561462E-02  0.1243977E+00
         -1   -1    0    0    0  501 -0.00000000000E+00  0.00000000000E+00  0.59750082917E+02  0.59750082917E+02  0.00000000000E+00 0.  1.
          1   -1    0    0  501    0  0.00000000000E+00 -0.00000000000E+00 -0.28624182117E+03  0.28624182117E+03  0.00000000000E+00 0. -1.
         25    2    1    2    0    0  0.60636971934E+02 -0.40229645086E+02 -0.11012648222E+03  0.18185125370E+03  0.12508704839E+03 0.  0.
          5    1    3    3  502    0  0.13408482742E+02 -0.75342847501E+02 -0.29901705603E+02  0.82267347575E+02  0.41800000000E+01 0. -1.
         -5    1    3    3    0  502  0.47228489192E+02  0.35113202415E+02 -0.80224776621E+02  0.99583906124E+02  0.41800000000E+01 0. -1.
        -11    1    1    2    0    0 -0.18755148045E+02 -0.21607067000E+02 -0.71508585129E+02  0.77020118604E+02  0.00000000000E+00 0. -1.
         11    1    1    2    0    0 -0.41881823889E+02  0.61836712086E+02 -0.44856670898E+02  0.87120531782E+02  0.00000000000E+00 0.  1.
</event>
<event>
 7    1  0.2989693E-009  0.1039064E+03  0.7561462E-02  0.1272289E+00
          2   -1    0    0  501    0  0.00000000000E+00  0.00000000000E+00  0.20955651560E+03  0.20955651560E+03  0.00000000000E+00 0. -1.
         -2   -1    0    0    0  501 -0.00000000000E+00 -0.00000000000E+00 -0.63367301739E+02  0.63367301739E+02  0.00000000000E+00 0.  1.
         25    2    1    2    0    0 -0.11847190058E+02  0.59034520253E+01  0.14043949888E+03  0.18853719537E+03  0.12509122485E+03 0.  0.
          5    1    3    3  502    0  0.48560272571E+02 -0.27277659738E+02  0.74030251558E+02  0.92736839168E+02  0.41800000000E+01 0. -1.
         -5    1    3    3    0  502 -0.60407462629E+02  0.33181111763E+02  0.66409247321E+02  0.95800356204E+02  0.41800000000E+01 0. -1.
        -11    1    1    2    0    0  0.42321341321E+02 -0.22794380068E+02  0.10554807860E+02  0.49214669183E+02  0.00000000000E+00 0. -1.
         11    1    1    2    0    0 -0.30474151263E+02  0.16890928043E+02 -0.48050928753E+01  0.35171952787E+02  0.00000000000E+00 0.  1.
</event>
<event>
 7    1  0.2989693E-009  0.1054153E+03  0.7561462E-02  0.1269304E+00
          2   -1    0    0  501    0  0.00000000000E+00  0.00000000000E+00  0.60450339179E+03  0.60450339179E+03  0.00000000000E+00 0. -1.
         -2   -1    0    0    0  501 -0.00000000000E+00 -0.00000000000E+00 -0.34541306645E+02  0.34541306645E+02  0.00000000000E+00 0.  1.
         25    2    1    2    0    0 -0.51649079165E+02 -0.79675690487E+02  0.29321560897E+03  0.33262417453E+03  0.12509038773E+03 0.  0.
          5    1    3    3  502    0 -0.54239619975E+02 -0.66593719395E+02  0.30338787831E+03  0.31533844825E+03  0.41800000000E+01 0.  1.
         -5    1    3    3    0  502  0.25905408098E+01 -0.13081971092E+02 -0.10172269342E+02  0.17285726276E+02  0.41800000000E+01 0.  1.
        -11    1    1    2    0    0 -0.10307019408E+02  0.48474111584E+00 -0.16261112430E+01  0.10445758029E+02  0.00000000000E+00 0.  1.
         11    1    1    2    0    0  0.61956098573E+02  0.79190949371E+02  0.27837258742E+03  0.29597476588E+03  0.00000000000E+00 0. -1.
</event>
<event>
 7    1  0.2989693E-009  0.1069439E+03  0.7561462E-02  0.1266336E+00
         -1   -1    0    0    0  501 -0.00000000000E+00  0.00000000000E+00  0.27549503508E+03  0.27549503508E+03  0.00000000000E+00 0.  1.
          1   -1    0    0  501    0  0.00000000000E+00 -0.00000000000E+00 -0.78197916786E+02  0.78197916786E+02  0.00000000000E+00 0. -1.
         25    2    1    2    0    0 -0.36736322551E+02 -0.87270345015E+02  0.13971088615E+03  0.21007428159E+03  0.12508557697E+03 0.  0.
          5    1    3    3  502    0 -0.53231710735E+02 -0.36231226872E+02  0.14226247341E+03  0.15621267737E+03  0.41800000000E+01 0. -1.
         -5    1    3    3    0  502  0.16495388184E+02 -0.51039118143E+02 -0.25515872663E+01  0.53861604225E+02  0.41800000000E+01 0. -1.
        -11    1    1    2    0    0  0.22122206200E+02  0.67088549995E+02  0.82343670444E+02  0.10849306710E+03  0.00000000000E+00 0. -1.
         11    1    1    2    0    0  0.14614116351E+02  0.20181795020E+02 -0.24757438298E+02  0.35125603170E+02  0.00000000000E+00 0.  1.
</event>
<event>
 7    1  0.2989693E-009  0.9582714E+02  0.7561462E-02  0.1289324E+00
         -2   -1    0    0    0  501 -0.00000000000E+00  0.00000000000E+00  0.23285144463E+02  0.23285144463E+02  0.00000000000E+00 0. -1.
          2   -1    0    0  501    0  0.00000000000E+00 -0.00000000000E+00 -0.57373083053E+03  0.57373083053E+03  0.00000000000E+00 0.  1.
         25    2    1    2    0    0  0.19191227674E+01 -0.83249126154E+01 -0.42167234350E+03  0.43991790137E+03  0.12508879836E+03 0.  0.
          5    1    3    3  502    0  0.57830528827E+02 -0.29390434773E+02 -0.23863155563E+03  0.24732702938E+03  0.41800000000E+01 0. -1.
         -5    1    3    3    0  502 -0.55911406060E+02  0.21065522158E+02 -0.18304078787E+03  0.19259087199E+03  0.41800000000E+01 0. -1.
        -11    1    1    2    0    0  0.20913328501E+01  0.37373039606E+02 -0.16232473029E+02  0.40799643909E+02  0.00000000000E+00 0. -1.
         11    1    1    2    0    0 -0.40104556175E+01 -0.29048126991E+02 -0.11254086954E+03  0.11629842971E+03  0.00000000000E+00 0.  1.
</event>
<event>
 7    1  0.2989693E-009  0.1794979E+03  0.7561462E-02  0.1168290E+00
         -1   -1    0    0    0  501 -0.00000000000E+00  0.00000000000E+00  0.27997142473E+02  0.27997142473E+02  0.00000000000E+00 0.  1.
          1   -1    0    0  501    0  0.00000000000E+00 -0.00000000000E+00 -0.13159239761E+04  0.13159239761E+04  0.00000000000E+00 0. -1.
         25    2    1    2    0    0  0.31594904697E+02 -0.15367015995E+03 -0.71953015259E+03  0.74698169106E+03  0.12508097472E+03 0.  0.
          5    1    3    3  502    0  0.57485143065E+02 -0.79410115716E+02 -0.21487825099E+03  0.23622159787E+03  0.41800000000E+01 0. -1.
         -5    1    3    3    0  502 -0.25890238367E+02 -0.74260044234E+02 -0.50465190160E+03  0.51076009319E+03  0.41800000000E+01 0. -1.
        -11    1    1    2    0    0  0.24619681856E+02  0.78543972496E+01 -0.70102688428E+02  0.74714170113E+02  0.00000000000E+00 0. -1.
         11    1    1    2    0    0 -0.56214586554E+02  0.14581576270E+03 -0.49829399262E+03  0.52222525741E+03  0.00000000000E+00 0.  1.
</event>
<event>
 7    1  0.2989693E-009  0.1601690E+03  0.7561462E-02  0.1188506E+00
          2   -1    0    0  501    0  0.00000000000E+00  0.00000000000E+00  0.49050750286E+02  0.49050750286E+02  0.00000000000E+00 0. -1.
         -2   -1    0    0    0  501 -0.00000000000E+00 -0.00000000000E+00 -0.53980911370E+03  0.53980911370E+03  0.00000000000E+00 0.  1.
         25    2    1    2    0    0  0.22390061999E+02  0.11862851580E+03 -0.27537075171E+03  0.32565414637E+03  0.12509009758E+03 0.  0.
          5    1    3    3  502    0 -0.24540897325E+02  0.12096802525E+03 -0.16924561734E+03  0.20951627660E+03  0.41800000000E+01 0. -1.
         -5    1    3    3    0  502  0.46930959324E+02 -0.23395094481E+01 -0.10612513437E+03  0.11613786976E+03  0.41800000000E+01 0. -1.
        -11    1    1    2    0    0 -0.30979654528E+02 -0.26032489153E+00 -0.30283619923E+02  0.43323254718E+02  0.00000000000E+00 0. -1.
         11    1    1    2    0    0  0.85895925290E+01 -0.11836819091E+03 -0.18510399178E+03  0.21988246290E+03  0.00000000000E+00 0.  1.
</event>
<event>
 7    1  0.2989693E-009  0.1001829E+03  0.7561462E-02  0.1279912E+00
          2   -1    0    0  501    0  0.00000000000E+00  0.00000000000E+00  0.97436782376E+03  0.97436782376E+03  0.00000000000E+00 0. -1.
         -2   -1    0    0    0  501 -0.00000000000E+00 -0.00000000000E+00 -0.15731000519E+02  0.15731000519E+02  0.00000000000E+00 0.  1.
         25    2    1    2    0    0 -0.42086825121E+02  0.15849525361E+02  0.69682410659E+03  0.70939228119E+03  0.12510421571E+03 0.  0.
          5    1    3    3  502    0  0.25630264176E+02  0.17738724060E+02  0.50384361510E+03  0.50482416112E+03  0.41800000000E+01 0.  1.
         -5    1    3    3    0  502 -0.67717089297E+02 -0.18891986989E+01  0.19298049149E+03  0.20456812007E+03  0.41800000000E+01 0.  1.
        -11    1    1    2    0    0  0.18226241653E+02 -0.53472343427E+02  0.15505559982E+03  0.16502644161E+03  0.00000000000E+00 0.  1.
         11    1    1    2    0    0  0.23860583468E+02  0.37622818066E+02  0.10675711683E+03  0.11568010147E+03  0.00000000000E+00 0. -1.
</event>
<event>
 7    1  0.2989693E-009  0.1136999E+03  0.7561462E-02  0.1253868E+00
         -1   -1    0    0    0  501 -0.00000000000E+00  0.00000000000E+00  0.27214884640E+02  0.27214884640E+02  0.00000000000E+00 0.  1.
          1   -1    0    0  501    0  0.00000000000E+00 -0.00000000000E+00 -0.50191280199E+03  0.50191280199E+03  0.00000000000E+00 0. -1.
         25    2    1    2    0    0  0.25588332735E+00 -0.36146356215E+02 -0.21832185778E+03  0.25420262725E+03  0.12509163671E+03 0.  0.
          5    1    3    3  502    0  0.21036445518E+02  0.42263303910E+02 -0.10027625522E+03  0.11091221149E+03  0.41800000000E+01 0.  1.
         -5    1    3    3    0  502 -0.20780562191E+02 -0.78409660125E+02 -0.11804560256E+03  0.14329041576E+03  0.41800000000E+01 0.  1.
        -11    1    1    2    0    0  0.45576815526E+02  0.23274870040E+02 -0.11912554220E+03  0.12965284607E+03  0.00000000000E+00 0.  1.
         11    1    1    2    0    0 -0.45832698853E+02  0.12871486175E+02 -0.13725051738E+03  0.14527221331E+03  0.00000000000E+00 0. -1.
</event>
<event>
 7    1  0.2989693E-009  0.1621411E+03  0.7561462E-02  0.1186300E+00
         -1   -1    0    0    0  501 -0.00000000000E+00  0.00000000000E+00  0.27311638225E+02  0.27311638225E+02  0.00000000000E+00 0. -1.
          1   -1    0    0  501    0  0.00000000000E+00 -0.00000000000E+00 -0.13460231008E+04  0.13460231008E+04  0.00000000000E+00 0.  1.
         25    2    1    2    0    0  0.12020611075E+03  0.88527712432E+02 -0.80787488783E+03  0.83102115596E+03  0.12509061654E+03 0.  0.
          5    1    3    3  502    0  0.11544625390E+03  0.60443147494E+02 -0.78042991816E+03  0.79124556313E+03  0.41800000000E+01 0.  1.
         -5    1    3    3    0  502  0.47598568518E+01  0.28084564938E+02 -0.27444969671E+02  0.39775592833E+02  0.41800000000E+01 0.  1.
        -11    1    1    2    0    0 -0.10966790036E+03 -0.42045990660E+02 -0.23865811745E+03  0.26599362910E+03  0.00000000000E+00 0. -1.
         11    1    1    2    0    0 -0.10538210387E+02 -0.46481721772E+02 -0.27217845735E+03  0.27631995401E+03  0.00000000000E+00 0.  1.
</event>
<event>
 7    1  0.2989693E-009  0.8668447E+02  0.7561462E-02  0.1311085E+00
         -1   -1    0    0    0  501 -0.00000000000E+00  0.00000000000E+00  0.37903388560E+02  0.37903388560E+02  0.00000000000E+00 0.  1.
          1   -1    0    0  501    0  0.00000000000E+00 -0.00000000000E+00 -0.39025925861E+03  0.39025925861E+03  0.00000000000E+00 0. -1.
         25    2    1    2    0    0  0.13842548253E+02  0.83908094513E+01 -0.29748387309E+03  0.32311801639E+03  0.12508627398E+03 0.  0.
          5    1    3    3  502    0  0.57072590885E+02  0.40178798748E+02 -0.13635286208E+03  0.15323573962E+03  0.41800000000E+01 0.  1.
         -5    1    3    3    0  502 -0.43230042633E+02 -0.31787989297E+02 -0.16113101101E+03  0.16988227677E+03  0.41800000000E+01 0.  1.
        -11    1    1    2    0    0 -0.14302583356E+01  0.19261646722E+02 -0.68964585610E+02  0.71618229116E+02  0.00000000000E+00 0. -1.
         11    1    1    2    0    0 -0.12412289917E+02 -0.27652456173E+02  0.14092588654E+02  0.33426401666E+02  0.00000000000E+00 0.  1.
</event>
<event>
 7    1  0.2989693E-009  0.1120525E+03  0.7561462E-02  0.1256816E+00
          2   -1    0    0  501    0  0.00000000000E+00  0.00000000000E+00  0.67418900369E+03  0.67418900369E+03  0.00000000000E+00 0. -1.
         -2   -1    0    0    0  501 -0.00000000000E+00 -0.00000000000E+00 -0.23172274305E+02  0.23172274305E+02  0.00000000000E+00 0.  1.
         25    2    1    2    0    0  0.28858538857E+02 -0.54777691308E+02  0.34267060492E+03  0.37000091898E+03  0.12507647997E+03 0.  0.
          5    1    3    3  502    0  0.55783021853E+02 -0.82970870361E+02  0.25657120429E+03  0.27539456445E+03  0.41800000000E+01 0. -1.
         -5    1    3    3    0  502 -0.26924482996E+02  0.28193179053E+02  0.86099400623E+02  0.94606354530E+02  0.41800000000E+01 0. -1.
        -11    1    1    2    0    0 -0.30108080645E+02  0.69876485753E-01  0.26062396087E+02  0.39821475270E+02  0.00000000000E+00 0.  1.
         11    1    1    2    0    0  0.12495417882E+01  0.54707814822E+02  0.28228372838E+03  0.28753888375E+03  0.00000000000E+00 0. -1.
</event>
<event>
 7    1  0.2989693E-009  0.1205480E+03  0.7561462E-02  0.1242196E+00
          1   -1    0    0  501    0  0.00000000000E+00  0.00000000000E+00  0.41220716232E+02  0.41220716232E+02  0.00000000000E+00 0. -1.
         -1   -1    0    0    0  501 -0.00000000000E+00 -0.00000000000E+00 -0.41030137327E+03  0.41030137327E+03  0.00000000000E+00 0.  1.
         25    2    1    2    0    0  0.32846063672E+01  0.70417627413E+02 -0.21718012074E+03  0.26037116704E+03  0.12512597210E+03 0.  0.
          5    1    3    3  502    0  0.12158167699E+02  0.10217150860E+03 -0.12253075032E+03  0.16005653809E+03  0.41800000000E+01 0. -1.
         -5    1    3    3    0  502 -0.88735613321E+01 -0.31753881187E+02 -0.94649370416E+02  0.10031462895E+03  0.41800000000E+01 0. -1.
        -11    1    1    2    0    0  0.34457270815E+02 -0.53238972233E+02 -0.48787246954E+02  0.80011793767E+02  0.00000000000E+00 0. -1.
         11    1    1    2    0    0 -0.37741877183E+02 -0.17178655179E+02 -0.10311328934E+03  0.11113912869E+03  0.00000000000E+00 0.  1.
</event>
<event>
 7    1  0.2989693E-009  0.2891303E+03  0.7561462E-02  0.1090804E+00
          2   -1    0    0  501    0  0.00000000000E+00  0.00000000000E+00  0.15749159747E+04  0.15749159747E+04  0.00000000000E+00 0. -1.
         -2   -1    0    0    0  501 -0.00000000000E+00 -0.00000000000E+00 -0.60240297553E+02  0.60240297553E+02  0.00000000000E+00 0.  1.
         25    2    1    2    0    0  0.28694216503E+03  0.18260525362E+02  0.81036656636E+03  0.86891366188E+03  0.12509087527E+03 0.  0.
          5    1    3    3  502    0  0.10610031750E+03  0.26540341067E+02  0.47851374119E+03  0.49087120509E+03  0.41800000000E+01 0. -1.
         -5    1    3    3    0  502  0.18084184753E+03 -0.82798157042E+01  0.33185282516E+03  0.37804245679E+03  0.41800000000E+01 0. -1.
        -11    1    1    2    0    0 -0.19638341114E+03 -0.73833829637E+01  0.36101831788E+03  0.41104158471E+03  0.00000000000E+00 0. -1.
         11    1    1    2    0    0 -0.90558753893E+02 -0.10877142399E+02  0.34329079288E+03  0.35520102564E+03  0.00000000000E+00 0.  1.
</event>
<event>
 7    1  0.2989693E-009  0.1407221E+03  0.7561462E-02  0.1212361E+00
         -2   -1    0    0    0  501 -0.00000000000E+00  0.00000000000E+00  0.24078709522E+02  0.24078709522E+02  0.00000000000E+00 0.  1.
          2   -1    0    0  501    0  0.00000000000E+00 -0.00000000000E+00 -0.10552484508E+04  0.10552484508E+04  0.00000000000E+00 0. -1.
         25    2    1    2    0    0 -0.54464784639E+01  0.11210480142E+03 -0.44322434372E+03  0.47401722056E+03  0.12508939160E+03 0.  0.
          5    1    3    3  502    0  0.37198104753E+02  0.47278271660E+02 -0.68242845802E+02  0.91068613537E+02  0.41800000000E+01 0.  1.
         -5    1    3    3    0  502 -0.42644583217E+02  0.64826529764E+02 -0.37498149792E+03  0.38294860702E+03  0.41800000000E+01 0.  1.
        -11    1    1    2    0    0  0.37412727515E+02 -0.10390106941E+03 -0.47303677591E+03  0.48575604553E+03  0.00000000000E+00 0. -1.
         11    1    1    2    0    0 -0.31966249051E+02 -0.82037320185E+01 -0.11490862162E+03  0.11955389421E+03  0.00000000000E+00 0.  1.
</event>
<event>
 7    1  0.2989693E-009  0.2207573E+03  0.7561462E-02  0.1133320E+00
          2   -1    0    0  501    0  0.00000000000E+00  0.00000000000E+00  0.26988519234E+04  0.26988519234E+04  0.00000000000E+00 0. -1.
         -2   -1    0    0    0  501 -0.00000000000E+00 -0.00000000000E+00 -0.22200308481E+02  0.22200308481E+02  0.00000000000E+00 0.  1.
         25    2    1    2    0    0 -0.21116344689E+03 -0.31255660272E+02  0.16543730927E+04  0.16727715619E+04  0.12508977097E+03 0.  0.
          5    1    3    3  502    0 -0.17715744453E+03 -0.62100676341E+00  0.15290896687E+04  0.15393238234E+04  0.41800000000E+01 0. -1.
         -5    1    3    3    0  502 -0.34006002352E+02 -0.30634653509E+02  0.12528342403E+03  0.13344773856E+03  0.41800000000E+01 0. -1.
        -11    1    1    2    0    0  0.46172037652E+02  0.26606650164E+02  0.12403428092E+03  0.13499731011E+03  0.00000000000E+00 0. -1.
         11    1    1    2    0    0  0.16499140923E+03  0.46490101080E+01  0.89824424126E+03  0.91328335985E+03  0.00000000000E+00 0.  1.
</event>
<event>
 7    1  0.2989693E-009  0.1124143E+03  0.7561462E-02  0.1256163E+00
          2   -1    0    0  501    0  0.00000000000E+00  0.00000000000E+00  0.37530082591E+03  0.37530082591E+03  0.00000000000E+00 0. -1.
         -2   -1    0    0    0  501 -0.00000000000E+00 -0.00000000000E+00 -0.39373995089E+02  0.39373995089E+02  0.00000000000E+00 0.  1.
         25    2    1    2    0    0 -0.52003962778E+01 -0.54213373377E+02  0.22087183714E+03  0.25961265220E+03  0.12509287256E+03 0.  0.
          5    1    3    3  502    0  0.55000858782E+02 -0.87896362632E+01  0.12971482237E+03  0.14122945767E+03  0.41800000000E+01 0.  1.
         -5    1    3    3    0  502 -0.60201255060E+02 -0.45423737114E+02  0.91157014771E+02  0.11838319453E+03  0.41800000000E+01 0.  1.
        -11    1    1    2    0    0 -0.94794218756E+01  0.70719685168E+02  0.52113510240E+02  0.88356953654E+02  0.00000000000E+00 0.  1.
         11    1    1    2    0    0  0.14679818153E+02 -0.16506311792E+02  0.62941483441E+02  0.66705215146E+02  0.00000000000E+00 0. -1.
</event>
<event>
 7    1  0.2989693E-009  0.1725520E+03  0.7561462E-02  0.1175212E+00
          2   -1    0    0  501    0  0.00000000000E+00  0.00000000000E+00  0.28033908464E+03  0.28033908464E+03  0.00000000000E+00 0. -1.
         -2   -1    0    0    0  501 -0.00000000000E+00 -0.00000000000E+00 -0.12022080448E+03  0.12022080448E+03  0.00000000000E+00 0.  1.
         25    2    1    2    0    0 -0.11127362198E+03 -0.92071680312E+02  0.49794233277E+02  0.19744598475E+03  0.12508572246E+03 0.  0.
          5    1    3    3  502    0 -0.15087609188E+02 -0.89165195048E+02  0.44769640068E+02  0.10099436138E+03  0.41800000000E+01 0. -1.
         -5    1    3    3    0  502 -0.96186012797E+02 -0.29064852645E+01  0.50245932093E+01  0.96451623373E+02  0.41800000000E+01 0. -1.
        -11    1    1    2    0    0  0.59696957993E+02  0.88547638973E+01  0.69708128868E+01  0.60751344591E+02  0.00000000000E+00 0.  1.
         11    1    1    2    0    0  0.51576663992E+02  0.83216916415E+02  0.10335323400E+03  0.14236255977E+03  0.00000000000E+00 0. -1.
</event>
<event>
 7    1  0.2989693E-009  0.1248169E+03  0.7561462E-02  0.1235356E+00
          2   -1    0    0  501    0  0.00000000000E+00  0.00000000000E+00  0.81420071059E+02  0.81420071059E+02  0.00000000000E+00 0. -1.
         -2   -1    0    0    0  501 -0.00000000000E+00 -0.00000000000E+00 -0.27012361527E+03  0.27012361527E+03  0.00000000000E+00 0.  1.
         25    2    1    2    0    0  0.84733712867E+02 -0.33054120616E+02 -0.50630949966E+02  0.16273767868E+03  0.12509069502E+03 0.  0.
          5    1    3    3  502    0  0.23210595423E+02  0.28101503147E+02 -0.65068199924E+02  0.74697853117E+02  0.41800000000E+01 0. -1.
         -5    1    3    3    0  502  0.61523117444E+02 -0.61155623764E+02  0.14437249957E+02  0.88039825558E+02  0.41800000000E+01 0. -1.
        -11    1    1    2    0    0 -0.23325663575E+02 -0.30054674297E+02 -0.60433800353E+02  0.71411583468E+02  0.00000000000E+00 0.  1.
         11    1    1    2    0    0 -0.61408049292E+02  0.63108794913E+02 -0.77638793894E+02  0.11739442419E+03  0.00000000000E+00 0. -1.
</event>
<event>
 6    1  0.2989693E-009  0.9859028E+02  0.7561462E-02  0.1283289E+00
          1   -1    0    0  501    0  0.00000000000E+00  0.00000000000E+00  0.56969394029E+02  0.56969394029E+02  0.00000000000E+00 0. -1.
         -1   -1    0    0    0  501 -0.00000000000E+00 -0.00000000000E+00 -0.39619166127E+03  0.39619166127E+03  0.00000000000E+00 0.  1.
          5    1    1    2  502    0 -0.19343088098E+02  0.82684089749E+02 -0.91278249547E+02  0.12473974906E+03  0.41800000000E+01 0.  1.
         -5    1    1    2    0  502  0.12493662259E+02 -0.87386849699E+01 -0.20190261686E+03  0.20252060465E+03  0.41800000000E+01 0.  1.
        -11    1    1    2    0    0  0.25925968062E+02 -0.72757459881E+02 -0.63518015629E+02  0.10000171047E+03  0.00000000000E+00 0.  1.
         11    1    1    2    0    0 -0.19076542223E+02 -0.11879448977E+01  0.17476614795E+02  0.25898991119E+02  0.00000000000E+00 0. -1.
</event>
<event>
 7    1  0.2989693E-009  0.1801929E+03  0.7561462E-02  0.1167616E+00
          1   -1    0    0  501    0  0.00000000000E+00  0.00000000000E+00  0.28297812697E+03  0.28297812697E+03  0.00000000000E+00 0. -1.
         -1   -1    0    0    0  501 -0.00000000000E+00 -0.00000000000E+00 -0.11943358031E+03  0.11943358031E+03  0.00000000000E+00 0.  1.
         25    2    1    2    0    0  0.10097760022E+03 -0.10738537170E+03  0.68321077296E+02  0.20501929539E+03  0.12504818303E+03 0.  0.
          5    1    3    3  502    0  0.10903359332E+02 -0.10232225215E+03  0.36065137735E+02  0.10911871099E+03  0.41800000000E+01 0.  1.
         -5    1    3    3    0  502  0.90074240889E+02 -0.50631195566E+01  0.32255939561E+02  0.95900584400E+02  0.41800000000E+01 0.  1.
        -11    1    1    2    0    0  0.59915961599E+01  0.40470735944E+02  0.28358325974E+01  0.41010018762E+02  0.00000000000E+00 0.  1.
         11    1    1    2    0    0 -0.10696919638E+03  0.66914635759E+02  0.92387636763E+02  0.15638239313E+03  0.00000000000E+00 0. -1.
</event>
<event>
 7    1  0.2989693E-009  0.9571225E+02  0.7561462E-02  0.1289580E+00
          2   -1    0    0  501    0  0.00000000000E+00  0.00000000000E+00  0.42094104359E+03  0.42094104359E+03  0.00000000000E+00 0.  1.
         -2   -1    0    0    0  501 -0.00000000000E+00 -0.00000000000E+00 -0.10560076529E+03  0.10560076529E+03  0.00000000000E+00 0. -1.
         25    2    1    2    0    0 -0.46290284556E+02  0.22287052891E+02  0.38013147032E+03  0.40346866955E+03  0.12509008517E+03 0.  0.
          5    1    3    3  502    0 -0.42449515919E+02  0.48331874814E+02  0.36898870340E+03  0.37457718452E+03  0.41800000000E+01 0.  1.
         -5    1    3    3    0  502 -0.38407686367E+01 -0.26044821922E+02  0.11142766924E+02  0.28891485033E+02  0.41800000000E+01 0.  1.
        -11    1    1    2    0    0 -0.24345651867E+02  0.45059437265E+01 -0.32643619478E+02  0.40970967603E+02  0.00000000000E+00 0. -1.
         11    1    1    2    0    0  0.70635936423E+02 -0.26792996618E+02 -0.32147572538E+02  0.82102171726E+02  0.00000000000E+00 0.  1.
</event>
<event>
 7    1  0.2989693E-009  0.9917484E+02  0.7561462E-02  0.1282041E+00
         -2   -1    0    0    0  501 -0.00000000000E+00  0.00000000000E+00  0.47121256535E+02  0.47121256535E+02  0.00000000000E+00 0.  1.
          2   -1    0    0  501    0  0.00000000000E+00 -0.00000000000E+00 -0.32405564185E+03  0.32405564185E+03  0.00000000000E+00 0. -1.
         25    2    1    2    0    0 -0.43963526808E+02  0.40147632606E+02 -0.16442997121E+03  0.21500266309E+03  0.12507719859E+03 0.  0.
          5    1    3    3  502    0  0.43761319150E+02  0.10084700569E+02 -0.63350912569E+02  0.77766090056E+02  0.41800000000E+01 0. -1.
         -5    1    3    3    0  502 -0.87724845958E+02  0.30062932036E+02 -0.10107905864E+03  0.13723657303E+03  0.41800000000E+01 0. -1.
        -11    1    1    2    0    0  0.23454418133E+02 -0.28221024961E+02 -0.12435376715E+03  0.12965490883E+03  0.00000000000E+00 0. -1.
         11    1    1    2    0    0  0.20509108675E+02 -0.11926607645E+02  0.11849353048E+02  0.26519326466E+02  0.00000000000E+00 0.  1.
</event>
<event>
 7    1  0.2989693E-009  0.1227194E+03  0.7561462E-02  0.1238677E+00
         -3   -1    0    0    0  501 -0.00000000000E+00  0.00000000000E+00  0.49726285027E+02  0.49726285027E+02  0.00000000000E+00 0.  1.
          3   -1    0    0  501    0  0.00000000000E+00 -0.00000000000E+00 -0.47110530657E+03  0.47110530657E+03  0.00000000000E+00 0. -1.
         25    2    1    2    0    0  0.73815014112E+02 -0.57590323517E+02 -0.14158932666E+03  0.21085681461E+03  0.12509099556E+03 0.  0.
          5    1    3    3  502    0 -0.18004308483E+02 -0.85084898070E+00 -0.88658043319E+02  0.90568206966E+02  0.41800000000E+01 0.  1.
         -5    1    3    3    0  502  0.91819322595E+02 -0.56739474536E+02 -0.52931283345E+02  0.12028860764E+03  0.41800000000E+01 0.  1.
        -11    1    1    2    0    0 -0.21709680694E+02  0.62902811115E+02 -0.83254581563E+02  0.10658048242E+03  0.00000000000E+00 0.  1.
         11    1    1    2    0    0 -0.52105333418E+02 -0.53124875984E+01 -0.19653511332E+03  0.20339429457E+03  0.00000000000E+00 0. -1.
</event>
<event>
 7    1  0.2989693E-009  0.9179810E+02  0.7561462E-02  0.1298555E+00
          2   -1    0    0  501    0  0.00000000000E+00  0.00000000000E+00  0.28954300668E+03  0.28954300668E+03  0.00000000000E+00 0. -1.
         -2   -1    0    0    0  501 -0.00000000000E+00 -0.00000000000E+00 -0.42407086149E+02  0.42407086149E+02  0.00000000000E+00 0.  1.
         25    2    1    2    0    0  0.86506970436E+01  0.15052030243E+02  0.15865032414E+03  0.20277929507E+03  0.12509244176E+03 0.  0.
          5    1    3    3  502    0  0.41645684752E+02  0.31530694489E+02  0.15138630991E+02  0.54545378371E+02  0.41800000000E+01 0.  1.
         -5    1    3    3    0  502 -0.32994987708E+02 -0.16478664246E+02  0.14351169315E+03  0.14823391670E+03  0.41800000000E+01 0.  1.
        -11    1    1    2    0    0  0.30676280525E+02 -0.37771013963E+02  0.47300816801E+02  0.67860525733E+02  0.00000000000E+00 0. -1.
         11    1    1    2    0    0 -0.39326977569E+02  0.22718983721E+02  0.41184779589E+02  0.61310272025E+02  0.00000000000E+00 0.  1.
</event>
<event>
 7    1  0.2989693E-009  0.9378776E+02  0.7561462E-02  0.1293930E+00
          3   -1    0    0  501    0  0.00000000000E+00  0.00000000000E+00  0.90416661650E+02  0.90416661650E+02  0.00000000000E+00 0. -1.
         -3   -1    0    0    0  501 -0.00000000000E+00 -0.00000000000E+00 -0.14269005844E+03  0.14269005844E+03  0.00000000000E+00 0.  1.
         25    2    1    2    0    0 -0.36448748227E+02  0.15966935850E+02 -0.12188810097E+02  0.13183611249E+03  0.12509492066E+03 0.  0.
          5    1    3    3  502    0 -0.21717786504E+02  0.53587249922E+02 -0.49840936985E+02  0.76451599097E+02  0.41800000000E+01 0. -1.
         -5    1    3    3    0  502 -0.14730961722E+02 -0.37620314072E+02  0.37652126888E+02  0.55384513389E+02  0.41800000000E+01 0. -1.
        -11    1    1    2    0    0  0.41542198945E+02 -0.43989490106E+02 -0.12831182985E+02  0.61850374209E+02  0.00000000000E+00 0. -1.
         11    1    1    2    0    0 -0.50934507187E+01  0.28022554255E+02 -0.27253403705E+02  0.39420233393E+02  0.00000000000E+00 0.  1.
</event>
<event>
 7    1  0.2989693E-009  0.1952355E+03  0.7561462E-02  0.1153822E+00
         -2   -1    0    0    0  501 -0.00000000000E+00  0.00000000000E+00  0.23214986825E+03  0.23214986825E+03  0.00000000000E+00 0.  1.
          2   -1    0    0  501    0  0.00000000000E+00 -0.00000000000E+00 -0.18085357327E+03  0.18085357327E+03  0.00000000000E+00 0. -1.
         25    2    1    2    0    0 -0.48194220937E+02  0.15775461388E+03 -0.33494516591E+02  0.20970906574E+03  0.12508720350E+03 0.  0.
          5    1    3    3  502    0 -0.62040750039E+01  0.16351209254E+03 -0.19299095334E+02  0.16481693613E+03  0.41800000000E+01 0. -1.
         -5    1    3    3    0  502 -0.41990145934E+02 -0.57574786640E+01 -0.14195421257E+02  0.44892129608E+02  0.41800000000E+01 0. -1.
        -11    1    1    2    0    0 -0.22250349279E+02 -0.22189443308E+02  0.86281610918E+01  0.32586724308E+02  0.00000000000E+00 0.  1.
         11    1    1    2    0    0  0.70444570216E+02 -0.13556517057E+03  0.76162650472E+02  0.17070765147E+03  0.00000000000E+00 0. -1.
</event>
<event>
 7    1  0.2989693E-009  0.1262898E+03  0.7561462E-02  0.1233067E+00
          1   -1    0    0  501    0  0.00000000000E+00  0.00000000000E+00  0.36691619242E+03  0.36691619242E+03  0.00000000000E+00 0. -1.
         -1   -1    0    0    0  501 -0.00000000000E+00 -0.00000000000E+00 -0.58102019941E+02  0.58102019941E+02  0.00000000000E+00 0.  1.
         25    2    1    2    0    0 -0.40197140610E+02  0.55404055701E+02  0.66730843969E+02  0.15743665919E+03  0.12509147301E+03 0.  0.
          5    1    3    3  502    0  0.34804400567E+02  0.53665448449E+02  0.47772471137E+02  0.79943780588E+02  0.41800000000E+01 0. -1.
         -5    1    3    3    0  502 -0.75001541177E+02  0.17386072518E+01  0.18958372832E+02  0.77492878605E+02  0.41800000000E+01 0. -1.
        -11    1    1    2    0    0  0.68660262033E+02 -0.29055439261E+02  0.17241451219E+03  0.18784358958E+03  0.00000000000E+00 0.  1.
         11    1    1    2    0    0 -0.28463121424E+02 -0.26348616440E+02  0.69668816318E+02  0.79737963585E+02  0.00000000000E+00 0. -1.
</event>
<event>
 7    1  0.2989693E-009  0.1174306E+03  0.7561462E-02  0.1247397E+00
         -1   -1    0    0    0  501 -0.00000000000E+00  0.00000000000E+00  0.29391803922E+02  0.29391803922E+02  0.00000000000E+00 0.  1.
          1   -1    0    0  501    0  0.00000000000E+00 -0.00000000000E+00 -0.79378131114E+03  0.79378131114E+03  0.00000000000E+00 0. -1.
         25    2    1    2    0    0 -0.16811246789E+02 -0.67389813926E+02 -0.19764508905E+03  0.24397023857E+03  0.12503555911E+03 0.  0.
          5    1    3    3  502    0 -0.54897671991E+02 -0.44128282709E+02 -0.42253172496E+02  0.82242706125E+02  0.41800000000E+01 0. -1.
         -5    1    3    3    0  502  0.38086425202E+02 -0.23261531217E+02 -0.15539191656E+03  0.16172753244E+03  0.41800000000E+01 0. -1.
        -11    1    1    2    0    0 -0.36963991898E+02  0.53044874460E+01 -0.17992067759E+03  0.18375506662E+03  0.00000000000E+00 0.  1.
         11    1    1    2    0    0  0.53775238687E+02  0.62085326480E+02 -0.38682374058E+03  0.39544780988E+03  0.00000000000E+00 0. -1.
</event>
<event>
 7    1  0.2989693E-009  0.1063189E+03  0.7561462E-02  0.1267543E+00
          4   -1    0    0  501    0  0.00000000000E+00  0.00000000000E+00  0.92255168395E+02  0.92255168395E+02  0.00000000000E+00 0. -1.
         -4   -1    0    0    0  501 -0.00000000000E+00 -0.00000000000E+00 -0.17718990640E+03  0.17718990640E+03  0.00000000000E+00 0.  1.
         25    2    1    2    0    0 -0.32689623283E+02 -0.59712915698E+02 -0.50790073910E+02  0.15119998651E+03  0.12509020962E+03 0.  0.
          5    1    3    3  502    0 -0.54417638748E+02 -0.22158780240E+02 -0.79545851940E+02  0.98981341219E+02  0.41800000000E+01 0. -1.
         -5    1    3    3    0  502  0.21728015465E+02 -0.37554135459E+02  0.28755778031E+02  0.52218645293E+02  0.41800000000E+01 0. -1.
        -11    1    1    2    0    0 -0.28619712512E+02  0.31795853149E+02 -0.13194566723E+00  0.42779453379E+02  0.00000000000E+00 0.  1.
         11    1    1    2    0    0  0.61309335795E+02  0.27917062549E+02 -0.34012718432E+02  0.75465634908E+02  0.00000000000E+00 0. -1.
</event>
<event>
 7    1  0.2989693E-009  0.8019889E+02  0.7561462E-02  0.1328488E+00
          1   -1    0    0  501    0  0.00000000000E+00  0.00000000000E+00  0.13456650543E+04  0.13456650543E+04  0.00000000000E+00 0. -1.
         -1   -1    0    0    0  501 -0.00000000000E+00 -0.00000000000E+00 -0.14029761356E+02  0.14029761356E+02  0.00000000000E+00 0.  1.
         25    2    1    2    0    0  0.64835137147E+02  0.23434381887E+02  0.96379645075E+03  0.97432200398E+03  0.12508798380E+03 0.  0.
          5    1    3    3  502    0  0.49623363882E+02  0.17124616785E+02  0.12875968423E+03  0.13911239854E+03  0.41800000000E+01 0.  1.
         -5    1    3    3    0  502  0.15211773265E+02  0.63097651021E+01  0.83503676652E+03  0.83520960544E+03  0.41800000000E+01 0. -1.
        -11    1    1    2    0    0 -0.69006987091E+02 -0.35767933185E+02  0.36339646143E+03  0.37161579285E+03  0.00000000000E+00 0. -1.
         11    1    1    2    0    0  0.41718499441E+01  0.12333551297E+02  0.44423807194E+01  0.13757018791E+02  0.00000000000E+00 0.  1.
</event>
<event>
 7    1  0.2989693E-009  0.1211285E+03  0.7561462E-02  0.1241247E+00
          1   -1    0    0  501    0  0.00000000000E+00  0.00000000000E+00  0.13868939990E+02  0.13868939990E+02  0.00000000000E+00 0. -1.
         -1   -1    0    0    0  501 -0.00000000000E+00 -0.00000000000E+00 -0.18966610856E+04  0.18966610856E+04  0.00000000000E+00 0.  1.
         25    2    1    2    0    0  0.53818160866E+02 -0.23322040448E+02 -0.16149822643E+04  0.16208808570E+04  0.12508687534E+03 0.  0.
          5    1    3    3  502    0  0.69039915497E+02  0.33743823735E+02 -0.77387266266E+03  0.77768986491E+03  0.41800000000E+01 0.  1.
         -5    1    3    3    0  502 -0.15221754631E+02 -0.57065864183E+02 -0.84110960166E+03  0.84319099205E+03  0.41800000000E+01 0.  1.
        -11    1    1    2    0    0 -0.70208996853E+02 -0.80747221191E+01 -0.21275637201E+03  0.22418692693E+03  0.00000000000E+00 0.  1.
         11    1    1    2    0    0  0.16390835987E+02  0.31396762568E+02 -0.55053509279E+02  0.65462241697E+02  0.00000000000E+00 0. -1.
</event>
<event>
 7    1  0.2989693E-009  0.1432531E+03  0.7561462E-02  0.1209017E+00
          2   -1    0    0  501    0  0.00000000000E+00  0.00000000000E+00  0.32610038110E+03  0.32610038110E+03  0.00000000000E+00 0. -1.
         -2   -1    0    0    0  501 -0.00000000000E+00 -0.00000000000E+00 -0.64442573420E+02  0.64442573420E+02  0.00000000000E+00 0.  1.
         25    2    1    2    0    0  0.65242335430E+02  0.71129006097E+02  0.15117577633E+03  0.21867095458E+03  0.12508786186E+03 0.  0.
          5    1    3    3  502    0  0.93402889366E+02  0.83828491143E+02  0.10938929736E+03  0.16653770278E+03  0.41800000000E+01 0.  1.
         -5    1    3    3    0  502 -0.28160553936E+02 -0.12699485046E+02  0.41786478975E+02  0.52133251803E+02  0.41800000000E+01 0.  1.
        -11    1    1    2    0    0 -0.47489659600E+02  0.84400668490E+01  0.55541727002E+02  0.73562122969E+02  0.00000000000E+00 0.  1.
         11    1    1    2    0    0 -0.17752675830E+02 -0.79569072946E+02  0.54940304341E+02  0.98309876969E+02  0.00000000000E+00 0. -1.
</event>
<event>
 7    1  0.2989693E-009  0.1410117E+03  0.7561462E-02  0.1211974E+00
         -1   -1    0    0    0  501 -0.00000000000E+00  0.00000000000E+00  0.22247362264E+03  0.22247362264E+03  0.00000000000E+00 0.  1.
          1   -1    0    0  501    0  0.00000000000E+00 -0.00000000000E+00 -0.11389334701E+03  0.11389334701E+03  0.00000000000E+00 0. -1.
         25    2    1    2    0    0 -0.64964242404E+02  0.94484381517E+02  0.38064898119E+02  0.17390999466E+03  0.12509236041E+03 0.  0.
          5    1    3    3  502    0  0.30767277435E+02 -0.18856450647E+01 -0.46525379039E+01  0.31453132229E+02  0.41800000000E+01 0. -1.
         -5    1    3    3    0  502 -0.95731519839E+02  0.96370026582E+02  0.42717436023E+02  0.14245686243E+03  0.41800000000E+01 0. -1.
        -11    1    1    2    0    0  0.20548295090E+02 -0.37552038745E+02  0.78899173971E+02  0.89763398434E+02  0.00000000000E+00 0.  1.
         11    1    1    2    0    0  0.44415947314E+02 -0.56932342772E+02 -0.83837964618E+01  0.72693576555E+02  0.00000000000E+00 0. -1.
</event>
<event>
 7    1  0.2989693E-009  0.1184151E+03  0.7561462E-02  0.1245735E+00
         -1   -1    0    0    0  501 -0.00000000000E+00  0.00000000000E+00  0.81928200651E+02  0.81928200651E+02  0.00000000000E+00 0.  1.
          1   -1    0    0  501    0  0.00000000000E+00 -0.00000000000E+00 -0.18052337684E+03  0.18052337684E+03  0.00000000000E+00 0. -1.
         25    2    1    2    0    0  0.52401173877E+02 -0.45119549738E-02 -0.35690714379E+02  0.14024072203E+03  0.12509096681E+03 0.  0.
          5    1    3    3  502    0  0.54989088690E+02 -0.54463871174E+02 -0.36227899118E+02  0.85557268614E+02  0.41800000000E+01 0.  1.
         -5    1    3    3    0  502 -0.25879148130E+01  0.54459359219E+02  0.53718473887E+00  0.54683453412E+02  0.41800000000E+01 0.  1.
        -11    1    1    2    0    0 -0.46022705899E+02 -0.41908772916E+02 -0.40476934403E+02  0.74248346273E+02  0.00000000000E+00 0. -1.
         11    1    1    2    0    0 -0.63784679779E+01  0.41913284871E+02 -0.22427527410E+02  0.47962509194E+02  0.00000000000E+00 0.  1.
</event>
<event>
 7    1  0.2989693E-009  0.1202153E+03  0.7561462E-02  0.1242742E+00
          1   -1    0    0  501    0  0.00000000000E+00  0.00000000000E+00  0.12723622907E+03  0.12723622907E+03  0.00000000000E+00 0. -1.
         -1   -1    0    0    0  501 -0.00000000000E+00 -0.00000000000E+00 -0.12168954819E+03  0.12168954819E+03  0.00000000000E+00 0.  1.
         25    2    1    2    0    0 -0.53161733635E+02 -0.16893446603E+02  0.25267000302E+02  0.13927480924E+03  0.12508993854E+03 0.  0.
          5    1    3    3  502    0  0.25985783594E+02 -0.44400685416E+02 -0.14321704539E+00  0.51615644194E+02  0.41800000000E+01 0.  1.
         -5    1    3    3    0  502 -0.79147517229E+02  0.27507238813E+02  0.25410217347E+02  0.87659165044E+02  0.41800000000E+01 0.  1.
        -11    1    1    2    0    0 -0.23089326072E+02  0.16993147933E+02 -0.17045047893E+02  0.33352926600E+02  0.00000000000E+00 0.  1.
         11    1    1    2    0    0  0.76251059708E+02 -0.99701330419E-01 -0.26752715267E+01  0.76298041421E+02  0.00000000000E+00 0. -1.
</event>
<event>
 7    1  0.2989693E-009  0.9719718E+02  0.7561462E-02  0.1286303E+00
         -1   -1    0    0    0  501 -0.00000000000E+00  0.00000000000E+00  0.35297231809E+02  0.35297231809E+02  0.00000000000E+00 0.  1.
          1   -1    0    0  501    0  0.00000000000E+00 -0.00000000000E+00 -0.36584702704E+03  0.36584702704E+03  0.00000000000E+00 0. -1.
         25    2    1    2    0    0  0.21446824356E+02  0.20678178030E+02 -0.14849074152E+03  0.19642835479E+03  0.12508814862E+03 0.  0.
          5    1    3    3  502    0  0.50188559328E+02 -0.20503366957E+02 -0.19203868368E+02  0.57667499549E+02  0.41800000000E+01 0. -1.
         -5    1    3    3    0  502 -0.28741734972E+02  0.41181544987E+02 -0.12928687315E+03  0.13876085524E+03  0.41800000000E+01 0. -1.
        -11    1    1    2    0    0  0.31554838415E+02 -0.18501258967E+02 -0.10478915256E+03  0.11098995858E+03  0.00000000000E+00 0.  1.
         11    1    1    2    0    0 -0.53001662771E+02 -0.21769190630E+01 -0.77269901152E+02  0.93725945485E+02  0.00000000000E+00 0. -1.
</event>
<event>
 7    1  0.2989693E-009  0.1186409E+03  0.7561462E-02  0.1245356E+00
          2   -1    0    0  501    0  0.00000000000E+00  0.00000000000E+00  0.71297656334E+03  0.71297656334E+03  0.00000000000E+00 0. -1.
         -2   -1    0    0    0  501 -0.00000000000E+00 -0.00000000000E+00 -0.31200304739E+02  0.31200304739E+02  0.00000000000E+00 0.  1.
         25    2    1    2    0    0 -0.42909729016E+00  0.99565712517E+02  0.31803305544E+03  0.35595922075E+03  0.12509367390E+03 0.  0.
          5    1    3    3  502    0  0.21226570431E+02  0.88789897860E+02  0.31855709449E+03  0.33140656014E+03  0.41800000000E+01 0.  1.
         -5    1    3    3    0  502 -0.21655667721E+02  0.10775814657E+02 -0.52403905174E+00  0.24552660608E+02  0.41800000000E+01 0.  1.
        -11    1    1    2    0    0 -0.26929636189E+01 -0.11021586066E+03  0.36000266783E+03  0.37650592139E+03  0.00000000000E+00 0.  1.
         11    1    1    2    0    0  0.31220609090E+01  0.10650148148E+02  0.37405353259E+01  0.11711725937E+02  0.00000000000E+00 0. -1.
</event>
<event>
 7    1  0.2989693E-009  0.1078652E+03  0.7561462E-02  0.1264575E+00
         -1   -1    0    0    0  501 -0.00000000000E+00  0.00000000000E+00  0.41795456410E+03  0.41795456410E+03  0.00000000000E+00 0.  1.
          1   -1    0    0  501    0  0.00000000000E+00 -0.00000000000E+00 -0.62954741978E+02  0.62954741978E+02  0.00000000000E+00 0. -1.
         25    2    1    2    0    0  0.21034670457E+02 -0.37749250184E+02  0.35113503375E+03  0.37524766510E+03  0.12509010745E+03 0.  0.
          5    1    3    3  502    0  0.21972202840E+02 -0.74821361682E+02  0.31009524022E+03  0.31977733545E+03  0.41800000000E+01 0.  1.
         -5    1    3    3    0  502 -0.93753238272E+00  0.37072111498E+02  0.41039793533E+02  0.55470329647E+02  0.41800000000E+01 0.  1.
        -11    1    1    2    0    0  0.21001433060E+02 -0.19926071379E+02 -0.13901706427E+02  0.32114886778E+02  0.00000000000E+00 0. -1.
         11    1    1    2    0    0 -0.42036103517E+02  0.57675321563E+02  0.17766494796E+02  0.73546754202E+02  0.00000000000E+00 0.  1.
</event>
<event>
 7    1  0.2989693E-009  0.9643690E+02  0.7561462E-02  0.1287972E+00
         -2   -1    0    0    0  501 -0.00000000000E+00  0.00000000000E+00  0.11787134203E+02  0.11787134203E+02  0.00000000000E+00 0.  1.
          2   -1    0    0  501    0  0.00000000000E+00 -0.00000000000E+00 -0.12083429818E+04  0.12083429818E+04  0.00000000000E+00 0. -1.
         25    2    1    2    0    0 -0.34512402224E+02  0.11496572779E+02 -0.86330759409E+03  0.87307995092E+03  0.12508125995E+03 0.  0.
          5    1    3    3  502    0 -0.36540116613E+02 -0.37796233775E+02 -0.16965671349E+03  0.17766431336E+03  0.41800000000E+01 0. -1.
         -5    1    3    3    0  502  0.20277143893E+01  0.49292806555E+02 -0.69365088060E+03  0.69541563756E+03  0.41800000000E+01 0. -1.
        -11    1    1    2    0    0  0.52199884773E+02 -0.33779223670E+02 -0.27844696489E+03  0.28530435709E+03  0.00000000000E+00 0. -1.
         11    1    1    2    0    0 -0.17687482549E+02  0.22282650891E+02 -0.54801288595E+02  0.61745807966E+02  0.00000000000E+00 0.  1.
</event>
<event>
 7    1  0.2989693E-009  0.8746438E+02  0.7561462E-02  0.1309111E+00
          1   -1    0    0  501    0  0.00000000000E+00  0.00000000000E+00  0.10219568763E+03  0.10219568763E+03  0.00000000000E+00 0. -1.
         -1   -1    0    0    0  501 -0.00000000000E+00 -0.00000000000E+00 -0.15016637019E+03  0.15016637019E+03  0.00000000000E+00 0.  1.
         25    2    1    2    0    0  0.12602210017E+02  0.38735863774E+02  0.14487196838E+02  0.13235238179E+03  0.12509193121E+03 0.  0.
          5    1    3    3  502    0  0.61003328968E+02  0.18761968273E+02  0.38439073776E+02  0.74622063704E+02  0.41800000000E+01 0. -1.
         -5    1    3    3    0  502 -0.48401118951E+02  0.19973895501E+02 -0.23951876938E+02  0.57730318084E+02  0.41800000000E+01 0. -1.
        -11    1    1    2    0    0  0.12652710082E+02 -0.55614979151E+00  0.21172064724E+02  0.24670968762E+02  0.00000000000E+00 0. -1.
         11    1    1    2    0    0 -0.25254920099E+02 -0.38179713983E+02 -0.83629944123E+02  0.95338707266E+02  0.00000000000E+00 0.  1.
</event>
<event>
 7    1  0.2989693E-009  0.1277091E+03  0.7561462E-02  0.1230895E+00
          1   -1    0    0  501    0  0.00000000000E+00  0.00000000000E+00  0.51928111495E+03  0.51928111495E+03  0.00000000000E+00 0. -1.
         -1   -1    0    0    0  501 -0.00000000000E+00 -0.00000000000E+00 -0.48570424514E+02  0.48570424514E+02  0.00000000000E+00 0.  1.
         25    2    1    2    0    0 -0.33837175118E+02 -0.91023500297E+02  0.36386521396E+03  0.39683168295E+03  0.12508900288E+03 0.  0.
          5    1    3    3  502    0 -0.81392601377E+02 -0.61550938657E+02  0.24228302141E+03  0.26292928416E+03  0.41800000000E+01 0. -1.
         -5    1    3    3    0  502  0.47555426259E+02 -0.29472561640E+02  0.12158219255E+03  0.13390239879E+03  0.41800000000E+01 0. -1.
        -11    1    1    2    0    0  0.23334860553E+02  0.57543266457E+02  0.11871830892E+03  0.13397678942E+03  0.00000000000E+00 0. -1.
         11    1    1    2    0    0  0.10502314564E+02  0.33480233840E+02 -0.11872832440E+02  0.37043067088E+02  0.00000000000E+00 0.  1.
</event>
<event>
 7    1  0.2989693E-009  0.1650916E+03  0.7561462E-02  0.1183065E+00
         -1   -1    0    0    0  501 -0.00000000000E+00  0.00000000000E+00  0.30354969837E+02  0.30354969837E+02  0.00000000000E+00 0.  1.
          1   -1    0    0  501    0  0.00000000000E+00 -0.00000000000E+00 -0.10677589341E+04  0.10677589341E+04  0.00000000000E+00 0. -1.
         25    2    1    2    0    0  0.23361841559E+02 -0.14011238712E+03 -0.48043330851E+03  0.51637285185E+03  0.12508997379E+03 0.  0.
          5    1    3    3  502    0 -0.15302784855E+02 -0.11957393151E+03 -0.44134971746E+03  0.45753595031E+03  0.41800000000E+01 0.  1.
         -5    1    3    3    0  502  0.38664626414E+02 -0.20538455609E+02 -0.39083591048E+02  0.58836901547E+02  0.41800000000E+01 0.  1.
        -11    1    1    2    0    0 -0.45417935968E+02  0.13568608141E+03 -0.44176442392E+03  0.46435902903E+03  0.00000000000E+00 0. -1.
         11    1    1    2    0    0  0.22056094409E+02  0.44263057099E+01 -0.11520623184E+03  0.11738202306E+03  0.00000000000E+00 0.  1.
</event>
<event>
 7    1  0.2989693E-009  0.1256322E+03  0.7561462E-02  0.1234085E+00
         -2   -1    0    0    0  501 -0.00000000000E+00  0.00000000000E+00  0.75446560716E+02  0.75446560716E+02  0.00000000000E+00 0. -1.
          2   -1    0    0  501    0  0.00000000000E+00 -0.00000000000E+00 -0.25003107284E+03  0.25003107284E+03  0.00000000000E+00 0.  1.
         25    2    1    2    0    0  0.49843236838E+02 -0.61770187495E+02 -0.12873504447E+03  0.19626627882E+03  0.12509131147E+03 0.  0.
          5    1    3    3  502    0  0.10172515259E+02  0.35271289301E+02 -0.61206181145E+02  0.71492747367E+02  0.41800000000E+01 0.  1.
         -5    1    3    3    0  502  0.39670721578E+02 -0.97041476796E+02 -0.67528863321E+02  0.12477353145E+03  0.41800000000E+01 0.  1.
        -11    1    1    2    0    0 -0.41217724017E+02  0.79573543637E+02 -0.57286268326E+02  0.10636054794E+03  0.00000000000E+00 0.  1.
         11    1    1    2    0    0 -0.86255128206E+01 -0.17803356143E+02  0.11436800673E+02  0.22850806791E+02  0.00000000000E+00 0. -1.
</event>
<event>
 7    1  0.2989693E-009  0.1279741E+03  0.7561462E-02  0.1230493E+00
          2   -1    0    0  501    0  0.00000000000E+00  0.00000000000E+00  0.32488324609E+03  0.32488324609E+03  0.00000000000E+00 0. -1.
         -2   -1    0    0    0  501 -0.00000000000E+00 -0.00000000000E+00 -0.57644965248E+02  0.57644965248E+02  0.00000000000E+00 0.  1.
         25    2    1    2    0    0 -0.64272765046E+02 -0.59279618606E+02  0.20310125247E+03  0.25405228701E+03  0.12508950505E+03 0.  0.
          5    1    3    3  502    0 -0.99699096482E+02 -0.57691088864E+02  0.16980130689E+03  0.20522701526E+03  0.41800000000E+01 0.  1.
         -5    1    3    3    0  502  0.35426331436E+02 -0.15885297427E+01  0.33299945580E+02  0.48825271749E+02  0.41800000000E+01 0.  1.
        -11    1    1    2    0    0  0.68718942829E+02  0.29358435578E+02  0.63747015999E+02  0.98223688039E+02  0.00000000000E+00 0. -1.
         11    1    1    2    0    0 -0.44461777837E+01  0.29921183028E+02  0.39001237766E+00  0.30252236286E+02  0.00000000000E+00 0.  1.
</event>
<event>
 7    1  0.2989693E-009  0.9531902E+02  0.7561462E-02  0.1290459E+00
          2   -1    0    0  501    0  0.00000000000E+00  0.00000000000E+00  0.15363716411E+04  0.15363716411E+04  0.00000000000E+00 0. -1.
         -2   -1    0    0    0  501 -0.00000000000E+00 -0.00000000000E+00 -0.11824900339E+02  0.11824900339E+02  0.00000000000E+00 0.  1.
         25    2    1    2    0    0 -0.23877976142E+02 -0.78400160084E+01  0.12759928371E+04  0.12823559802E+04  0.12509003224E+03 0.  0.
          5    1    3    3  502    0 -0.54781622618E+02  0.20168294200E+02  0.10954053466E+04  0.10969676987E+04  0.41800000000E+01 0.  1.
         -5    1    3    3    0  502  0.30903646477E+02 -0.28008310209E+02  0.18058749050E+03  0.18538828153E+03  0.41800000000E+01 0.  1.
        -11    1    1    2    0    0  0.10140114148E+02 -0.39563356467E+02  0.15216704987E+03  0.15755282338E+03  0.00000000000E+00 0.  1.
         11    1    1    2    0    0  0.13737861993E+02  0.47403372476E+02  0.96386853783E+02  0.10828773779E+03  0.00000000000E+00 0. -1.
</event>
<event>
 7    1  0.2989693E-009  0.9144075E+02  0.7561462E-02  0.1299400E+00
          2   -1    0    0  501    0  0.00000000000E+00  0.00000000000E+00  0.36090110415E+03  0.36090110415E+03  0.00000000000E+00 0. -1.
         -2   -1    0    0    0  501 -0.00000000000E+00 -0.00000000000E+00 -0.62899741012E+02  0.62899741012E+02  0.00000000000E+00 0.  1.
         25    2    1    2    0    0 -0.26259260397E+02 -0.33668176739E+02  0.30338941036E+03  0.33093158569E+03  0.12508990849E+03 0.  0.
          5    1    3    3  502    0 -0.69185691688E+02 -0.50454713563E+02  0.18904456301E+03  0.20757566635E+03  0.41800000000E+01 0.  1.
         -5    1    3    3    0  502  0.42926431290E+02  0.16786536825E+02  0.11434484735E+03  0.12335591934E+03  0.41800000000E+01 0.  1.
        -11    1    1    2    0    0  0.13427388401E+01  0.24164728827E+02  0.36152510508E+02  0.43505644265E+02  0.00000000000E+00 0. -1.
         11    1    1    2    0    0  0.24916521557E+02  0.95034479120E+01 -0.41540557736E+02  0.49363615201E+02  0.00000000000E+00 0.  1.
</event>
<event>
 7    1  0.2989693E-009  0.1016655E+03  0.7561462E-02  0.1276832E+00
         -2   -1    0    0    0  501 -0.00000000000E+00  0.00000000000E+00  0.13724507583E+03  0.13724507583E+03  0.00000000000E+00 0.  1.
          2   -1    0    0  501    0  0.00000000000E+00 -0.00000000000E+00 -0.10950556960E+03  0.10950556960E+03  0.00000000000E+00 0. -1.
         25    2    1    2    0    0 -0.26463626963E+02  0.23924958334E+02 -0.30431113245E+02  0.13359184233E+03  0.12509196817E+03 0.  0.
          5    1    3    3  502    0 -0.33692685268E+02  0.61892795442E+02 -0.53330600480E+02  0.88473388743E+02  0.41800000000E+01 0. -1.
         -5    1    3    3    0  502  0.72290583055E+01 -0.37967837107E+02  0.22899487235E+02  0.45118453588E+02  0.41800000000E+01 0. -1.
        -11    1    1    2    0    0  0.57905322126E+02 -0.23292799586E+02  0.51713436584E+02  0.81054675167E+02  0.00000000000E+00 0. -1.
         11    1    1    2    0    0 -0.31441695164E+02 -0.63215874852E+00  0.64571828968E+01  0.32104127934E+02  0.00000000000E+00 0.  1.
</event>
<event>
 7    1  0.2989693E-009  0.1058739E+03  0.7561462E-02  0.1268407E+00
          2   -1    0    0  501    0  0.00000000000E+00  0.00000000000E+00  0.37972530896E+03  0.37972530896E+03  0.00000000000E+00 0. -1.
         -2   -1    0    0    0  501 -0.00000000000E+00 -0.00000000000E+00 -0.43591308612E+02  0.43591308612E+02  0.00000000000E+00 0.  1.
         25    2    1    2    0    0  0.21539010868E+02 -0.22055953051E+02  0.85577792653E+02  0.15466567324E+03  0.12509003889E+03 0.  0.
          5    1    3    3  502    0  0.43102287208E+02  0.39857498226E+02  0.60341135477E+02  0.84290879447E+02  0.41800000000E+01 0. -1.
         -5    1    3    3    0  502 -0.21563276340E+02 -0.61913451277E+02  0.25236657176E+02  0.70374793789E+02  0.41800000000E+01 0. -1.
        -11    1    1    2    0    0  0.13540707220E+02  0.43854768871E+02  0.72034860404E+02  0.85414358384E+02  0.00000000000E+00 0.  1.
         11    1    1    2    0    0 -0.35079718088E+02 -0.21798815820E+02  0.17852134729E+03  0.18323658595E+03  0.00000000000E+00 0. -1.
</event>
<event>
 7    1  0.2989693E-009  0.1071494E+03  0.7561462E-02  0.1265942E+00
          1   -1    0    0  501    0  0.00000000000E+00  0.00000000000E+00  0.14771195596E+03  0.14771195596E+03  0.00000000000E+00 0. -1.
         -1   -1    0    0    0  501 -0.00000000000E+00 -0.00000000000E+00 -0.17695477565E+03  0.17695477565E+03  0.00000000000E+00 0.  1.
         25    2    1    2    0    0  0.71215994626E+01 -0.60790313071E+02  0.85652565241E+02  0.16349633343E+03  0.12509400374E+03 0.  0.
          5    1    3    3  502    0  0.15358177175E+02 -0.86225058272E+02  0.99894534848E+02  0.13291736069E+03  0.41800000000E+01 0. -1.
         -5    1    3    3    0  502 -0.82365777121E+01  0.25434745201E+02 -0.14241969607E+02  0.30578972745E+02  0.41800000000E+01 0. -1.
        -11    1    1    2    0    0  0.35789345810E+02  0.30630845103E+02 -0.93165117472E+02  0.10439762956E+03  0.00000000000E+00 0.  1.
         11    1    1    2    0    0 -0.42910945272E+02  0.30159467969E+02 -0.21730267459E+02  0.56772768615E+02  0.00000000000E+00 0. -1.
</event>
<event>
 7    1  0.2989693E-009  0.2234990E+03  0.7561462E-02  0.1131301E+00
         -2   -1    0    0    0  501 -0.00000000000E+00  0.00000000000E+00  0.33746844857E+02  0.33746844857E+02  0.00000000000E+00 0.  1.
          2   -1    0    0  501    0  0.00000000000E+00 -0.00000000000E+00 -0.15075550636E+04  0.15075550636E+04  0.00000000000E+00 0. -1.
         25    2    1    2    0    0  0.19689954767E+03  0.11966820620E+02 -0.75798768403E+03  0.79316212211E+03  0.12509271023E+03 0.  0.
          5    1    3    3  502    0  0.21266908717E+03  0.19585696055E+02 -0.72176659799E+03  0.75271258426E+03  0.41800000000E+01 0.  1.
         -5    1    3    3    0  502 -0.15769539502E+02 -0.76188754348E+01 -0.36221086037E+02  0.40449537855E+02  0.41800000000E+01 0.  1.
        -11    1    1    2    0    0 -0.71341433722E+02  0.37300826380E+02 -0.31994756319E+03  0.32992028583E+03  0.00000000000E+00 0. -1.
         11    1    1    2    0    0 -0.12555811395E+03 -0.49267647000E+02 -0.39587297153E+03  0.41821950051E+03  0.00000000000E+00 0.  1.
</event>
<event>
 7    1  0.2989693E-009  0.1030992E+03  0.7561462E-02  0.1273910E+00
          2   -1    0    0  501    0  0.00000000000E+00  0.00000000000E+00  0.58968123850E+03  0.58968123850E+03  0.00000000000E+00 0. -1.
         -2   -1    0    0    0  501 -0.00000000000E+00 -0.00000000000E+00 -0.20722051326E+02  0.20722051326E+02  0.00000000000E+00 0.  1.
         25    2    1    2    0    0 -0.50419659971E+01 -0.18247625927E+02  0.30797180622E+03  0.33294713962E+03  0.12509503221E+03 0.  0.
          5    1    3    3  502    0 -0.52937895669E+01  0.48128465426E+02  0.20255491022E+03  0.20830347440E+03  0.41800000000E+01 0. -1.
         -5    1    3    3    0  502  0.25182356978E+00 -0.66376091353E+02  0.10541689600E+03  0.12464366522E+03  0.41800000000E+01 0. -1.
        -11    1    1    2    0    0  0.68901152040E+00 -0.36332065106E+02  0.71321264397E+02  0.80045090086E+02  0.00000000000E+00 0.  1.
         11    1    1    2    0    0  0.43529544767E+01  0.54579691033E+02  0.18966611656E+03  0.19741106011E+03  0.00000000000E+00 0. -1.
</event>
<event>
 7    1  0.2989693E-009  0.1002755E+03  0.7561462E-02  0.1279718E+00
          1   -1    0    0  501    0  0.00000000000E+00  0.00000000000E+00  0.50343699953E+03  0.50343699953E+03  0.00000000000E+00 0. -1.
         -1   -1    0    0    0  501 -0.00000000000E+00 -0.00000000000E+00 -0.27411481049E+02  0.27411481049E+02  0.00000000000E+00 0.  1.
         25    2    1    2    0    0 -0.86042055337E+00  0.11795341720E+02  0.36247002023E+03  0.38363876418E+03  0.12511720668E+03 0.  0.
          5    1    3    3  502    0 -0.81068249706E+01 -0.53021171009E+02  0.22616450688E+03  0.23247542184E+03  0.41800000000E+01 0.  1.
         -5    1    3    3    0  502  0.72464044172E+01  0.64816512729E+02  0.13630551335E+03  0.15116334234E+03  0.41800000000E+01 0.  1.
        -11    1    1    2    0    0  0.17344973981E+02  0.31007737883E+02  0.15120754213E+02  0.38613017740E+02  0.00000000000E+00 0.  1.
         11    1    1    2    0    0 -0.16484553428E+02 -0.42803079603E+02  0.98434744045E+02  0.10859669866E+03  0.00000000000E+00 0. -1.
</event>
<event>
 7    1  0.2989693E-009  0.1304805E+03  0.7561462E-02  0.1226744E+00
         -1   -1    0    0    0  501 -0.00000000000E+00  0.00000000000E+00  0.17078301304E+03  0.17078301304E+03  0.00000000000E+00 0.  1.
          1   -1    0    0  501    0  0.00000000000E+00 -0.00000000000E+00 -0.12469064242E+03  0.12469064242E+03  0.00000000000E+00 0. -1.
         25    2    1    2    0    0  0.96012052774E+02  0.15232552405E+01  0.55914016430E+02  0.16731605318E+03  0.12509056653E+03 0.  0.
          5    1    3    3  502    0 -0.27320954959E+02 -0.72252732532E+01 -0.56652567303E+01  0.29123988176E+02  0.41800000000E+01 0. -1.
         -5    1    3    3    0  502  0.12333300773E+03  0.87485284937E+01  0.61579273160E+02  0.13819206500E+03  0.41800000000E+01 0. -1.
        -11    1    1    2    0    0 -0.88616047975E+00  0.12495156857E+02  0.23304751545E+02  0.26457998220E+02  0.00000000000E+00 0.  1.
         11    1    1    2    0    0 -0.95125892295E+02 -0.14018412097E+02 -0.33126397356E+02  0.10169960405E+03  0.00000000000E+00 0. -1.
</event>
<event>
 7    1  0.2989693E-009  0.1264430E+03  0.7561462E-02  0.1232831E+00
         -2   -1    0    0    0  501 -0.00000000000E+00  0.00000000000E+00  0.92561601065E+02  0.92561601065E+02  0.00000000000E+00 0. -1.
          2   -1    0    0  501    0  0.00000000000E+00 -0.00000000000E+00 -0.27564148224E+03  0.27564148224E+03  0.00000000000E+00 0.  1.
         25    2    1    2    0    0  0.34738770000E+02  0.10541603538E+03 -0.13827700855E+03  0.21699679138E+03  0.12509098177E+03 0.  0.
          5    1    3    3  502    0 -0.35043844251E+01  0.10132225565E+02  0.23027515009E+02  0.25742601900E+02  0.41800000000E+01 0.  1.
         -5    1    3    3    0  502  0.38243154425E+02  0.95283809811E+02 -0.16130452356E+03  0.19125418948E+03  0.41800000000E+01 0.  1.
        -11    1    1    2    0    0 -0.62374325194E+02 -0.73966310733E+02 -0.10964174983E+02  0.97374456096E+02  0.00000000000E+00 0. -1.
         11    1    1    2    0    0  0.27635555193E+02 -0.31449724643E+02 -0.33838697642E+02  0.53831835833E+02  0.00000000000E+00 0.  1.
</event>
<event>
 6    1  0.4121992E-009  0.1015997E+03  0.7561462E-02  0.1276968E+00
         -1   -1    0    0    0  501 -0.00000000000E+00  0.00000000000E+00  0.83454886372E+02  0.83454886372E+02  0.00000000000E+00 0.  1.
          1   -1    0    0  501    0  0.00000000000E+00 -0.00000000000E+00 -0.25301116545E+03  0.25301116545E+03  0.00000000000E+00 0. -1.
          5    1    1    2  502    0  0.51654039462E+02  0.21159204121E+02 -0.29776632550E+02  0.63403248795E+02  0.41800000000E+01 0. -1.
         -5    1    1    2    0  502 -0.76128750868E+01 -0.71550226269E+02 -0.14221897764E+03  0.15943995970E+03  0.41800000000E+01 0. -1.
        -11    1    1    2    0    0 -0.45810818561E+02  0.30177769734E+02  0.42048638524E+02  0.69118860560E+02  0.00000000000E+00 0.  1.
         11    1    1    2    0    0  0.17696541857E+01  0.20213252414E+02 -0.39609307406E+02  0.44503982769E+02  0.00000000000E+00 0. -1.
</event>
<event>
 7    1  0.2989693E-009  0.1098615E+03  0.7561462E-02  0.1260827E+00
         -1   -1    0    0    0  501 -0.00000000000E+00  0.00000000000E+00  0.29270211659E+02  0.29270211659E+02  0.00000000000E+00 0.  1.
          1   -1    0    0  501    0  0.00000000000E+00 -0.00000000000E+00 -0.55959591006E+03  0.55959591006E+03  0.00000000000E+00 0. -1.
         25    2    1    2    0    0  0.57118768428E+02  0.18582815495E+02 -0.21969868930E+03  0.25985194174E+03  0.12509053843E+03 0.  0.
          5    1    3    3  502    0  0.82157440170E+02  0.29266440703E+02 -0.83216377506E+02  0.12061843728E+03  0.41800000000E+01 0.  1.
         -5    1    3    3    0  502 -0.25038671742E+02 -0.10683625208E+02 -0.13648231180E+03  0.13923350446E+03  0.41800000000E+01 0.  1.
        -11    1    1    2    0    0  0.16769464802E+02 -0.25645485848E+02 -0.56559947532E+02  0.64326771712E+02  0.00000000000E+00 0.  1.
         11    1    1    2    0    0 -0.73888233231E+02  0.70626703530E+01 -0.25406706156E+03  0.26468740826E+03  0.00000000000E+00 0. -1.
</event>
<event>
 7    1  0.2989693E-009  0.1866428E+03  0.7561462E-02  0.1161525E+00
         -1   -1    0    0    0  501 -0.00000000000E+00  0.00000000000E+00  0.66559611726E+02  0.66559611726E+02  0.00000000000E+00 0.  1.
          1   -1    0    0  501    0  0.00000000000E+00 -0.00000000000E+00 -0.65662901134E+03  0.65662901134E+03  0.00000000000E+00 0. -1.
         25    2    1    2    0    0 -0.15259030300E+03 -0.84327814425E+02 -0.37165610160E+03  0.42915109763E+03  0.12508967136E+03 0.  0.
          5    1    3    3  502    0 -0.98325803484E+02 -0.47213699614E+01 -0.97854891304E+02  0.13886434790E+03  0.41800000000E+01 0. -1.
         -5    1    3    3    0  502 -0.54264499517E+02 -0.79606444463E+02 -0.27380121030E+03  0.29028674973E+03  0.41800000000E+01 0. -1.
        -11    1    1    2    0    0  0.10656558490E+03  0.38314052368E+02 -0.73024404490E+02  0.13474700050E+03  0.00000000000E+00 0.  1.
         11    1    1    2    0    0  0.46024718105E+02  0.46013762056E+02 -0.14538889352E+03  0.15929052494E+03  0.00000000000E+00 0. -1.
</event>
<event>
 7    1  0.2989693E-009  0.1045381E+03  0.7561462E-02  0.1271032E+00
          4   -1    0    0  501    0  0.00000000000E+00  0.00000000000E+00  0.82948864729E+02  0.82948864729E+02  0.00000000000E+00 0. -1.
         -4   -1    0    0    0  501 -0.00000000000E+00 -0.00000000000E+00 -0.21109198604E+03  0.21109198604E+03  0.00000000000E+00 0.  1.
         25    2    1    2    0    0 -0.75617300560E+02 -0.10192645248E+02 -0.73221540235E+02  0.16380069822E+03  0.12508960238E+03 0.  0.
          5    1    3    3  502    0 -0.92364729867E+02  0.19572134235E+01 -0.52521118113E+01  0.92628997006E+02  0.41800000000E+01 0.  1.
         -5    1    3    3    0  502  0.16747429307E+02 -0.12149858672E+02 -0.67969428424E+02  0.71171701219E+02  0.41800000000E+01 0.  1.
        -11    1    1    2    0    0  0.25989502053E+02 -0.23875705762E+02 -0.60232569117E+02  0.69810213616E+02  0.00000000000E+00 0.  1.
         11    1    1    2    0    0  0.49627798507E+02  0.34068351011E+02  0.53109880389E+01  0.60429938930E+02  0.00000000000E+00 0. -1.
</event>
<event>
 7    1  0.2989693E-009  0.9720314E+02  0.7561462E-02  0.1286290E+00
          1   -1    0    0  501    0  0.00000000000E+00  0.00000000000E+00  0.36517200793E+03  0.36517200793E+03  0.00000000000E+00 0. -1.
         -1   -1    0    0    0  501 -0.00000000000E+00 -0.00000000000E+00 -0.46847655547E+02  0.46847655547E+02  0.00000000000E+00 0.  1.
         25    2    1    2    0    0  0.58854925876E+02 -0.62538522645E+01  0.24824339927E+03  0.28421064325E+03  0.12509153243E+03 0.  0.
          5    1    3    3  502    0  0.13260446889E+02  0.32676070455E+02  0.77834012701E+01  0.36354074977E+02  0.41800000000E+01 0. -1.
         -5    1    3    3    0  502  0.45594478987E+02 -0.38929922719E+02  0.24045999800E+03  0.24785656827E+03  0.41800000000E+01 0. -1.
        -11    1    1    2    0    0  0.77223100025E+01  0.27773937752E+02  0.68958449626E-01  0.28827598674E+02  0.00000000000E+00 0.  1.
         11    1    1    2    0    0 -0.66577235878E+02 -0.21520085487E+02  0.70011994664E+02  0.98981421557E+02  0.00000000000E+00 0. -1.
</event>
<event>
 7    1  0.3498331E-009  0.6882923E+02  0.7561462E-02  0.1364120E+00
          1   -1    0    0  501    0  0.00000000000E+00  0.00000000000E+00  0.22345114495E+03  0.22345114495E+03  0.00000000000E+00 0. -1.
         -1   -1    0    0    0  501 -0.00000000000E+00 -0.00000000000E+00 -0.72148934119E+02  0.72148934119E+02  0.00000000000E+00 0.  1.
         25    2    1    2    0    0  0.36539027893E+02 -0.25760396563E+02  0.14104028598E+03  0.19374852029E+03  0.12508968085E+03 0.  0.
          5    1    3    3  502    0  0.51381026060E+02 -0.25086193670E+02  0.15961473243E+03  0.16959853230E+03  0.41800000000E+01 0. -1.
         -5    1    3    3    0  502 -0.14841998168E+02 -0.67420289241E+00 -0.18574446443E+02  0.24149987988E+02  0.41800000000E+01 0. -1.
        -11    1    1    2    0    0 -0.32528816587E+02  0.39159335165E+02 -0.30096331397E+02  0.59138537373E+02  0.00000000000E+00 0.  1.
         11    1    1    2    0    0 -0.40102113059E+01 -0.13398938602E+02  0.40358256242E+02  0.42713021402E+02  0.00000000000E+00 0. -1.
</event>
<event>
 7    1  0.2989693E-009  0.1095124E+03  0.7561462E-02  0.1261476E+00
          2   -1    0    0  501    0  0.00000000000E+00  0.00000000000E+00  0.22703334294E+04  0.22703334294E+04  0.00000000000E+00 0. -1.
         -2   -1    0    0    0  501 -0.00000000000E+00 -0.00000000000E+00 -0.11931023202E+02  0.11931023202E+02  0.00000000000E+00 0.  1.
         25    2    1    2    0    0  0.24814957975E+02 -0.59797386845E+02  0.19359695526E+04  0.19410865064E+04  0.12508879736E+03 0.  0.
          5    1    3    3  502    0  0.85747948476E+01  0.23979341542E+02  0.10501226352E+03  0.10813687538E+03  0.41800000000E+01 0.  1.
         -5    1    3    3    0  502  0.16240163127E+02 -0.83776728387E+02  0.18309572890E+04  0.18329496310E+04  0.41800000000E+01 0.  1.
        -11    1    1    2    0    0  0.42339069389E+00 -0.22088197647E+02  0.36336477899E+02  0.42525373145E+02  0.00000000000E+00 0.  1.
         11    1    1    2    0    0 -0.25238348669E+02  0.81885584492E+02  0.28609637577E+03  0.29865257310E+03  0.00000000000E+00 0. -1.
</event>
<event>
 7    1  0.2989693E-009  0.1513339E+03  0.7561462E-02  0.1198843E+00
          2   -1    0    0  501    0  0.00000000000E+00  0.00000000000E+00  0.23025917282E+04  0.23025917282E+04  0.00000000000E+00 0. -1.
         -2   -1    0    0    0  501 -0.00000000000E+00 -0.00000000000E+00 -0.15897451901E+02  0.15897451901E+02  0.00000000000E+00 0.  1.
         25    2    1    2    0    0  0.10309105672E+03 -0.35655436216E+02  0.18817868055E+04  0.18890918567E+04  0.12508950958E+03 0.  0.
          5    1    3    3  502    0  0.47366495523E+02 -0.77707270059E+02  0.83058992195E+03  0.83557111940E+03  0.41800000000E+01 0.  1.
         -5    1    3    3    0  502  0.55724561197E+02  0.42051833842E+02  0.10511968836E+04  0.10535207373E+04  0.41800000000E+01 0.  1.
        -11    1    1    2    0    0  0.13130066242E+02  0.20613272205E+02  0.50222524306E+02  0.55853447326E+02  0.00000000000E+00 0.  1.
         11    1    1    2    0    0 -0.11622112296E+03  0.15042164012E+02  0.35468494648E+03  0.37354387611E+03  0.00000000000E+00 0. -1.
</event>
<event>
 7    1  0.2989693E-009  0.8393962E+02  0.7561462E-02  0.1318229E+00
         -2   -1    0    0    0  501 -0.00000000000E+00  0.00000000000E+00  0.71001538680E+03  0.71001538680E+03  0.00000000000E+00 0. -1.
          2   -1    0    0  501    0  0.00000000000E+00 -0.00000000000E+00 -0.21626493113E+02  0.21626493113E+02  0.00000000000E+00 0.  1.
         25    2    1    2    0    0 -0.37192458168E+02 -0.46829908929E+02  0.37514492415E+03  0.39994599597E+03  0.12508703475E+03 0.  0.
          5    1    3    3  502    0 -0.10550847609E+02 -0.18114933806E+02  0.35510673255E+03  0.35574953986E+03  0.41800000000E+01 0.  1.
         -5    1    3    3    0  502 -0.26641610559E+02 -0.28714975123E+02  0.20038191597E+02  0.44196456102E+02  0.41800000000E+01 0.  1.
        -11    1    1    2    0    0  0.63695011481E+02  0.49225230929E+02  0.25992868297E+03  0.27210861449E+03  0.00000000000E+00 0.  1.
         11    1    1    2    0    0 -0.26502553312E+02 -0.23953219997E+01  0.53315286573E+02  0.59587269462E+02  0.00000000000E+00 0. -1.
</event>
<event>
 7    1  0.2989693E-009  0.1261987E+03  0.7561462E-02  0.1233208E+00
         -1   -1    0    0    0  501 -0.00000000000E+00  0.00000000000E+00  0.73613763124E+02  0.73613763124E+02  0.00000000000E+00 0.  1.
          1   -1    0    0  501    0  0.00000000000E+00 -0.00000000000E+00 -0.31879855106E+03  0.31879855106E+03  0.00000000000E+00 0. -1.
         25    2    1    2    0    0 -0.90250097903E+02 -0.48485539917E+02 -0.17310633095E+03  0.23687222963E+03  0.12508686424E+03 0.  0.
          5    1    3    3  502    0  0.22660986120E+02  0.63128086960E+01 -0.71350717710E+02  0.75244728475E+02  0.41800000000E+01 0. -1.
         -5    1    3    3    0  502 -0.11291108402E+03 -0.54798348613E+02 -0.10175561324E+03  0.16162750116E+03  0.41800000000E+01 0. -1.
        -11    1    1    2    0    0  0.56423760112E+02  0.35689889640E+02  0.84181009111E+01  0.67292446461E+02  0.00000000000E+00 0.  1.
         11    1    1    2    0    0  0.33826337790E+02  0.12795650277E+02 -0.80496557899E+02  0.88247638087E+02  0.00000000000E+00 0. -1.
</event>
<event>
 7    1  0.2989693E-009  0.1290580E+03  0.7561462E-02  0.1228860E+00
         -2   -1    0    0    0  501 -0.00000000000E+00  0.00000000000E+00  0.69620127158E+03  0.69620127158E+03  0.00000000000E+00 0.  1.
          2   -1    0    0  501    0  0.00000000000E+00 -0.00000000000E+00 -0.29531108637E+02  0.29531108637E+02  0.00000000000E+00 0. -1.
         25    2    1    2    0    0 -0.81081141827E+02 -0.35588132595E+02  0.28667771873E+03  0.32507291658E+03  0.12509044702E+03 0.  0.
          5    1    3    3  502    0  0.23095100270E+02 -0.17125830449E+02  0.13391168641E+02  0.31991772733E+02  0.41800000000E+01 0. -1.
         -5    1    3    3    0  502 -0.10417624210E+03 -0.18462302147E+02  0.27328655009E+03  0.29308114385E+03  0.41800000000E+01 0. -1.
        -11    1    1    2    0    0  0.48058893709E+02  0.63711297338E+02  0.19601437338E+03  0.21163747599E+03  0.00000000000E+00 0.  1.
         11    1    1    2    0    0  0.33022248118E+02 -0.28123164742E+02  0.18397807084E+03  0.18902198765E+03  0.00000000000E+00 0. -1.
</event>
<event>
 7    1  0.2989693E-009  0.1024238E+03  0.7561462E-02  0.1275280E+00
          2   -1    0    0  501    0  0.00000000000E+00  0.00000000000E+00  0.25600472320E+03  0.25600472320E+03  0.00000000000E+00 0. -1.
         -2   -1    0    0    0  501 -0.00000000000E+00 -0.00000000000E+00 -0.61322929942E+02  0.61322929942E+02  0.00000000000E+00 0.  1.
         25    2    1    2    0    0  0.26693556352E+02  0.38246654600E+02  0.57760179723E+02  0.14545941489E+03  0.12508737138E+03 0.  0.
          5    1    3    3  502    0 -0.17183347434E+02  0.72099748479E+02  0.15997439283E+02  0.75940974601E+02  0.41800000000E+01 0. -1.
         -5    1    3    3    0  502  0.43876903786E+02 -0.33853093879E+02  0.41762740440E+02  0.69518440287E+02  0.41800000000E+01 0. -1.
        -11    1    1    2    0    0 -0.19866835154E+02  0.12734910615E+02 -0.20462472178E+01  0.23686625236E+02  0.00000000000E+00 0.  1.
         11    1    1    2    0    0 -0.68267211983E+01 -0.50981565215E+02  0.13896786075E+03  0.14818161301E+03  0.00000000000E+00 0. -1.
</event>
<event>
 7    1  0.2989693E-009  0.2660539E+03  0.7561462E-02  0.1103560E+00
          2   -1    0    0  501    0  0.00000000000E+00  0.00000000000E+00  0.87920778082E+02  0.87920778082E+02  0.00000000000E+00 0. -1.
         -2   -1    0    0    0  501 -0.00000000000E+00 -0.00000000000E+00 -0.90000128087E+03  0.90000128087E+03  0.00000000000E+00 0.  1.
         25    2    1    2    0    0  0.25067434058E+03  0.43367198160E+01 -0.29429879034E+03  0.40634439500E+03  0.12509019622E+03 0.  0.
          5    1    3    3  502    0 -0.12437222659E+02 -0.70625880403E+01 -0.28420867062E+02  0.32090228136E+02  0.41800000000E+01 0. -1.
         -5    1    3    3    0  502  0.26311156323E+03  0.11399307856E+02 -0.26587792328E+03  0.37425416686E+03  0.41800000000E+01 0. -1.
        -11    1    1    2    0    0 -0.60825663249E+02 -0.18119037225E+02 -0.21285813642E+03  0.22211854281E+03  0.00000000000E+00 0. -1.
         11    1    1    2    0    0 -0.18984867733E+03  0.13782317409E+02 -0.30492357602E+03  0.35945912114E+03  0.00000000000E+00 0.  1.
</event>
<event>
 7    1  0.2989693E-009  0.1391173E+03  0.7561462E-02  0.1214522E+00
          2   -1    0    0  501    0  0.00000000000E+00  0.00000000000E+00  0.55803350450E+03  0.55803350450E+03  0.00000000000E+00 0. -1.
         -2   -1    0    0    0  501 -0.00000000000E+00 -0.00000000000E+00 -0.39912759283E+02  0.39912759283E+02  0.00000000000E+00 0.  1.
         25    2    1    2    0    0 -0.10029179137E+03 -0.17930486030E+02  0.31335922976E+03  0.35244945195E+03  0.12508662423E+03 0.  0.
          5    1    3    3  502    0 -0.44508977295E+02  0.42779207712E+02  0.60828540500E+02  0.86768043724E+02  0.41800000000E+01 0. -1.
         -5    1    3    3    0  502 -0.55782814072E+02 -0.60709693742E+02  0.25253068926E+03  0.26568140823E+03  0.41800000000E+01 0. -1.
        -11    1    1    2    0    0  0.53769565622E+02 -0.34364937376E+02  0.78834583098E+02  0.10142488156E+03  0.00000000000E+00 0.  1.
         11    1    1    2    0    0  0.46522225746E+02  0.52295423406E+02  0.12592693236E+03  0.14407193027E+03  0.00000000000E+00 0. -1.
</event>
<event>
 7    1  0.2989693E-009  0.1067307E+03  0.7561462E-02  0.1266747E+00
          1   -1    0    0  501    0  0.00000000000E+00  0.00000000000E+00  0.57938536663E+03  0.57938536663E+03  0.00000000000E+00 0. -1.
         -1   -1    0    0    0  501 -0.00000000000E+00 -0.00000000000E+00 -0.22649834466E+02  0.22649834466E+02  0.00000000000E+00 0.  1.
         25    2    1    2    0    0  0.12370998021E+02 -0.91987865623E+01  0.22759785816E+03  0.26016427672E+03  0.12508799532E+03 0.  0.
          5    1    3    3  502    0 -0.56271029128E+02 -0.47009354215E+01  0.91259115699E+02  0.10739751445E+03  0.41800000000E+01 0.  1.
         -5    1    3    3    0  502  0.68642027149E+02 -0.44978511408E+01  0.13633874246E+03  0.15276676226E+03  0.41800000000E+01 0.  1.
        -11    1    1    2    0    0 -0.45871762526E+02 -0.13069254564E+02  0.22979421126E+03  0.23469214632E+03  0.00000000000E+00 0.  1.
         11    1    1    2    0    0  0.33500764505E+02  0.22268041127E+02  0.99343462741E+02  0.10717877806E+03  0.00000000000E+00 0. -1.
</event>
<event>
 7    1  0.2989693E-009  0.1037493E+03  0.7561462E-02  0.1272603E+00
         -1   -1    0    0    0  501 -0.00000000000E+00  0.00000000000E+00  0.43969646311E+03  0.43969646311E+03  0.00000000000E+00 0.  1.
          1   -1    0    0  501    0  0.00000000000E+00 -0.00000000000E+00 -0.35121224034E+02  0.35121224034E+02  0.00000000000E+00 0. -1.
         25    2    1    2    0    0  0.13013520967E+02  0.10424652716E+02  0.34180948546E+03  0.36436337440E+03  0.12509563995E+03 0.  0.
          5    1    3    3  502    0  0.63811259492E+02  0.28449505226E+02  0.22531247605E+03  0.23593311648E+03  0.41800000000E+01 0.  1.
         -5    1    3    3    0  502 -0.50797738525E+02 -0.18024852510E+02  0.11649700941E+03  0.12843025792E+03  0.41800000000E+01 0.  1.
        -11    1    1    2    0    0 -0.72589625832E+01 -0.46424311439E+02  0.56462130867E+02  0.73456663772E+02  0.00000000000E+00 0.  1.
         11    1    1    2    0    0 -0.57545583834E+01  0.35999658723E+02  0.63036227485E+01  0.36997648981E+02  0.00000000000E+00 0. -1.
</event>
<event>
 7    1  0.2989693E-009  0.1027951E+03  0.7561462E-02  0.1274526E+00
         -1   -1    0    0    0  501 -0.00000000000E+00  0.00000000000E+00  0.68475633139E+02  0.68475633139E+02  0.00000000000E+00 0.  1.
          1   -1    0    0  501    0  0.00000000000E+00 -0.00000000000E+00 -0.21732817704E+03  0.21732817704E+03  0.00000000000E+00 0. -1.
         25    2    1    2    0    0 -0.41126968280E+01  0.48093405393E+02 -0.42027597599E+02  0.14051706039E+03  0.12509530520E+03 0.  0.
          5    1    3    3  502    0 -0.58182331779E+02 -0.55226577058E+00 -0.33230656322E+02  0.67135963896E+02  0.41800000000E+01 0. -1.
         -5    1    3    3    0  502  0.54069634951E+02  0.48645671164E+02 -0.87969412768E+01  0.73381096493E+02  0.41800000000E+01 0. -1.
        -11    1    1    2    0    0 -0.26115430777E+02 -0.17776057014E+02 -0.15382559834E+01  0.31628628790E+02  0.00000000000E+00 0.  1.
         11    1    1    2    0    0  0.30228127605E+02 -0.30317348379E+02 -0.10528669032E+03  0.11365812100E+03  0.00000000000E+00 0. -1.
</event>
<event>
 7    1  0.2989693E-009  0.1363848E+03  0.7561462E-02  0.1218278E+00
         -1   -1    0    0    0  501 -0.00000000000E+00  0.00000000000E+00  0.42103298686E+02  0.42103298686E+02  0.00000000000E+00 0.  1.
          1   -1    0    0  501    0  0.00000000000E+00 -0.00000000000E+00 -0.58277416369E+03  0.58277416369E+03  0.00000000000E+00 0. -1.
         25    2    1    2    0    0 -0.40912974105E+02 -0.10394249360E+03 -0.31346101337E+03  0.35550442866E+03  0.12509068098E+03 0.  0.
          5    1    3    3  502    0 -0.60306334096E+02 -0.12533314684E+02 -0.63268378192E+02  0.88398518020E+02  0.41800000000E+01 0.  1.
         -5    1    3    3    0  502  0.19393359991E+02 -0.91409178914E+02 -0.25019263518E+03  0.26710591064E+03  0.41800000000E+01 0.  1.
        -11    1    1    2    0    0  0.63234302051E+01  0.65412665971E+02 -0.20073540975E+03  0.21121909802E+03  0.00000000000E+00 0. -1.
         11    1    1    2    0    0  0.34589543900E+02  0.38529827627E+02 -0.26474441882E+02  0.58153935698E+02  0.00000000000E+00 0.  1.
</event>
<event>
 7    1  0.2989693E-009  0.2042864E+03  0.7561462E-02  0.1146172E+00
          1   -1    0    0  501    0  0.00000000000E+00  0.00000000000E+00  0.41268893761E+03  0.41268893761E+03  0.00000000000E+00 0. -1.
         -1   -1    0    0    0  501 -0.00000000000E+00 -0.00000000000E+00 -0.10652089649E+03  0.10652089649E+03  0.00000000000E+00 0.  1.
         25    2    1    2    0    0  0.17482122630E+03 -0.32674373522E+02  0.19410570836E+03  0.29147106639E+03  0.12509308806E+03 0.  0.
          5    1    3    3  502    0  0.77247219325E+01  0.31487649590E+02  0.89138697517E+01  0.33883224162E+02  0.41800000000E+01 0. -1.
         -5    1    3    3    0  502  0.16709650437E+03 -0.64162023112E+02  0.18519183860E+03  0.25758784223E+03  0.41800000000E+01 0. -1.
        -11    1    1    2    0    0 -0.30783786646E+02  0.42491894180E+02  0.18201570869E+02  0.55538273050E+02  0.00000000000E+00 0. -1.
         11    1    1    2    0    0 -0.14403743965E+03 -0.98175206579E+01  0.93860761901E+02  0.17220049465E+03  0.00000000000E+00 0.  1.
</event>
<event>
 7    1  0.2989693E-009  0.7331238E+02  0.7561462E-02  0.1349178E+00
          2   -1    0    0  501    0  0.00000000000E+00  0.00000000000E+00  0.11165215969E+03  0.11165215969E+03  0.00000000000E+00 0.  1.
         -2   -1    0    0    0  501 -0.00000000000E+00 -0.00000000000E+00 -0.11618651243E+03  0.11618651243E+03  0.00000000000E+00 0. -1.
         25    2    1    2    0    0  0.20744469793E+02  0.13226634210E+02 -0.26240456822E+02  0.13016185973E+03  0.12509305047E+03 0.  0.
          5    1    3    3  502    0 -0.10718801197E+01 -0.33321109113E+02  0.36056806367E+02  0.49284996955E+02  0.41800000000E+01 0.  1.
         -5    1    3    3    0  502  0.21816349912E+02  0.46547743323E+02 -0.62297263189E+02  0.80876862777E+02  0.41800000000E+01 0.  1.
        -11    1    1    2    0    0 -0.40373552933E+02 -0.84897274116E+01  0.48789416580E+02  0.63894494428E+02  0.00000000000E+00 0.  1.
         11    1    1    2    0    0  0.19629083140E+02 -0.47369067981E+01 -0.27083312493E+02  0.33782317957E+02  0.00000000000E+00 0. -1.
</event>
<event>
 7    1  0.2989693E-009  0.1137202E+03  0.7561462E-02  0.1253832E+00
          2   -1    0    0  501    0  0.00000000000E+00  0.00000000000E+00  0.39331183451E+02  0.39331183451E+02  0.00000000000E+00 0. -1.
         -2   -1    0    0    0  501 -0.00000000000E+00 -0.00000000000E+00 -0.34218476582E+03  0.34218476582E+03  0.00000000000E+00 0.  1.
         25    2    1    2    0    0  0.41686309418E+02  0.66497565836E+01 -0.16652057380E+03  0.21250454403E+03  0.12508841705E+03 0.  0.
          5    1    3    3  502    0 -0.42733635086E+02  0.79388970654E+01 -0.34101635102E+02  0.55403822710E+02  0.41800000000E+01 0.  1.
         -5    1    3    3    0  502  0.84419944503E+02 -0.12891404818E+01 -0.13241893870E+03  0.15710072132E+03  0.41800000000E+01 0.  1.
        -11    1    1    2    0    0 -0.12904898223E-01 -0.43567749967E+02 -0.50413172209E+02  0.66630600597E+02  0.00000000000E+00 0. -1.
         11    1    1    2    0    0 -0.41673404519E+02  0.36917993384E+02 -0.85919836364E+02  0.10238080465E+03  0.00000000000E+00 0.  1.
</event>
<event>
 7    1  0.2989693E-009  0.1096340E+03  0.7561462E-02  0.1261249E+00
          1   -1    0    0  501    0  0.00000000000E+00  0.00000000000E+00  0.63272602978E+03  0.63272602978E+03  0.00000000000E+00 0. -1.
         -1   -1    0    0    0  501 -0.00000000000E+00 -0.00000000000E+00 -0.27561946269E+02  0.27561946269E+02  0.00000000000E+00 0.  1.
         25    2    1    2    0    0  0.96559668169E+01 -0.33722896155E+02  0.50118699135E+03  0.51775155671E+03  0.12509117778E+03 0.  0.
          5    1    3    3  502    0 -0.20805437110E+02  0.39363600122E+02  0.11255539673E+03  0.12111378518E+03  0.41800000000E+01 0.  1.
         -5    1    3    3    0  502  0.30461403927E+02 -0.73086496277E+02  0.38863159462E+03  0.39663777153E+03  0.41800000000E+01 0.  1.
        -11    1    1    2    0    0  0.21855804700E+02 -0.22146104976E+02  0.20496698211E+02  0.37259103616E+02  0.00000000000E+00 0.  1.
         11    1    1    2    0    0 -0.31511771517E+02  0.55869001131E+02  0.83480393943E+02  0.10527731572E+03  0.00000000000E+00 0. -1.
</event>
<event>
 7    1  0.2989693E-009  0.1283347E+03  0.7561462E-02  0.1229948E+00
          2   -1    0    0  501    0  0.00000000000E+00  0.00000000000E+00  0.11526651405E+04  0.11526651405E+04  0.00000000000E+00 0. -1.
         -2   -1    0    0    0  501 -0.00000000000E+00 -0.00000000000E+00 -0.20427190683E+02  0.20427190683E+02  0.00000000000E+00 0.  1.
         25    2    1    2    0    0 -0.97632104613E+02 -0.20606413702E+02  0.77864491769E+03  0.79491844206E+03  0.12510303573E+03 0.  0.
          5    1    3    3  502    0 -0.15095831830E+02 -0.43006323477E+02  0.52942690697E+03  0.53140168443E+03  0.41800000000E+01 0.  1.
         -5    1    3    3    0  502 -0.82536272783E+02  0.22399909775E+02  0.24921801072E+03  0.26351675763E+03  0.41800000000E+01 0.  1.
        -11    1    1    2    0    0  0.46577516733E+02  0.48378426112E+02  0.25528968434E+03  0.26397492326E+03  0.00000000000E+00 0. -1.
         11    1    1    2    0    0  0.51054587880E+02 -0.27772012410E+02  0.98303347741E+02  0.11419896582E+03  0.00000000000E+00 0.  1.
</event>
<event>
 7    1  0.2989693E-009  0.1017416E+03  0.7561462E-02  0.1276676E+00
         -2   -1    0    0    0  501 -0.00000000000E+00  0.00000000000E+00  0.98955112760E+02  0.98955112760E+02  0.00000000000E+00 0.  1.
          2   -1    0    0  501    0  0.00000000000E+00 -0.00000000000E+00 -0.40200908764E+03  0.40200908764E+03  0.00000000000E+00 0. -1.
         25    2    1    2    0    0  0.13416265343E+02  0.59340609328E+02 -0.34974527557E+03  0.37638890920E+03  0.12508216936E+03 0.  0.
          5    1    3    3  502    0  0.62100271238E+01 -0.38930824053E+02 -0.11969724295E+03  0.12609153766E+03  0.41800000000E+01 0.  1.
         -5    1    3    3    0  502  0.72062382192E+01  0.98271433380E+02 -0.23004803262E+03  0.25029737154E+03  0.41800000000E+01 0.  1.
        -11    1    1    2    0    0 -0.18939667936E+02 -0.30894180523E+02  0.75479984430E+02  0.83728068539E+02  0.00000000000E+00 0.  1.
         11    1    1    2    0    0  0.55234025928E+01 -0.28446428805E+02 -0.28788683740E+02  0.40847222665E+02  0.00000000000E+00 0. -1.
</event>
<event>
 7    1  0.4212228E-009  0.1200733E+03  0.7561462E-02  0.1242976E+00
         -1   -1    0    0    0  501 -0.00000000000E+00  0.00000000000E+00  0.15376274109E+03  0.15376274109E+03  0.00000000000E+00 0.  1.
          1   -1    0    0  501    0  0.00000000000E+00 -0.00000000000E+00 -0.14265388047E+03  0.14265388047E+03  0.00000000000E+00 0. -1.
         25    2    1    2    0    0  0.49852844926E+02 -0.54415759701E+02 -0.61932408177E+02  0.15785207996E+03  0.12504109291E+03 0.  0.
          5    1    3    3  502    0  0.66455735946E+02  0.67483963624E+01  0.30329070719E+01  0.66996840365E+02  0.41800000000E+01 0.  1.
         -5    1    3    3    0  502 -0.16602891021E+02 -0.61164156064E+02 -0.64965315249E+02  0.90855239599E+02  0.41800000000E+01 0.  1.
        -11    1    1    2    0    0  0.22179382670E+02  0.20027257275E+02  0.44887611165E+02  0.53925074740E+02  0.00000000000E+00 0.  1.
         11    1    1    2    0    0 -0.72032227595E+02  0.34388502426E+02  0.28153657625E+02  0.84639466853E+02  0.00000000000E+00 0. -1.
</event>
<event>
 7    1  0.2989693E-009  0.3673950E+03  0.7561462E-02  0.1055694E+00
          1   -1    0    0  501    0  0.00000000000E+00  0.00000000000E+00  0.14536883251E+04  0.14536883251E+04  0.00000000000E+00 0.  1.
         -1   -1    0    0    0  501 -0.00000000000E+00 -0.00000000000E+00 -0.10622175684E+03  0.10622175684E+03  0.00000000000E+00 0. -1.
         25    2    1    2    0    0  0.29557978415E+03 -0.20210416551E+03  0.44791079728E+03  0.58692865862E+03  0.12509062905E+03 0.  0.
          5    1    3    3  502    0  0.24061755989E+03 -0.99993640231E+02  0.27669664430E+03  0.38009741328E+03  0.41800000000E+01 0.  1.
         -5    1    3    3    0  502  0.54962224252E+02 -0.10211052528E+03  0.17121415299E+03  0.20683124535E+03  0.41800000000E+01 0.  1.
        -11    1    1    2    0    0 -0.17270631662E+03  0.11351776068E+03  0.38986677752E+03  0.44125939991E+03  0.00000000000E+00 0. -1.
         11    1    1    2    0    0 -0.12287346753E+03  0.88586404832E+02  0.50968899349E+03  0.53172202346E+03  0.00000000000E+00 0.  1.
</event>
<event>
 7    1  0.2989693E-009  0.9025476E+02  0.7561462E-02  0.1302236E+00
          2   -1    0    0  501    0  0.00000000000E+00  0.00000000000E+00  0.54601530756E+03  0.54601530756E+03  0.00000000000E+00 0.  1.
         -2   -1    0    0    0  501 -0.00000000000E+00 -0.00000000000E+00 -0.29142179178E+02  0.29142179178E+02  0.00000000000E+00 0. -1.
         25    2    1    2    0    0  0.48122496247E+02 -0.44347265050E+02  0.29068278231E+03  0.32315118032E+03  0.12509097028E+03 0.  0.
          5    1    3    3  502    0  0.59044330933E+02 -0.23201814836E+02  0.49013128452E+02  0.80276499598E+02  0.41800000000E+01 0.  1.
         -5    1    3    3    0  502 -0.10921834686E+02 -0.21145450214E+02  0.24166965386E+03  0.24287468072E+03  0.41800000000E+01 0.  1.
        -11    1    1    2    0    0  0.14482730663E+02 -0.23418155987E+01  0.22548758108E+01  0.14843114656E+02  0.00000000000E+00 0.  1.
         11    1    1    2    0    0 -0.62605226910E+02  0.46689080648E+02  0.22393547026E+03  0.23716319176E+03  0.00000000000E+00 0. -1.
</event>
<event>
 7    1  0.2989693E-009  0.2260706E+03  0.7561462E-02  0.1129436E+00
         -1   -1    0    0    0  501 -0.00000000000E+00  0.00000000000E+00  0.10528779969E+03  0.10528779969E+03  0.00000000000E+00 0.  1.
          1   -1    0    0  501    0  0.00000000000E+00 -0.00000000000E+00 -0.55671198482E+03  0.55671198482E+03  0.00000000000E+00 0. -1.
         25    2    1    2    0    0 -0.19126074942E+03 -0.85453671114E+02 -0.16125011959E+03  0.29245953085E+03  0.12509185401E+03 0.  0.
          5    1    3    3  502    0 -0.77019244340E+01  0.12554774244E+02 -0.58271540992E+02  0.60249372493E+02  0.41800000000E+01 0.  1.
         -5    1    3    3    0  502 -0.18355882499E+03 -0.98008445358E+02 -0.10297857859E+03  0.23221015835E+03  0.41800000000E+01 0.  1.
        -11    1    1    2    0    0  0.13730475749E+03  0.12370789975E+02 -0.16908986439E+03  0.21816740158E+03  0.00000000000E+00 0.  1.
         11    1    1    2    0    0  0.53955991932E+02  0.73082881138E+02 -0.12108420115E+03  0.15137285209E+03  0.00000000000E+00 0. -1.
</event>
<event>
 7    1  0.2989693E-009  0.1101797E+03  0.7561462E-02  0.1260238E+00
          2   -1    0    0  501    0  0.00000000000E+00  0.00000000000E+00  0.23583840544E+03  0.23583840544E+03  0.00000000000E+00 0. -1.
         -2   -1    0    0    0  501 -0.00000000000E+00 -0.00000000000E+00 -0.63350909883E+02  0.63350909883E+02  0.00000000000E+00 0.  1.
         25    2    1    2    0    0 -0.21853096046E+02  0.48345894308E+02  0.12243331712E+03  0.18289895009E+03  0.12508887040E+03 0.  0.
          5    1    3    3  502    0 -0.48858186319E+02 -0.11466998366E+02  0.81048500234E+01  0.51007601550E+02  0.41800000000E+01 0.  1.
         -5    1    3    3    0  502  0.27005090273E+02  0.59812892674E+02  0.11432846710E+03  0.13189134854E+03  0.41800000000E+01 0.  1.
        -11    1    1    2    0    0  0.44848987562E+02 -0.62731956789E+02  0.42869303500E+02  0.88229854757E+02  0.00000000000E+00 0.  1.
         11    1    1    2    0    0 -0.22995891516E+02  0.14386062481E+02  0.71848749361E+01  0.28060510476E+02  0.00000000000E+00 0. -1.
</event>
<event>
 7    1  0.2989693E-009  0.1351373E+03  0.7561462E-02  0.1220026E+00
          1   -1    0    0  501    0  0.00000000000E+00  0.00000000000E+00  0.15507904696E+03  0.15507904696E+03  0.00000000000E+00 0. -1.
         -1   -1    0    0    0  501 -0.00000000000E+00 -0.00000000000E+00 -0.15042153388E+03  0.15042153388E+03  0.00000000000E+00 0.  1.
         25    2    1    2    0    0 -0.78742181979E+02 -0.72147251312E+02  0.46264199760E+01  0.16454410523E+03  0.12509117358E+03 0.  0.
          5    1    3    3  502    0 -0.51426841228E+02 -0.10339990273E+03 -0.18211661568E+02  0.11698460113E+03  0.41800000000E+01 0. -1.
         -5    1    3    3    0  502 -0.27315340752E+02  0.31252651423E+02  0.22838081544E+02  0.47559504098E+02  0.41800000000E+01 0. -1.
        -11    1    1    2    0    0  0.40892247253E+02  0.61187796141E+02 -0.40853946327E+02  0.84173435314E+02  0.00000000000E+00 0.  1.
         11    1    1    2    0    0  0.37849934726E+02  0.10959455170E+02  0.40885039433E+02  0.56783040301E+02  0.00000000000E+00 0. -1.
</event>
<event>
 7    1  0.2989693E-009  0.1032960E+03  0.7561462E-02  0.1273514E+00
         -1   -1    0    0    0  501 -0.00000000000E+00  0.00000000000E+00  0.44186314933E+02  0.44186314933E+02  0.00000000000E+00 0.  1.
          1   -1    0    0  501    0  0.00000000000E+00 -0.00000000000E+00 -0.44866627397E+03  0.44866627397E+03  0.00000000000E+00 0. -1.
         25    2    1    2    0    0 -0.67450259626E+02  0.20970726052E+02 -0.12336544949E+03  0.18935175975E+03  0.12508295614E+03 0.  0.
          5    1    3    3  502    0  0.17864466333E+02  0.25650588785E+02  0.80483824942E+01  0.32547514853E+02  0.41800000000E+01 0.  1.
         -5    1    3    3    0  502 -0.85314725958E+02 -0.46798627330E+01 -0.13141383198E+03  0.15680424489E+03  0.41800000000E+01 0.  1.
        -11    1    1    2    0    0  0.46522005335E+02  0.14150291822E+02 -0.53716466326E+02  0.72456790528E+02  0.00000000000E+00 0.  1.
         11    1    1    2    0    0  0.20928254291E+02 -0.35121017874E+02 -0.22739804322E+03  0.23104403863E+03  0.00000000000E+00 0. -1.
</event>
<event>
 7    1  0.2989693E-009  0.1247365E+03  0.7561462E-02  0.1235482E+00
          3   -1    0    0  501    0  0.00000000000E+00  0.00000000000E+00  0.77758191159E+03  0.77758191159E+03  0.00000000000E+00 0. -1.
         -3   -1    0    0    0  501 -0.00000000000E+00 -0.00000000000E+00 -0.27914555746E+02  0.27914555746E+02  0.00000000000E+00 0.  1.
         25    2    1    2    0    0  0.94990638753E+02 -0.26670677615E+02  0.43245550795E+03  0.46086779794E+03  0.12508722686E+03 0.  0.
          5    1    3    3  502    0  0.41028981023E+02 -0.50256214322E+02  0.36702583036E+03  0.37273918081E+03  0.41800000000E+01 0. -1.
         -5    1    3    3    0  502  0.53961657731E+02  0.23585536707E+02  0.65429677594E+02  0.88128617128E+02  0.41800000000E+01 0. -1.
        -11    1    1    2    0    0 -0.97598611833E+02 -0.10250247587E+01  0.28887852045E+03  0.30492185767E+03  0.00000000000E+00 0. -1.
         11    1    1    2    0    0  0.26079730800E+01  0.27695702374E+02  0.28333327441E+02  0.39706811726E+02  0.00000000000E+00 0.  1.
</event>
<event>
 7    1  0.2989693E-009  0.9526160E+02  0.7561462E-02  0.1290588E+00
          1   -1    0    0  501    0  0.00000000000E+00  0.00000000000E+00  0.12058660534E+03  0.12058660534E+03  0.00000000000E+00 0. -1.
         -1   -1    0    0    0  501 -0.00000000000E+00 -0.00000000000E+00 -0.18948852420E+03  0.18948852420E+03  0.00000000000E+00 0.  1.
         25    2    1    2    0    0 -0.61490511119E+02 -0.24388273279E+02  0.99589665301E+01  0.14185195765E+03  0.12508767343E+03 0.  0.
          5    1    3    3  502    0 -0.12376673612E+02  0.27848864264E+02  0.50683543799E+02  0.59287733154E+02  0.41800000000E+01 0.  1.
         -5    1    3    3    0  502 -0.49113837507E+02 -0.52237137543E+02 -0.40724577269E+02  0.82564224499E+02  0.41800000000E+01 0.  1.
        -11    1    1    2    0    0  0.65555366676E+02  0.24203301333E+01  0.18638894304E+02  0.68196572339E+02  0.00000000000E+00 0. -1.
         11    1    1    2    0    0 -0.40648555565E+01  0.21967943146E+02 -0.97499779695E+02  0.10002659955E+03  0.00000000000E+00 0.  1.
</event>
<event>
 7    1  0.2989693E-009  0.1146604E+03  0.7561462E-02  0.1252175E+00
          4   -1    0    0  501    0  0.00000000000E+00  0.00000000000E+00  0.18210748430E+03  0.18210748430E+03  0.00000000000E+00 0.  1.
         -4   -1    0    0    0  501 -0.00000000000E+00 -0.00000000000E+00 -0.11028256829E+03  0.11028256829E+03  0.00000000000E+00 0. -1.
         25    2    1    2    0    0 -0.10224420123E+01  0.76623292613E+02 -0.88033098834E+01  0.14695894163E+03  0.12508899992E+03 0.  0.
          5    1    3    3  502    0  0.57559679695E+02  0.11679845023E+02  0.68270156242E+00  0.58885261210E+02  0.41800000000E+01 0. -1.
         -5    1    3    3    0  502 -0.58582121708E+02  0.64943447590E+02 -0.94860114458E+01  0.88073680415E+02  0.41800000000E+01 0. -1.
        -11    1    1    2    0    0 -0.13167276710E+02 -0.16535689228E+02 -0.18869124206E+02  0.28334608564E+02  0.00000000000E+00 0. -1.
         11    1    1    2    0    0  0.14189718722E+02 -0.60087603385E+02  0.99497350093E+02  0.11709650240E+03  0.00000000000E+00 0.  1.
</event>
<event>
 7    1  0.2989693E-009  0.1017802E+03  0.7561462E-02  0.1276596E+00
         -1   -1    0    0    0  501 -0.00000000000E+00  0.00000000000E+00  0.33408370575E+02  0.33408370575E+02  0.00000000000E+00 0.  1.
          1   -1    0    0  501    0  0.00000000000E+00 -0.00000000000E+00 -0.60828667751E+03  0.60828667751E+03  0.00000000000E+00 0. -1.
         25    2    1    2    0    0  0.23877361340E+02 -0.74325028021E+02 -0.42113729138E+03  0.44620478867E+03  0.12509099513E+03 0.  0.
          5    1    3    3  502    0  0.24116159936E+02 -0.92915023871E+02 -0.41530711180E+03  0.42627721068E+03  0.41800000000E+01 0. -1.
         -5    1    3    3    0  502 -0.23879859634E+00  0.18589995850E+02 -0.58301795762E+01  0.19927577986E+02  0.41800000000E+01 0. -1.
        -11    1    1    2    0    0 -0.19863669446E+02  0.71289363650E+01  0.61704891664E+01  0.21987770104E+02  0.00000000000E+00 0.  1.
         11    1    1    2    0    0 -0.40136918936E+01  0.67196091656E+02 -0.15991150472E+03  0.17350248932E+03  0.00000000000E+00 0. -1.
</event>
<event>
 7    1  0.2989693E-009  0.8547732E+02  0.7561462E-02  0.1314189E+00
         -1   -1    0    0    0  501 -0.00000000000E+00  0.00000000000E+00  0.43089807520E+02  0.43089807520E+02  0.00000000000E+00 0.  1.
          1   -1    0    0  501    0  0.00000000000E+00 -0.00000000000E+00 -0.81588208234E+03  0.81588208234E+03  0.00000000000E+00 0. -1.
         25    2    1    2    0    0  0.32620246278E+02 -0.58190315103E+02 -0.70191467453E+03  0.71609015003E+03  0.12510275543E+03 0.  0.
          5    1    3    3  502    0  0.20964485375E+02 -0.76211668486E+02 -0.68180215987E+03  0.68638137042E+03  0.41800000000E+01 0.  1.
         -5    1    3    3    0  502  0.11655760903E+02  0.18021353383E+02 -0.20112514662E+02  0.29708779612E+02  0.41800000000E+01 0.  1.
        -11    1    1    2    0    0 -0.71377430841E+01  0.34202675363E+02  0.23578301577E+02  0.42150998607E+02  0.00000000000E+00 0.  1.
         11    1    1    2    0    0 -0.25482503194E+02  0.23987639740E+02 -0.94455901870E+02  0.10073074122E+03  0.00000000000E+00 0. -1.
</event>
<event>
 7    1  0.2989693E-009  0.9273563E+02  0.7561462E-02  0.1296359E+00
         -2   -1    0    0    0  501 -0.00000000000E+00  0.00000000000E+00  0.49523913883E+02  0.49523913883E+02  0.00000000000E+00 0.  1.
          2   -1    0    0  501    0  0.00000000000E+00 -0.00000000000E+00 -0.30676932508E+03  0.30676932508E+03  0.00000000000E+00 0. -1.
         25    2    1    2    0    0 -0.24088268539E+02 -0.27403070357E+02 -0.21089618564E+03  0.24790181185E+03  0.12508770625E+03 0.  0.
          5    1    3    3  502    0  0.35612559849E+02  0.30231593671E+02 -0.84476749074E+02  0.96622964191E+02  0.41800000000E+01 0.  1.
         -5    1    3    3    0  502 -0.59700828388E+02 -0.57634664028E+02 -0.12641943657E+03  0.15127884766E+03  0.41800000000E+01 0.  1.
        -11    1    1    2    0    0 -0.41116161890E+01  0.26968901065E+02 -0.67718404881E+02  0.73006913180E+02  0.00000000000E+00 0. -1.
         11    1    1    2    0    0  0.28199884728E+02  0.43416929211E+00  0.21369179321E+02  0.35384513936E+02  0.00000000000E+00 0.  1.
</event>
<event>
 7    1  0.4694688E-009  0.1300290E+03  0.7561462E-02  0.1227413E+00
         -2   -1    0    0    0  501 -0.00000000000E+00  0.00000000000E+00  0.23059414166E+02  0.23059414166E+02  0.00000000000E+00 0. -1.
          2   -1    0    0  501    0  0.00000000000E+00 -0.00000000000E+00 -0.77268888793E+03  0.77268888793E+03  0.00000000000E+00 0.  1.
         25    2    1    2    0    0 -0.74831594227E+02 -0.13669427087E+02 -0.36288168630E+03  0.39129097276E+03  0.12505553316E+03 0.  0.
          5    1    3    3  502    0  0.27067596325E+02  0.22668569995E+02 -0.12448003386E+03  0.12945759949E+03  0.41800000000E+01 0. -1.
         -5    1    3    3    0  502 -0.10189919055E+03 -0.36337997082E+02 -0.23840165244E+03  0.26183337326E+03  0.41800000000E+01 0. -1.
        -11    1    1    2    0    0  0.30825112396E+02 -0.37635189420E+02 -0.12526908701E+03  0.13438355256E+03  0.00000000000E+00 0.  1.
         11    1    1    2    0    0  0.44006481831E+02  0.51304616507E+02 -0.26147870045E+03  0.27007377679E+03  0.00000000000E+00 0. -1.
</event>
<event>
 7    1  0.2989693E-009  0.1090128E+03  0.7561462E-02  0.1262409E+00
          2   -1    0    0  501    0  0.00000000000E+00  0.00000000000E+00  0.25723331082E+03  0.25723331082E+03  0.00000000000E+00 0. -1.
         -2   -1    0    0    0  501 -0.00000000000E+00 -0.00000000000E+00 -0.47436289606E+02  0.47436289606E+02  0.00000000000E+00 0.  1.
         25    2    1    2    0    0 -0.22905509236E+02  0.70171776312E+00  0.12359291612E+03  0.17733467067E+03  0.12508885540E+03 0.  0.
          5    1    3    3  502    0  0.30941073279E+02  0.46715985290E+02  0.52734845543E+02  0.77059520059E+02  0.41800000000E+01 0.  1.
         -5    1    3    3    0  502 -0.53846582515E+02 -0.46014267527E+02  0.70858070578E+02  0.10027515061E+03  0.41800000000E+01 0.  1.
        -11    1    1    2    0    0 -0.25474457849E+02  0.25347938185E+02  0.19408806313E+02  0.40843209172E+02  0.00000000000E+00 0.  1.
         11    1    1    2    0    0  0.48379967085E+02 -0.26049655948E+02  0.66795298783E+02  0.86491720585E+02  0.00000000000E+00 0. -1.
</event>
<event>
 7    1  0.2989693E-009  0.1093363E+03  0.7561462E-02  0.1261804E+00
          1   -1    0    0  501    0  0.00000000000E+00  0.00000000000E+00  0.13885161000E+03  0.13885161000E+03  0.00000000000E+00 0. -1.
         -1   -1    0    0    0  501 -0.00000000000E+00 -0.00000000000E+00 -0.13229580989E+03  0.13229580989E+03  0.00000000000E+00 0.  1.
         25    2    1    2    0    0 -0.37680497684E+02  0.60535463088E+02  0.43601841369E+02  0.15044066373E+03  0.12508761144E+03 0.  0.
          5    1    3    3  502    0  0.45854597146E+02  0.28937805067E+02  0.20265433819E+02  0.58036202920E+02  0.41800000000E+01 0. -1.
         -5    1    3    3    0  502 -0.83535094830E+02  0.31597658021E+02  0.23336407550E+02  0.92404460812E+02  0.41800000000E+01 0. -1.
        -11    1    1    2    0    0  0.26130158950E+02 -0.20499327634E+02 -0.63281037705E+02  0.71466757120E+02  0.00000000000E+00 0.  1.
         11    1    1    2    0    0  0.11550338734E+02 -0.40036135454E+02  0.26234996440E+02  0.49239999037E+02  0.00000000000E+00 0. -1.
</event>
<event>
 7    1  0.2989693E-009  0.8069088E+02  0.7561462E-02  0.1327102E+00
          4   -1    0    0  501    0  0.00000000000E+00  0.00000000000E+00  0.38272442504E+03  0.38272442504E+03  0.00000000000E+00 0. -1.
         -4   -1    0    0    0  501 -0.00000000000E+00 -0.00000000000E+00 -0.58326861787E+02  0.58326861787E+02  0.00000000000E+00 0.  1.
         25    2    1    2    0    0 -0.12961224355E+02  0.23538758565E+02  0.27757884453E+02  0.13091663135E+03  0.12508636106E+03 0.  0.
          5    1    3    3  502    0 -0.11721369300E+02  0.54622644209E+02 -0.31199754330E+02  0.64124260844E+02  0.41800000000E+01 0. -1.
         -5    1    3    3    0  502 -0.12398550544E+01 -0.31083885643E+02  0.58957638783E+02  0.66792370508E+02  0.41800000000E+01 0. -1.
        -11    1    1    2    0    0  0.27111643754E+02  0.16340992951E+02  0.45340587614E+02  0.55297722944E+02  0.00000000000E+00 0.  1.
         11    1    1    2    0    0 -0.14150419399E+02 -0.39879751517E+02  0.25129909118E+03  0.25483693253E+03  0.00000000000E+00 0. -1.
</event>
<event>
 7    1  0.2989693E-009  0.9568147E+02  0.7561462E-02  0.1289649E+00
          1   -1    0    0  501    0  0.00000000000E+00  0.00000000000E+00  0.43633265622E+02  0.43633265622E+02  0.00000000000E+00 0. -1.
         -1   -1    0    0    0  501 -0.00000000000E+00 -0.00000000000E+00 -0.30888361085E+03  0.30888361085E+03  0.00000000000E+00 0.  1.
         25    2    1    2    0    0  0.35780682518E+02  0.11401140636E+01 -0.12253814523E+03  0.17873340084E+03  0.12509386251E+03 0.  0.
          5    1    3    3  502    0  0.68512337309E+02  0.39267698961E+02 -0.66242681929E+02  0.10315744207E+03  0.41800000000E+01 0. -1.
         -5    1    3    3    0  502 -0.32731654791E+02 -0.38127584898E+02 -0.56295463301E+02  0.75575958768E+02  0.41800000000E+01 0. -1.
        -11    1    1    2    0    0 -0.21203545688E+02 -0.25689611417E+02 -0.14132623471E+03  0.14519866081E+03  0.00000000000E+00 0.  1.
         11    1    1    2    0    0 -0.14577136830E+02  0.24549497353E+02 -0.13859652846E+01  0.28584814819E+02  0.00000000000E+00 0. -1.
</event>
<event>
 7    1  0.2989693E-009  0.1077813E+03  0.7561462E-02  0.1264735E+00
          2   -1    0    0  501    0  0.00000000000E+00  0.00000000000E+00  0.40150371519E+02  0.40150371519E+02  0.00000000000E+00 0. -1.
         -2   -1    0    0    0  501 -0.00000000000E+00 -0.00000000000E+00 -0.50184688150E+03  0.50184688150E+03  0.00000000000E+00 0.  1.
         25    2    1    2    0    0  0.46437681022E+02 -0.60700817872E+02 -0.15320037267E+03  0.21203479832E+03  0.12508938405E+03 0.  0.
          5    1    3    3  502    0  0.43939139799E+02 -0.66176118048E+01  0.48714303060E+01  0.44895924375E+02  0.41800000000E+01 0. -1.
         -5    1    3    3    0  502  0.24985412235E+01 -0.54083206067E+02 -0.15807180297E+03  0.16713887394E+03  0.41800000000E+01 0. -1.
        -11    1    1    2    0    0  0.25830467269E+02  0.25300317962E+02 -0.82848887047E+02  0.90395006573E+02  0.00000000000E+00 0. -1.
         11    1    1    2    0    0 -0.72268148291E+02  0.35400499910E+02 -0.22564725026E+03  0.23956744813E+03  0.00000000000E+00 0.  1.
</event>
<event>
 7    1  0.2989693E-009  0.7923465E+02  0.7561462E-02  0.1331238E+00
          4   -1    0    0  501    0  0.00000000000E+00  0.00000000000E+00  0.37389224596E+02  0.37389224596E+02  0.00000000000E+00 0. -1.
         -4   -1    0    0    0  501 -0.00000000000E+00 -0.00000000000E+00 -0.35573396633E+03  0.35573396633E+03  0.00000000000E+00 0.  1.
         25    2    1    2    0    0  0.54906072032E+01 -0.20487846560E+02 -0.25633690908E+03  0.28601699018E+03  0.12508880480E+03 0.  0.
          5    1    3    3  502    0 -0.22960156376E+02  0.13234657177E+02 -0.23553733103E+03  0.23706039661E+03  0.41800000000E+01 0. -1.
         -5    1    3    3    0  502  0.28450763580E+02 -0.33722503737E+02 -0.20799578055E+02  0.48956593569E+02  0.41800000000E+01 0. -1.
        -11    1    1    2    0    0  0.38061651338E+02 -0.23704818562E+01 -0.27867139594E+02  0.47232255461E+02  0.00000000000E+00 0.  1.
         11    1    1    2    0    0 -0.43552258541E+02  0.22858328416E+02 -0.34140693052E+02  0.59873945286E+02  0.00000000000E+00 0. -1.
</event>
<event>
 7    1  0.2989693E-009  0.1561634E+03  0.7561462E-02  0.1193098E+00
         -4   -1    0    0    0  501 -0.00000000000E+00  0.00000000000E+00  0.27969332217E+03  0.27969332217E+03  0.00000000000E+00 0.  1.
          4   -1    0    0  501    0  0.00000000000E+00 -0.00000000000E+00 -0.12465388819E+03  0.12465388819E+03  0.00000000000E+00 0. -1.
         25    2    1    2    0    0 -0.11173807613E+02  0.15182858721E+03  0.74209851880E+02  0.21055568615E+03  0.12509924453E+03 0.  0.
          5    1    3    3  502    0 -0.78536138455E+01  0.14504776347E+03  0.98867895151E+01  0.14565628701E+03  0.41800000000E+01 0.  1.
         -5    1    3    3    0  502 -0.33201937675E+01  0.67808237450E+01  0.64323062365E+02  0.64899399145E+02  0.41800000000E+01 0.  1.
        -11    1    1    2    0    0 -0.13680980837E+02 -0.99601976085E+02  0.90355148689E+02  0.13517313258E+03  0.00000000000E+00 0.  1.
         11    1    1    2    0    0  0.24854788450E+02 -0.52226611129E+02 -0.95255665841E+01  0.58618391633E+02  0.00000000000E+00 0. -1.
</event>
<event>
 7    1  0.2989693E-009  0.8727908E+02  0.7561462E-02  0.1309578E+00
          1   -1    0    0  501    0  0.00000000000E+00  0.00000000000E+00  0.33973827470E+03  0.33973827470E+03  0.00000000000E+00 0. -1.
         -1   -1    0    0    0  501 -0.00000000000E+00 -0.00000000000E+00 -0.35344337570E+02  0.35344337570E+02  0.00000000000E+00 0.  1.
         25    2    1    2    0    0  0.79845596776E+01 -0.12391374951E+02  0.20988068409E+03  0.24476812310E+03  0.12507690901E+03 0.  0.
          5    1    3    3  502    0  0.54924762797E+02 -0.96969781793E+00  0.39945022260E+02  0.68049592839E+02  0.41800000000E+01 0. -1.
         -5    1    3    3    0  502 -0.46940203119E+02 -0.11421677133E+02  0.16993566183E+03  0.17671853026E+03  0.41800000000E+01 0. -1.
        -11    1    1    2    0    0 -0.34759638150E+02  0.23531338268E+02  0.13227470130E+02  0.44010479333E+02  0.00000000000E+00 0.  1.
         11    1    1    2    0    0  0.26775078473E+02 -0.11139963318E+02  0.81285782917E+02  0.86304009840E+02  0.00000000000E+00 0. -1.
</event>
<event>
 7    1  0.2989693E-009  0.1084494E+03  0.7561462E-02  0.1263469E+00
          1   -1    0    0  501    0  0.00000000000E+00  0.00000000000E+00  0.28327606731E+03  0.28327606731E+03  0.00000000000E+00 0. -1.
         -1   -1    0    0    0  501 -0.00000000000E+00 -0.00000000000E+00 -0.44305866659E+02  0.44305866659E+02  0.00000000000E+00 0.  1.
         25    2    1    2    0    0  0.20117849044E+01 -0.20016029841E+02  0.16232615640E+03  0.20591734809E+03  0.12508990552E+03 0.  0.
          5    1    3    3  502    0 -0.54867645028E+00  0.52658879095E+02  0.81382815291E+02  0.97025221557E+02  0.41800000000E+01 0. -1.
         -5    1    3    3    0  502  0.25604613546E+01 -0.72674908936E+02  0.80943341112E+02  0.10889212654E+03  0.41800000000E+01 0. -1.
        -11    1    1    2    0    0 -0.42175728278E+01 -0.35460823905E+02  0.15083528348E+02  0.38765587574E+02  0.00000000000E+00 0.  1.
         11    1    1    2    0    0  0.22057879234E+01  0.55476853745E+02  0.61560515901E+02  0.82898998304E+02  0.00000000000E+00 0. -1.
</event>
<event>
 7    1  0.2989693E-009  0.1111884E+03  0.7561462E-02  0.1258385E+00
          2   -1    0    0  501    0  0.00000000000E+00  0.00000000000E+00  0.13661967007E+03  0.13661967007E+03  0.00000000000E+00 0. -1.
         -2   -1    0    0    0  501 -0.00000000000E+00 -0.00000000000E+00 -0.12521138347E+03  0.12521138347E+03  0.00000000000E+00 0.  1.
         25    2    1    2    0    0 -0.47145358577E+02  0.26028106195E+01  0.62214351178E+02  0.14747184926E+03  0.12509141207E+03 0.  0.
          5    1    3    3  502    0 -0.85899552520E+02 -0.13846316945E+02  0.23739094908E+02  0.90285495198E+02  0.41800000000E+01 0. -1.
         -5    1    3    3    0  502  0.38754193943E+02  0.16449127564E+02  0.38475256269E+02  0.57186354061E+02  0.41800000000E+01 0. -1.
        -11    1    1    2    0    0  0.62929713303E+02  0.19426480532E+02 -0.56374360517E+02  0.86692591875E+02  0.00000000000E+00 0.  1.
         11    1    1    2    0    0 -0.15784354726E+02 -0.22029291151E+02  0.55682959374E+01  0.27666612413E+02  0.00000000000E+00 0. -1.
</event>
<event>
 7    1  0.2989693E-009  0.9668447E+02  0.7561462E-02  0.1287427E+00
         -2   -1    0    0    0  501 -0.00000000000E+00  0.00000000000E+00  0.23111371773E+02  0.23111371773E+02  0.00000000000E+00 0.  1.
          2   -1    0    0  501    0  0.00000000000E+00 -0.00000000000E+00 -0.53087974904E+03  0.53087974904E+03  0.00000000000E+00 0. -1.
         25    2    1    2    0    0  0.18426669661E+02  0.81043914210E+01 -0.30881996706E+03  0.33379699288E+03  0.12508172163E+03 0.  0.
          5    1    3    3  502    0 -0.50776995970E+02 -0.11991601327E+01 -0.83061003387E+02  0.97449186699E+02  0.41800000000E+01 0. -1.
         -5    1    3    3    0  502  0.69203665631E+02  0.93035515536E+01 -0.22575896368E+03  0.23634780619E+03  0.41800000000E+01 0. -1.
        -11    1    1    2    0    0 -0.15975803268E+02 -0.38644496729E+02 -0.38480716099E+02  0.56827712685E+02  0.00000000000E+00 0.  1.
         11    1    1    2    0    0 -0.24508663936E+01  0.30540105308E+02 -0.16046769411E+03  0.16336641524E+03  0.00000000000E+00 0. -1.
</event>
<event>
 7    1  0.2989693E-009  0.1188942E+03  0.7561462E-02  0.1244933E+00
         -2   -1    0    0    0  501 -0.00000000000E+00  0.00000000000E+00  0.39432623663E+03  0.39432623663E+03  0.00000000000E+00 0.  1.
          2   -1    0    0  501    0  0.00000000000E+00 -0.00000000000E+00 -0.54313099082E+02  0.54313099082E+02  0.00000000000E+00 0. -1.
         25    2    1    2    0    0  0.32873279468E+02  0.91583619205E+02  0.21485982076E+03  0.26698309220E+03  0.12508803752E+03 0.  0.
          5    1    3    3  502    0 -0.26910091877E+02  0.66920489740E+02  0.17874286205E+03  0.19279260392E+03  0.41800000000E+01 0.  1.
         -5    1    3    3    0  502  0.59783371344E+02  0.24663129464E+02  0.36116958713E+02  0.74190488278E+02  0.41800000000E+01 0.  1.
        -11    1    1    2    0    0 -0.29389563698E+02 -0.43346836228E+02  0.55730190465E+01  0.52666433396E+02  0.00000000000E+00 0. -1.
         11    1    1    2    0    0 -0.34837157699E+01 -0.48236782977E+02  0.11958029774E+03  0.12898981012E+03  0.00000000000E+00 0.  1.
</event>
<event>
 7    1  0.2989693E-009  0.1455506E+03  0.7561462E-02  0.1206050E+00
         -2   -1    0    0    0  501 -0.00000000000E+00  0.00000000000E+00  0.14093894790E+03  0.14093894790E+03  0.00000000000E+00 0.  1.
          2   -1    0    0  501    0  0.00000000000E+00 -0.00000000000E+00 -0.24766489308E+03  0.24766489308E+03  0.00000000000E+00 0. -1.
         25    2    1    2    0    0  0.10638953274E+03  0.22921298963E+01 -0.16744301088E+03  0.23453821911E+03  0.12508808015E+03 0.  0.
          5    1    3    3  502    0  0.12746489557E+03 -0.13709622099E+02 -0.10218551176E+03  0.16399574554E+03  0.41800000000E+01 0. -1.
         -5    1    3    3    0  502 -0.21075362837E+02  0.16001751995E+02 -0.65257499120E+02  0.70542473567E+02  0.41800000000E+01 0. -1.
        -11    1    1    2    0    0  0.12661523338E+02 -0.10864341874E+02  0.23918924739E+02  0.29162699776E+02  0.00000000000E+00 0.  1.
         11    1    1    2    0    0 -0.11905105608E+03  0.85722119774E+01  0.36798140953E+02  0.12490292210E+03  0.00000000000E+00 0. -1.
</event>
<event>
 7    1  0.2989693E-009  0.2725152E+03  0.7561462E-02  0.1099849E+00
          2   -1    0    0  501    0  0.00000000000E+00  0.00000000000E+00  0.16218046448E+04  0.16218046448E+04  0.00000000000E+00 0. -1.
         -2   -1    0    0    0  501 -0.00000000000E+00 -0.00000000000E+00 -0.61471282697E+02  0.61471282697E+02  0.00000000000E+00 0.  1.
         25    2    1    2    0    0 -0.15027526635E+03 -0.22661545660E+03  0.48077636218E+03  0.56633080781E+03  0.12508977816E+03 0.  0.
          5    1    3    3  502    0 -0.14672964074E+03 -0.21934295382E+03  0.36623042483E+03  0.45142343242E+03  0.41800000000E+01 0.  1.
         -5    1    3    3    0  502 -0.35456256124E+01 -0.72725027793E+01  0.11454593735E+03  0.11490737540E+03  0.41800000000E+01 0.  1.
        -11    1    1    2    0    0  0.12035510904E+03  0.18615250670E+03  0.98705803514E+03  0.10116430560E+04  0.00000000000E+00 0. -1.
         11    1    1    2    0    0  0.29920157318E+02  0.40462949904E+02  0.92498964764E+02  0.10530206366E+03  0.00000000000E+00 0.  1.
</event>
<event>
 7    1  0.2989693E-009  0.1126200E+03  0.7561462E-02  0.1255794E+00
         -2   -1    0    0    0  501 -0.00000000000E+00  0.00000000000E+00  0.73896827839E+02  0.73896827839E+02  0.00000000000E+00 0.  1.
          2   -1    0    0  501    0  0.00000000000E+00 -0.00000000000E+00 -0.28594093055E+03  0.28594093055E+03  0.00000000000E+00 0. -1.
         25    2    1    2    0    0  0.47673584629E+02 -0.33902360093E+01 -0.57089730134E+01  0.13404173713E+03  0.12510128116E+03 0.  0.
          5    1    3    3  502    0  0.35652156133E+01 -0.60995751845E+02 -0.20894566950E+01  0.61278305581E+02  0.41800000000E+01 0.  1.
         -5    1    3    3    0  502  0.44108369016E+02  0.57605515836E+02 -0.36195163184E+01  0.72763431546E+02  0.41800000000E+01 0.  1.
        -11    1    1    2    0    0 -0.18523226486E+02 -0.37079470123E+02 -0.10395345722E+03  0.11191210074E+03  0.00000000000E+00 0. -1.
         11    1    1    2    0    0 -0.29150358144E+02  0.40469706132E+02 -0.10238167248E+03  0.11388392052E+03  0.00000000000E+00 0.  1.
</event>
<event>
 7    1  0.2989693E-009  0.1349318E+03  0.7561462E-02  0.1220316E+00
          2   -1    0    0  501    0  0.00000000000E+00  0.00000000000E+00  0.82155960711E+02  0.82155960711E+02  0.00000000000E+00 0. -1.
         -2   -1    0    0    0  501 -0.00000000000E+00 -0.00000000000E+00 -0.37146085534E+03  0.37146085534E+03  0.00000000000E+00 0.  1.
         25    2    1    2    0    0 -0.31775392711E+02 -0.99991028238E+02 -0.26635533544E+03  0.31241046909E+03  0.12508898898E+03 0.  0.
          5    1    3    3  502    0 -0.62816956800E+02 -0.10228247802E+03 -0.24918088057E+03  0.27661572445E+03  0.41800000000E+01 0. -1.
         -5    1    3    3    0  502  0.31041564089E+02  0.22914497820E+01 -0.17174454868E+02  0.35794744631E+02  0.41800000000E+01 0. -1.
        -11    1    1    2    0    0  0.46161454975E+02  0.59008113076E+02 -0.49968508685E+02  0.90053812770E+02  0.00000000000E+00 0. -1.
         11    1    1    2    0    0 -0.14386062264E+02  0.40982915163E+02  0.27018949498E+02  0.51152534196E+02  0.00000000000E+00 0.  1.
</event>
<event>
 7    1  0.2989693E-009  0.1173091E+03  0.7561462E-02  0.1247603E+00
          2   -1    0    0  501    0  0.00000000000E+00  0.00000000000E+00  0.41900606789E+03  0.41900606789E+03  0.00000000000E+00 0. -1.
         -2   -1    0    0    0  501 -0.00000000000E+00 -0.00000000000E+00 -0.39387194514E+02  0.39387194514E+02  0.00000000000E+00 0.  1.
         25    2    1    2    0    0  0.18381849942E+02 -0.37408205273E+02  0.17301959215E+03  0.21753174507E+03  0.12508802748E+03 0.  0.
          5    1    3    3  502    0  0.61120253490E+02 -0.19025978482E+02  0.37769464071E+02  0.74442447972E+02  0.41800000000E+01 0. -1.
         -5    1    3    3    0  502 -0.42738403548E+02 -0.18382226791E+02  0.13525012808E+03  0.14308929710E+03  0.41800000000E+01 0. -1.
        -11    1    1    2    0    0 -0.57029454025E+02 -0.14688480718E+02  0.10209115323E+03  0.11785887179E+03  0.00000000000E+00 0.  1.
         11    1    1    2    0    0  0.38647604083E+02  0.52096685991E+02  0.10450812800E+03  0.12300264554E+03  0.00000000000E+00 0. -1.
</event>
<event>
 7    1  0.2989693E-009  0.1814524E+03  0.7561462E-02  0.1166405E+00
         -4   -1    0    0    0  501 -0.00000000000E+00  0.00000000000E+00  0.28701011586E+02  0.28701011586E+02  0.00000000000E+00 0.  1.
          4   -1    0    0  501    0  0.00000000000E+00 -0.00000000000E+00 -0.13130334905E+04  0.13130334905E+04  0.00000000000E+00 0. -1.
         25    2    1    2    0    0 -0.13103492845E+03 -0.80211776425E+02 -0.83301710010E+03  0.85625302647E+03  0.12509066604E+03 0.  0.
          5    1    3    3  502    0 -0.13682866579E+02 -0.65875017908E+02 -0.17208381226E+03  0.18481625920E+03  0.41800000000E+01 0. -1.
         -5    1    3    3    0  502 -0.11735206187E+03 -0.14336758517E+02 -0.66093328784E+03  0.67143676728E+03  0.41800000000E+01 0. -1.
        -11    1    1    2    0    0  0.14157691105E+02 -0.19133187553E+02 -0.86832275667E+02  0.90035344065E+02  0.00000000000E+00 0.  1.
         11    1    1    2    0    0  0.11687723734E+03  0.99344963977E+02 -0.36448310312E+03  0.39544613152E+03  0.00000000000E+00 0. -1.
</event>
<event>
 7    1  0.2989693E-009  0.1609005E+03  0.7561462E-02  0.1187684E+00
         -2   -1    0    0    0  501 -0.00000000000E+00  0.00000000000E+00  0.43980159230E+03  0.43980159230E+03  0.00000000000E+00 0.  1.
          2   -1    0    0  501    0  0.00000000000E+00 -0.00000000000E+00 -0.63126490490E+02  0.63126490490E+02  0.00000000000E+00 0. -1.
         25    2    1    2    0    0  0.12174687513E+03  0.18341171763E+02  0.16334686241E+03  0.23976690680E+03  0.12508905608E+03 0.  0.
          5    1    3    3  502    0  0.72193534571E+02  0.70347314335E+02  0.11549137114E+03  0.15335051443E+03  0.41800000000E+01 0.  1.
         -5    1    3    3    0  502  0.49553340560E+02 -0.52006142572E+02  0.47855491270E+02  0.86416392372E+02  0.41800000000E+01 0.  1.
        -11    1    1    2    0    0 -0.35786284009E+02 -0.46343040446E+02  0.11830731359E+03  0.13200362105E+03  0.00000000000E+00 0.  1.
         11    1    1    2    0    0 -0.85960591122E+02  0.28001868683E+02  0.95020925813E+02  0.13115755494E+03  0.00000000000E+00 0. -1.
</event>
<event>
 7    1  0.2989693E-009  0.1360639E+03  0.7561462E-02  0.1218726E+00
         -2   -1    0    0    0  501 -0.00000000000E+00  0.00000000000E+00  0.38197733615E+02  0.38197733615E+02  0.00000000000E+00 0. -1.
          2   -1    0    0  501    0  0.00000000000E+00 -0.00000000000E+00 -0.52108408770E+03  0.52108408770E+03  0.00000000000E+00 0.  1.
         25    2    1    2    0    0 -0.79257391439E+02 -0.37891361849E+02 -0.30656195631E+03  0.34255804823E+03  0.12509314110E+03 0.  0.
          5    1    3    3  502    0 -0.10724928004E+03 -0.22894269175E+01 -0.21801252010E+03  0.24301148299E+03  0.41800000000E+01 0. -1.
         -5    1    3    3    0  502  0.27991888597E+02 -0.35601934932E+02 -0.88549436206E+02  0.99546565237E+02  0.41800000000E+01 0. -1.
        -11    1    1    2    0    0  0.55579141675E+02  0.63517578305E+02 -0.15306015628E+03  0.17478825814E+03  0.00000000000E+00 0.  1.
         11    1    1    2    0    0  0.23678249763E+02 -0.25626216456E+02 -0.23264241500E+02  0.41935514952E+02  0.00000000000E+00 0. -1.
</event>
<event>
 7    1  0.2989693E-009  0.1299217E+03  0.7561462E-02  0.1227572E+00
          2   -1    0    0  501    0  0.00000000000E+00  0.00000000000E+00  0.52249147290E+03  0.52249147290E+03  0.00000000000E+00 0. -1.
         -2   -1    0    0    0  501 -0.00000000000E+00 -0.00000000000E+00 -0.33134627612E+02  0.33134627612E+02  0.00000000000E+00 0.  1.
         25    2    1    2    0    0 -0.45419844407E+02 -0.55971084293E+02  0.23482624502E+03  0.27565670515E+03  0.12509008434E+03 0.  0.
          5    1    3    3  502    0 -0.46101809397E+02 -0.94699813491E+02  0.17053718339E+03  0.20048400141E+03  0.41800000000E+01 0.  1.
         -5    1    3    3    0  502  0.68196498918E+00  0.38728729198E+02  0.64289061631E+02  0.75172703736E+02  0.41800000000E+01 0.  1.
        -11    1    1    2    0    0  0.72115656405E+02  0.29609825558E+02  0.18921493020E+03  0.20464530163E+03  0.00000000000E+00 0.  1.
         11    1    1    2    0    0 -0.26695811998E+02  0.26361258736E+02  0.65315670068E+02  0.75324093734E+02  0.00000000000E+00 0. -1.
</event>
<event>
 7    1  0.2989693E-009  0.1461793E+03  0.7561462E-02  0.1205248E+00
         -1   -1    0    0    0  501 -0.00000000000E+00  0.00000000000E+00  0.36585916133E+02  0.36585916133E+02  0.00000000000E+00 0.  1.
          1   -1    0    0  501    0  0.00000000000E+00 -0.00000000000E+00 -0.83717672404E+03  0.83717672404E+03  0.00000000000E+00 0. -1.
         25    2    1    2    0    0 -0.10499628636E+03  0.56108700967E+02 -0.25420709534E+03  0.30731278236E+03  0.12508993727E+03 0.  0.
          5    1    3    3  502    0  0.12335042311E+02 -0.11695826886E+01 -0.11750288914E+03  0.11822826459E+03  0.41800000000E+01 0.  1.
         -5    1    3    3    0  502 -0.11733132867E+03  0.57278283656E+02 -0.13670420620E+03  0.18908451777E+03  0.41800000000E+01 0.  1.
        -11    1    1    2    0    0 -0.13386826673E+02 -0.21472012907E+02 -0.73027495865E+02  0.77286930453E+02  0.00000000000E+00 0.  1.
         11    1    1    2    0    0  0.11838311303E+03 -0.34636688060E+02 -0.47335621671E+03  0.48916292736E+03  0.00000000000E+00 0. -1.
</event>
<event>
 7    1  0.2989693E-009  0.2603089E+03  0.7561462E-02  0.1106958E+00
          2   -1    0    0  501    0  0.00000000000E+00  0.00000000000E+00  0.44031820656E+03  0.44031820656E+03  0.00000000000E+00 0. -1.
         -2   -1    0    0    0  501 -0.00000000000E+00 -0.00000000000E+00 -0.15470320279E+03  0.15470320279E+03  0.00000000000E+00 0.  1.
         25    2    1    2    0    0  0.55968719820E+02  0.23069259665E+03  0.13604284923E+03  0.30084093285E+03  0.12508412492E+03 0.  0.
          5    1    3    3  502    0 -0.14802797924E+02  0.17963973382E+03  0.81611527216E+02  0.19790773247E+03  0.41800000000E+01 0.  1.
         -5    1    3    3    0  502  0.70771517743E+02  0.51052862824E+02  0.54431322013E+02  0.10293320039E+03  0.41800000000E+01 0.  1.
        -11    1    1    2    0    0 -0.92347525474E+01 -0.19217130004E+03  0.12036159798E+03  0.22694052851E+03  0.00000000000E+00 0.  1.
         11    1    1    2    0    0 -0.46733967272E+02 -0.38521296610E+02  0.29210556568E+02  0.67239947981E+02  0.00000000000E+00 0. -1.
</event>
<event>
 7    1  0.2989693E-009  0.1097430E+03  0.7561462E-02  0.1261046E+00
         -2   -1    0    0    0  501 -0.00000000000E+00  0.00000000000E+00  0.42723636443E+02  0.42723636443E+02  0.00000000000E+00 0.  1.
          2   -1    0    0  501    0  0.00000000000E+00 -0.00000000000E+00 -0.34471054824E+03  0.34471054824E+03  0.00000000000E+00 0. -1.
         25    2    1    2    0    0 -0.40647108485E+02 -0.33953841120E+02 -0.16105659244E+03  0.21069298577E+03  0.12508899843E+03 0.  0.
          5    1    3    3  502    0  0.17941769636E+02  0.27152327298E+02 -0.51191279220E+01  0.33208942260E+02  0.41800000000E+01 0.  1.
         -5    1    3    3    0  502 -0.58588878121E+02 -0.61106168418E+02 -0.15593746452E+03  0.17748404351E+03  0.41800000000E+01 0.  1.
        -11    1    1    2    0    0 -0.15558127564E+00  0.55685676842E+02 -0.50475940774E+02  0.75158096090E+02  0.00000000000E+00 0.  1.
         11    1    1    2    0    0  0.40802689760E+02 -0.21731835722E+02 -0.90454378581E+02  0.10158310283E+03  0.00000000000E+00 0. -1.
</event>
<event>
 7    1  0.2989693E-009  0.1545926E+03  0.7561462E-02  0.1194941E+00
          1   -1    0    0  501    0  0.00000000000E+00  0.00000000000E+00  0.27131686486E+03  0.27131686486E+03  0.00000000000E+00 0. -1.
         -1   -1    0    0    0  501 -0.00000000000E+00 -0.00000000000E+00 -0.12855777642E+03  0.12855777642E+03  0.00000000000E+00 0.  1.
         25    2    1    2    0    0  0.93481774080E+02  0.68798256576E+02 -0.29316988245E+02  0.17310254373E+03  0.12503184655E+03 0.  0.
          5    1    3    3  502    0  0.33832949058E+02  0.98010960010E+02 -0.22706024349E+02  0.10622548030E+03  0.41800000000E+01 0.  1.
         -5    1    3    3    0  502  0.59648825022E+02 -0.29212703434E+02 -0.66109638956E+01  0.66877063423E+02  0.41800000000E+01 0.  1.
        -11    1    1    2    0    0 -0.91742960122E+02 -0.83505146555E+02  0.11987344221E+03  0.17250948490E+03  0.00000000000E+00 0.  1.
         11    1    1    2    0    0 -0.17388139583E+01  0.14706889979E+02  0.52202634472E+02  0.54262612659E+02  0.00000000000E+00 0. -1.
</event>
<event>
 7    1  0.2989693E-009  0.1947629E+03  0.7561462E-02  0.1154234E+00
         -1   -1    0    0    0  501 -0.00000000000E+00  0.00000000000E+00  0.42640048111E+03  0.42640048111E+03  0.00000000000E+00 0.  1.
          1   -1    0    0  501    0  0.00000000000E+00 -0.00000000000E+00 -0.11706965554E+03  0.11706965554E+03  0.00000000000E+00 0. -1.
         25    2    1    2    0    0  0.14585285908E+03  0.98430654366E+02  0.26168762948E+03  0.33924830637E+03  0.12508935899E+03 0.  0.
          5    1    3    3  502    0  0.50226157131E+02 -0.22474554995E+02  0.10934279176E+03  0.12247894102E+03  0.41800000000E+01 0.  1.
         -5    1    3    3    0  502  0.95626701950E+02  0.12090520936E+03  0.15234483772E+03  0.21676936535E+03  0.41800000000E+01 0.  1.
        -11    1    1    2    0    0 -0.67014520540E+02 -0.68435152195E+02  0.67978178812E+02  0.11745360281E+03  0.00000000000E+00 0.  1.
         11    1    1    2    0    0 -0.78838338542E+02 -0.29995502171E+02 -0.20334982731E+02  0.86768227464E+02  0.00000000000E+00 0. -1.
</event>
<event>
 7    1  0.2989693E-009  0.1196114E+03  0.7561462E-02  0.1243739E+00
         -1   -1    0    0    0  501 -0.00000000000E+00  0.00000000000E+00  0.28735257892E+03  0.28735257892E+03  0.00000000000E+00 0.  1.
          1   -1    0    0  501    0  0.00000000000E+00 -0.00000000000E+00 -0.11549892970E+03  0.11549892970E+03  0.00000000000E+00 0. -1.
         25    2    1    2    0    0  0.13673944825E+02  0.67765625132E+02  0.23399750950E+03  0.27419200265E+03  0.12508902091E+03 0.  0.
          5    1    3    3  502    0 -0.14340219674E+02  0.89613379724E+02  0.21561601745E+03  0.23397422744E+03  0.41800000000E+01 0. -1.
         -5    1    3    3    0  502  0.28014164499E+02 -0.21847754592E+02  0.18381492049E+02  0.40217775215E+02  0.41800000000E+01 0. -1.
        -11    1    1    2    0    0 -0.36157233647E+02 -0.79430275399E+02 -0.49818560536E+02  0.10049081136E+03  0.00000000000E+00 0. -1.
         11    1    1    2    0    0  0.22483288822E+02  0.11664650267E+02 -0.12325299742E+02  0.28168694607E+02  0.00000000000E+00 0.  1.
</event>
<event>
 7    1  0.2989693E-009  0.1062813E+03  0.7561462E-02  0.1267616E+00
         -2   -1    0    0    0  501 -0.00000000000E+00  0.00000000000E+00  0.66065835591E+02  0.66065835591E+02  0.00000000000E+00 0.  1.
          2   -1    0    0  501    0  0.00000000000E+00 -0.00000000000E+00 -0.21524641472E+03  0.21524641472E+03  0.00000000000E+00 0. -1.
         25    2    1    2    0    0  0.13976153115E+02 -0.15282790844E+01 -0.11943568531E+03  0.17354681097E+03  0.12512371550E+03 0.  0.
          5    1    3    3  502    0  0.17083980060E+02  0.53556364970E+02 -0.10020011543E+03  0.11496817880E+03  0.41800000000E+01 0. -1.
         -5    1    3    3    0  502 -0.31078269450E+01 -0.55084644054E+02 -0.19235569876E+02  0.58578632174E+02  0.41800000000E+01 0. -1.
        -11    1    1    2    0    0  0.16384620286E+02  0.44970221112E+02 -0.19081867884E+01  0.47900080851E+02  0.00000000000E+00 0.  1.
         11    1    1    2    0    0 -0.30360773401E+02 -0.43441942027E+02 -0.27836707035E+02  0.59865358490E+02  0.00000000000E+00 0. -1.
</event>
<event>
 7    1  0.2989693E-009  0.1111034E+03  0.7561462E-02  0.1258540E+00
          2   -1    0    0  501    0  0.00000000000E+00  0.00000000000E+00  0.24288815229E+03  0.24288815229E+03  0.00000000000E+00 0. -1.
         -2   -1    0    0    0  501 -0.00000000000E+00 -0.00000000000E+00 -0.63336711660E+02  0.63336711660E+02  0.00000000000E+00 0.  1.
         25    2    1    2    0    0 -0.50961543454E+02  0.27748131746E+02  0.11451847464E+03  0.17924026673E+03  0.12508219080E+03 0.  0.
          5    1    3    3  502    0  0.66900315907E+01 -0.44405784085E+02  0.43491296032E+02  0.62654572167E+02  0.41800000000E+01 0. -1.
         -5    1    3    3    0  502 -0.57651575045E+02  0.72153915832E+02  0.71027178609E+02  0.11658569456E+03  0.41800000000E+01 0. -1.
        -11    1    1    2    0    0 -0.11399192630E+02  0.68893889132E+01 -0.14808930824E+02  0.19917572753E+02  0.00000000000E+00 0.  1.
         11    1    1    2    0    0  0.62360736084E+02 -0.34637520660E+02  0.79841896816E+02  0.10706702447E+03  0.00000000000E+00 0. -1.
</event>
<event>
 7    1  0.2989693E-009  0.1431050E+03  0.7561462E-02  0.1209211E+00
          3   -1    0    0  501    0  0.00000000000E+00  0.00000000000E+00  0.32063419826E+02  0.32063419826E+02  0.00000000000E+00 0. -1.
         -3   -1    0    0    0  501 -0.00000000000E+00 -0.00000000000E+00 -0.86517169176E+03  0.86517169176E+03  0.00000000000E+00 0.  1.
         25    2    1    2    0    0  0.67493608013E+02 -0.93590745425E+02 -0.58092849563E+03  0.60534924056E+03  0.12512062682E+03 0.  0.
          5    1    3    3  502    0 -0.78312639631E+01 -0.61867847340E+02 -0.10311940060E+03  0.12058209821E+03  0.41800000000E+01 0.  1.
         -5    1    3    3    0  502  0.75324871976E+02 -0.31722898085E+02 -0.47780909503E+03  0.48476714235E+03  0.41800000000E+01 0.  1.
        -11    1    1    2    0    0 -0.51940458878E+02  0.10852057178E+03 -0.17960812331E+03  0.21617956362E+03  0.00000000000E+00 0. -1.
         11    1    1    2    0    0 -0.15553149134E+02 -0.14929826358E+02 -0.72571652989E+02  0.75706307403E+02  0.00000000000E+00 0.  1.
</event>
<event>
 7    1  0.2989693E-009  0.2085441E+03  0.7561462E-02  0.1142724E+00
         -2   -1    0    0    0  501 -0.00000000000E+00  0.00000000000E+00  0.67791578568E+02  0.67791578568E+02  0.00000000000E+00 0.  1.
          2   -1    0    0  501    0  0.00000000000E+00 -0.00000000000E+00 -0.70680011036E+03  0.70680011036E+03  0.00000000000E+00 0. -1.
         25    2    1    2    0    0  0.14617624638E+03 -0.99499750793E+02 -0.39388549415E+03  0.44951310250E+03  0.12509417015E+03 0.  0.
          5    1    3    3  502    0  0.14177652338E+03 -0.44118629514E+02 -0.34411844810E+03  0.37480930455E+03  0.41800000000E+01 0.  1.
         -5    1    3    3    0  502  0.43997230050E+01 -0.55381121279E+02 -0.49767046052E+02  0.74703797958E+02  0.41800000000E+01 0.  1.
        -11    1    1    2    0    0 -0.60055335812E+02  0.11074679699E+03 -0.15774502297E+03  0.20187864839E+03  0.00000000000E+00 0.  1.
         11    1    1    2    0    0 -0.86120910569E+02 -0.11247046193E+02 -0.87378014671E+02  0.12319993804E+03  0.00000000000E+00 0. -1.
</event>
<event>
 7    1  0.2989693E-009  0.1126071E+03  0.7561462E-02  0.1255817E+00
         -1   -1    0    0    0  501 -0.00000000000E+00  0.00000000000E+00  0.24192330820E+02  0.24192330820E+02  0.00000000000E+00 0.  1.
          1   -1    0    0  501    0  0.00000000000E+00 -0.00000000000E+00 -0.60057704927E+03  0.60057704927E+03  0.00000000000E+00 0. -1.
         25    2    1    2    0    0 -0.26989486265E+02  0.38196045297E+02 -0.26586890412E+03  0.29752149826E+03  0.12508156340E+03 0.  0.
          5    1    3    3  502    0  0.57204108196E+01  0.79379814965E+02 -0.17806681904E+03  0.19508752540E+03  0.41800000000E+01 0.  1.
         -5    1    3    3    0  502 -0.32709897085E+02 -0.41183769667E+02 -0.87802085085E+02  0.10243397286E+03  0.41800000000E+01 0.  1.
        -11    1    1    2    0    0 -0.28766987719E+02 -0.13582348891E+02 -0.46852165296E+02  0.56631662317E+02  0.00000000000E+00 0. -1.
         11    1    1    2    0    0  0.55756473984E+02 -0.24613696406E+02 -0.26366364903E+03  0.27061621951E+03  0.00000000000E+00 0.  1.
</event>
<event>
 7    1  0.2989693E-009  0.1230483E+03  0.7561462E-02  0.1238151E+00
         -1   -1    0    0    0  501 -0.00000000000E+00  0.00000000000E+00  0.96903928032E+02  0.96903928032E+02  0.00000000000E+00 0.  1.
          1   -1    0    0  501    0  0.00000000000E+00 -0.00000000000E+00 -0.38546127069E+03  0.38546127069E+03  0.00000000000E+00 0. -1.
         25    2    1    2    0    0  0.97981094690E+01  0.79223934258E+02 -0.32338491386E+03  0.35580588277E+03  0.12509032334E+03 0.  0.
          5    1    3    3  502    0  0.40508622959E+02 -0.10358868298E+02 -0.17306502700E+03  0.17809332008E+03  0.41800000000E+01 0.  1.
         -5    1    3    3    0  502 -0.30710513490E+02  0.89582802556E+02 -0.15031988685E+03  0.17771256269E+03  0.41800000000E+01 0.  1.
        -11    1    1    2    0    0 -0.13350313293E+02 -0.93562966795E+02  0.48677482916E+02  0.10630972187E+03  0.00000000000E+00 0.  1.
         11    1    1    2    0    0  0.35522038244E+01  0.14339032537E+02 -0.13849911722E+02  0.20249594091E+02  0.00000000000E+00 0. -1.
</event>
<event>
 7    1  0.2989693E-009  0.8547973E+02  0.7561462E-02  0.1314183E+00
          3   -1    0    0  501    0  0.00000000000E+00  0.00000000000E+00  0.17416964390E+03  0.17416964390E+03  0.00000000000E+00 0. -1.
         -3   -1    0    0    0  501 -0.00000000000E+00 -0.00000000000E+00 -0.10661724610E+03  0.10661724610E+03  0.00000000000E+00 0.  1.
         25    2    1    2    0    0  0.68120717039E+02 -0.46163604220E+02  0.28910943155E+02  0.15249610099E+03  0.12509079797E+03 0.  0.
          5    1    3    3  502    0  0.33188684744E+02 -0.29831965063E+02 -0.48421641863E+02  0.65981533290E+02  0.41800000000E+01 0. -1.
         -5    1    3    3    0  502  0.34932032295E+02 -0.16331639157E+02  0.77332585019E+02  0.86514567695E+02  0.41800000000E+01 0. -1.
        -11    1    1    2    0    0 -0.17528742011E+02  0.29077350488E+02 -0.27209388245E+02  0.43509768059E+02  0.00000000000E+00 0.  1.
         11    1    1    2    0    0 -0.50591975028E+02  0.17086253732E+02  0.65850842893E+02  0.84781020951E+02  0.00000000000E+00 0. -1.
</event>
<event>
 7    1  0.2989693E-009  0.1030592E+03  0.7561462E-02  0.1273991E+00
         -2   -1    0    0    0  501 -0.00000000000E+00  0.00000000000E+00  0.14673484773E+03  0.14673484773E+03  0.00000000000E+00 0.  1.
          2   -1    0    0  501    0  0.00000000000E+00 -0.00000000000E+00 -0.98624234777E+02  0.98624234777E+02  0.00000000000E+00 0. -1.
         25    2    1    2    0    0 -0.89489334746E+01  0.44724710390E+02  0.52071080488E+02  0.14296655320E+03  0.12509058631E+03 0.  0.
          5    1    3    3  502    0  0.45362663049E+02  0.54472908801E+02  0.51336524641E+02  0.87624084328E+02  0.41800000000E+01 0.  1.
         -5    1    3    3    0  502 -0.54311596523E+02 -0.97481984105E+01  0.73455584725E+00  0.55342468877E+02  0.41800000000E+01 0.  1.
        -11    1    1    2    0    0  0.19595092552E+02 -0.58881731596E+02 -0.31542192459E+02  0.69612756539E+02  0.00000000000E+00 0. -1.
         11    1    1    2    0    0 -0.10646159078E+02  0.14157021205E+02  0.27581724922E+02  0.32779772760E+02  0.00000000000E+00 0.  1.
</event>
<event>
 7    1  0.2989693E-009  0.1005618E+03  0.7561462E-02  0.1279119E+00
          2   -1    0    0  501    0  0.00000000000E+00  0.00000000000E+00  0.21375875435E+03  0.21375875435E+03  0.00000000000E+00 0. -1.
         -2   -1    0    0    0  501 -0.00000000000E+00 -0.00000000000E+00 -0.63791037373E+02  0.63791037373E+02  0.00000000000E+00 0.  1.
         25    2    1    2    0    0  0.13193811712E+02 -0.34438916479E+02  0.66377937714E+02  0.14634656736E+03  0.12510464230E+03 0.  0.
          5    1    3    3  502    0  0.67834059420E+02 -0.71151164421E+01  0.26611786772E+02  0.73333103675E+02  0.41800000000E+01 0.  1.
         -5    1    3    3    0  502 -0.54640247708E+02 -0.27323800037E+02  0.39766150942E+02  0.73013463682E+02  0.41800000000E+01 0.  1.
        -11    1    1    2    0    0  0.21483147879E+02  0.29552261150E+02  0.88590225603E+02  0.95828439695E+02  0.00000000000E+00 0. -1.
         11    1    1    2    0    0 -0.34676959591E+02  0.48866553299E+01 -0.50004463416E+01  0.35374784670E+02  0.00000000000E+00 0.  1.
</event>
<event>
 7    1  0.3128061E-009  0.1687558E+03  0.7561462E-02  0.1179152E+00
          2   -1    0    0  501    0  0.00000000000E+00  0.00000000000E+00  0.31152690158E+03  0.31152690158E+03  0.00000000000E+00 0. -1.
         -2   -1    0    0    0  501 -0.00000000000E+00 -0.00000000000E+00 -0.10797082713E+03  0.10797082713E+03  0.00000000000E+00 0.  1.
         25    2    1    2    0    0 -0.14539050169E+03  0.95816992482E+01  0.81647259038E+02  0.20867201242E+03  0.12509007521E+03 0.  0.
          5    1    3    3  502    0 -0.15807649346E+03  0.33981138009E+02  0.56953044232E+02  0.17147599591E+03  0.41800000000E+01 0. -1.
         -5    1    3    3    0  502  0.12685991775E+02 -0.24399438760E+02  0.24694214806E+02  0.37196016507E+02  0.41800000000E+01 0. -1.
        -11    1    1    2    0    0  0.11300169961E+03  0.34183188113E+01  0.36886051426E+02  0.11891866888E+03  0.00000000000E+00 0.  1.
         11    1    1    2    0    0  0.32388802082E+02 -0.13000018059E+02  0.85022763985E+02  0.91907047420E+02  0.00000000000E+00 0. -1.
</event>
<event>
 7    1  0.2989693E-009  0.1284961E+03  0.7561462E-02  0.1229704E+00
          1   -1    0    0  501    0  0.00000000000E+00  0.00000000000E+00  0.38536195989E+03  0.38536195989E+03  0.00000000000E+00 0. -1.
         -1   -1    0    0    0  501 -0.00000000000E+00 -0.00000000000E+00 -0.45544710654E+02  0.45544710654E+02  0.00000000000E+00 0.  1.
         25    2    1    2    0    0  0.80887317704E+02 -0.12359121330E+02  0.20524798569E+03  0.25390863416E+03  0.12508937935E+03 0.  0.
          5    1    3    3  502    0 -0.23230870594E+01  0.46913322865E+02  0.61186569891E+02  0.77249759422E+02  0.41800000000E+01 0. -1.
         -5    1    3    3    0  502  0.83210404763E+02 -0.59272444195E+02  0.14406141580E+03  0.17665887474E+03  0.41800000000E+01 0. -1.
        -11    1    1    2    0    0  0.11310042062E+02  0.10407223474E+02  0.48418208045E+02  0.50799116352E+02  0.00000000000E+00 0.  1.
         11    1    1    2    0    0 -0.92197359766E+02  0.19518978561E+01  0.86151055499E+02  0.12619892003E+03  0.00000000000E+00 0. -1.
</event>
<event>
 7    1  0.2989693E-009  0.1316953E+03  0.7561462E-02  0.1224962E+00
          2   -1    0    0  501    0  0.00000000000E+00  0.00000000000E+00  0.37936024663E+03  0.37936024663E+03  0.00000000000E+00 0. -1.
         -2   -1    0    0    0  501 -0.00000000000E+00 -0.00000000000E+00 -0.64140995110E+02  0.64140995110E+02  0.00000000000E+00 0.  1.
         25    2    1    2    0    0  0.30497351116E+02 -0.80725822583E+02  0.27144345292E+03  0.31109335378E+03  0.12510307661E+03 0.  0.
          5    1    3    3  502    0  0.63198429594E+02 -0.87473166849E+01  0.17501750964E+03  0.18633077613E+03  0.41800000000E+01 0.  1.
         -5    1    3    3    0  502 -0.32701078479E+02 -0.71978505899E+02  0.96425943276E+02  0.12476257765E+03  0.41800000000E+01 0.  1.
        -11    1    1    2    0    0  0.80672743281E+01 -0.15027698552E+02 -0.56365269341E+01  0.17963381495E+02  0.00000000000E+00 0.  1.
         11    1    1    2    0    0 -0.38564625444E+02  0.95753521135E+02  0.49412325540E+02  0.11444450647E+03  0.00000000000E+00 0. -1.
</event>
<event>
 7    1  0.2989693E-009  0.1581374E+03  0.7561462E-02  0.1190816E+00
         -1   -1    0    0    0  501 -0.00000000000E+00  0.00000000000E+00  0.50288465164E+02  0.50288465164E+02  0.00000000000E+00 0.  1.
          1   -1    0    0  501    0  0.00000000000E+00 -0.00000000000E+00 -0.65462673964E+03  0.65462673964E+03  0.00000000000E+00 0. -1.
         25    2    1    2    0    0  0.13668232511E+03 -0.41101668047E+02 -0.36406279464E+03  0.41056138522E+03  0.12509007746E+03 0.  0.
          5    1    3    3  502    0 -0.35234386971E+01 -0.27630434849E+01  0.85855304110E+01  0.10546694363E+02  0.41800000000E+01 0.  1.
         -5    1    3    3    0  502  0.14020576381E+03 -0.38338624563E+02 -0.37264832505E+03  0.40001469085E+03  0.41800000000E+01 0.  1.
        -11    1    1    2    0    0 -0.14794609756E+03  0.40797756107E+02 -0.23746556914E+03  0.28274087291E+03  0.00000000000E+00 0.  1.
         11    1    1    2    0    0  0.11263772454E+02  0.30391194029E+00 -0.28099107010E+01  0.11612946677E+02  0.00000000000E+00 0. -1.
</event>
<event>
 7    1  0.2989693E-009  0.9732249E+02  0.7561462E-02  0.1286029E+00
          2   -1    0    0  501    0  0.00000000000E+00  0.00000000000E+00  0.35273776790E+02  0.35273776790E+02  0.00000000000E+00 0. -1.
         -2   -1    0    0    0  501 -0.00000000000E+00 -0.00000000000E+00 -0.41246193097E+03  0.41246193097E+03  0.00000000000E+00 0.  1.
         25    2    1    2    0    0 -0.10291600474E+02 -0.19941268158E+02 -0.30130916478E+03  0.32702226871E+03  0.12511107158E+03 0.  0.
          5    1    3    3  502    0 -0.66918648482E+02 -0.21169769451E+02 -0.16588042951E+03  0.18016673930E+03  0.41800000000E+01 0. -1.
         -5    1    3    3    0  502  0.56627048008E+02  0.12285012932E+01 -0.13542873527E+03  0.14685552941E+03  0.41800000000E+01 0. -1.
        -11    1    1    2    0    0 -0.25547696227E+02  0.18731922912E+02  0.51584191973E+01  0.32096401778E+02  0.00000000000E+00 0.  1.
         11    1    1    2    0    0  0.35839296701E+02  0.12093452457E+01 -0.81037408593E+02  0.88617037275E+02  0.00000000000E+00 0. -1.
</event>
<event>
 7    1  0.2989693E-009  0.2442977E+03  0.7561462E-02  0.1116962E+00
          1   -1    0    0  501    0  0.00000000000E+00  0.00000000000E+00  0.10455861934E+03  0.10455861934E+03  0.00000000000E+00 0. -1.
         -1   -1    0    0    0  501 -0.00000000000E+00 -0.00000000000E+00 -0.59640547104E+03  0.59640547104E+03  0.00000000000E+00 0.  1.
         25    2    1    2    0    0 -0.23432848674E+02 -0.22036057989E+03 -0.19995055500E+03  0.32362695596E+03  0.12508516543E+03 0.  0.
          5    1    3    3  502    0 -0.54161903272E+02 -0.40526818919E+02 -0.81802975326E+02  0.10623151129E+03  0.41800000000E+01 0.  1.
         -5    1    3    3    0  502  0.30729054598E+02 -0.17983376097E+03 -0.11814757967E+03  0.21739544467E+03  0.41800000000E+01 0.  1.
        -11    1    1    2    0    0  0.47290628657E+02  0.60940229143E+02 -0.80463032847E+02  0.11146485877E+03  0.00000000000E+00 0. -1.
         11    1    1    2    0    0 -0.23857779983E+02  0.15942035075E+03 -0.21143326385E+03  0.26587227566E+03  0.00000000000E+00 0.  1.
</event>
<event>
 7    1  0.2989693E-009  0.1176074E+03  0.7561462E-02  0.1247097E+00
          1   -1    0    0  501    0  0.00000000000E+00  0.00000000000E+00  0.37163012240E+02  0.37163012240E+02  0.00000000000E+00 0. -1.
         -1   -1    0    0    0  501 -0.00000000000E+00 -0.00000000000E+00 -0.37676895439E+03  0.37676895439E+03  0.00000000000E+00 0.  1.
         25    2    1    2    0    0  0.25845301147E+02  0.34772801851E+02 -0.17284907746E+03  0.21771501284E+03  0.12508355567E+03 0.  0.
          5    1    3    3  502    0  0.75093177397E+02  0.66677286443E+01 -0.10011530473E+03  0.12539533699E+03  0.41800000000E+01 0. -1.
         -5    1    3    3    0  502 -0.49247876250E+02  0.28105073207E+02 -0.72733772725E+02  0.92319675855E+02  0.41800000000E+01 0. -1.
        -11    1    1    2    0    0 -0.36911972772E+02  0.23355909550E+02 -0.60919646258E+02  0.74961293646E+02  0.00000000000E+00 0. -1.
         11    1    1    2    0    0  0.11066671626E+02 -0.58128711401E+02 -0.10583721844E+03  0.12125566015E+03  0.00000000000E+00 0.  1.
</event>
<event>
 7    1  0.2989693E-009  0.1745822E+03  0.7561462E-02  0.1173152E+00
         -2   -1    0    0    0  501 -0.00000000000E+00  0.00000000000E+00  0.10218577082E+03  0.10218577082E+03  0.00000000000E+00 0.  1.
          2   -1    0    0  501    0  0.00000000000E+00 -0.00000000000E+00 -0.41220714547E+03  0.41220714547E+03  0.00000000000E+00 0. -1.
         25    2    1    2    0    0  0.14518969194E+03  0.80253520841E+02 -0.95024553328E+02  0.22847027101E+03  0.12509326421E+03 0.  0.
          5    1    3    3  502    0  0.28885485946E+02  0.15831779566E+02  0.30858118740E+02  0.45328935954E+02  0.41800000000E+01 0. -1.
         -5    1    3    3    0  502  0.11630420599E+03  0.64421741275E+02 -0.12588267207E+03  0.18314133506E+03  0.41800000000E+01 0. -1.
        -11    1    1    2    0    0 -0.81220397677E+02 -0.86514814460E+02 -0.17057169488E+03  0.20778900166E+03  0.00000000000E+00 0. -1.
         11    1    1    2    0    0 -0.63969294258E+02  0.62612936192E+01 -0.44425126443E+02  0.78133643619E+02  0.00000000000E+00 0.  1.
</event>
<event>
 7    1  0.2989693E-009  0.9942284E+02  0.7561462E-02  0.1281514E+00
          1   -1    0    0  501    0  0.00000000000E+00  0.00000000000E+00  0.25783350309E+03  0.25783350309E+03  0.00000000000E+00 0. -1.
         -1   -1    0    0    0  501 -0.00000000000E+00 -0.00000000000E+00 -0.52932935117E+02  0.52932935117E+02  0.00000000000E+00 0.  1.
         25    2    1    2    0    0 -0.22215841670E+02 -0.31950695064E+02  0.13805584203E+03  0.19031989857E+03  0.12509139753E+03 0.  0.
          5    1    3    3  502    0  0.37846331757E+02 -0.27302429144E+02  0.11755520900E+03  0.12654827943E+03  0.41800000000E+01 0. -1.
         -5    1    3    3    0  502 -0.60062173427E+02 -0.46482659192E+01  0.20500633032E+02  0.63771619139E+02  0.41800000000E+01 0. -1.
        -11    1    1    2    0    0 -0.30906183272E+02  0.21002902736E+02  0.52325702570E+02  0.64298469945E+02  0.00000000000E+00 0. -1.
         11    1    1    2    0    0  0.53122024943E+02  0.10947792327E+02  0.14519023378E+02  0.56148069697E+02  0.00000000000E+00 0.  1.
</event>
<event>
 7    1  0.2989693E-009  0.1145185E+03  0.7561462E-02  0.1252424E+00
         -2   -1    0    0    0  501 -0.00000000000E+00  0.00000000000E+00  0.14327104608E+04  0.14327104608E+04  0.00000000000E+00 0.  1.
          2   -1    0    0  501    0  0.00000000000E+00 -0.00000000000E+00 -0.13641655191E+02  0.13641655191E+02  0.00000000000E+00 0. -1.
         25    2    1    2    0    0 -0.51567563850E+02 -0.69508143745E+02  0.69607675614E+03  0.71250329351E+03  0.12508995617E+03 0.  0.
          5    1    3    3  502    0  0.88726373033E+01  0.15102448501E+01 -0.27015575404E+00  0.99272310518E+01  0.41800000000E+01 0. -1.
         -5    1    3    3    0  502 -0.60440201153E+02 -0.71018388595E+02  0.69634691190E+03  0.70257606246E+03  0.41800000000E+01 0. -1.
        -11    1    1    2    0    0  0.77567425903E+02  0.43244359810E+02  0.51077544715E+03  0.51843836435E+03  0.00000000000E+00 0.  1.
         11    1    1    2    0    0 -0.25999862054E+02  0.26263783935E+02  0.21221660230E+03  0.21541045811E+03  0.00000000000E+00 0. -1.
</event>
<event>
 7    1  0.2989693E-009  0.6966107E+02  0.7561462E-02  0.1361249E+00
         -1   -1    0    0    0  501 -0.00000000000E+00  0.00000000000E+00  0.63279236245E+02  0.63279236245E+02  0.00000000000E+00 0.  1.
          1   -1    0    0  501    0  0.00000000000E+00 -0.00000000000E+00 -0.20519474980E+03  0.20519474980E+03  0.00000000000E+00 0. -1.
         25    2    1    2    0    0  0.25040690868E+01  0.30328502173E+02 -0.10337540751E+03  0.16510563545E+03  0.12508919847E+03 0.  0.
          5    1    3    3  502    0  0.10029380152E+02  0.32896852369E+02 -0.13128846738E+03  0.13578264038E+03  0.41800000000E+01 0.  1.
         -5    1    3    3    0  502 -0.75253110650E+01 -0.25683501957E+01  0.27913059864E+02  0.29322995078E+02  0.41800000000E+01 0.  1.
        -11    1    1    2    0    0 -0.18296061289E+02  0.29005859862E+02 -0.17199545388E+02  0.38365480925E+02  0.00000000000E+00 0.  1.
         11    1    1    2    0    0  0.15791992202E+02 -0.59334362036E+02 -0.21340560660E+02  0.65002869669E+02  0.00000000000E+00 0. -1.
</event>
<event>
 7    1  0.2989693E-009  0.1552591E+03  0.7561462E-02  0.1194156E+00
          2   -1    0    0  501    0  0.00000000000E+00  0.00000000000E+00  0.13348137218E+04  0.13348137218E+04  0.00000000000E+00 0.  1.
         -2   -1    0    0    0  501 -0.00000000000E+00 -0.00000000000E+00 -0.54167189315E+02  0.54167189315E+02  0.00000000000E+00 0. -1.
         25    2    1    2    0    0 -0.74024235636E+02  0.10825535941E+03  0.11926175163E+04  0.12063059258E+04  0.12505453258E+03 0.  0.
          5    1    3    3  502    0  0.23672560738E+02  0.64967077793E+02  0.33814309348E+03  0.34516566370E+03  0.41800000000E+01 0.  1.
         -5    1    3    3    0  502 -0.97696796374E+02  0.43288281612E+02  0.85447442282E+03  0.86114026209E+03  0.41800000000E+01 0.  1.
        -11    1    1    2    0    0  0.60439113985E+02 -0.64062249457E+02  0.10162952297E+03  0.13448203688E+03  0.00000000000E+00 0.  1.
         11    1    1    2    0    0  0.13585121651E+02 -0.44193109949E+02 -0.13600506762E+02  0.48192948461E+02  0.00000000000E+00 0. -1.
</event>
<event>
 7    1  0.2989693E-009  0.9567067E+02  0.7561462E-02  0.1289673E+00
         -1   -1    0    0    0  501 -0.00000000000E+00  0.00000000000E+00  0.40593939966E+02  0.40593939966E+02  0.00000000000E+00 0.  1.
          1   -1    0    0  501    0  0.00000000000E+00 -0.00000000000E+00 -0.44812274778E+03  0.44812274778E+03  0.00000000000E+00 0. -1.
         25    2    1    2    0    0 -0.14720512085E+02 -0.10350368246E+01 -0.36686577837E+03  0.38790326490E+03  0.12514263384E+03 0.  0.
          5    1    3    3  502    0 -0.47211119266E+02 -0.44473060184E+02 -0.13626461626E+03  0.15097105984E+03  0.41800000000E+01 0. -1.
         -5    1    3    3    0  502  0.32490607181E+02  0.43438023359E+02 -0.23060116211E+03  0.23693220506E+03  0.41800000000E+01 0. -1.
        -11    1    1    2    0    0  0.42847884353E+02  0.63522322875E+01  0.82927383715E+01  0.44102852043E+02  0.00000000000E+00 0.  1.
         11    1    1    2    0    0 -0.28127372268E+02 -0.53171954629E+01 -0.48955767807E+02  0.56710570795E+02  0.00000000000E+00 0. -1.
</event>
<event>
 7    1  0.2989693E-009  0.7571622E+02  0.7561462E-02  0.1341667E+00
         -2   -1    0    0    0  501 -0.00000000000E+00  0.00000000000E+00  0.21435952390E+02  0.21435952390E+02  0.00000000000E+00 0. -1.
          2   -1    0    0  501    0  0.00000000000E+00 -0.00000000000E+00 -0.60041413275E+03  0.60041413275E+03  0.00000000000E+00 0.  1.
         25    2    1    2    0    0 -0.28648165001E+02 -0.15037971199E+02 -0.35569155847E+03  0.37843214277E+03  0.12509014342E+03 0.  0.
          5    1    3    3  502    0  0.97530317267E+01 -0.13938160147E+02 -0.33331984892E+03  0.33377984963E+03  0.41800000000E+01 0. -1.
         -5    1    3    3    0  502 -0.38401196728E+02 -0.10998110519E+01 -0.22371709550E+02  0.44652293140E+02  0.41800000000E+01 0. -1.
        -11    1    1    2    0    0  0.25622359188E+02  0.52113852207E+02 -0.15716615780E+03  0.16755166379E+03  0.00000000000E+00 0. -1.
         11    1    1    2    0    0  0.30258058134E+01 -0.37075881008E+02 -0.66120464097E+02  0.75866278581E+02  0.00000000000E+00 0.  1.
</event>
<event>
 7    1  0.2989693E-009  0.1098510E+03  0.7561462E-02  0.1260846E+00
         -2   -1    0    0    0  501 -0.00000000000E+00  0.00000000000E+00  0.29503416254E+03  0.29503416254E+03  0.00000000000E+00 0.  1.
          2   -1    0    0  501    0  0.00000000000E+00 -0.00000000000E+00 -0.59068257459E+02  0.59068257459E+02  0.00000000000E+00 0. -1.
         25    2    1    2    0    0 -0.65712447774E+02 -0.51948240924E+01  0.17545016725E+03  0.22532896870E+03  0.12508105753E+03 0.  0.
          5    1    3    3  502    0 -0.86627475953E+02  0.36292601418E+02  0.10624377664E+03  0.14186854825E+03  0.41800000000E+01 0.  1.
         -5    1    3    3    0  502  0.20915028178E+02 -0.41487425510E+02  0.69206390615E+02  0.83460420446E+02  0.41800000000E+01 0.  1.
        -11    1    1    2    0    0  0.18197103334E+02  0.22079051695E+02  0.71633725610E+02  0.77136306226E+02  0.00000000000E+00 0.  1.
         11    1    1    2    0    0  0.47515344441E+02 -0.16884227602E+02 -0.11117987786E+02  0.51637145075E+02  0.00000000000E+00 0. -1.
</event>
<event>
 7    1  0.2989693E-009  0.1517479E+03  0.7561462E-02  0.1198342E+00
          2   -1    0    0  501    0  0.00000000000E+00  0.00000000000E+00  0.21945909914E+03  0.21945909914E+03  0.00000000000E+00 0. -1.
         -2   -1    0    0    0  501 -0.00000000000E+00 -0.00000000000E+00 -0.11320927670E+03  0.11320927670E+03  0.00000000000E+00 0.  1.
         25    2    1    2    0    0  0.10191220735E+03  0.32199828538E+02  0.96688829031E+02  0.19083829839E+03  0.12509036538E+03 0.  0.
          5    1    3    3  502    0  0.67282229651E+02  0.80415930561E+02  0.58702548855E+02  0.12023760625E+03  0.41800000000E+01 0.  1.
         -5    1    3    3    0  502  0.34629977695E+02 -0.48216102023E+02  0.37986280176E+02  0.70600692143E+02  0.41800000000E+01 0.  1.
        -11    1    1    2    0    0 -0.10404303799E+03  0.27083740344E+01  0.18554046597E+02  0.10571916425E+03  0.00000000000E+00 0. -1.
         11    1    1    2    0    0  0.21308306463E+01 -0.34908202572E+02 -0.89930531871E+01  0.36110913194E+02  0.00000000000E+00 0.  1.
</event>
<event>
 7    1  0.2989693E-009  0.1600565E+03  0.7561462E-02  0.1188633E+00
          2   -1    0    0  501    0  0.00000000000E+00  0.00000000000E+00  0.90931910506E+03  0.90931910506E+03  0.00000000000E+00 0. -1.
         -2   -1    0    0    0  501 -0.00000000000E+00 -0.00000000000E+00 -0.32720515866E+02  0.32720515866E+02  0.00000000000E+00 0.  1.
         25    2    1    2    0    0  0.11947666822E+03  0.48907609826E+02  0.37186548721E+03  0.41303504359E+03  0.12508948041E+03 0.  0.
          5    1    3    3  502    0 -0.22475065927E+01 -0.29383763875E+02  0.10832960975E+03  0.11234426382E+03  0.41800000000E+01 0.  1.
         -5    1    3    3    0  502  0.12172417481E+03  0.78291373701E+02  0.26353587746E+03  0.30069077977E+03  0.41800000000E+01 0.  1.
        -11    1    1    2    0    0 -0.94863477774E+02 -0.47217344489E+01  0.21723909229E+03  0.23709533401E+03  0.00000000000E+00 0.  1.
         11    1    1    2    0    0 -0.24613190445E+02 -0.44185875377E+02  0.28749400970E+03  0.29190924332E+03  0.00000000000E+00 0. -1.
</event>
<event>
 7    1  0.2989693E-009  0.1908063E+03  0.7561462E-02  0.1157736E+00
         -2   -1    0    0    0  501 -0.00000000000E+00  0.00000000000E+00  0.81566854405E+02  0.81566854405E+02  0.00000000000E+00 0.  1.
          2   -1    0    0  501    0  0.00000000000E+00 -0.00000000000E+00 -0.57628607565E+03  0.57628607565E+03  0.00000000000E+00 0. -1.
         25    2    1    2    0    0  0.15584308920E+03 -0.10519914025E+03 -0.25917419912E+03  0.34377604901E+03  0.12512705074E+03 0.  0.
          5    1    3    3  502    0  0.12491938640E+03 -0.67535372003E+02 -0.25837583962E+03  0.29485831592E+03  0.41800000000E+01 0. -1.
         -5    1    3    3    0  502  0.30923702799E+02 -0.37663768242E+02 -0.79835950327E+00  0.48917733093E+02  0.41800000000E+01 0. -1.
        -11    1    1    2    0    0 -0.18177413835E+02  0.26270703186E+02 -0.23794474134E+01  0.32034824639E+02  0.00000000000E+00 0.  1.
         11    1    1    2    0    0 -0.13766567536E+03  0.78928437059E+02 -0.23316557471E+03  0.28204205640E+03  0.00000000000E+00 0. -1.
</event>
<event>
 7    1  0.2989693E-009  0.1010171E+03  0.7561462E-02  0.1278171E+00
          2   -1    0    0  501    0  0.00000000000E+00  0.00000000000E+00  0.22391360790E+04  0.22391360790E+04  0.00000000000E+00 0. -1.
         -2   -1    0    0    0  501 -0.00000000000E+00 -0.00000000000E+00 -0.10008778000E+02  0.10008778000E+02  0.00000000000E+00 0.  1.
         25    2    1    2    0    0  0.49364881188E+02 -0.45886931227E+02  0.16784625602E+04  0.16844662479E+04  0.12508985799E+03 0.  0.
          5    1    3    3  502    0  0.38992470800E+02 -0.10984932571E+02  0.15584561362E+04  0.15589881598E+04  0.41800000000E+01 0.  1.
         -5    1    3    3    0  502  0.10372410388E+02 -0.34901998656E+02  0.12000642392E+03  0.12547808809E+03  0.41800000000E+01 0.  1.
        -11    1    1    2    0    0 -0.37333075416E+02  0.80110364522E+02  0.37023511452E+03  0.38063823908E+03  0.00000000000E+00 0. -1.
         11    1    1    2    0    0 -0.12031805773E+02 -0.34223433295E+02  0.18042962628E+03  0.18404036996E+03  0.00000000000E+00 0.  1.
</event>
<event>
 7    1  0.2989693E-009  0.1005994E+03  0.7561462E-02  0.1279040E+00
          1   -1    0    0  501    0  0.00000000000E+00  0.00000000000E+00  0.17241054084E+04  0.17241054084E+04  0.00000000000E+00 0. -1.
         -1   -1    0    0    0  501 -0.00000000000E+00 -0.00000000000E+00 -0.96835538701E+01  0.96835538701E+01  0.00000000000E+00 0.  1.
         25    2    1    2    0    0  0.47246599053E+02  0.14297225938E+02  0.13056878233E+04  0.13125953536E+04  0.12509683621E+03 0.  0.
          5    1    3    3  502    0  0.46604502452E+02 -0.34536998581E+02  0.10837378250E+04  0.10852971619E+04  0.41800000000E+01 0.  1.
         -5    1    3    3    0  502  0.64209660088E+00  0.48834224519E+02  0.22194999838E+03  0.22729819171E+03  0.41800000000E+01 0.  1.
        -11    1    1    2    0    0 -0.26126374797E+02 -0.47768834908E+02  0.31134225035E+03  0.31606715410E+03  0.00000000000E+00 0. -1.
         11    1    1    2    0    0 -0.21120224256E+02  0.33471608969E+02  0.97391780857E+02  0.10512645461E+03  0.00000000000E+00 0.  1.
</event>
<event>
 7    1  0.2989693E-009  0.1081628E+03  0.7561462E-02  0.1264010E+00
         -2   -1    0    0    0  501 -0.00000000000E+00  0.00000000000E+00  0.20406737555E+02  0.20406737555E+02  0.00000000000E+00 0.  1.
          2   -1    0    0  501    0  0.00000000000E+00 -0.00000000000E+00 -0.62156431384E+03  0.62156431384E+03  0.00000000000E+00 0. -1.
         25    2    1    2    0    0  0.22245414994E+02 -0.20723406522E+02 -0.35876664004E+03  0.38116356501E+03  0.12509133950E+03 0.  0.
          5    1    3    3  502    0 -0.29421642948E+02  0.36356022973E+02 -0.18836620941E+03  0.19413061255E+03  0.41800000000E+01 0.  1.
         -5    1    3    3    0  502  0.51667057942E+02 -0.57079429494E+02 -0.17040043063E+03  0.18703295246E+03  0.41800000000E+01 0.  1.
        -11    1    1    2    0    0 -0.10884127177E+02  0.55045899930E+02 -0.18167110282E+03  0.19013917251E+03  0.00000000000E+00 0.  1.
         11    1    1    2    0    0 -0.11361287818E+02 -0.34322493408E+02 -0.60719833422E+02  0.70668313871E+02  0.00000000000E+00 0. -1.
</event>
<event>
 7    1  0.2989693E-009  0.1109309E+03  0.7561462E-02  0.1258856E+00
          1   -1    0    0  501    0  0.00000000000E+00  0.00000000000E+00  0.35829468238E+03  0.35829468238E+03  0.00000000000E+00 0. -1.
         -1   -1    0    0    0  501 -0.00000000000E+00 -0.00000000000E+00 -0.47780103542E+02  0.47780103542E+02  0.00000000000E+00 0.  1.
         25    2    1    2    0    0 -0.74730846335E+02 -0.58420345506E+01  0.16687105342E+03  0.22161295209E+03  0.12509006076E+03 0.  0.
          5    1    3    3  502    0 -0.66114562039E+02  0.27620081033E+02  0.25734239554E+02  0.76247804396E+02  0.41800000000E+01 0.  1.
         -5    1    3    3    0  502 -0.86162842964E+01 -0.33462115584E+02  0.14113681387E+03  0.14536514769E+03  0.41800000000E+01 0.  1.
        -11    1    1    2    0    0  0.58736900928E+01 -0.34822431524E+02  0.36765948119E+02  0.50978788860E+02  0.00000000000E+00 0. -1.
         11    1    1    2    0    0  0.68857156242E+02  0.40664466075E+02  0.10687757730E+03  0.13348304498E+03  0.00000000000E+00 0.  1.
</event>
<event>
 7    1  0.2989693E-009  0.8770271E+02  0.7561462E-02  0.1308512E+00
         -3   -1    0    0    0  501 -0.00000000000E+00  0.00000000000E+00  0.34917145226E+03  0.34917145226E+03  0.00000000000E+00 0. -1.
          3   -1    0    0  501    0  0.00000000000E+00 -0.00000000000E+00 -0.41034212404E+02  0.41034212404E+02  0.00000000000E+00 0.  1.
         25    2    1    2    0    0  0.92272093106E+01 -0.43144188778E+02  0.13659170737E+03  0.19038479196E+03  0.12507002867E+03 0.  0.
          5    1    3    3  502    0 -0.29913329805E+02 -0.20224665155E+02  0.14006317486E+03  0.14470317803E+03  0.41800000000E+01 0.  1.
         -5    1    3    3    0  502  0.39140539115E+02 -0.22919523622E+02 -0.34714674866E+01  0.45681613936E+02  0.41800000000E+01 0.  1.
        -11    1    1    2    0    0  0.36864698500E+02  0.18956782329E+02  0.37025598913E+02  0.55581116997E+02  0.00000000000E+00 0.  1.
         11    1    1    2    0    0 -0.46091907811E+02  0.24187406449E+02  0.13451993357E+03  0.14423975570E+03  0.00000000000E+00 0. -1.
</event>
<event>
 7    1  0.2989693E-009  0.1279237E+03  0.7561462E-02  0.1230569E+00
          1   -1    0    0  501    0  0.00000000000E+00  0.00000000000E+00  0.11384509213E+04  0.11384509213E+04  0.00000000000E+00 0. -1.
         -1   -1    0    0    0  501 -0.00000000000E+00 -0.00000000000E+00 -0.16863802193E+02  0.16863802193E+02  0.00000000000E+00 0.  1.
         25    2    1    2    0    0  0.80463957995E+02 -0.30918358362E+02  0.61820413100E+03  0.63659587368E+03  0.12509022897E+03 0.  0.
          5    1    3    3  502    0  0.65476773364E+02  0.35140740446E+02  0.21024655433E+03  0.22303175894E+03  0.41800000000E+01 0.  1.
         -5    1    3    3    0  502  0.14987184631E+02 -0.66059098808E+02  0.40795757666E+03  0.41356411474E+03  0.41800000000E+01 0.  1.
        -11    1    1    2    0    0  0.25270843573E+01 -0.17358336377E+02  0.23496392142E+02  0.29321978801E+02  0.00000000000E+00 0.  1.
         11    1    1    2    0    0 -0.82991042352E+02  0.48276694738E+02  0.47988659593E+03  0.48939687098E+03  0.00000000000E+00 0. -1.
</event>
<event>
 7    1  0.2989693E-009  0.1125696E+03  0.7561462E-02  0.1255884E+00
         -1   -1    0    0    0  501 -0.00000000000E+00  0.00000000000E+00  0.11671779361E+03  0.11671779361E+03  0.00000000000E+00 0.  1.
          1   -1    0    0  501    0  0.00000000000E+00 -0.00000000000E+00 -0.38690995674E+03  0.38690995674E+03  0.00000000000E+00 0. -1.
         25    2    1    2    0    0  0.11914789813E+02  0.85421504700E+02  0.50263790839E+02  0.16003957247E+03  0.12508964947E+03 0.  0.
          5    1    3    3  502    0 -0.47344652733E+01  0.83862667101E+02 -0.21031719978E+02  0.86690067136E+02  0.41800000000E+01 0. -1.
         -5    1    3    3    0  502  0.16649255086E+02  0.15588375988E+01  0.71295510817E+02  0.73349505330E+02  0.41800000000E+01 0. -1.
        -11    1    1    2    0    0 -0.49946731685E+02 -0.59944686885E+02 -0.20965026315E+03  0.22369907092E+03  0.00000000000E+00 0. -1.
         11    1    1    2    0    0  0.38031941872E+02 -0.25476817815E+02 -0.11080569082E+03  0.11988910696E+03  0.00000000000E+00 0.  1.
</event>
<event>
 7    1  0.2989693E-009  0.5151690E+02  0.7561462E-02  0.1437327E+00
          2   -1    0    0  501    0  0.00000000000E+00  0.00000000000E+00  0.79262184104E+03  0.79262184104E+03  0.00000000000E+00 0.  1.
         -2   -1    0    0    0  501 -0.00000000000E+00 -0.00000000000E+00 -0.18291212566E+02  0.18291212566E+02  0.00000000000E+00 0. -1.
         25    2    1    2    0    0  0.17462958174E+02  0.29046840245E+02  0.58528652828E+03  0.59946364823E+03  0.12509065321E+03 0.  0.
          5    1    3    3  502    0  0.15665611889E+02  0.19789570133E+02  0.58819130352E+03  0.58874741648E+03  0.41800000000E+01 0. -1.
         -5    1    3    3    0  502  0.17973462848E+01  0.92572701114E+01 -0.29047752375E+01  0.10716231743E+02  0.41800000000E+01 0. -1.
        -11    1    1    2    0    0 -0.13734181334E+02 -0.46914113343E+02  0.18676401909E+03  0.19305533040E+03  0.00000000000E+00 0.  1.
         11    1    1    2    0    0 -0.37287768401E+01  0.17867273098E+02  0.22800811046E+01  0.18394074984E+02  0.00000000000E+00 0. -1.
</event>
<event>
 7    1  0.2989693E-009  0.1417180E+03  0.7561462E-02  0.1211036E+00
         -1   -1    0    0    0  501 -0.00000000000E+00  0.00000000000E+00  0.17217357256E+03  0.17217357256E+03  0.00000000000E+00 0.  1.
          1   -1    0    0  501    0  0.00000000000E+00 -0.00000000000E+00 -0.13819790148E+03  0.13819790148E+03  0.00000000000E+00 0. -1.
         25    2    1    2    0    0  0.95546399593E+02 -0.14975374279E+02 -0.30971007633E+02  0.16112090651E+03  0.12508943557E+03 0.  0.
          5    1    3    3  502    0  0.16127686663E+02 -0.61265514958E+02 -0.27065254445E+02  0.69018591686E+02  0.41800000000E+01 0.  1.
         -5    1    3    3    0  502  0.79418712930E+02  0.46290140679E+02 -0.39057531879E+01  0.92102314822E+02  0.41800000000E+01 0.  1.
        -11    1    1    2    0    0 -0.75171092141E+02 -0.28118552280E+02  0.62135757879E+02  0.10149974622E+03  0.00000000000E+00 0.  1.
         11    1    1    2    0    0 -0.20375307453E+02  0.43093926559E+02  0.28109208318E+01  0.47750821312E+02  0.00000000000E+00 0. -1.
</event>
<event>
 7    1  0.4090829E-009  0.1080967E+03  0.7561462E-02  0.1264136E+00
         -2   -1    0    0    0  501 -0.00000000000E+00  0.00000000000E+00  0.91886405217E+02  0.91886405217E+02  0.00000000000E+00 0.  1.
          2   -1    0    0  501    0  0.00000000000E+00 -0.00000000000E+00 -0.21461411136E+03  0.21461411136E+03  0.00000000000E+00 0. -1.
         25    2    1    2    0    0 -0.22134284832E+02  0.85988491220E+02 -0.58151008870E+02  0.16405154531E+03  0.12508965784E+03 0.  0.
          5    1    3    3  502    0 -0.81968391132E+01  0.27949603142E+02 -0.91107025625E+02  0.95740957826E+02  0.41800000000E+01 0. -1.
         -5    1    3    3    0  502 -0.13937445719E+02  0.58038888077E+02  0.32956016754E+02  0.68310587487E+02  0.41800000000E+01 0. -1.
        -11    1    1    2    0    0  0.56502451685E+02 -0.38742149548E+02 -0.33126386954E+02  0.76097560478E+02  0.00000000000E+00 0. -1.
         11    1    1    2    0    0 -0.34368166853E+02 -0.47246341671E+02 -0.31450310319E+02  0.66351410786E+02  0.00000000000E+00 0.  1.
</event>
<event>
 7    1  0.2989693E-009  0.6480732E+02  0.7561462E-02  0.1378698E+00
         -1   -1    0    0    0  501 -0.00000000000E+00  0.00000000000E+00  0.46002245499E+02  0.46002245499E+02  0.00000000000E+00 0. -1.
          1   -1    0    0  501    0  0.00000000000E+00 -0.00000000000E+00 -0.30969136844E+03  0.30969136844E+03  0.00000000000E+00 0.  1.
         25    2    1    2    0    0  0.29373596543E+02 -0.13496166787E+02 -0.92458446813E+02  0.15887419114E+03  0.12508992578E+03 0.  0.
          5    1    3    3  502    0 -0.13973460249E+02 -0.58542512065E+01 -0.11014037482E+03  0.11125603091E+03  0.41800000000E+01 0. -1.
         -5    1    3    3    0  502  0.43347056792E+02 -0.76419155809E+01  0.17681928003E+02  0.47618160235E+02  0.41800000000E+01 0. -1.
        -11    1    1    2    0    0 -0.47681227502E+02  0.17770037995E+02 -0.17058042971E+03  0.17800830516E+03  0.00000000000E+00 0.  1.
         11    1    1    2    0    0  0.18307630960E+02 -0.42738712075E+01 -0.65024642290E+00  0.18811117640E+02  0.00000000000E+00 0. -1.
</event>
<event>
 7    1  0.2989693E-009  0.2555813E+03  0.7561462E-02  0.1109828E+00
         -1   -1    0    0    0  501 -0.00000000000E+00  0.00000000000E+00  0.22132794239E+03  0.22132794239E+03  0.00000000000E+00 0.  1.
          1   -1    0    0  501    0  0.00000000000E+00 -0.00000000000E+00 -0.30873779805E+03  0.30873779805E+03  0.00000000000E+00 0. -1.
         25    2    1    2    0    0 -0.23279725560E+03 -0.54278890993E+02 -0.32052857500E+02  0.27169080474E+03  0.12509095684E+03 0.  0.
          5    1    3    3  502    0 -0.82542016905E+02  0.37806882689E+02  0.69487273671E+01  0.91149888346E+02  0.41800000000E+01 0. -1.
         -5    1    3    3    0  502 -0.15025523869E+03 -0.92085773683E+02 -0.39001584867E+02  0.18054091639E+03  0.41800000000E+01 0.  1.
        -11    1    1    2    0    0  0.65020400511E+02 -0.69699870141E+01  0.13823254011E+02  0.66837979870E+02  0.00000000000E+00 0.  1.
         11    1    1    2    0    0  0.16777685509E+03  0.61248878007E+02 -0.69180252166E+02  0.19153695583E+03  0.00000000000E+00 0. -1.
</event>
<event>
 7    1  0.2989693E-009  0.1157843E+03  0.7561462E-02  0.1250218E+00
         -1   -1    0    0    0  501 -0.00000000000E+00  0.00000000000E+00  0.16302255137E+03  0.16302255137E+03  0.00000000000E+00 0.  1.
          1   -1    0    0  501    0  0.00000000000E+00 -0.00000000000E+00 -0.15722923378E+03  0.15722923378E+03  0.00000000000E+00 0. -1.
         25    2    1    2    0    0 -0.59543817896E+02  0.42215720930E+02  0.91459038519E+02  0.17128866995E+03  0.12508964539E+03 0.  0.
          5    1    3    3  502    0 -0.47739211444E+02 -0.38307946212E+02  0.53449691386E+02  0.81368746835E+02  0.41800000000E+01 0. -1.
         -5    1    3    3    0  502 -0.11804606452E+02  0.80523667142E+02  0.38009347132E+02  0.89919923114E+02  0.41800000000E+01 0. -1.
        -11    1    1    2    0    0  0.51597211110E+02 -0.63459880615E+01  0.39229482944E+01  0.52133801724E+02  0.00000000000E+00 0.  1.
         11    1    1    2    0    0  0.79466067857E+01 -0.35869732869E+02 -0.89588669219E+02  0.96829313474E+02  0.00000000000E+00 0. -1.
</event>
<event>
 7    1  0.2989693E-009  0.9181533E+02  0.7561462E-02  0.1298514E+00
          1   -1    0    0  501    0  0.00000000000E+00  0.00000000000E+00  0.33608363406E+03  0.33608363406E+03  0.00000000000E+00 0. -1.
         -1   -1    0    0    0  501 -0.00000000000E+00 -0.00000000000E+00 -0.48903849294E+02  0.48903849294E+02  0.00000000000E+00 0.  1.
         25    2    1    2    0    0  0.51538739247E+02  0.43338683774E+02  0.13294036712E+03  0.19456365767E+03  0.12508953801E+03 0.  0.
          5    1    3    3  502    0  0.54885234016E+02  0.25368889959E+02  0.15451659523E+03  0.16597837236E+03  0.41800000000E+01 0. -1.
         -5    1    3    3    0  502 -0.33464947686E+01  0.17969793815E+02 -0.21576228104E+02  0.28585285309E+02  0.41800000000E+01 0. -1.
        -11    1    1    2    0    0  0.12493920779E+02  0.13683274847E+02  0.61008084077E+02  0.63759833670E+02  0.00000000000E+00 0. -1.
         11    1    1    2    0    0 -0.64032660026E+02 -0.57021958621E+02  0.93231333568E+02  0.12666399202E+03  0.00000000000E+00 0.  1.
</event>
<event>
 7    1  0.2989693E-009  0.9804767E+02  0.7561462E-02  0.1284456E+00
          2   -1    0    0  501    0  0.00000000000E+00  0.00000000000E+00  0.46061143776E+03  0.46061143776E+03  0.00000000000E+00 0. -1.
         -2   -1    0    0    0  501 -0.00000000000E+00 -0.00000000000E+00 -0.53385901339E+02  0.53385901339E+02  0.00000000000E+00 0.  1.
         25    2    1    2    0    0  0.75363059293E+02  0.76621803083E+01  0.35738504837E+03  0.38614725450E+03  0.12508928669E+03 0.  0.
          5    1    3    3  502    0  0.24576004271E+02  0.19370551342E+02  0.32075879177E+03  0.32230866129E+03  0.41800000000E+01 0.  1.
         -5    1    3    3    0  502  0.50787055022E+02 -0.11708371034E+02  0.36626256601E+02  0.63838593207E+02  0.41800000000E+01 0.  1.
        -11    1    1    2    0    0 -0.83529791320E+02 -0.29765628809E+02  0.21975138504E+02  0.91357131132E+02  0.00000000000E+00 0.  1.
         11    1    1    2    0    0  0.81667320266E+01  0.22103448501E+02  0.27865349549E+02  0.36492953472E+02  0.00000000000E+00 0. -1.
</event>
<event>
 7    1  0.2989693E-009  0.9314782E+02  0.7561462E-02  0.1295403E+00
          1   -1    0    0  501    0  0.00000000000E+00  0.00000000000E+00  0.11208953699E+03  0.11208953699E+03  0.00000000000E+00 0.  1.
         -1   -1    0    0    0  501 -0.00000000000E+00 -0.00000000000E+00 -0.25876092608E+03  0.25876092608E+03  0.00000000000E+00 0. -1.
         25    2    1    2    0    0  0.85556841729E+02  0.25805937986E+02 -0.18301652814E+03  0.23901665520E+03  0.12509193534E+03 0.  0.
          5    1    3    3  502    0  0.25425055804E+02 -0.77172636015E+01 -0.16574761028E+03  0.16791584896E+03  0.41800000000E+01 0.  1.
         -5    1    3    3    0  502  0.60131785925E+02  0.33523201588E+02 -0.17268917866E+02  0.71100806237E+02  0.41800000000E+01 0.  1.
        -11    1    1    2    0    0 -0.16461027242E+02 -0.10895662477E+02  0.55243782822E+02  0.58664780058E+02  0.00000000000E+00 0.  1.
         11    1    1    2    0    0 -0.69095814487E+02 -0.14910275510E+02 -0.18898643765E+02  0.73169027816E+02  0.00000000000E+00 0. -1.
</event>
<event>
 7    1  0.2989693E-009  0.1226866E+03  0.7561462E-02  0.1238730E+00
         -1   -1    0    0    0  501 -0.00000000000E+00  0.00000000000E+00  0.12463881648E+02  0.12463881648E+02  0.00000000000E+00 0.  1.
          1   -1    0    0  501    0  0.00000000000E+00 -0.00000000000E+00 -0.14726304189E+04  0.14726304189E+04  0.00000000000E+00 0. -1.
         25    2    1    2    0    0 -0.99817592021E+01 -0.62081011023E+02 -0.10917471743E+04  0.11006873698E+04  0.12508839237E+03 0.  0.
          5    1    3    3  502    0  0.53011781303E+02 -0.50803167026E+02 -0.68167177692E+03  0.68562751884E+03  0.41800000000E+01 0. -1.
         -5    1    3    3    0  502 -0.62993540505E+02 -0.11277843997E+02 -0.41007539738E+03  0.41505985093E+03  0.41800000000E+01 0. -1.
        -11    1    1    2    0    0 -0.37429873119E+02  0.41861138988E+02 -0.22840286953E+03  0.23520463679E+03  0.00000000000E+00 0. -1.
         11    1    1    2    0    0  0.47411632321E+02  0.20219872035E+02 -0.14001649346E+03  0.14920229403E+03  0.00000000000E+00 0.  1.
</event>
<event>
 7    1  0.2989693E-009  0.1315928E+03  0.7561462E-02  0.1225111E+00
          1   -1    0    0  501    0  0.00000000000E+00  0.00000000000E+00  0.11553656834E+03  0.11553656834E+03  0.00000000000E+00 0. -1.
         -1   -1    0    0    0  501 -0.00000000000E+00 -0.00000000000E+00 -0.17594640810E+03  0.17594640810E+03  0.00000000000E+00 0.  1.
         25    2    1    2    0    0  0.61461613599E+02  0.66478607693E+02 -0.98839116407E+01  0.15473261952E+03  0.12509019389E+03 0.  0.
          5    1    3    3  502    0  0.56263303298E+02  0.10276235903E+03 -0.11581294494E+02  0.11780178485E+03  0.41800000000E+01 0. -1.
         -5    1    3    3    0  502  0.51983103014E+01 -0.36283751336E+02  0.16973828529E+01  0.36930834672E+02  0.41800000000E+01 0. -1.
        -11    1    1    2    0    0  0.10059796425E+02 -0.23644449754E+02 -0.46691634859E+02  0.53295105536E+02  0.00000000000E+00 0.  1.
         11    1    1    2    0    0 -0.71521410024E+02 -0.42834157939E+02 -0.38342932557E+01  0.83455251380E+02  0.00000000000E+00 0. -1.
</event>
<event>
 7    1  0.2989693E-009  0.9397681E+02  0.7561462E-02  0.1293497E+00
          4   -1    0    0  501    0  0.00000000000E+00  0.00000000000E+00  0.47729863214E+03  0.47729863214E+03  0.00000000000E+00 0.  1.
         -4   -1    0    0    0  501 -0.00000000000E+00 -0.00000000000E+00 -0.25299103102E+02  0.25299103102E+02  0.00000000000E+00 0. -1.
         25    2    1    2    0    0 -0.25002592097E+02  0.39010029620E+00  0.25985552158E+03  0.28947854011E+03  0.12509057239E+03 0.  0.
          5    1    3    3  502    0  0.22194472941E+02 -0.32660942785E+02  0.20829225937E+03  0.21204355573E+03  0.41800000000E+01 0.  1.
         -5    1    3    3    0  502 -0.47197065038E+02  0.33051043081E+02  0.51563262204E+02  0.77434984381E+02  0.41800000000E+01 0.  1.
        -11    1    1    2    0    0 -0.32285683207E+02  0.59737340650E+01  0.50953741498E+02  0.60616289984E+02  0.00000000000E+00 0. -1.
         11    1    1    2    0    0  0.57288275304E+02 -0.63638343612E+01  0.14119026596E+03  0.15250290515E+03  0.00000000000E+00 0.  1.
</event>
<event>
 7    1  0.2989693E-009  0.1360620E+03  0.7561462E-02  0.1218728E+00
         -2   -1    0    0    0  501 -0.00000000000E+00  0.00000000000E+00  0.44817388327E+02  0.44817388327E+02  0.00000000000E+00 0.  1.
          2   -1    0    0  501    0  0.00000000000E+00 -0.00000000000E+00 -0.45899663590E+03  0.45899663590E+03  0.00000000000E+00 0. -1.
         25    2    1    2    0    0 -0.65060586602E+01  0.94109307313E+02 -0.22552528740E+03  0.27460426591E+03  0.12508779749E+03 0.  0.
          5    1    3    3  502    0 -0.60727189889E+02  0.22784186521E+02 -0.73704355208E+02  0.98268586658E+02  0.41800000000E+01 0.  1.
         -5    1    3    3    0  502  0.54221131228E+02  0.71325120793E+02 -0.15182093219E+03  0.17633567925E+03  0.41800000000E+01 0.  1.
        -11    1    1    2    0    0 -0.22631895338E+02 -0.43234823598E+01 -0.89047456785E+02  0.91980132345E+02  0.00000000000E+00 0. -1.
         11    1    1    2    0    0  0.29137953998E+02 -0.89785824954E+02 -0.99606503393E+02  0.13722962597E+03  0.00000000000E+00 0.  1.
</event>
<event>
 7    1  0.2989693E-009  0.1672214E+03  0.7561462E-02  0.1180777E+00
         -3   -1    0    0    0  501 -0.00000000000E+00  0.00000000000E+00  0.20430990519E+03  0.20430990519E+03  0.00000000000E+00 0.  1.
          3   -1    0    0  501    0  0.00000000000E+00 -0.00000000000E+00 -0.14729120809E+03  0.14729120809E+03  0.00000000000E+00 0. -1.
         25    2    1    2    0    0 -0.10383131881E+03  0.72036326495E+02  0.64838744270E+02  0.18926625625E+03  0.12508987928E+03 0.  0.
          5    1    3    3  502    0  0.12025977768E+02  0.58851822087E+02  0.13059483462E+02  0.61613177264E+02  0.41800000000E+01 0.  1.
         -5    1    3    3    0  502 -0.11585729657E+03  0.13184504408E+02  0.51779260809E+02  0.12765307899E+03  0.41800000000E+01 0.  1.
        -11    1    1    2    0    0  0.22720524471E+02 -0.72978240409E+02  0.15381624050E+02  0.77965634506E+02  0.00000000000E+00 0.  1.
         11    1    1    2    0    0  0.81110794336E+02  0.94191391393E+00 -0.23201671222E+02  0.84369222511E+02  0.00000000000E+00 0. -1.
</event>
<event>
 6    1  0.2989693E-009  0.1786509E+03  0.7561462E-02  0.1169115E+00
         -2   -1    0    0    0  501 -0.00000000000E+00  0.00000000000E+00  0.29265016478E+02  0.29265016478E+02  0.00000000000E+00 0.  1.
          2   -1    0    0  501    0  0.00000000000E+00 -0.00000000000E+00 -0.12208232771E+04  0.12208232771E+04  0.00000000000E+00 0. -1.
          5    1    1    2  502    0 -0.15698262526E+03  0.40652988959E+02 -0.42590592597E+03  0.45575162131E+03  0.41800000000E+01 0.  1.
         -5    1    1    2    0  502  0.15876423996E+02  0.22420876430E+02 -0.17478002517E+03  0.17697538286E+03  0.41800000000E+01 0.  1.
        -11    1    1    2    0    0  0.44817278264E+01 -0.25096233846E+02 -0.32730139599E+02  0.41486972362E+02  0.00000000000E+00 0.  1.
         11    1    1    2    0    0  0.13662447344E+03 -0.37977631543E+02 -0.55814216984E+03  0.57587431702E+03  0.00000000000E+00 0. -1.
</event>
<event>
 7    1  0.2989693E-009  0.7618822E+02  0.7561462E-02  0.1340230E+00
          1   -1    0    0  501    0  0.00000000000E+00  0.00000000000E+00  0.11756082052E+03  0.11756082052E+03  0.00000000000E+00 0. -1.
         -1   -1    0    0    0  501 -0.00000000000E+00 -0.00000000000E+00 -0.11941175248E+03  0.11941175248E+03  0.00000000000E+00 0.  1.
         25    2    1    2    0    0  0.36257490280E+02 -0.15089459975E+02 -0.21299422751E+01  0.13112341081E+03  0.12508602961E+03 0.  0.
          5    1    3    3  502    0  0.11657463684E+02 -0.22291097970E+02  0.59234053874E+02  0.64489805757E+02  0.41800000000E+01 0. -1.
         -5    1    3    3    0  502  0.24600026597E+02  0.72016379954E+01 -0.61363996149E+02  0.66633605048E+02  0.41800000000E+01 0. -1.
        -11    1    1    2    0    0 -0.39942567618E+02  0.51014763169E+02 -0.15211983373E+02  0.66553130709E+02  0.00000000000E+00 0.  1.
         11    1    1    2    0    0  0.36850773372E+01 -0.35925303194E+02  0.15490993689E+02  0.39296031479E+02  0.00000000000E+00 0. -1.
</event>
<event>
 7    1  0.2989693E-009  0.9454182E+02  0.7561462E-02  0.1292211E+00
          1   -1    0    0  501    0  0.00000000000E+00  0.00000000000E+00  0.14841708814E+02  0.14841708814E+02  0.00000000000E+00 0.  1.
         -1   -1    0    0    0  501 -0.00000000000E+00 -0.00000000000E+00 -0.86456266462E+03  0.86456266462E+03  0.00000000000E+00 0. -1.
         25    2    1    2    0    0 -0.14420007015E+02 -0.19813720636E+02 -0.54180127891E+03  0.55659416110E+03  0.12509162328E+03 0.  0.
          5    1    3    3  502    0 -0.70361240116E+01  0.36495364185E+02 -0.55233874364E+02  0.66705861252E+02  0.41800000000E+01 0.  1.
         -5    1    3    3    0  502 -0.73838830029E+01 -0.56309084821E+02 -0.48656740454E+03  0.48988829984E+03  0.41800000000E+01 0.  1.
        -11    1    1    2    0    0  0.49606603431E+02  0.30166788118E+02 -0.22032813632E+03  0.22784937539E+03  0.00000000000E+00 0.  1.
         11    1    1    2    0    0 -0.35186596417E+02 -0.10353067482E+02 -0.87591540583E+02  0.94960836956E+02  0.00000000000E+00 0. -1.
</event>
<event>
 7    1  0.2989693E-009  0.1720785E+03  0.7561462E-02  0.1175698E+00
         -1   -1    0    0    0  501 -0.00000000000E+00  0.00000000000E+00  0.66335552505E+02  0.66335552505E+02  0.00000000000E+00 0.  1.
          1   -1    0    0  501    0  0.00000000000E+00 -0.00000000000E+00 -0.51339099983E+03  0.51339099983E+03  0.00000000000E+00 0. -1.
         25    2    1    2    0    0 -0.36930008287E+02  0.14014277664E+03 -0.17973850405E+03  0.26259769008E+03  0.12509114132E+03 0.  0.
          5    1    3    3  502    0  0.24017901618E+02  0.11334486885E+03 -0.14994008259E+03  0.18953474526E+03  0.41800000000E+01 0. -1.
         -5    1    3    3    0  502 -0.60947909905E+02  0.26797907799E+02 -0.29798421459E+02  0.73062944819E+02  0.41800000000E+01 0. -1.
        -11    1    1    2    0    0  0.58566685830E+02 -0.99074980169E+02 -0.23138502146E+03  0.25842781689E+03  0.00000000000E+00 0. -1.
         11    1    1    2    0    0 -0.21636677543E+02 -0.41067796476E+02 -0.35931921808E+02  0.58701045368E+02  0.00000000000E+00 0.  1.
</event>
<event>
 7    1  0.2989693E-009  0.1154448E+03  0.7561462E-02  0.1250807E+00
          2   -1    0    0  501    0  0.00000000000E+00  0.00000000000E+00  0.11153773027E+03  0.11153773027E+03  0.00000000000E+00 0.  1.
         -2   -1    0    0    0  501 -0.00000000000E+00 -0.00000000000E+00 -0.22034164791E+03  0.22034164791E+03  0.00000000000E+00 0. -1.
         25    2    1    2    0    0 -0.56973595594E+02 -0.56407187919E+02 -0.12992210155E+03  0.19737055945E+03  0.12509046256E+03 0.  0.
          5    1    3    3  502    0 -0.57459976878E+02 -0.93421159895E+02 -0.83844617018E+02  0.13811789986E+03  0.41800000000E+01 0.  1.
         -5    1    3    3    0  502  0.48638128417E+00  0.37013971976E+02 -0.46077484531E+02  0.59252659594E+02  0.41800000000E+01 0.  1.
        -11    1    1    2    0    0  0.39230169914E+02  0.21532576255E+02 -0.41263137521E+02  0.60871213145E+02  0.00000000000E+00 0. -1.
         11    1    1    2    0    0  0.17743425679E+02  0.34874611664E+02  0.62381321429E+02  0.73637605588E+02  0.00000000000E+00 0.  1.
</event>
<event>
 7    1  0.2989693E-009  0.9604382E+02  0.7561462E-02  0.1288842E+00
          2   -1    0    0  501    0  0.00000000000E+00  0.00000000000E+00  0.18792339166E+03  0.18792339166E+03  0.00000000000E+00 0. -1.
         -2   -1    0    0    0  501 -0.00000000000E+00 -0.00000000000E+00 -0.71182597412E+02  0.71182597412E+02  0.00000000000E+00 0.  1.
         25    2    1    2    0    0 -0.46280256007E+01  0.41802550559E+02  0.36826206623E+02  0.13701408117E+03  0.12509123506E+03 0.  0.
          5    1    3    3  502    0 -0.47500636356E+02  0.16157066541E+02  0.62850549855E+02  0.80529654603E+02  0.41800000000E+01 0.  1.
         -5    1    3    3    0  502  0.42872610755E+02  0.25645484018E+02 -0.26024343231E+02  0.56484426563E+02  0.41800000000E+01 0.  1.
        -11    1    1    2    0    0 -0.44464866656E+00 -0.66446420804E+02  0.51003512292E+02  0.83765642218E+02  0.00000000000E+00 0. -1.
         11    1    1    2    0    0  0.50726742672E+01  0.24643870245E+02  0.28911075337E+02  0.38326265694E+02  0.00000000000E+00 0.  1.
</event>
<event>
 7    1  0.2989693E-009  0.1003559E+03  0.7561462E-02  0.1279549E+00
          1   -1    0    0  501    0  0.00000000000E+00  0.00000000000E+00  0.99056404524E+02  0.99056404524E+02  0.00000000000E+00 0.  1.
         -1   -1    0    0    0  501 -0.00000000000E+00 -0.00000000000E+00 -0.12420706972E+03  0.12420706972E+03  0.00000000000E+00 0. -1.
         25    2    1    2    0    0 -0.11362319132E+02 -0.58759574347E+01 -0.29506185793E+02  0.12916636922E+03  0.12509878803E+03 0.  0.
          5    1    3    3  502    0  0.12696750575E+02  0.46820702102E+02 -0.47841001576E+02  0.68261405291E+02  0.41800000000E+01 0. -1.
         -5    1    3    3    0  502 -0.24059069707E+02 -0.52696659537E+02  0.18334815783E+02  0.60904963930E+02  0.41800000000E+01 0. -1.
        -11    1    1    2    0    0 -0.65657953836E+01  0.47849938578E+02  0.62332536217E+00  0.48302327329E+02  0.00000000000E+00 0. -1.
         11    1    1    2    0    0  0.17928114516E+02 -0.41973981143E+02  0.37321952302E+01  0.45794777697E+02  0.00000000000E+00 0.  1.
</event>
<event>
 7    1  0.2989693E-009  0.1228494E+03  0.7561462E-02  0.1238469E+00
         -1   -1    0    0    0  501 -0.00000000000E+00  0.00000000000E+00  0.63339071840E+02  0.63339071840E+02  0.00000000000E+00 0.  1.
          1   -1    0    0  501    0  0.00000000000E+00 -0.00000000000E+00 -0.24355526683E+03  0.24355526683E+03  0.00000000000E+00 0. -1.
         25    2    1    2    0    0 -0.27513981596E+02  0.41867833138E+02 -0.10248314844E+03  0.16929136702E+03  0.12508731589E+03 0.  0.
          5    1    3    3  502    0 -0.24081068384E+02 -0.43090260989E+02 -0.40486470309E+02  0.63978864672E+02  0.41800000000E+01 0. -1.
         -5    1    3    3    0  502 -0.34329132115E+01  0.84958094128E+02 -0.61996678131E+02  0.10531250235E+03  0.41800000000E+01 0. -1.
        -11    1    1    2    0    0 -0.23948264643E+02 -0.53193339643E+02 -0.26374421813E+02  0.64020784811E+02  0.00000000000E+00 0. -1.
         11    1    1    2    0    0  0.51462246239E+02  0.11325506505E+02 -0.51358624732E+02  0.73582186838E+02  0.00000000000E+00 0.  1.
</event>
<event>
 7    1  0.2989693E-009  0.3417959E+03  0.7561462E-02  0.1066034E+00
          2   -1    0    0  501    0  0.00000000000E+00  0.00000000000E+00  0.40458174706E+04  0.40458174706E+04  0.00000000000E+00 0. -1.
         -2   -1    0    0    0  501 -0.00000000000E+00 -0.00000000000E+00 -0.30079803902E+02  0.30079803902E+02  0.00000000000E+00 0.  1.
         25    2    1    2    0    0  0.38202423740E+02 -0.32923253487E+03  0.22554290172E+04  0.22830815047E+04  0.12509044073E+03 0.  0.
          5    1    3    3  502    0  0.72424756450E+02 -0.21967396501E+03  0.12613849287E+04  0.12824240356E+04  0.41800000000E+01 0.  1.
         -5    1    3    3    0  502 -0.34222332711E+02 -0.10955856986E+03  0.99404408847E+03  0.10006574691E+04  0.41800000000E+01 0.  1.
        -11    1    1    2    0    0  0.10037746597E+02  0.18570844470E+03  0.10761640102E+04  0.10921160010E+04  0.00000000000E+00 0.  1.
         11    1    1    2    0    0 -0.48240170336E+02  0.14352409017E+03  0.68414463929E+03  0.70069976878E+03  0.00000000000E+00 0. -1.
</event>
<event>
 7    1  0.2989693E-009  0.1150033E+03  0.7561462E-02  0.1251575E+00
          1   -1    0    0  501    0  0.00000000000E+00  0.00000000000E+00  0.74513731899E+03  0.74513731899E+03  0.00000000000E+00 0. -1.
         -1   -1    0    0    0  501 -0.00000000000E+00 -0.00000000000E+00 -0.26069830920E+02  0.26069830920E+02  0.00000000000E+00 0.  1.
         25    2    1    2    0    0 -0.40101707761E+02 -0.52653801650E+02  0.55431769220E+03  0.57209591864E+03  0.12508023999E+03 0.  0.
          5    1    3    3  502    0 -0.64662944164E+02  0.22000384720E+01  0.15139320368E+03  0.16469217054E+03  0.41800000000E+01 0. -1.
         -5    1    3    3    0  502  0.24561236403E+02 -0.54853840122E+02  0.40292448852E+03  0.40740374809E+03  0.41800000000E+01 0. -1.
        -11    1    1    2    0    0 -0.21750023345E+02 -0.27045675338E+01  0.11323546385E+02  0.24669837936E+02  0.00000000000E+00 0.  1.
         11    1    1    2    0    0  0.61851731106E+02  0.55358369184E+02  0.15342624948E+03  0.17444139334E+03  0.00000000000E+00 0. -1.
</event>
<event>
 7    1  0.2989693E-009  0.6528306E+02  0.7561462E-02  0.1376910E+00
          1   -1    0    0  501    0  0.00000000000E+00  0.00000000000E+00  0.47189781460E+02  0.47189781460E+02  0.00000000000E+00 0. -1.
         -1   -1    0    0    0  501 -0.00000000000E+00 -0.00000000000E+00 -0.26750737784E+03  0.26750737784E+03  0.00000000000E+00 0.  1.
         25    2    1    2    0    0  0.14956878741E+02 -0.25916539565E+02 -0.13296282034E+03  0.18499214209E+03  0.12509039051E+03 0.  0.
          5    1    3    3  502    0 -0.15715201784E+02  0.18314010369E+02 -0.12850872339E+03  0.13082176780E+03  0.41800000000E+01 0. -1.
         -5    1    3    3    0  502  0.30672080525E+02 -0.44230549934E+02 -0.44540969477E+01  0.54170374291E+02  0.41800000000E+01 0. -1.
        -11    1    1    2    0    0  0.98239479164E+01 -0.61283144200E+01  0.15392143575E+02  0.19260952056E+02  0.00000000000E+00 0. -1.
         11    1    1    2    0    0 -0.24780826658E+02  0.32044853985E+02 -0.10274691962E+03  0.11044406515E+03  0.00000000000E+00 0.  1.
</event>
<event>
 7    1  0.2989693E-009  0.1124548E+03  0.7561462E-02  0.1256090E+00
          1   -1    0    0  501    0  0.00000000000E+00  0.00000000000E+00  0.39459255970E+03  0.39459255970E+03  0.00000000000E+00 0. -1.
         -1   -1    0    0    0  501 -0.00000000000E+00 -0.00000000000E+00 -0.43185824573E+02  0.43185824573E+02  0.00000000000E+00 0.  1.
         25    2    1    2    0    0  0.15470166048E+02 -0.71233800759E+02  0.18108222100E+03  0.23184516772E+03  0.12509128915E+03 0.  0.
          5    1    3    3  502    0 -0.44942887079E+02  0.39337615698E+01  0.80924294394E+02  0.92744549178E+02  0.41800000000E+01 0. -1.
         -5    1    3    3    0  502  0.60413053128E+02 -0.75167562328E+02  0.10015792661E+03  0.13910061854E+03  0.41800000000E+01 0. -1.
        -11    1    1    2    0    0  0.12601718179E+02  0.35261889277E+02  0.93207603492E+01  0.38588608551E+02  0.00000000000E+00 0.  1.
         11    1    1    2    0    0 -0.28071884227E+02  0.35971911482E+02  0.16100375377E+03  0.16734460801E+03  0.00000000000E+00 0. -1.
</event>
<event>
 6    1  0.2989693E-009  0.1715308E+03  0.7561462E-02  0.1176261E+00
          1   -1    0    0  501    0  0.00000000000E+00  0.00000000000E+00  0.99362919470E+02  0.99362919470E+02  0.00000000000E+00 0. -1.
         -1   -1    0    0    0  501 -0.00000000000E+00 -0.00000000000E+00 -0.34128182999E+03  0.34128182999E+03  0.00000000000E+00 0.  1.
          5    1    1    2  502    0 -0.19447390499E+01  0.11860649424E+03 -0.39830499030E+02  0.12520073298E+03  0.41800000000E+01 0.  1.
         -5    1    1    2    0  502 -0.69304050479E+02  0.94172245670E+01 -0.58195889317E+02  0.91082212669E+02  0.41800000000E+01 0.  1.
        -11    1    1    2    0    0  0.45111423159E+02 -0.33393432167E+02 -0.10442340216E+03  0.11855129156E+03  0.00000000000E+00 0.  1.
         11    1    1    2    0    0  0.26137366370E+02 -0.94630286637E+02 -0.39469120018E+02  0.10581051226E+03  0.00000000000E+00 0. -1.
</event>
<event>
 7    1  0.2989693E-009  0.8635414E+02  0.7561462E-02  0.1311929E+00
         -3   -1    0    0    0  501 -0.00000000000E+00  0.00000000000E+00  0.91086891306E+02  0.91086891306E+02  0.00000000000E+00 0.  1.
          3   -1    0    0  501    0  0.00000000000E+00 -0.00000000000E+00 -0.18138778874E+03  0.18138778874E+03  0.00000000000E+00 0. -1.
         25    2    1    2    0    0 -0.16365865408E+02 -0.21387205085E+02  0.13360890331E+02  0.12865215882E+03  0.12509040925E+03 0.  0.
          5    1    3    3  502    0 -0.51570548429E+02  0.29413391844E+02  0.26786604952E+02  0.65266099086E+02  0.41800000000E+01 0.  1.
         -5    1    3    3    0  502  0.35204683021E+02 -0.50800596929E+02 -0.13425714621E+02  0.63386059729E+02  0.41800000000E+01 0.  1.
        -11    1    1    2    0    0 -0.55842201464E+01  0.27817056000E+02  0.82898200279E+01  0.29558302307E+02  0.00000000000E+00 0.  1.
         11    1    1    2    0    0  0.21950085555E+02 -0.64298509153E+01 -0.11195160779E+03  0.11426421892E+03  0.00000000000E+00 0. -1.
</event>
<event>
 7    1  0.2989693E-009  0.9688265E+02  0.7561462E-02  0.1286991E+00
          3   -1    0    0  501    0  0.00000000000E+00  0.00000000000E+00  0.25492773592E+03  0.25492773592E+03  0.00000000000E+00 0. -1.
         -3   -1    0    0    0  501 -0.00000000000E+00 -0.00000000000E+00 -0.62817394941E+02  0.62817394941E+02  0.00000000000E+00 0.  1.
         25    2    1    2    0    0 -0.14709018824E+02  0.70744509929E+01  0.18405915956E+03  0.22313922963E+03  0.12508772317E+03 0.  0.
          5    1    3    3  502    0 -0.59415021247E+02  0.32891164703E+01  0.16266496666E+03  0.17325797763E+03  0.41800000000E+01 0. -1.
         -5    1    3    3    0  502  0.44706002424E+02  0.37853345225E+01  0.21394192904E+02  0.49881251991E+02  0.41800000000E+01 0. -1.
        -11    1    1    2    0    0 -0.17312367715E+01  0.39563630334E+02  0.19052125112E+02  0.43946120389E+02  0.00000000000E+00 0. -1.
         11    1    1    2    0    0  0.16440255595E+02 -0.46638081327E+02 -0.11000943687E+02  0.50659780851E+02  0.00000000000E+00 0.  1.
</event>
<event>
 7    1  0.2989693E-009  0.7468237E+02  0.7561462E-02  0.1344857E+00
         -1   -1    0    0    0  501 -0.00000000000E+00  0.00000000000E+00  0.24829730132E+02  0.24829730132E+02  0.00000000000E+00 0.  1.
          1   -1    0    0  501    0  0.00000000000E+00 -0.00000000000E+00 -0.56899035816E+03  0.56899035816E+03  0.00000000000E+00 0. -1.
         25    2    1    2    0    0  0.38857337669E+02 -0.18451262672E+02 -0.25417201862E+03  0.28653318844E+03  0.12509001255E+03 0.  0.
          5    1    3    3  502    0  0.41872895238E+02 -0.86857060111E+01 -0.26652381534E+03  0.26996517810E+03  0.41800000000E+01 0.  1.
         -5    1    3    3    0  502 -0.30155575690E+01 -0.97655566610E+01  0.12351796717E+02  0.16568010336E+02  0.41800000000E+01 0.  1.
        -11    1    1    2    0    0  0.46491863360E+01 -0.29929775148E+02 -0.48453795466E+02  0.57141724415E+02  0.00000000000E+00 0.  1.
         11    1    1    2    0    0 -0.43506524005E+02  0.48381037820E+02 -0.24153481394E+03  0.25014517544E+03  0.00000000000E+00 0. -1.
</event>
<event>
 7    1  0.2989693E-009  0.9981443E+02  0.7561462E-02  0.1280687E+00
          1   -1    0    0  501    0  0.00000000000E+00  0.00000000000E+00  0.45937726703E+03  0.45937726703E+03  0.00000000000E+00 0. -1.
         -1   -1    0    0    0  501 -0.00000000000E+00 -0.00000000000E+00 -0.41111228617E+02  0.41111228617E+02  0.00000000000E+00 0.  1.
         25    2    1    2    0    0 -0.41513421574E+02  0.42538453418E+02  0.33915275143E+03  0.36633355845E+03  0.12507119194E+03 0.  0.
          5    1    3    3  502    0 -0.79866722105E+02  0.35061463532E+02  0.29290097478E+03  0.30564105246E+03  0.41800000000E+01 0.  1.
         -5    1    3    3    0  502  0.38353300531E+02  0.74769898861E+01  0.46251776650E+02  0.60692505985E+02  0.41800000000E+01 0.  1.
        -11    1    1    2    0    0  0.47128927838E+02 -0.22552957055E+02  0.94726218221E+02  0.10817961051E+03  0.00000000000E+00 0. -1.
         11    1    1    2    0    0 -0.56155062636E+01 -0.19985496363E+02 -0.15612931231E+02  0.25975326698E+02  0.00000000000E+00 0.  1.
</event>
<event>
 7    1  0.2989693E-009  0.8870970E+02  0.7561462E-02  0.1306007E+00
         -1   -1    0    0    0  501 -0.00000000000E+00  0.00000000000E+00  0.18358867608E+03  0.18358867608E+03  0.00000000000E+00 0.  1.
          1   -1    0    0  501    0  0.00000000000E+00 -0.00000000000E+00 -0.79953292631E+02  0.79953292631E+02  0.00000000000E+00 0. -1.
         25    2    1    2    0    0 -0.14183848558E+01  0.39606874545E+02  0.99370345529E+02  0.16459869062E+03  0.12509015571E+03 0.  0.
          5    1    3    3  502    0  0.15152399986E+02  0.68640672721E+02  0.12624267841E+02  0.71540070698E+02  0.41800000000E+01 0. -1.
         -5    1    3    3    0  502 -0.16570784842E+02 -0.29033798176E+02  0.86746077688E+02  0.93058619918E+02  0.41800000000E+01 0. -1.
        -11    1    1    2    0    0 -0.27394306871E+01  0.16663970882E+02 -0.28915713846E+02  0.33485980847E+02  0.00000000000E+00 0. -1.
         11    1    1    2    0    0  0.41578155429E+01 -0.56270845427E+02  0.33180751763E+02  0.65457297245E+02  0.00000000000E+00 0.  1.
</event>
<event>
 7    1  0.2989693E-009  0.1216302E+03  0.7561462E-02  0.1240432E+00
         -2   -1    0    0    0  501 -0.00000000000E+00  0.00000000000E+00  0.29362965790E+02  0.29362965790E+02  0.00000000000E+00 0. -1.
          2   -1    0    0  501    0  0.00000000000E+00 -0.00000000000E+00 -0.50898346578E+03  0.50898346578E+03  0.00000000000E+00 0.  1.
         25    2    1    2    0    0  0.50318153758E+01  0.57328815358E+02 -0.26810320224E+03  0.30139633923E+03  0.12509402068E+03 0.  0.
          5    1    3    3  502    0  0.64353086654E+02  0.32067518071E+02 -0.15988012256E+03  0.17535327618E+03  0.41800000000E+01 0. -1.
         -5    1    3    3    0  502 -0.59321271278E+02  0.25261297287E+02 -0.10822307968E+03  0.12604306305E+03  0.41800000000E+01 0. -1.
        -11    1    1    2    0    0  0.19583509794E+02  0.18477623337E+02 -0.47760947857E+02  0.54827407017E+02  0.00000000000E+00 0. -1.
         11    1    1    2    0    0 -0.24615325170E+02 -0.75806438695E+02 -0.16375634989E+03  0.18212268533E+03  0.00000000000E+00 0.  1.
</event>
<event>
 7    1  0.2989693E-009  0.1217619E+03  0.7561462E-02  0.1240219E+00
         -2   -1    0    0    0  501 -0.00000000000E+00  0.00000000000E+00  0.43773970985E+03  0.43773970985E+03  0.00000000000E+00 0.  1.
          2   -1    0    0  501    0  0.00000000000E+00 -0.00000000000E+00 -0.47327826504E+02  0.47327826504E+02  0.00000000000E+00 0. -1.
         25    2    1    2    0    0  0.38241404080E+02 -0.52103107920E+02  0.32863966112E+03  0.35753483749E+03  0.12509993732E+03 0.  0.
          5    1    3    3  502    0  0.78499293392E+02 -0.85585925712E+01  0.15509635089E+03  0.17409118022E+03  0.41800000000E+01 0. -1.
         -5    1    3    3    0  502 -0.40257889312E+02 -0.43544515349E+02  0.17354331023E+03  0.18344365728E+03  0.41800000000E+01 0. -1.
        -11    1    1    2    0    0 -0.63300583922E+02  0.24924929123E+02  0.18264032823E+02  0.70439980917E+02  0.00000000000E+00 0. -1.
         11    1    1    2    0    0  0.25059179842E+02  0.27178178797E+02  0.43508189398E+02  0.57092717940E+02  0.00000000000E+00 0.  1.
</event>
<event>
 7    1  0.2989693E-009  0.3023471E+03  0.7561462E-02  0.1084073E+00
          3   -1    0    0  501    0  0.00000000000E+00  0.00000000000E+00  0.18252315003E+03  0.18252315003E+03  0.00000000000E+00 0. -1.
         -3   -1    0    0    0  501 -0.00000000000E+00 -0.00000000000E+00 -0.55562980129E+03  0.55562980129E+03  0.00000000000E+00 0.  1.
         25    2    1    2    0    0  0.11918389074E+03  0.25981304746E+03 -0.87702711455E+02  0.32410646730E+03  0.12508244124E+03 0.  0.
          5    1    3    3  502    0  0.27440926311E+01 -0.12387821054E+02  0.43306457916E+01  0.14043327519E+02  0.41800000000E+01 0.  1.
         -5    1    3    3    0  502  0.11643979811E+03  0.27220086851E+03 -0.92033357246E+02  0.31006313978E+03  0.41800000000E+01 0.  1.
        -11    1    1    2    0    0 -0.50850996560E+02 -0.19333681303E+03 -0.22595360738E+03  0.30169517698E+03  0.00000000000E+00 0.  1.
         11    1    1    2    0    0 -0.68332894180E+02 -0.66476234431E+02 -0.59450332426E+02  0.11235130705E+03  0.00000000000E+00 0. -1.
</event>
<event>
 7    1  0.2989693E-009  0.1198006E+03  0.7561462E-02  0.1243426E+00
          1   -1    0    0  501    0  0.00000000000E+00  0.00000000000E+00  0.63427955844E+03  0.63427955844E+03  0.00000000000E+00 0. -1.
         -1   -1    0    0    0  501 -0.00000000000E+00 -0.00000000000E+00 -0.40794253037E+02  0.40794253037E+02  0.00000000000E+00 0.  1.
         25    2    1    2    0    0 -0.73869605476E+02 -0.51491437190E+02  0.47848406294E+03  0.50269515885E+03  0.12508931821E+03 0.  0.
          5    1    3    3  502    0 -0.74843457487E+02  0.12167431259E+02  0.36201895728E+03  0.36989834731E+03  0.41800000000E+01 0. -1.
         -5    1    3    3    0  502  0.97385201116E+00 -0.63658868449E+02  0.11646510566E+03  0.13279681154E+03  0.41800000000E+01 0. -1.
        -11    1    1    2    0    0  0.52338700007E+02  0.57250319281E+02  0.12566008892E+03  0.14767327627E+03  0.00000000000E+00 0. -1.
         11    1    1    2    0    0  0.21530905469E+02 -0.57588820908E+01 -0.10658846454E+02  0.24705376358E+02  0.00000000000E+00 0.  1.
</event>
<event>
 7    1  0.2989693E-009  0.9633566E+02  0.7561462E-02  0.1288196E+00
         -1   -1    0    0    0  501 -0.00000000000E+00  0.00000000000E+00  0.16161824978E+03  0.16161824978E+03  0.00000000000E+00 0.  1.
          1   -1    0    0  501    0  0.00000000000E+00 -0.00000000000E+00 -0.95962265423E+02  0.95962265423E+02  0.00000000000E+00 0. -1.
         25    2    1    2    0    0 -0.66059432175E+02  0.79401040057E+01  0.49836315713E+02  0.15019108976E+03  0.12508721457E+03 0.  0.
          5    1    3    3  502    0 -0.17208811646E+02 -0.32856030843E+02 -0.30083933998E+02  0.47939310027E+02  0.41800000000E+01 0.  1.
         -5    1    3    3    0  502 -0.48850620528E+02  0.40796134849E+02  0.79920249711E+02  0.10225177973E+03  0.41800000000E+01 0.  1.
        -11    1    1    2    0    0  0.21419714243E+02  0.27293585489E+02 -0.20128390438E+02  0.40111046717E+02  0.00000000000E+00 0. -1.
         11    1    1    2    0    0  0.44639717931E+02 -0.35233689494E+02  0.35948059082E+02  0.67278378727E+02  0.00000000000E+00 0.  1.
</event>
<event>
 7    1  0.2989693E-009  0.1468796E+03  0.7561462E-02  0.1204361E+00
         -2   -1    0    0    0  501 -0.00000000000E+00  0.00000000000E+00  0.10605670419E+03  0.10605670419E+03  0.00000000000E+00 0.  1.
          2   -1    0    0  501    0  0.00000000000E+00 -0.00000000000E+00 -0.25607146517E+03  0.25607146517E+03  0.00000000000E+00 0. -1.
         25    2    1    2    0    0 -0.11215429818E+03 -0.50336979942E+02 -0.80193906922E+02  0.19284963255E+03  0.12509004724E+03 0.  0.
          5    1    3    3  502    0 -0.45719899808E+02 -0.83624558072E+02 -0.68657451257E+02  0.11753592627E+03  0.41800000000E+01 0.  1.
         -5    1    3    3    0  502 -0.66434398367E+02  0.33287578130E+02 -0.11536455665E+02  0.75313706279E+02  0.41800000000E+01 0.  1.
        -11    1    1    2    0    0  0.95893832000E+02  0.36570192322E+02 -0.69155750877E+01  0.10286316717E+03  0.00000000000E+00 0.  1.
         11    1    1    2    0    0  0.16260466176E+02  0.13766787621E+02 -0.62905278975E+02  0.66415369641E+02  0.00000000000E+00 0. -1.
</event>
<event>
 7    1  0.2989693E-009  0.1288234E+03  0.7561462E-02  0.1229212E+00
         -1   -1    0    0    0  501 -0.00000000000E+00  0.00000000000E+00  0.47062377553E+02  0.47062377553E+02  0.00000000000E+00 0.  1.
          1   -1    0    0  501    0  0.00000000000E+00 -0.00000000000E+00 -0.37420446784E+03  0.37420446784E+03  0.00000000000E+00 0. -1.
         25    2    1    2    0    0  0.17827739343E+02 -0.67613938678E+02 -0.22755227500E+03  0.26891775128E+03  0.12508895276E+03 0.  0.
          5    1    3    3  502    0 -0.53105133705E+02 -0.17461776117E+02 -0.81139638738E+02  0.98621408556E+02  0.41800000000E+01 0. -1.
         -5    1    3    3    0  502  0.70932873048E+02 -0.50152162561E+02 -0.14641263626E+03  0.17029634272E+03  0.41800000000E+01 0. -1.
        -11    1    1    2    0    0 -0.50092578882E+02  0.13948557832E+02 -0.53432483300E+02  0.74557756111E+02  0.00000000000E+00 0.  1.
         11    1    1    2    0    0  0.32264839540E+02  0.53665380846E+02 -0.46157331991E+02  0.77791338004E+02  0.00000000000E+00 0. -1.
</event>
<event>
 7    1  0.2989693E-009  0.9928882E+02  0.7561462E-02  0.1281799E+00
         -2   -1    0    0    0  501 -0.00000000000E+00  0.00000000000E+00  0.18192811752E+03  0.18192811752E+03  0.00000000000E+00 0.  1.
          2   -1    0    0  501    0  0.00000000000E+00 -0.00000000000E+00 -0.74697212668E+02  0.74697212668E+02  0.00000000000E+00 0. -1.
         25    2    1    2    0    0 -0.35794733208E+02  0.23788571966E+02  0.60923364053E+02  0.14562935034E+03  0.12509633213E+03 0.  0.
          5    1    3    3  502    0  0.40411882344E+02 -0.17550559074E+02  0.30095348905E+02  0.53519573841E+02  0.41800000000E+01 0.  1.
         -5    1    3    3    0  502 -0.76206615552E+02  0.41339131040E+02  0.30828015148E+02  0.92109776501E+02  0.41800000000E+01 0.  1.
        -11    1    1    2    0    0 -0.41997029041E+01 -0.27070944423E+02 -0.19703416591E+02  0.33744601965E+02  0.00000000000E+00 0. -1.
         11    1    1    2    0    0  0.39994436112E+02  0.32823724574E+01  0.66010957388E+02  0.77251377878E+02  0.00000000000E+00 0.  1.
</event>
<event>
 7    1  0.2989693E-009  0.3663597E+03  0.7561462E-02  0.1056094E+00
         -1   -1    0    0    0  501 -0.00000000000E+00  0.00000000000E+00  0.12248444635E+03  0.12248444635E+03  0.00000000000E+00 0.  1.
          1   -1    0    0  501    0  0.00000000000E+00 -0.00000000000E+00 -0.14531668498E+04  0.14531668498E+04  0.00000000000E+00 0. -1.
         25    2    1    2    0    0 -0.35939823222E+03 -0.20527690230E+02 -0.31558234204E+03  0.49480016263E+03  0.12508601419E+03 0.  0.
          5    1    3    3  502    0 -0.22137638686E+03 -0.56924710044E+02 -0.13843822934E+03  0.26726493039E+03  0.41800000000E+01 0. -1.
         -5    1    3    3    0  502 -0.13802184536E+03  0.36397019813E+02 -0.17714411270E+03  0.22753523224E+03  0.41800000000E+01 0. -1.
        -11    1    1    2    0    0  0.16627675009E+03 -0.58936108463E+01 -0.34579753975E+03  0.38374292276E+03  0.00000000000E+00 0. -1.
         11    1    1    2    0    0  0.19312148214E+03  0.26421301077E+02 -0.66930252168E+03  0.69710821079E+03  0.00000000000E+00 0.  1.
</event>
<event>
 7    1  0.2989693E-009  0.7998899E+02  0.7561462E-02  0.1329083E+00
         -2   -1    0    0    0  501 -0.00000000000E+00  0.00000000000E+00  0.51962271456E+02  0.51962271456E+02  0.00000000000E+00 0.  1.
          2   -1    0    0  501    0  0.00000000000E+00 -0.00000000000E+00 -0.24262923975E+03  0.24262923975E+03  0.00000000000E+00 0. -1.
         25    2    1    2    0    0 -0.19810621821E+02 -0.11977463892E+02 -0.88345519160E+02  0.15488218836E+03  0.12509053177E+03 0.  0.
          5    1    3    3  502    0 -0.21990531822E+02 -0.44316166002E+02 -0.10649534417E+03  0.11749994378E+03  0.41800000000E+01 0. -1.
         -5    1    3    3    0  502  0.21799100017E+01  0.32338702110E+02  0.18149825010E+02  0.37382244578E+02  0.41800000000E+01 0. -1.
        -11    1    1    2    0    0  0.20974389106E+02 -0.29477287615E+02 -0.85466555541E+01  0.37173657403E+02  0.00000000000E+00 0.  1.
         11    1    1    2    0    0 -0.11637672854E+01  0.41454751507E+02 -0.93774793584E+02  0.10253566545E+03  0.00000000000E+00 0. -1.
</event>
<event>
 7    1  0.2989693E-009  0.1418782E+03  0.7561462E-02  0.1210824E+00
         -2   -1    0    0    0  501 -0.00000000000E+00  0.00000000000E+00  0.14888820901E+02  0.14888820901E+02  0.00000000000E+00 0.  1.
          2   -1    0    0  501    0  0.00000000000E+00 -0.00000000000E+00 -0.35150736262E+04  0.35150736262E+04  0.00000000000E+00 0. -1.
         25    2    1    2    0    0 -0.41489294206E+02  0.93978682497E+02 -0.31431739310E+04  0.31473387928E+04  0.12508301986E+03 0.  0.
          5    1    3    3  502    0  0.12781561849E+02 -0.24558928435E+02 -0.84730296024E+03  0.84776546764E+03  0.41800000000E+01 0.  1.
         -5    1    3    3    0  502 -0.54270856055E+02  0.11853761093E+03 -0.22958709707E+04  0.22995733251E+04  0.41800000000E+01 0.  1.
        -11    1    1    2    0    0 -0.17752640611E+02 -0.45262027099E+02 -0.67901126605E+02  0.83512695682E+02  0.00000000000E+00 0.  1.
         11    1    1    2    0    0  0.59241934818E+02 -0.48716655398E+02 -0.28910974771E+03  0.29911095863E+03  0.00000000000E+00 0. -1.
</event>
<event>
 7    1  0.2989693E-009  0.1209628E+03  0.7561462E-02  0.1241517E+00
         -1   -1    0    0    0  501 -0.00000000000E+00  0.00000000000E+00  0.17685449299E+03  0.17685449299E+03  0.00000000000E+00 0.  1.
          1   -1    0    0  501    0  0.00000000000E+00 -0.00000000000E+00 -0.10776492971E+03  0.10776492971E+03  0.00000000000E+00 0. -1.
         25    2    1    2    0    0 -0.52596191967E+02 -0.28322168571E+01  0.99734898051E+02  0.16843313744E+03  0.12509312946E+03 0.  0.
          5    1    3    3  502    0 -0.11241721497E+02  0.58917424450E+02  0.55621006102E+02  0.81907313018E+02  0.41800000000E+01 0.  1.
         -5    1    3    3    0  502 -0.41354470470E+02 -0.61749641307E+02  0.44113891949E+02  0.86525824424E+02  0.41800000000E+01 0.  1.
        -11    1    1    2    0    0  0.29434667226E+02 -0.45257379147E+02  0.12580157369E+01  0.54001968534E+02  0.00000000000E+00 0.  1.
         11    1    1    2    0    0  0.23161524741E+02  0.48089596004E+02 -0.31903350511E+02  0.62184316720E+02  0.00000000000E+00 0. -1.
</event>
<event>
 7    1  0.3012619E-009  0.1165198E+03  0.7561462E-02  0.1248951E+00
         -3   -1    0    0    0  501 -0.00000000000E+00  0.00000000000E+00  0.10438486875E+03  0.10438486875E+03  0.00000000000E+00 0.  1.
          3   -1    0    0  501    0  0.00000000000E+00 -0.00000000000E+00 -0.19460998202E+03  0.19460998202E+03  0.00000000000E+00 0. -1.
         25    2    1    2    0    0 -0.54394749307E+02  0.33242990993E+02  0.20435058350E+02  0.14187810793E+03  0.12509164919E+03 0.  0.
          5    1    3    3  502    0 -0.82377373096E+02  0.54573262914E+02 -0.37574540713E+01  0.98974054602E+02  0.41800000000E+01 0.  1.
         -5    1    3    3    0  502  0.27982623789E+02 -0.21330271921E+02  0.24192512421E+02  0.42904053324E+02  0.41800000000E+01 0.  1.
        -11    1    1    2    0    0  0.68559518553E+02 -0.43518215889E+02 -0.53270447753E+02  0.97118398371E+02  0.00000000000E+00 0.  1.
         11    1    1    2    0    0 -0.14164769246E+02  0.10275224896E+02 -0.57389723864E+02  0.59998344475E+02  0.00000000000E+00 0. -1.
</event>
<event>
 7    1  0.2989693E-009  0.1096765E+03  0.7561462E-02  0.1261170E+00
         -3   -1    0    0    0  501 -0.00000000000E+00  0.00000000000E+00  0.48291800460E+02  0.48291800460E+02  0.00000000000E+00 0.  1.
          3   -1    0    0  501    0  0.00000000000E+00 -0.00000000000E+00 -0.33097310642E+03  0.33097310642E+03  0.00000000000E+00 0. -1.
         25    2    1    2    0    0 -0.45926376218E+02  0.66029274730E+01 -0.88858772961E+02  0.16030206081E+03  0.12509211999E+03 0.  0.
          5    1    3    3  502    0 -0.28753028537E+02  0.62576414688E+02 -0.70876595692E+02  0.98911619854E+02  0.41800000000E+01 0.  1.
         -5    1    3    3    0  502 -0.17173347681E+02 -0.55973487215E+02 -0.17982177269E+02  0.61390440957E+02  0.41800000000E+01 0.  1.
        -11    1    1    2    0    0  0.38029525569E+02 -0.41262575246E+02 -0.67731885590E+02  0.87957110324E+02  0.00000000000E+00 0.  1.
         11    1    1    2    0    0  0.78968506488E+01  0.34659647773E+02 -0.12609064741E+03  0.13100573575E+03  0.00000000000E+00 0. -1.
</event>
<event>
 7    1  0.2989693E-009  0.1549982E+03  0.7561462E-02  0.1194462E+00
          1   -1    0    0  501    0  0.00000000000E+00  0.00000000000E+00  0.46775489696E+03  0.46775489696E+03  0.00000000000E+00 0. -1.
         -1   -1    0    0    0  501 -0.00000000000E+00 -0.00000000000E+00 -0.54336916366E+02  0.54336916366E+02  0.00000000000E+00 0.  1.
         25    2    1    2    0    0  0.10001136943E+03 -0.61474212472E+02  0.26469858428E+03  0.31542471191E+03  0.12508419385E+03 0.  0.
          5    1    3    3  502    0  0.81773114238E+02 -0.97951383633E+02  0.22293405388E+03  0.25690149970E+03  0.41800000000E+01 0.  1.
         -5    1    3    3    0  502  0.18238255196E+02  0.36477171161E+02  0.41764530399E+02  0.58523212215E+02  0.41800000000E+01 0.  1.
        -11    1    1    2    0    0 -0.18470814019E+02 -0.19190394750E+02  0.15277392092E+02  0.30705714946E+02  0.00000000000E+00 0.  1.
         11    1    1    2    0    0 -0.81540555416E+02  0.80664607222E+02  0.13344200422E+03  0.17596138646E+03  0.00000000000E+00 0. -1.
</event>
<event>
 7    1  0.2989693E-009  0.8666009E+02  0.7561462E-02  0.1311147E+00
         -3   -1    0    0    0  501 -0.00000000000E+00  0.00000000000E+00  0.27253771311E+03  0.27253771311E+03  0.00000000000E+00 0.  1.
          3   -1    0    0  501    0  0.00000000000E+00 -0.00000000000E+00 -0.57912837458E+02  0.57912837458E+02  0.00000000000E+00 0. -1.
         25    2    1    2    0    0 -0.26874840250E+01  0.54283525326E+02  0.16510569431E+03  0.21415263219E+03  0.12509011107E+03 0.  0.
          5    1    3    3  502    0 -0.35846765556E+02  0.33956684316E+02  0.55398702259E+01  0.49861905025E+02  0.41800000000E+01 0. -1.
         -5    1    3    3    0  502  0.33159281531E+02  0.20326841009E+02  0.15956582408E+03  0.16429072716E+03  0.41800000000E+01 0. -1.
        -11    1    1    2    0    0 -0.31109528288E+02 -0.27607708688E+02  0.59022337451E+02  0.72205433642E+02  0.00000000000E+00 0.  1.
         11    1    1    2    0    0  0.33797012313E+02 -0.26675816638E+02 -0.95031561034E+01  0.44092484739E+02  0.00000000000E+00 0. -1.
</event>
<event>
 7    1  0.2989693E-009  0.9701427E+02  0.7561462E-02  0.1286703E+00
         -1   -1    0    0    0  501 -0.00000000000E+00  0.00000000000E+00  0.98644615711E+02  0.98644615711E+02  0.00000000000E+00 0.  1.
          1   -1    0    0  501    0  0.00000000000E+00 -0.00000000000E+00 -0.13521071325E+03  0.13521071325E+03  0.00000000000E+00 0. -1.
         25    2    1    2    0    0  0.56675406965E+01 -0.49196813230E+01 -0.50233758864E+02  0.13501198691E+03  0.12509389193E+03 0.  0.
          5    1    3    3  502    0  0.36426202273E+02 -0.36582546970E+02  0.16965701553E+02  0.54501911746E+02  0.41800000000E+01 0. -1.
         -5    1    3    3    0  502 -0.30758661576E+02  0.31662865647E+02 -0.67199460417E+02  0.80510075166E+02  0.41800000000E+01 0. -1.
        -11    1    1    2    0    0 -0.22955066879E+02 -0.42014784000E+02  0.66081928574E+01  0.48330584341E+02  0.00000000000E+00 0.  1.
         11    1    1    2    0    0  0.17287526182E+02  0.46934465323E+02  0.70594684639E+01  0.50512757711E+02  0.00000000000E+00 0. -1.
</event>
<event>
 7    1  0.2989693E-009  0.6195383E+02  0.7561462E-02  0.1389811E+00
         -2   -1    0    0    0  501 -0.00000000000E+00  0.00000000000E+00  0.16476528094E+03  0.16476528094E+03  0.00000000000E+00 0. -1.
          2   -1    0    0  501    0  0.00000000000E+00 -0.00000000000E+00 -0.73618982924E+02  0.73618982924E+02  0.00000000000E+00 0.  1.
         25    2    1    2    0    0 -0.13480695907E+02 -0.12606950465E+01  0.71328910704E+02  0.14463360757E+03  0.12509096059E+03 0.  0.
          5    1    3    3  502    0 -0.24823825107E+02  0.19539205343E+01  0.10537736955E+03  0.10836005958E+03  0.41800000000E+01 0. -1.
         -5    1    3    3    0  502  0.11343129200E+02 -0.32146155808E+01 -0.34048458850E+02  0.36273547986E+02  0.41800000000E+01 0. -1.
        -11    1    1    2    0    0  0.17327855612E+02  0.41893286647E+02  0.26319684079E+02  0.52421635001E+02  0.00000000000E+00 0. -1.
         11    1    1    2    0    0 -0.38471597043E+01 -0.40632591601E+02 -0.65022967663E+01  0.41329021295E+02  0.00000000000E+00 0.  1.
</event>
<event>
 7    1  0.2989693E-009  0.1864502E+03  0.7561462E-02  0.1161703E+00
         -2   -1    0    0    0  501 -0.00000000000E+00  0.00000000000E+00  0.51103345881E+03  0.51103345881E+03  0.00000000000E+00 0.  1.
          2   -1    0    0  501    0  0.00000000000E+00 -0.00000000000E+00 -0.80322030619E+02  0.80322030619E+02  0.00000000000E+00 0. -1.
         25    2    1    2    0    0 -0.42890341420E+02 -0.16438121855E+03  0.24752788510E+03  0.32523459849E+03  0.12508686483E+03 0.  0.
          5    1    3    3  502    0  0.78210105036E+01 -0.14798286573E+03  0.21949806491E+03  0.26487160975E+03  0.41800000000E+01 0. -1.
         -5    1    3    3    0  502 -0.50711351924E+02 -0.16398352822E+02  0.28029820190E+02  0.60362988736E+02  0.41800000000E+01 0. -1.
        -11    1    1    2    0    0  0.27532202264E+01  0.48090700103E+02  0.34182174499E+01  0.48290577431E+02  0.00000000000E+00 0. -1.
         11    1    1    2    0    0  0.40137121194E+02  0.11629051845E+03  0.17976532564E+03  0.21783031351E+03  0.00000000000E+00 0.  1.
</event>
<event>
 7    1  0.2989693E-009  0.9090672E+02  0.7561462E-02  0.1300671E+00
         -1   -1    0    0    0  501 -0.00000000000E+00  0.00000000000E+00  0.30509429333E+03  0.30509429333E+03  0.00000000000E+00 0.  1.
          1   -1    0    0  501    0  0.00000000000E+00 -0.00000000000E+00 -0.64106374642E+02  0.64106374642E+02  0.00000000000E+00 0. -1.
         25    2    1    2    0    0 -0.41351968262E+02  0.24874135247E+02  0.21444185630E+03  0.25290542109E+03  0.12508850625E+03 0.  0.
          5    1    3    3  502    0  0.13196803379E+02  0.47747317432E+02  0.27560545466E+02  0.56842044366E+02  0.41800000000E+01 0.  1.
         -5    1    3    3    0  502 -0.54548771642E+02 -0.22873182184E+02  0.18688131084E+03  0.19606337672E+03  0.41800000000E+01 0.  1.
        -11    1    1    2    0    0  0.49118838609E+02 -0.25718246223E+01  0.58583824919E+02  0.76494046372E+02  0.00000000000E+00 0.  1.
         11    1    1    2    0    0 -0.77668703466E+01 -0.22302310625E+02 -0.32037762534E+02  0.39801200514E+02  0.00000000000E+00 0. -1.
</event>
<event>
 7    1  0.2989693E-009  0.1162174E+03  0.7561462E-02  0.1249471E+00
         -2   -1    0    0    0  501 -0.00000000000E+00  0.00000000000E+00  0.61245691066E+03  0.61245691066E+03  0.00000000000E+00 0. -1.
          2   -1    0    0  501    0  0.00000000000E+00 -0.00000000000E+00 -0.34816857358E+02  0.34816857358E+02  0.00000000000E+00 0.  1.
         25    2    1    2    0    0  0.20934320873E+02 -0.24710048492E+02  0.35063619112E+03  0.37368832751E+03  0.12509354624E+03 0.  0.
          5    1    3    3  502    0  0.60135084950E+02 -0.13526373270E+02  0.85952767795E+02  0.10585150876E+03  0.41800000000E+01 0.  1.
         -5    1    3    3    0  502 -0.39200764077E+02 -0.11183675222E+02  0.26468342332E+03  0.26783681875E+03  0.41800000000E+01 0.  1.
        -11    1    1    2    0    0 -0.30711782626E+02  0.73635859939E+02  0.61532255803E+02  0.10075550588E+03  0.00000000000E+00 0.  1.
         11    1    1    2    0    0  0.97774617531E+01 -0.48925811447E+02  0.16547160639E+03  0.17282993463E+03  0.00000000000E+00 0. -1.
</event>
<event>
 7    1  0.2989693E-009  0.1140763E+03  0.7561462E-02  0.1253202E+00
          1   -1    0    0  501    0  0.00000000000E+00  0.00000000000E+00  0.18865800717E+03  0.18865800717E+03  0.00000000000E+00 0. -1.
         -1   -1    0    0    0  501 -0.00000000000E+00 -0.00000000000E+00 -0.76879194819E+02  0.76879194819E+02  0.00000000000E+00 0.  1.
         25    2    1    2    0    0 -0.30992955185E+02 -0.17619063375E+02  0.21562597130E+02  0.13185445755E+03  0.12509859198E+03 0.  0.
          5    1    3    3  502    0 -0.12850042871E+02 -0.71552286145E+02  0.15766673924E+02  0.74504453967E+02  0.41800000000E+01 0.  1.
         -5    1    3    3    0  502 -0.18142912314E+02  0.53933222770E+02  0.57959232052E+01  0.57350003587E+02  0.41800000000E+01 0.  1.
        -11    1    1    2    0    0  0.62884694428E+02  0.20784821900E+02  0.66121485217E+02  0.93587095381E+02  0.00000000000E+00 0.  1.
         11    1    1    2    0    0 -0.31891739243E+02 -0.31657585250E+01  0.24094730004E+02  0.40095649052E+02  0.00000000000E+00 0. -1.
</event>
<event>
 7    1  0.2989693E-009  0.6828924E+02  0.7561462E-02  0.1366009E+00
          1   -1    0    0  501    0  0.00000000000E+00  0.00000000000E+00  0.89507653091E+02  0.89507653091E+02  0.00000000000E+00 0. -1.
         -1   -1    0    0    0  501 -0.00000000000E+00 -0.00000000000E+00 -0.14074065839E+03  0.14074065839E+03  0.00000000000E+00 0.  1.
         25    2    1    2    0    0  0.33997984317E+00 -0.29816964566E+02 -0.57533584832E+01  0.12872423355E+03  0.12509060799E+03 0.  0.
          5    1    3    3  502    0 -0.47328614509E+02 -0.56284688159E+01  0.36728498340E+02  0.60316932970E+02  0.41800000000E+01 0.  1.
         -5    1    3    3    0  502  0.47668594352E+02 -0.24188495750E+02 -0.42481856823E+02  0.68407300585E+02  0.41800000000E+01 0.  1.
        -11    1    1    2    0    0  0.91020132203E+01  0.14226639036E+02  0.24194010199E+02  0.29505830482E+02  0.00000000000E+00 0. -1.
         11    1    1    2    0    0 -0.94419930635E+01  0.15590325530E+02 -0.69673657013E+02  0.72018247442E+02  0.00000000000E+00 0.  1.
</event>
<event>
 7    1  0.2989693E-009  0.1188358E+03  0.7561462E-02  0.1245030E+00
         -1   -1    0    0    0  501 -0.00000000000E+00  0.00000000000E+00  0.10440039461E+03  0.10440039461E+03  0.00000000000E+00 0.  1.
          1   -1    0    0  501    0  0.00000000000E+00 -0.00000000000E+00 -0.23745190944E+03  0.23745190944E+03  0.00000000000E+00 0. -1.
         25    2    1    2    0    0 -0.81689627551E+02  0.41459895611E+02 -0.14293866949E+03  0.21088003443E+03  0.12508719955E+03 0.  0.
          5    1    3    3  502    0 -0.39728286192E+02 -0.23337161292E+02  0.23267473387E+01  0.46323276806E+02  0.41800000000E+01 0.  1.
         -5    1    3    3    0  502 -0.41961341359E+02  0.64797056903E+02 -0.14526541683E+03  0.16455675762E+03  0.41800000000E+01 0.  1.
        -11    1    1    2    0    0 -0.10546373467E+02 -0.14634564000E+02  0.27916306707E+02  0.33237277821E+02  0.00000000000E+00 0.  1.
         11    1    1    2    0    0  0.92236001018E+02 -0.26825331611E+02 -0.18029152040E+02  0.97734991805E+02  0.00000000000E+00 0. -1.
</event>
<event>
 6    1  0.2989693E-009  0.1058079E+03  0.7561462E-02  0.1268536E+00
         -2   -1    0    0    0  501 -0.00000000000E+00  0.00000000000E+00  0.21241032007E+03  0.21241032007E+03  0.00000000000E+00 0. -1.
          2   -1    0    0  501    0  0.00000000000E+00 -0.00000000000E+00 -0.64474641261E+02  0.64474641261E+02  0.00000000000E+00 0.  1.
          5    1    1    2  502    0 -0.41892538456E+02 -0.54218951887E+02  0.47730692289E+02  0.83608438022E+02  0.41800000000E+01 0.  1.
         -5    1    1    2    0  502  0.59632823188E+02  0.18605201761E+02  0.51890599670E+02  0.81316258325E+02  0.41800000000E+01 0.  1.
        -11    1    1    2    0    0 -0.33652979357E+02  0.49085328257E+02  0.19056374993E+00  0.59514105759E+02  0.00000000000E+00 0.  1.
         11    1    1    2    0    0  0.15912694626E+02 -0.13471578132E+02  0.48123823097E+02  0.52446159221E+02  0.00000000000E+00 0. -1.
</event>
<event>
 7    1  0.2989693E-009  0.1567902E+03  0.7561462E-02  0.1192369E+00
          2   -1    0    0  501    0  0.00000000000E+00  0.00000000000E+00  0.72240983477E+02  0.72240983477E+02  0.00000000000E+00 0. -1.
         -2   -1    0    0    0  501 -0.00000000000E+00 -0.00000000000E+00 -0.46101133140E+03  0.46101133140E+03  0.00000000000E+00 0.  1.
         25    2    1    2    0    0  0.27667955050E+02  0.11311853772E+03 -0.75083837101E+02  0.18667376577E+03  0.12509273727E+03 0.  0.
          5    1    3    3  502    0  0.71500277316E+02  0.10312434275E+03 -0.51195804950E+02  0.13559278214E+03  0.41800000000E+01 0.  1.
         -5    1    3    3    0  502 -0.43832322266E+02  0.99941949751E+01 -0.23888032151E+02  0.51080983628E+02  0.41800000000E+01 0.  1.
        -11    1    1    2    0    0  0.22338009002E+02 -0.79594096758E+02 -0.22200265292E+03  0.23689530343E+03  0.00000000000E+00 0.  1.
         11    1    1    2    0    0 -0.50005964053E+02 -0.33524440965E+02 -0.91683857905E+02  0.10968324568E+03  0.00000000000E+00 0. -1.
</event>
<event>
 7    1  0.2994152E-009  0.1255779E+03  0.7561462E-02  0.1234169E+00
         -2   -1    0    0    0  501 -0.00000000000E+00  0.00000000000E+00  0.93434813133E+02  0.93434813133E+02  0.00000000000E+00 0.  1.
          2   -1    0    0  501    0  0.00000000000E+00 -0.00000000000E+00 -0.22123216724E+03  0.22123216724E+03  0.00000000000E+00 0. -1.
         25    2    1    2    0    0 -0.70870943616E+02 -0.54703407027E+02 -0.37094305423E+02  0.15823595255E+03  0.12508987087E+03 0.  0.
          5    1    3    3  502    0 -0.52958533108E+02  0.14441467024E+02 -0.61591957202E+02  0.82608739191E+02  0.41800000000E+01 0.  1.
         -5    1    3    3    0  502 -0.17912410508E+02 -0.69144874050E+02  0.24497651779E+02  0.75627213358E+02  0.41800000000E+01 0.  1.
        -11    1    1    2    0    0  0.69715998777E+02 -0.12343765584E+00 -0.34061332380E+02  0.77591946012E+02  0.00000000000E+00 0.  1.
         11    1    1    2    0    0  0.11549448388E+01  0.54826844683E+02 -0.56641716308E+02  0.78839081817E+02  0.00000000000E+00 0. -1.
</event>
<event>
 7    1  0.2989693E-009  0.1177869E+03  0.7561462E-02  0.1246793E+00
         -1   -1    0    0    0  501 -0.00000000000E+00  0.00000000000E+00  0.14493845963E+03  0.14493845963E+03  0.00000000000E+00 0.  1.
          1   -1    0    0  501    0  0.00000000000E+00 -0.00000000000E+00 -0.18773476118E+03  0.18773476118E+03  0.00000000000E+00 0. -1.
         25    2    1    2    0    0  0.79098115858E+02 -0.57675363959E+02 -0.10341498692E+03  0.18954559886E+03  0.12509962025E+03 0.  0.
          5    1    3    3  502    0  0.80023020886E+02 -0.52109080578E+00 -0.10515091932E+03  0.13220493048E+03  0.41800000000E+01 0.  1.
         -5    1    3    3    0  502 -0.92490502841E+00 -0.57154273153E+02  0.17359324061E+01  0.57340668380E+02  0.41800000000E+01 0.  1.
        -11    1    1    2    0    0 -0.50296550869E+02  0.32596138705E+02 -0.11957584665E+02  0.61116569920E+02  0.00000000000E+00 0. -1.
         11    1    1    2    0    0 -0.28801564989E+02  0.25079225254E+02  0.72576270030E+02  0.82011052040E+02  0.00000000000E+00 0.  1.
</event>
<event>
 7    1  0.2989693E-009  0.2049656E+03  0.7561462E-02  0.1145616E+00
          2   -1    0    0  501    0  0.00000000000E+00  0.00000000000E+00  0.16347147052E+03  0.16347147052E+03  0.00000000000E+00 0. -1.
         -2   -1    0    0    0  501 -0.00000000000E+00 -0.00000000000E+00 -0.28221641105E+03  0.28221641105E+03  0.00000000000E+00 0.  1.
         25    2    1    2    0    0  0.48909629851E+01  0.18411366129E+03 -0.81570161132E+02  0.23711205073E+03  0.12508665645E+03 0.  0.
          5    1    3    3  502    0  0.37639464128E+02  0.17780207284E+03 -0.44670160625E+02  0.18719829598E+03  0.41800000000E+01 0. -1.
         -5    1    3    3    0  502 -0.32748501143E+02  0.63115884468E+01 -0.36900000507E+02  0.49913754750E+02  0.41800000000E+01 0. -1.
        -11    1    1    2    0    0 -0.33720865978E+02 -0.90604200202E+02 -0.51730861594E+02  0.10964624908E+03  0.00000000000E+00 0.  1.
         11    1    1    2    0    0  0.28829902993E+02 -0.93509461085E+02  0.14556082194E+02  0.98929581763E+02  0.00000000000E+00 0. -1.
</event>
<event>
 7    1  0.2989693E-009  0.8787483E+02  0.7561462E-02  0.1308081E+00
         -1   -1    0    0    0  501 -0.00000000000E+00  0.00000000000E+00  0.37360846384E+02  0.37360846384E+02  0.00000000000E+00 0.  1.
          1   -1    0    0  501    0  0.00000000000E+00 -0.00000000000E+00 -0.66213646066E+03  0.66213646066E+03  0.00000000000E+00 0. -1.
         25    2    1    2    0    0  0.32833294811E+02  0.65836182105E+01 -0.94671277218E+02  0.16043620395E+03  0.12512296164E+03 0.  0.
          5    1    3    3  502    0  0.24784505106E+02  0.38092627819E+02  0.13348554886E+02  0.47549724553E+02  0.41800000000E+01 0.  1.
         -5    1    3    3    0  502  0.80487897051E+01 -0.31509009609E+02 -0.10801983210E+03  0.11288647939E+03  0.41800000000E+01 0.  1.
        -11    1    1    2    0    0 -0.61081874774E+02 -0.22266454407E+02 -0.37966602712E+03  0.38519226701E+03  0.00000000000E+00 0. -1.
         11    1    1    2    0    0  0.28248579963E+02  0.15682836196E+02 -0.15043830994E+03  0.15386883609E+03  0.00000000000E+00 0.  1.
</event>
<event>
 7    1  0.2989693E-009  0.9509925E+02  0.7561462E-02  0.1290953E+00
          2   -1    0    0  501    0  0.00000000000E+00  0.00000000000E+00  0.19481931279E+03  0.19481931279E+03  0.00000000000E+00 0. -1.
         -2   -1    0    0    0  501 -0.00000000000E+00 -0.00000000000E+00 -0.68454290806E+02  0.68454290806E+02  0.00000000000E+00 0.  1.
         25    2    1    2    0    0 -0.66453707152E+01 -0.18704202819E+02  0.33264143150E+02  0.13095058551E+03  0.12509014538E+03 0.  0.
          5    1    3    3  502    0  0.23884751094E+02 -0.48414541072E+02 -0.24189151727E+02  0.59304608449E+02  0.41800000000E+01 0. -1.
         -5    1    3    3    0  502 -0.30530121809E+02  0.29710338254E+02  0.57453294876E+02  0.71645977060E+02  0.41800000000E+01 0. -1.
        -11    1    1    2    0    0  0.33337680622E+02 -0.25251014783E+02  0.50314157797E+02  0.65425753122E+02  0.00000000000E+00 0. -1.
         11    1    1    2    0    0 -0.26692309907E+02  0.43955217602E+02  0.42786721038E+02  0.66897264965E+02  0.00000000000E+00 0.  1.
</event>
<event>
 7    1  0.2989693E-009  0.5244899E+02  0.7561462E-02  0.1432563E+00
         -2   -1    0    0    0  501 -0.00000000000E+00  0.00000000000E+00  0.47069804346E+02  0.47069804346E+02  0.00000000000E+00 0.  1.
          2   -1    0    0  501    0  0.00000000000E+00 -0.00000000000E+00 -0.27359860926E+03  0.27359860926E+03  0.00000000000E+00 0. -1.
         25    2    1    2    0    0  0.30935158471E+01 -0.31819805823E+02 -0.14572190987E+03  0.19469243494E+03  0.12509276287E+03 0.  0.
          5    1    3    3  502    0 -0.21244810735E+01 -0.11297479890E+02  0.22222639094E+02  0.25366603241E+02  0.41800000000E+01 0. -1.
         -5    1    3    3    0  502  0.52179969206E+01 -0.20522325933E+02 -0.16794454896E+03  0.16932583170E+03  0.41800000000E+01 0. -1.
        -11    1    1    2    0    0 -0.20661480371E+02  0.44736172146E+02 -0.89766067511E+02  0.10240199581E+03  0.00000000000E+00 0. -1.
         11    1    1    2    0    0  0.17567964524E+02 -0.12916366322E+02  0.89591724669E+01  0.23573982858E+02  0.00000000000E+00 0.  1.
</event>
<event>
 7    1  0.3814213E-009  0.8100098E+02  0.7561462E-02  0.1326235E+00
         -2   -1    0    0    0  501 -0.00000000000E+00  0.00000000000E+00  0.32593807549E+02  0.32593807549E+02  0.00000000000E+00 0.  1.
          2   -1    0    0  501    0  0.00000000000E+00 -0.00000000000E+00 -0.55744257322E+03  0.55744257322E+03  0.00000000000E+00 0. -1.
         25    2    1    2    0    0  0.65619418911E+02 -0.43111273081E+02 -0.31636631114E+03  0.34914170671E+03  0.12509116089E+03 0.  0.
          5    1    3    3  502    0  0.19339980758E+02 -0.63268668312E+01  0.58013189198E+01  0.21568305469E+02  0.41800000000E+01 0. -1.
         -5    1    3    3    0  502  0.46279438153E+02 -0.36784406250E+02 -0.32216763006E+03  0.32757340124E+03  0.41800000000E+01 0. -1.
        -11    1    1    2    0    0 -0.20660264296E+02  0.27446547882E+02 -0.18433927596E+03  0.18751300801E+03  0.00000000000E+00 0. -1.
         11    1    1    2    0    0 -0.44959154615E+02  0.15664725199E+02 -0.24143178573E+02  0.53381666056E+02  0.00000000000E+00 0.  1.
</event>
<event>
 7    1  0.2989693E-009  0.1692949E+03  0.7561462E-02  0.1178585E+00
         -1   -1    0    0    0  501 -0.00000000000E+00  0.00000000000E+00  0.67513341830E+02  0.67513341830E+02  0.00000000000E+00 0. -1.
          1   -1    0    0  501    0  0.00000000000E+00 -0.00000000000E+00 -0.53638250856E+03  0.53638250856E+03  0.00000000000E+00 0.  1.
         25    2    1    2    0    0 -0.15270271550E+03 -0.25083549667E+02 -0.27905331967E+03  0.34273364884E+03  0.12509314546E+03 0.  0.
          5    1    3    3  502    0 -0.84796394022E+02 -0.35298809135E+02 -0.52312112562E+02  0.10578498895E+03  0.41800000000E+01 0. -1.
         -5    1    3    3    0  502 -0.67906321474E+02  0.10215259468E+02 -0.22674120711E+03  0.23694865989E+03  0.41800000000E+01 0. -1.
        -11    1    1    2    0    0  0.70572157940E+02 -0.32343653907E+02 -0.66184166718E+02  0.10201414288E+03  0.00000000000E+00 0.  1.
         11    1    1    2    0    0  0.82130557555E+02  0.57427203574E+02 -0.12363168034E+03  0.15914805867E+03  0.00000000000E+00 0. -1.
</event>
<event>
 7    1  0.2989693E-009  0.1269709E+03  0.7561462E-02  0.1232021E+00
         -2   -1    0    0    0  501 -0.00000000000E+00  0.00000000000E+00  0.17142715780E+02  0.17142715780E+02  0.00000000000E+00 0.  1.
          2   -1    0    0  501    0  0.00000000000E+00 -0.00000000000E+00 -0.99200337092E+03  0.99200337092E+03  0.00000000000E+00 0. -1.
         25    2    1    2    0    0  0.55127113378E+02 -0.36936806692E+02 -0.43904452270E+03  0.46131458958E+03  0.12509089227E+03 0.  0.
          5    1    3    3  502    0 -0.22567555508E+02  0.29936359607E+02 -0.92317231878E+02  0.99726746110E+02  0.41800000000E+01 0.  1.
         -5    1    3    3    0  502  0.77694668886E+02 -0.66873166299E+02 -0.34672729083E+03  0.36158784347E+03  0.41800000000E+01 0.  1.
        -11    1    1    2    0    0 -0.46335727801E+02  0.67470828963E+02 -0.36234994710E+03  0.37147920076E+03  0.00000000000E+00 0. -1.
         11    1    1    2    0    0 -0.87913855771E+01 -0.30534022271E+02 -0.17346618534E+03  0.17635229636E+03  0.00000000000E+00 0.  1.
</event>
<event>
 7    1  0.2989693E-009  0.9606580E+02  0.7561462E-02  0.1288794E+00
          2   -1    0    0  501    0  0.00000000000E+00  0.00000000000E+00  0.49429284219E+02  0.49429284219E+02  0.00000000000E+00 0. -1.
         -2   -1    0    0    0  501 -0.00000000000E+00 -0.00000000000E+00 -0.39014745399E+03  0.39014745399E+03  0.00000000000E+00 0.  1.
         25    2    1    2    0    0  0.63282598724E+02 -0.15995926013E+02 -0.27596764101E+03  0.30995159171E+03  0.12510512928E+03 0.  0.
          5    1    3    3  502    0  0.71383588261E+02  0.10141414821E+02 -0.27267239229E+03  0.28207476116E+03  0.41800000000E+01 0.  1.
         -5    1    3    3    0  502 -0.81009895376E+01 -0.26137340835E+02 -0.32952487175E+01  0.27876830550E+02  0.41800000000E+01 0.  1.
        -11    1    1    2    0    0 -0.28678160323E+02  0.40644345754E+02  0.28030790627E+01  0.49822253798E+02  0.00000000000E+00 0. -1.
         11    1    1    2    0    0 -0.34604438401E+02 -0.24648419741E+02 -0.67553607826E+02  0.79802892698E+02  0.00000000000E+00 0.  1.
</event>
<event>
 7    1  0.2989693E-009  0.1491558E+03  0.7561462E-02  0.1201514E+00
          2   -1    0    0  501    0  0.00000000000E+00  0.00000000000E+00  0.94466329278E+03  0.94466329278E+03  0.00000000000E+00 0. -1.
         -2   -1    0    0    0  501 -0.00000000000E+00 -0.00000000000E+00 -0.39529134709E+02  0.39529134709E+02  0.00000000000E+00 0.  1.
         25    2    1    2    0    0 -0.11088193805E+02  0.12943183965E+03  0.71078323742E+03  0.73331503841E+03  0.12515025294E+03 0.  0.
          5    1    3    3  502    0 -0.29309587501E+02  0.14477543224E+02  0.40117199882E+03  0.40252341076E+03  0.41800000000E+01 0. -1.
         -5    1    3    3    0  502  0.18221393696E+02  0.11495429643E+03  0.30961123860E+03  0.33079162765E+03  0.41800000000E+01 0. -1.
        -11    1    1    2    0    0 -0.25853198211E+02 -0.18018659674E+02  0.11403065924E+02  0.33512532979E+02  0.00000000000E+00 0.  1.
         11    1    1    2    0    0  0.36941392017E+02 -0.11141317997E+03  0.18294785472E+03  0.21736485609E+03  0.00000000000E+00 0. -1.
</event>
<event>
 7    1  0.2989693E-009  0.1011069E+03  0.7561462E-02  0.1277985E+00
         -1   -1    0    0    0  501 -0.00000000000E+00  0.00000000000E+00  0.26999485010E+03  0.26999485010E+03  0.00000000000E+00 0.  1.
          1   -1    0    0  501    0  0.00000000000E+00 -0.00000000000E+00 -0.48813857239E+02  0.48813857239E+02  0.00000000000E+00 0. -1.
         25    2    1    2    0    0 -0.42968187772E+01  0.36063436164E+02  0.17670523771E+03  0.21952230269E+03  0.12508503612E+03 0.  0.
          5    1    3    3  502    0 -0.61569554627E+02  0.16649684738E+02  0.58346658088E+02  0.86543786426E+02  0.41800000000E+01 0. -1.
         -5    1    3    3    0  502  0.57272735850E+02  0.19413751426E+02  0.11835857962E+03  0.13297851626E+03  0.41800000000E+01 0. -1.
        -11    1    1    2    0    0 -0.30679595695E+02 -0.53748418994E+01  0.42528887596E+02  0.52714635516E+02  0.00000000000E+00 0.  1.
         11    1    1    2    0    0  0.34976414472E+02 -0.30688594264E+02  0.19468675542E+01  0.46571769137E+02  0.00000000000E+00 0. -1.
</event>
<event>
 7    1  0.2989693E-009  0.1656604E+03  0.7561462E-02  0.1182450E+00
          1   -1    0    0  501    0  0.00000000000E+00  0.00000000000E+00  0.93090276032E+03  0.93090276032E+03  0.00000000000E+00 0. -1.
         -1   -1    0    0    0  501 -0.00000000000E+00 -0.00000000000E+00 -0.29545587100E+02  0.29545587100E+02  0.00000000000E+00 0.  1.
         25    2    1    2    0    0  0.12476210798E+03 -0.12928232778E+02  0.46366035809E+03  0.49634984945E+03  0.12509805192E+03 0.  0.
          5    1    3    3  502    0  0.78493666601E+02 -0.68730109283E+02  0.28262621368E+03  0.30129741565E+03  0.41800000000E+01 0.  1.
         -5    1    3    3    0  502  0.46268441377E+02  0.55801876505E+02  0.18103414441E+03  0.19505243380E+03  0.41800000000E+01 0.  1.
        -11    1    1    2    0    0 -0.14580934430E+02 -0.32109982467E+02  0.10162837916E+03  0.10757314755E+03  0.00000000000E+00 0.  1.
         11    1    1    2    0    0 -0.11018117355E+03  0.45038215246E+02  0.33606843597E+03  0.35652535042E+03  0.00000000000E+00 0. -1.
</event>
<event>
 7    1  0.2989693E-009  0.1667022E+03  0.7561462E-02  0.1181331E+00
         -1   -1    0    0    0  501 -0.00000000000E+00  0.00000000000E+00  0.69263365022E+02  0.69263365022E+02  0.00000000000E+00 0.  1.
          1   -1    0    0  501    0  0.00000000000E+00 -0.00000000000E+00 -0.61819521756E+03  0.61819521756E+03  0.00000000000E+00 0. -1.
         25    2    1    2    0    0 -0.12080586298E+03 -0.92905344613E+02 -0.13685744179E+03  0.23999704372E+03  0.12507262703E+03 0.  0.
          5    1    3    3  502    0 -0.11786785535E+03 -0.10017751018E+03 -0.15547999523E+03  0.21936240833E+03  0.41800000000E+01 0.  1.
         -5    1    3    3    0  502 -0.29380076335E+01  0.72721655673E+01  0.18622553442E+02  0.20634635388E+02  0.41800000000E+01 0.  1.
        -11    1    1    2    0    0  0.23693859921E+02  0.64313000745E+02 -0.21874376345E+03  0.22923000483E+03  0.00000000000E+00 0.  1.
         11    1    1    2    0    0  0.97112003059E+02  0.28592343867E+02 -0.19333064729E+03  0.21823153403E+03  0.00000000000E+00 0. -1.
</event>
<event>
 7    1  0.2989693E-009  0.1097125E+03  0.7561462E-02  0.1261103E+00
         -1   -1    0    0    0  501 -0.00000000000E+00  0.00000000000E+00  0.21472485178E+03  0.21472485178E+03  0.00000000000E+00 0.  1.
          1   -1    0    0  501    0  0.00000000000E+00 -0.00000000000E+00 -0.65668329662E+02  0.65668329662E+02  0.00000000000E+00 0. -1.
         25    2    1    2    0    0 -0.40946764252E+02  0.20399168887E+02  0.11662346893E+03  0.17703649692E+03  0.12509246238E+03 0.  0.
          5    1    3    3  502    0  0.35165956999E+02  0.30519653478E+02  0.14002671576E+02  0.48802059294E+02  0.41800000000E+01 0. -1.
         -5    1    3    3    0  502 -0.76112721251E+02 -0.10120484591E+02  0.10262079735E+03  0.12823443763E+03  0.41800000000E+01 0. -1.
        -11    1    1    2    0    0  0.19395977403E+02  0.32953518479E+02  0.20643300836E+01  0.38293599704E+02  0.00000000000E+00 0. -1.
         11    1    1    2    0    0  0.21550786849E+02 -0.53352687366E+02  0.30368723111E+02  0.65063084820E+02  0.00000000000E+00 0.  1.
</event>
<event>
 7    1  0.2989693E-009  0.9239716E+02  0.7561462E-02  0.1297148E+00
          2   -1    0    0  501    0  0.00000000000E+00  0.00000000000E+00  0.27497404440E+04  0.27497404440E+04  0.00000000000E+00 0. -1.
         -2   -1    0    0    0  501 -0.00000000000E+00 -0.00000000000E+00 -0.16364972739E+02  0.16364972739E+02  0.00000000000E+00 0.  1.
         25    2    1    2    0    0  0.33016850548E+02 -0.84301762359E+02  0.24572049110E+04  0.24620521926E+04  0.12509246585E+03 0.  0.
          5    1    3    3  502    0  0.80189626988E+01 -0.50932684289E+02  0.29908644564E+03  0.30352696166E+03  0.41800000000E+01 0.  1.
         -5    1    3    3    0  502  0.24997887849E+02 -0.33369078070E+02  0.21581184654E+04  0.21585252310E+04  0.41800000000E+01 0.  1.
        -11    1    1    2    0    0 -0.21964492195E+02  0.41473494395E+02  0.34191972272E+02  0.58065313420E+02  0.00000000000E+00 0.  1.
         11    1    1    2    0    0 -0.11052358353E+02  0.42828267963E+02  0.24197858800E+03  0.24598791071E+03  0.00000000000E+00 0. -1.
</event>
<event>
 7    1  0.2989693E-009  0.2122665E+03  0.7561462E-02  0.1139784E+00
          1   -1    0    0  501    0  0.00000000000E+00  0.00000000000E+00  0.13735187360E+04  0.13735187360E+04  0.00000000000E+00 0. -1.
         -1   -1    0    0    0  501 -0.00000000000E+00 -0.00000000000E+00 -0.34789844945E+02  0.34789844945E+02  0.00000000000E+00 0.  1.
         25    2    1    2    0    0  0.85964767036E+02 -0.16780898152E+03  0.64285685930E+03  0.68151512193E+03  0.12509246350E+03 0.  0.
          5    1    3    3  502    0  0.54874988692E+02 -0.17893093782E+03  0.47838115628E+03  0.51370570172E+03  0.41800000000E+01 0. -1.
         -5    1    3    3    0  502  0.31089778344E+02  0.11121956299E+02  0.16447570302E+03  0.16780942021E+03  0.41800000000E+01 0. -1.
        -11    1    1    2    0    0  0.11305507833E+02  0.50043806711E+02  0.25783367010E+03  0.26288856676E+03  0.00000000000E+00 0. -1.
         11    1    1    2    0    0 -0.97270274869E+02  0.11776517481E+03  0.43803836169E+03  0.46390489228E+03  0.00000000000E+00 0.  1.
</event>
<event>
 7    1  0.2989693E-009  0.1178803E+03  0.7561462E-02  0.1246635E+00
         -1   -1    0    0    0  501 -0.00000000000E+00  0.00000000000E+00  0.80818916351E+02  0.80818916351E+02  0.00000000000E+00 0.  1.
          1   -1    0    0  501    0  0.00000000000E+00 -0.00000000000E+00 -0.21531935069E+03  0.21531935069E+03  0.00000000000E+00 0. -1.
         25    2    1    2    0    0  0.73110852684E+02  0.58756085528E+01 -0.49041466271E+02  0.15307466619E+03  0.12508824269E+03 0.  0.
          5    1    3    3  502    0  0.45903444535E+02  0.50706006206E+02 -0.68588175378E+02  0.96953780159E+02  0.41800000000E+01 0.  1.
         -5    1    3    3    0  502  0.27207408149E+02 -0.44830397653E+02  0.19546709107E+02  0.56120886030E+02  0.41800000000E+01 0.  1.
        -11    1    1    2    0    0 -0.76135675879E+02  0.27624442061E+02 -0.57553876900E+02  0.99358943668E+02  0.00000000000E+00 0.  1.
         11    1    1    2    0    0  0.30248231946E+01 -0.33500050613E+02 -0.27905091168E+02  0.43704657184E+02  0.00000000000E+00 0. -1.
</event>
<event>
 7    1  0.2989693E-009  0.1027853E+03  0.7561462E-02  0.1274546E+00
         -2   -1    0    0    0  501 -0.00000000000E+00  0.00000000000E+00  0.10513796732E+02  0.10513796732E+02  0.00000000000E+00 0.  1.
          2   -1    0    0  501    0  0.00000000000E+00 -0.00000000000E+00 -0.12187617953E+04  0.12187617953E+04  0.00000000000E+00 0. -1.
         25    2    1    2    0    0 -0.27329545361E+02 -0.53587976486E+01 -0.85562248642E+03  0.86516631321E+03  0.12508912621E+03 0.  0.
          5    1    3    3  502    0  0.42611166704E+02  0.22744017120E+02 -0.23347848051E+03  0.23845895895E+03  0.41800000000E+01 0.  1.
         -5    1    3    3    0  502 -0.69940712065E+02 -0.28102814769E+02 -0.62214400591E+03  0.62670735427E+03  0.41800000000E+01 0.  1.
        -11    1    1    2    0    0  0.39409060925E+02 -0.26523663577E+02 -0.27845583916E+03  0.28247873049E+03  0.00000000000E+00 0. -1.
         11    1    1    2    0    0 -0.12079515564E+02  0.31882461225E+02 -0.74169673004E+02  0.81630548348E+02  0.00000000000E+00 0.  1.
</event>
<event>
 7    1  0.2989693E-009  0.1198881E+03  0.7561462E-02  0.1243282E+00
         -2   -1    0    0    0  501 -0.00000000000E+00  0.00000000000E+00  0.14439046802E+03  0.14439046802E+03  0.00000000000E+00 0.  1.
          2   -1    0    0  501    0  0.00000000000E+00 -0.00000000000E+00 -0.15440117027E+03  0.15440117027E+03  0.00000000000E+00 0. -1.
         25    2    1    2    0    0  0.42237603379E+02  0.76927239306E+02  0.47982226989E+02  0.16016013577E+03  0.12508860739E+03 0.  0.
          5    1    3    3  502    0 -0.38802285669E+02  0.22483457668E+02 -0.10540402904E+02  0.46256845280E+02  0.41800000000E+01 0.  1.
         -5    1    3    3    0  502  0.81039889048E+02  0.54443781638E+02  0.58522629893E+02  0.11390329050E+03  0.41800000000E+01 0.  1.
        -11    1    1    2    0    0  0.27957568259E+01 -0.36172236587E+02  0.18688125473E+02  0.40810451966E+02  0.00000000000E+00 0.  1.
         11    1    1    2    0    0 -0.45033360205E+02 -0.40755002719E+02 -0.76681054713E+02  0.97821050546E+02  0.00000000000E+00 0. -1.
</event>
<event>
 7    1  0.2989693E-009  0.1807403E+03  0.7561462E-02  0.1167089E+00
          2   -1    0    0  501    0  0.00000000000E+00  0.00000000000E+00  0.16519566729E+04  0.16519566729E+04  0.00000000000E+00 0. -1.
         -2   -1    0    0    0  501 -0.00000000000E+00 -0.00000000000E+00 -0.26871587979E+02  0.26871587979E+02  0.00000000000E+00 0.  1.
         25    2    1    2    0    0 -0.27313614035E+02  0.17741283982E+03  0.89864369227E+03  0.92489413780E+03  0.12508929302E+03 0.  0.
          5    1    3    3  502    0 -0.19773964831E+02  0.16215101449E+03  0.89084779063E+03  0.90571033982E+03  0.41800000000E+01 0. -1.
         -5    1    3    3    0  502 -0.75396492037E+01  0.15261825327E+02  0.77959016402E+01  0.19183797977E+02  0.41800000000E+01 0. -1.
        -11    1    1    2    0    0  0.21766903744E+02 -0.78034474736E+02  0.16589343630E+03  0.18461800983E+03  0.00000000000E+00 0.  1.
         11    1    1    2    0    0  0.55467102908E+01 -0.99378365081E+02  0.56054795634E+03  0.56931611324E+03  0.00000000000E+00 0. -1.
</event>
<event>
 7    1  0.2989693E-009  0.1151207E+03  0.7561462E-02  0.1251371E+00
         -1   -1    0    0    0  501 -0.00000000000E+00  0.00000000000E+00  0.34869311866E+02  0.34869311866E+02  0.00000000000E+00 0.  1.
          1   -1    0    0  501    0  0.00000000000E+00 -0.00000000000E+00 -0.51492396673E+03  0.51492396673E+03  0.00000000000E+00 0. -1.
         25    2    1    2    0    0  0.77699884575E+02 -0.13849657983E+01 -0.21109003048E+03  0.25737586243E+03  0.12507655015E+03 0.  0.
          5    1    3    3  502    0  0.10542460290E+03 -0.52023814338E+01 -0.20147781898E+03  0.22749108907E+03  0.41800000000E+01 0. -1.
         -5    1    3    3    0  502 -0.27724718325E+02  0.38174156355E+01 -0.96122115069E+01  0.29884773353E+02  0.41800000000E+01 0. -1.
        -11    1    1    2    0    0 -0.24620960700E+02  0.27703782801E+02 -0.19064028739E+03  0.19420970744E+03  0.00000000000E+00 0. -1.
         11    1    1    2    0    0 -0.53078923875E+02 -0.26318817003E+02 -0.78324336983E+02  0.98207708720E+02  0.00000000000E+00 0.  1.
</event>
<event>
 7    1  0.2989693E-009  0.4128027E+02  0.7561462E-02  0.1498996E+00
         -1   -1    0    0    0  501 -0.00000000000E+00  0.00000000000E+00  0.48647509568E+02  0.48647509568E+02  0.00000000000E+00 0.  1.
          1   -1    0    0  501    0  0.00000000000E+00 -0.00000000000E+00 -0.24785990011E+03  0.24785990011E+03  0.00000000000E+00 0. -1.
         25    2    1    2    0    0  0.50589074097E+01  0.73228117618E+01 -0.12162783016E+03  0.17470092605E+03  0.12509144005E+03 0.  0.
          5    1    3    3  502    0 -0.13348496228E+02 -0.19500363367E+01 -0.14359603855E+03  0.14428887580E+03  0.41800000000E+01 0.  1.
         -5    1    3    3    0  502  0.18407403638E+02  0.92728480984E+01  0.21968208383E+02  0.30412050245E+02  0.41800000000E+01 0.  1.
        -11    1    1    2    0    0  0.20839130692E+02 -0.17220026878E+01  0.14851565746E+02  0.25647683450E+02  0.00000000000E+00 0.  1.
         11    1    1    2    0    0 -0.25898038102E+02 -0.56008090740E+01 -0.92436126128E+02  0.96158800187E+02  0.00000000000E+00 0. -1.
</event>
<event>
 7    1  0.2989693E-009  0.1835498E+03  0.7561462E-02  0.1164411E+00
         -2   -1    0    0    0  501 -0.00000000000E+00  0.00000000000E+00  0.42484162952E+03  0.42484162952E+03  0.00000000000E+00 0. -1.
          2   -1    0    0  501    0  0.00000000000E+00 -0.00000000000E+00 -0.10703372411E+03  0.10703372411E+03  0.00000000000E+00 0.  1.
         25    2    1    2    0    0 -0.14871233254E+03  0.57595080146E+02  0.52941416321E+02  0.20948387130E+03  0.12509255639E+03 0.  0.
          5    1    3    3  502    0 -0.11406944656E+03  0.82177781475E+02 -0.10549603570E+01  0.14065422763E+03  0.41800000000E+01 0. -1.
         -5    1    3    3    0  502 -0.34642885976E+02 -0.24582701329E+02  0.53996376678E+02  0.68829643670E+02  0.41800000000E+01 0. -1.
        -11    1    1    2    0    0  0.61293827213E+02 -0.72658292886E+02  0.14007635762E+03  0.16928540027E+03  0.00000000000E+00 0.  1.
         11    1    1    2    0    0  0.87418505328E+02  0.15063212740E+02  0.12479013147E+03  0.15310608206E+03  0.00000000000E+00 0. -1.
</event>
<event>
 7    1  0.2989693E-009  0.1084242E+03  0.7561462E-02  0.1263516E+00
          2   -1    0    0  501    0  0.00000000000E+00  0.00000000000E+00  0.54572498742E+03  0.54572498742E+03  0.00000000000E+00 0. -1.
         -2   -1    0    0    0  501 -0.00000000000E+00 -0.00000000000E+00 -0.34652927049E+02  0.34652927049E+02  0.00000000000E+00 0.  1.
         25    2    1    2    0    0 -0.36796918592E+02 -0.58926140969E+02  0.38621011371E+03  0.41186431939E+03  0.12509061653E+03 0.  0.
          5    1    3    3  502    0 -0.17897750143E+02 -0.97338098869E+02  0.24566403602E+03  0.26488360830E+03  0.41800000000E+01 0. -1.
         -5    1    3    3    0  502 -0.18899168450E+02  0.38411957900E+02  0.14054607769E+03  0.14698071109E+03  0.41800000000E+01 0.  1.
        -11    1    1    2    0    0  0.26149994527E+01  0.29668855585E+02 -0.57811443740E+01  0.30339756824E+02  0.00000000000E+00 0.  1.
         11    1    1    2    0    0  0.34181919140E+02  0.29257285384E+02  0.13064309104E+03  0.13817383826E+03  0.00000000000E+00 0. -1.
</event>
<event>
 7    1  0.2989693E-009  0.8977684E+02  0.7561462E-02  0.1303393E+00
          1   -1    0    0  501    0  0.00000000000E+00  0.00000000000E+00  0.14669353172E+03  0.14669353172E+03  0.00000000000E+00 0. -1.
         -1   -1    0    0    0  501 -0.00000000000E+00 -0.00000000000E+00 -0.17570189207E+03  0.17570189207E+03  0.00000000000E+00 0.  1.
         25    2    1    2    0    0  0.37387926038E+02 -0.47911528077E+02  0.86041754609E+02  0.16353815227E+03  0.12509265436E+03 0.  0.
          5    1    3    3  502    0 -0.23209464308E+02  0.13318259307E+01 -0.20571793990E+02  0.31322900596E+02  0.41800000000E+01 0. -1.
         -5    1    3    3    0  502  0.60597390346E+02 -0.49243354007E+02  0.10661354860E+03  0.13221525168E+03  0.41800000000E+01 0. -1.
        -11    1    1    2    0    0 -0.14487607908E+02 -0.85410576459E+01 -0.92312160928E+02  0.93831633812E+02  0.00000000000E+00 0.  1.
         11    1    1    2    0    0 -0.22900318130E+02  0.56452585723E+02 -0.22737954031E+02  0.65025637703E+02  0.00000000000E+00 0. -1.
</event>
<event>
 7    1  0.2989693E-009  0.1245639E+03  0.7561462E-02  0.1235752E+00
         -2   -1    0    0    0  501 -0.00000000000E+00  0.00000000000E+00  0.19338384679E+03  0.19338384679E+03  0.00000000000E+00 0.  1.
          2   -1    0    0  501    0  0.00000000000E+00 -0.00000000000E+00 -0.19667422714E+03  0.19667422714E+03  0.00000000000E+00 0. -1.
         25    2    1    2    0    0 -0.63332867838E+02  0.40185652967E+01 -0.15046036295E+03  0.20570057854E+03  0.12508879317E+03 0.  0.
          5    1    3    3  502    0  0.22271578949E+02  0.39353147340E+02 -0.33365549817E+02  0.56350916133E+02  0.41800000000E+01 0. -1.
         -5    1    3    3    0  502 -0.85604446787E+02 -0.35334582043E+02 -0.11709481313E+03  0.14934966241E+03  0.41800000000E+01 0. -1.
        -11    1    1    2    0    0 -0.23767566104E+02 -0.24991514857E+01  0.30180137786E+02  0.38496541059E+02  0.00000000000E+00 0.  1.
         11    1    1    2    0    0  0.87100433942E+02 -0.15194138110E+01  0.11698984481E+03  0.14586095434E+03  0.00000000000E+00 0. -1.
</event>
<event>
 7    1  0.2989693E-009  0.1737072E+03  0.7561462E-02  0.1174036E+00
         -2   -1    0    0    0  501 -0.00000000000E+00  0.00000000000E+00  0.72273674638E+02  0.72273674638E+02  0.00000000000E+00 0.  1.
          2   -1    0    0  501    0  0.00000000000E+00 -0.00000000000E+00 -0.47068950973E+03  0.47068950973E+03  0.00000000000E+00 0. -1.
         25    2    1    2    0    0 -0.11860655762E+02 -0.14441828917E+03 -0.25565135113E+03  0.31938016359E+03  0.12509499654E+03 0.  0.
          5    1    3    3  502    0 -0.59881233189E+02 -0.39896389146E+02 -0.13235788686E+03  0.15071020725E+03  0.41800000000E+01 0.  1.
         -5    1    3    3    0  502  0.48020577428E+02 -0.10452190002E+03 -0.12329346427E+03  0.16866995634E+03  0.41800000000E+01 0.  1.
        -11    1    1    2    0    0  0.39726840477E+02  0.10221807142E+03 -0.55952380486E+02  0.12311549399E+03  0.00000000000E+00 0.  1.
         11    1    1    2    0    0 -0.27866184715E+02  0.42200217752E+02 -0.86812103467E+02  0.10046752678E+03  0.00000000000E+00 0. -1.
</event>
<event>
 7    1  0.2989693E-009  0.1364890E+03  0.7561462E-02  0.1218133E+00
          1   -1    0    0  501    0  0.00000000000E+00  0.00000000000E+00  0.92511167851E+02  0.92511167851E+02  0.00000000000E+00 0. -1.
         -1   -1    0    0    0  501 -0.00000000000E+00 -0.00000000000E+00 -0.26678029518E+03  0.26678029518E+03  0.00000000000E+00 0.  1.
         25    2    1    2    0    0 -0.25582684978E+02  0.97284568570E+02 -0.33726045428E+02  0.16402196292E+03  0.12508795756E+03 0.  0.
          5    1    3    3  502    0 -0.36449680646E+02 -0.13882061205E+02  0.15120177982E+02  0.42040254813E+02  0.41800000000E+01 0. -1.
         -5    1    3    3    0  502  0.10866995669E+02  0.11116662977E+03 -0.48846223410E+02  0.12198170810E+03  0.41800000000E+01 0. -1.
        -11    1    1    2    0    0  0.33130219996E+02 -0.10342424169E+02 -0.85029419638E+02  0.91839966347E+02  0.00000000000E+00 0.  1.
         11    1    1    2    0    0 -0.75475350183E+01 -0.86942144400E+02 -0.55513662265E+02  0.10342953377E+03  0.00000000000E+00 0. -1.
</event>
<event>
 7    1  0.2989693E-009  0.8733960E+02  0.7561462E-02  0.1309425E+00
         -2   -1    0    0    0  501 -0.00000000000E+00  0.00000000000E+00  0.37038821634E+03  0.37038821634E+03  0.00000000000E+00 0.  1.
          2   -1    0    0  501    0  0.00000000000E+00 -0.00000000000E+00 -0.33902906119E+02  0.33902906119E+02  0.00000000000E+00 0. -1.
         25    2    1    2    0    0  0.73545450083E+01  0.14820406300E+02  0.23939430670E+03  0.27061046404E+03  0.12508659158E+03 0.  0.
          5    1    3    3  502    0 -0.14091007946E+00 -0.35482152240E+02  0.12196113269E+02  0.37752093480E+02  0.41800000000E+01 0. -1.
         -5    1    3    3    0  502  0.74954550878E+01  0.50302558540E+02  0.22719819343E+03  0.23285837057E+03  0.41800000000E+01 0. -1.
        -11    1    1    2    0    0 -0.41087413472E+02 -0.30056917687E+02  0.74775729583E+02  0.90459955679E+02  0.00000000000E+00 0.  1.
         11    1    1    2    0    0  0.33732868464E+02  0.15236511387E+02  0.22315273930E+02  0.43220702731E+02  0.00000000000E+00 0. -1.
</event>
<event>
 7    1  0.2989693E-009  0.1416126E+03  0.7561462E-02  0.1211175E+00
          1   -1    0    0  501    0  0.00000000000E+00  0.00000000000E+00  0.84674870401E+02  0.84674870401E+02  0.00000000000E+00 0.  1.
         -1   -1    0    0    0  501 -0.00000000000E+00 -0.00000000000E+00 -0.27035392810E+03  0.27035392810E+03  0.00000000000E+00 0. -1.
         25    2    1    2    0    0  0.61982006497E+02  0.90376055503E+02 -0.10458093111E+03  0.19645393132E+03  0.12508946975E+03 0.  0.
          5    1    3    3  502    0  0.16928259317E+02  0.10411237542E+03 -0.10538270337E+03  0.14916078321E+03  0.41800000000E+01 0.  1.
         -5    1    3    3    0  502  0.45053747179E+02 -0.13736319913E+02  0.80177226413E+00  0.47293148113E+02  0.41800000000E+01 0.  1.
        -11    1    1    2    0    0 -0.48970237185E+02 -0.11326410222E+02 -0.54553077456E+02  0.74178231027E+02  0.00000000000E+00 0. -1.
         11    1    1    2    0    0 -0.13011769312E+02 -0.79049645281E+02 -0.26545049135E+02  0.84396636149E+02  0.00000000000E+00 0.  1.
</event>
<event>
 7    1  0.2989693E-009  0.9488161E+02  0.7561462E-02  0.1291443E+00
          2   -1    0    0  501    0  0.00000000000E+00  0.00000000000E+00  0.87087630140E+03  0.87087630140E+03  0.00000000000E+00 0. -1.
         -2   -1    0    0    0  501 -0.00000000000E+00 -0.00000000000E+00 -0.15390642422E+02  0.15390642422E+02  0.00000000000E+00 0.  1.
         25    2    1    2    0    0  0.27468692897E+02  0.14995754303E+02  0.64554202120E+03  0.65829368077E+03  0.12508663904E+03 0.  0.
          5    1    3    3  502    0  0.30297941337E+02  0.54295120383E+02  0.16927455834E+03  0.18038091320E+03  0.41800000000E+01 0. -1.
         -5    1    3    3    0  502 -0.28292484395E+01 -0.39299366080E+02  0.47626746287E+03  0.47791276757E+03  0.41800000000E+01 0. -1.
        -11    1    1    2    0    0 -0.33916444162E+02 -0.45441441010E+02  0.15143425910E+03  0.16170214771E+03  0.00000000000E+00 0.  1.
         11    1    1    2    0    0  0.64477512649E+01  0.30445686707E+02  0.58509378672E+02  0.66271115337E+02  0.00000000000E+00 0. -1.
</event>
<event>
 7    1  0.2989693E-009  0.1181509E+03  0.7561462E-02  0.1246179E+00
         -1   -1    0    0    0  501 -0.00000000000E+00  0.00000000000E+00  0.22058427620E+02  0.22058427620E+02  0.00000000000E+00 0.  1.
          1   -1    0    0  501    0  0.00000000000E+00 -0.00000000000E+00 -0.91260845526E+03  0.91260845526E+03  0.00000000000E+00 0. -1.
         25    2    1    2    0    0  0.89368150422E+02 -0.31159496331E+01 -0.55334397626E+03  0.57431231200E+03  0.12509476487E+03 0.  0.
          5    1    3    3  502    0  0.75592191884E+02 -0.38064508040E+02 -0.17877378648E+03  0.19783989835E+03  0.41800000000E+01 0.  1.
         -5    1    3    3    0  502  0.13775958539E+02  0.34948558407E+02 -0.37457018978E+03  0.37647241365E+03  0.41800000000E+01 0.  1.
        -11    1    1    2    0    0 -0.43362803500E+02  0.36698347977E+02 -0.24869243054E+03  0.25509807227E+03  0.00000000000E+00 0.  1.
         11    1    1    2    0    0 -0.46005346922E+02 -0.33582398344E+02 -0.88513620837E+02  0.10525649860E+03  0.00000000000E+00 0. -1.
</event>
<event>
 7    1  0.2989693E-009  0.2037860E+03  0.7561462E-02  0.1146584E+00
          2   -1    0    0  501    0  0.00000000000E+00  0.00000000000E+00  0.19702897157E+04  0.19702897157E+04  0.00000000000E+00 0. -1.
         -2   -1    0    0    0  501 -0.00000000000E+00 -0.00000000000E+00 -0.24157070149E+02  0.24157070149E+02  0.00000000000E+00 0.  1.
         25    2    1    2    0    0 -0.10076102904E+03  0.14599330265E+03  0.12214765030E+04  0.12406120788E+04  0.12508658297E+03 0.  0.
          5    1    3    3  502    0 -0.96173926860E+01  0.11330990001E+03  0.80528079133E+03  0.81328116476E+03  0.41800000000E+01 0. -1.
         -5    1    3    3    0  502 -0.91143636355E+02  0.32683402638E+02  0.41619571168E+03  0.42733091402E+03  0.41800000000E+01 0. -1.
        -11    1    1    2    0    0  0.32558822692E+02 -0.11923029016E+03  0.32894582377E+03  0.35139905236E+03  0.00000000000E+00 0.  1.
         11    1    1    2    0    0  0.68202206349E+02 -0.26763012485E+02  0.39571031878E+03  0.40243565470E+03  0.00000000000E+00 0. -1.
</event>
<event>
 7    1  0.2989693E-009  0.1002422E+03  0.7561462E-02  0.1279787E+00
         -2   -1    0    0    0  501 -0.00000000000E+00  0.00000000000E+00  0.12619280273E+02  0.12619280273E+02  0.00000000000E+00 0.  1.
          2   -1    0    0  501    0  0.00000000000E+00 -0.00000000000E+00 -0.24261069506E+04  0.24261069506E+04  0.00000000000E+00 0. -1.
         25    2    1    2    0    0 -0.10760157550E+02 -0.71726432997E+02 -0.21145864339E+04  0.21195246370E+04  0.12509371622E+03 0.  0.
          5    1    3    3  502    0  0.36893365476E+01 -0.73169765428E+02 -0.55097867971E+03  0.55584386628E+03  0.41800000000E+01 0.  1.
         -5    1    3    3    0  502 -0.14449494098E+02  0.14433324307E+01 -0.15636077542E+04  0.15636807707E+04  0.41800000000E+01 0.  1.
        -11    1    1    2    0    0  0.38194414026E+02  0.75194630110E+02 -0.22797581161E+03  0.24307615338E+03  0.00000000000E+00 0.  1.
         11    1    1    2    0    0 -0.27434256476E+02 -0.34681971125E+01 -0.70925424775E+02  0.76125440551E+02  0.00000000000E+00 0. -1.
</event>
<event>
 7    1  0.2989693E-009  0.1207879E+03  0.7561462E-02  0.1241803E+00
         -2   -1    0    0    0  501 -0.00000000000E+00  0.00000000000E+00  0.17547372290E+02  0.17547372290E+02  0.00000000000E+00 0.  1.
          2   -1    0    0  501    0  0.00000000000E+00 -0.00000000000E+00 -0.11532449362E+04  0.11532449362E+04  0.00000000000E+00 0. -1.
         25    2    1    2    0    0  0.83876814102E+02 -0.15461855848E+02 -0.75076125885E+03  0.76587480739E+03  0.12508942356E+03 0.  0.
          5    1    3    3  502    0  0.38964188171E+02  0.54598867007E+02 -0.37634412854E+03  0.38229781549E+03  0.41800000000E+01 0.  1.
         -5    1    3    3    0  502  0.44912625931E+02 -0.70060722856E+02 -0.37441713030E+03  0.38357699190E+03  0.41800000000E+01 0.  1.
        -11    1    1    2    0    0 -0.64393417821E+02  0.25339333537E+02 -0.37426046705E+03  0.38060411358E+03  0.00000000000E+00 0. -1.
         11    1    1    2    0    0 -0.19483396280E+02 -0.98774776890E+01 -0.10675838061E+02  0.24313387555E+02  0.00000000000E+00 0.  1.
</event>
<event>
 7    1  0.2989693E-009  0.1295094E+03  0.7561462E-02  0.1228185E+00
         -2   -1    0    0    0  501 -0.00000000000E+00  0.00000000000E+00  0.74393369136E+02  0.74393369136E+02  0.00000000000E+00 0.  1.
          2   -1    0    0  501    0  0.00000000000E+00 -0.00000000000E+00 -0.43033008646E+03  0.43033008646E+03  0.00000000000E+00 0. -1.
         25    2    1    2    0    0 -0.91139457362E+02 -0.68582212216E+02 -0.30472323411E+03  0.34858754386E+03  0.12508839198E+03 0.  0.
          5    1    3    3  502    0 -0.22162076744E+02 -0.45376612851E+02 -0.25586019540E+03  0.26082965059E+03  0.41800000000E+01 0.  1.
         -5    1    3    3    0  502 -0.68977380618E+02 -0.23205599364E+02 -0.48863038712E+02  0.87757893268E+02  0.41800000000E+01 0.  1.
        -11    1    1    2    0    0  0.61969054740E+02  0.11503745548E+01  0.70331839463E+01  0.62377502221E+02  0.00000000000E+00 0.  1.
         11    1    1    2    0    0  0.29170402622E+02  0.67431837661E+02 -0.58246667165E+02  0.93758409517E+02  0.00000000000E+00 0. -1.
</event>
<event>
 7    1  0.2989693E-009  0.1149080E+03  0.7561462E-02  0.1251742E+00
          3   -1    0    0  501    0  0.00000000000E+00  0.00000000000E+00  0.13017659869E+03  0.13017659869E+03  0.00000000000E+00 0. -1.
         -3   -1    0    0    0  501 -0.00000000000E+00 -0.00000000000E+00 -0.19409233602E+03  0.19409233602E+03  0.00000000000E+00 0.  1.
         25    2    1    2    0    0 -0.17965857063E+02 -0.98489662865E+02  0.24726817887E+02  0.16211781457E+03  0.12509110507E+03 0.  0.
          5    1    3    3  502    0  0.13360359557E+02 -0.34858800919E+02  0.68887960461E+02  0.78464378578E+02  0.41800000000E+01 0.  1.
         -5    1    3    3    0  502 -0.31326216621E+02 -0.63630861946E+02 -0.44161142575E+02  0.83653435992E+02  0.41800000000E+01 0.  1.
        -11    1    1    2    0    0 -0.16845248834E+02  0.10822410199E+00  0.91181761308E+01  0.19155032151E+02  0.00000000000E+00 0. -1.
         11    1    1    2    0    0  0.34811105897E+02  0.98381438763E+02 -0.97760731352E+02  0.14299608799E+03  0.00000000000E+00 0.  1.
</event>
<event>
 7    1  0.2989693E-009  0.1221769E+03  0.7561462E-02  0.1239548E+00
          1   -1    0    0  501    0  0.00000000000E+00  0.00000000000E+00  0.47281503582E+03  0.47281503582E+03  0.00000000000E+00 0. -1.
         -1   -1    0    0    0  501 -0.00000000000E+00 -0.00000000000E+00 -0.43310761188E+02  0.43310761188E+02  0.00000000000E+00 0.  1.
         25    2    1    2    0    0 -0.55199349072E+02  0.15750027441E+02  0.36578361120E+03  0.39082079433E+03  0.12509281179E+03 0.  0.
          5    1    3    3  502    0 -0.30173275039E+02 -0.54449283210E+02  0.18482869705E+03  0.19507503844E+03  0.41800000000E+01 0. -1.
         -5    1    3    3    0  502 -0.25026074034E+02  0.70199310650E+02  0.18095491415E+03  0.19574575590E+03  0.41800000000E+01 0. -1.
        -11    1    1    2    0    0  0.56791255989E+02  0.28153497521E+02  0.43925758240E+02  0.77118988689E+02  0.00000000000E+00 0.  1.
         11    1    1    2    0    0 -0.15919069168E+01 -0.43903524962E+02  0.19794905189E+02  0.48186013979E+02  0.00000000000E+00 0. -1.
</event>
<event>
 7    1  0.2989693E-009  0.1056187E+03  0.7561462E-02  0.1268905E+00
          1   -1    0    0  501    0  0.00000000000E+00  0.00000000000E+00  0.70046323183E+02  0.70046323183E+02  0.00000000000E+00 0.  1.
         -1   -1    0    0    0  501 -0.00000000000E+00 -0.00000000000E+00 -0.28298293530E+03  0.28298293530E+03  0.00000000000E+00 0. -1.
         25    2    1    2    0    0  0.67740971271E+00  0.80051595298E+02 -0.16461041839E+03  0.22170427801E+03  0.12508988870E+03 0.  0.
          5    1    3    3  502    0 -0.22386597320E+02  0.13254944957E+02 -0.14620534320E+03  0.14856085651E+03  0.41800000000E+01 0. -1.
         -5    1    3    3    0  502  0.23064007033E+02  0.66796650341E+02 -0.18405075183E+02  0.73143421506E+02  0.41800000000E+01 0. -1.
        -11    1    1    2    0    0  0.36950641222E+02 -0.17004951126E+02  0.44281210671E+01  0.40916091036E+02  0.00000000000E+00 0.  1.
         11    1    1    2    0    0 -0.37628050935E+02 -0.63046644172E+02 -0.52754314799E+02  0.90408889433E+02  0.00000000000E+00 0. -1.
</event>
<event>
 7    1  0.2989693E-009  0.2301400E+03  0.7561462E-02  0.1126541E+00
          1   -1    0    0  501    0  0.00000000000E+00  0.00000000000E+00  0.14614755379E+04  0.14614755379E+04  0.00000000000E+00 0. -1.
         -1   -1    0    0    0  501 -0.00000000000E+00 -0.00000000000E+00 -0.36736137322E+02  0.36736137322E+02  0.00000000000E+00 0.  1.
         25    2    1    2    0    0 -0.18685841499E+03  0.78954892286E+02  0.66622483863E+03  0.70756746638E+03  0.12508493756E+03 0.  0.
          5    1    3    3  502    0 -0.72145049396E+02 -0.31663052725E+02  0.22309903803E+03  0.23663919842E+03  0.41800000000E+01 0. -1.
         -5    1    3    3    0  502 -0.11471336559E+03  0.11061794501E+03  0.44312580060E+03  0.47092826795E+03  0.41800000000E+01 0. -1.
        -11    1    1    2    0    0  0.38424202925E+02  0.20249862822E+02  0.11909165022E+03  0.12676473274E+03  0.00000000000E+00 0.  1.
         11    1    1    2    0    0  0.14843421206E+03 -0.99204755108E+02  0.63942291178E+03  0.66387947615E+03  0.00000000000E+00 0. -1.
</event>
<event>
 7    1  0.2989693E-009  0.1542592E+03  0.7561462E-02  0.1195335E+00
          2   -1    0    0  501    0  0.00000000000E+00  0.00000000000E+00  0.14433714024E+03  0.14433714024E+03  0.00000000000E+00 0. -1.
         -2   -1    0    0    0  501 -0.00000000000E+00 -0.00000000000E+00 -0.19818124792E+03  0.19818124792E+03  0.00000000000E+00 0.  1.
         25    2    1    2    0    0  0.16407742225E+02 -0.80876341150E+02 -0.53883526590E+02  0.15928885815E+03  0.12513716207E+03 0.  0.
          5    1    3    3  502    0  0.71046415992E+02 -0.42343178639E+02 -0.26961673617E+02  0.87091573913E+02  0.41800000000E+01 0.  1.
         -5    1    3    3    0  502 -0.54638673766E+02 -0.38533162511E+02 -0.26921852973E+02  0.72197284239E+02  0.41800000000E+01 0.  1.
        -11    1    1    2    0    0 -0.75216694711E+02  0.60323694825E+02  0.45000188784E+02  0.10640261421E+03  0.00000000000E+00 0. -1.
         11    1    1    2    0    0  0.58808952486E+02  0.20552646325E+02 -0.44960769868E+02  0.76826915795E+02  0.00000000000E+00 0.  1.
</event>
<event>
 7    1  0.2989693E-009  0.1035488E+03  0.7561462E-02  0.1273006E+00
         -2   -1    0    0    0  501 -0.00000000000E+00  0.00000000000E+00  0.23857577720E+03  0.23857577720E+03  0.00000000000E+00 0. -1.
          2   -1    0    0  501    0  0.00000000000E+00 -0.00000000000E+00 -0.61389420180E+02  0.61389420180E+02  0.00000000000E+00 0.  1.
         25    2    1    2    0    0  0.55146664560E+02  0.37733349239E+01  0.12868682462E+03  0.18778625147E+03  0.12509190518E+03 0.  0.
          5    1    3    3  502    0  0.25585258953E+02  0.57415849677E+02  0.10405240293E+03  0.12163700187E+03  0.41800000000E+01 0.  1.
         -5    1    3    3    0  502  0.29561405607E+02 -0.53642514753E+02  0.24634421696E+02  0.66149249601E+02  0.41800000000E+01 0.  1.
        -11    1    1    2    0    0 -0.50501173331E+02 -0.28202314698E+02  0.61240141514E+02  0.84238316666E+02  0.00000000000E+00 0. -1.
         11    1    1    2    0    0 -0.46454912289E+01  0.24428979775E+02 -0.12740609117E+02  0.27940629239E+02  0.00000000000E+00 0.  1.
</event>
<event>
 7    1  0.2989693E-009  0.1462403E+03  0.7561462E-02  0.1205171E+00
         -3   -1    0    0    0  501 -0.00000000000E+00  0.00000000000E+00  0.45838671076E+03  0.45838671076E+03  0.00000000000E+00 0.  1.
          3   -1    0    0  501    0  0.00000000000E+00 -0.00000000000E+00 -0.59260512301E+02  0.59260512301E+02  0.00000000000E+00 0. -1.
         25    2    1    2    0    0  0.86070037098E+02 -0.83930437389E+02  0.17063357506E+03  0.24332778175E+03  0.12506087648E+03 0.  0.
          5    1    3    3  502    0  0.46396468362E+02  0.27283756568E+02  0.40013694471E+02  0.67198242493E+02  0.41800000000E+01 0. -1.
         -5    1    3    3    0  502  0.39673568736E+02 -0.11121419396E+03  0.13061988059E+03  0.17612953925E+03  0.41800000000E+01 0. -1.
        -11    1    1    2    0    0 -0.49332619516E+02  0.51846205700E+02  0.45192859330E+02  0.84641189313E+02  0.00000000000E+00 0. -1.
         11    1    1    2    0    0 -0.36737417582E+02  0.32084231688E+02  0.18329976408E+03  0.18967825201E+03  0.00000000000E+00 0.  1.
</event>
<event>
 7    1  0.2989693E-009  0.1478511E+03  0.7561462E-02  0.1203139E+00
          2   -1    0    0  501    0  0.00000000000E+00  0.00000000000E+00  0.14913683239E+04  0.14913683239E+04  0.00000000000E+00 0.  1.
         -2   -1    0    0    0  501 -0.00000000000E+00 -0.00000000000E+00 -0.31493788397E+02  0.31493788397E+02  0.00000000000E+00 0. -1.
         25    2    1    2    0    0  0.12737454706E+03 -0.34108320501E+02  0.12278712904E+04  0.12412504736E+04  0.12508868699E+03 0.  0.
          5    1    3    3  502    0 -0.10407315400E+02 -0.46369199628E+01  0.48336585662E+03  0.48351818682E+03  0.41800000000E+01 0.  1.
         -5    1    3    3    0  502  0.13778186246E+03 -0.29471400538E+02  0.74450543378E+03  0.75773228676E+03  0.41800000000E+01 0.  1.
        -11    1    1    2    0    0 -0.21689331966E+02  0.29767695982E+02  0.12829785202E+03  0.13347989241E+03  0.00000000000E+00 0.  1.
         11    1    1    2    0    0 -0.10568521509E+03  0.43406245196E+01  0.10370539310E+03  0.14813174632E+03  0.00000000000E+00 0. -1.
</event>
<event>
 7    1  0.2989693E-009  0.1545588E+03  0.7561462E-02  0.1194981E+00
         -1   -1    0    0    0  501 -0.00000000000E+00  0.00000000000E+00  0.16727776921E+03  0.16727776921E+03  0.00000000000E+00 0.  1.
          1   -1    0    0  501    0  0.00000000000E+00 -0.00000000000E+00 -0.18025884923E+03  0.18025884923E+03  0.00000000000E+00 0. -1.
         25    2    1    2    0    0  0.67652445085E+02 -0.11090906509E+03  0.28119297030E+02  0.18252766535E+03  0.12509188506E+03 0.  0.
          5    1    3    3  502    0  0.83365181898E+02 -0.88876685402E+02 -0.23429020313E+02  0.12415800479E+03  0.41800000000E+01 0.  1.
         -5    1    3    3    0  502 -0.15712736813E+02 -0.22032379692E+02  0.51548317343E+02  0.58369660561E+02  0.41800000000E+01 0.  1.
        -11    1    1    2    0    0 -0.87452820276E+02  0.62455696742E+02 -0.27831735701E+02  0.11101042898E+03  0.00000000000E+00 0.  1.
         11    1    1    2    0    0  0.19800375190E+02  0.48453368353E+02 -0.13268641347E+02  0.53998524105E+02  0.00000000000E+00 0. -1.
</event>
<event>
 7    1  0.2989693E-009  0.1927770E+03  0.7561462E-02  0.1155980E+00
          1   -1    0    0  501    0  0.00000000000E+00  0.00000000000E+00  0.48746038587E+03  0.48746038587E+03  0.00000000000E+00 0. -1.
         -1   -1    0    0    0  501 -0.00000000000E+00 -0.00000000000E+00 -0.88042251073E+02  0.88042251073E+02  0.00000000000E+00 0.  1.
         25    2    1    2    0    0 -0.14350295527E+03  0.11426730172E+03  0.23014531636E+03  0.31978860659E+03  0.12509105424E+03 0.  0.
          5    1    3    3  502    0 -0.32156788137E+02 -0.85335626903E+01  0.11006029174E+03  0.11505486054E+03  0.41800000000E+01 0. -1.
         -5    1    3    3    0  502 -0.11134616714E+03  0.12280086441E+03  0.12008502461E+03  0.20473374605E+03  0.41800000000E+01 0. -1.
        -11    1    1    2    0    0  0.90119188987E+02 -0.51463752115E+02  0.12391460194E+03  0.16163172516E+03  0.00000000000E+00 0.  1.
         11    1    1    2    0    0  0.53383766286E+02 -0.62803549602E+02  0.45358216502E+02  0.94082305189E+02  0.00000000000E+00 0. -1.
</event>
<event>
 7    1  0.2989693E-009  0.1209526E+03  0.7561462E-02  0.1241534E+00
         -1   -1    0    0    0  501 -0.00000000000E+00  0.00000000000E+00  0.56892512987E+03  0.56892512987E+03  0.00000000000E+00 0.  1.
          1   -1    0    0  501    0  0.00000000000E+00 -0.00000000000E+00 -0.28014566828E+02  0.28014566828E+02  0.00000000000E+00 0. -1.
         25    2    1    2    0    0 -0.16099478922E+02  0.62992711126E+02  0.29348102071E+03  0.32558624686E+03  0.12509204513E+03 0.  0.
          5    1    3    3  502    0  0.27228849680E+02 -0.22420590473E+02  0.34852319711E+02  0.49761930442E+02  0.41800000000E+01 0. -1.
         -5    1    3    3    0  502 -0.43328328601E+02  0.85413301599E+02  0.25862870100E+03  0.27582431642E+03  0.41800000000E+01 0. -1.
        -11    1    1    2    0    0  0.50871703555E+02 -0.54847065203E+02  0.15079849352E+03  0.16833394320E+03  0.00000000000E+00 0.  1.
         11    1    1    2    0    0 -0.34772224633E+02 -0.81456459230E+01  0.96631048812E+02  0.10301950664E+03  0.00000000000E+00 0. -1.
</event>
<event>
 7    1  0.2989693E-009  0.1062316E+03  0.7561462E-02  0.1267712E+00
          1   -1    0    0  501    0  0.00000000000E+00  0.00000000000E+00  0.25243826150E+02  0.25243826150E+02  0.00000000000E+00 0. -1.
         -1   -1    0    0    0  501 -0.00000000000E+00 -0.00000000000E+00 -0.57726464817E+03  0.57726464817E+03  0.00000000000E+00 0.  1.
         25    2    1    2    0    0  0.49333122914E+02  0.85416799091E+01 -0.26052913668E+03  0.29330784859E+03  0.12508935076E+03 0.  0.
          5    1    3    3  502    0  0.11305663996E+02 -0.44458680279E+02 -0.19642865135E+03  0.20175747758E+03  0.41800000000E+01 0. -1.
         -5    1    3    3    0  502  0.38027458918E+02  0.53000360188E+02 -0.64100485335E+02  0.91550371010E+02  0.41800000000E+01 0. -1.
        -11    1    1    2    0    0 -0.24309143877E+02  0.39778854469E+02 -0.10396964822E+03  0.11394287819E+03  0.00000000000E+00 0.  1.
         11    1    1    2    0    0 -0.25023979037E+02 -0.48320534378E+02 -0.18752203712E+03  0.19525774754E+03  0.00000000000E+00 0. -1.
</event>
<event>
 7    1  0.2989693E-009  0.2053356E+03  0.7561462E-02  0.1145314E+00
         -2   -1    0    0    0  501 -0.00000000000E+00  0.00000000000E+00  0.33936724745E+02  0.33936724745E+02  0.00000000000E+00 0. -1.
          2   -1    0    0  501    0  0.00000000000E+00 -0.00000000000E+00 -0.13673747106E+04  0.13673747106E+04  0.00000000000E+00 0.  1.
         25    2    1    2    0    0  0.12238215659E+03  0.12253462353E+03 -0.48250971398E+03  0.52768515340E+03  0.12507546049E+03 0.  0.
          5    1    3    3  502    0 -0.25650060248E+02  0.18940537816E+02 -0.89810006357E+02  0.95393811148E+02  0.41800000000E+01 0. -1.
         -5    1    3    3    0  502  0.14803221684E+03  0.10359408571E+03 -0.39269970762E+03  0.43229134225E+03  0.41800000000E+01 0. -1.
        -11    1    1    2    0    0 -0.11031905864E+03 -0.13894679499E+03 -0.76981416323E+03  0.78999389393E+03  0.00000000000E+00 0. -1.
         11    1    1    2    0    0 -0.12063097949E+02  0.16412171467E+02 -0.81114108688E+02  0.83632388060E+02  0.00000000000E+00 0.  1.
</event>
<event>
 7    1  0.2989693E-009  0.1527497E+03  0.7561462E-02  0.1197134E+00
         -1   -1    0    0    0  501 -0.00000000000E+00  0.00000000000E+00  0.33698172306E+02  0.33698172306E+02  0.00000000000E+00 0.  1.
          1   -1    0    0  501    0  0.00000000000E+00 -0.00000000000E+00 -0.11065201206E+04  0.11065201206E+04  0.00000000000E+00 0. -1.
         25    2    1    2    0    0  0.11882617309E+03  0.81974759102E+02 -0.76339849837E+03  0.78693356833E+03  0.12509057965E+03 0.  0.
          5    1    3    3  502    0  0.23911261828E+02  0.47148953679E+02 -0.52867268150E+03  0.53132574645E+03  0.41800000000E+01 0.  1.
         -5    1    3    3    0  502  0.94914911263E+02  0.34825805423E+02 -0.23472581686E+03  0.25560782188E+03  0.41800000000E+01 0.  1.
        -11    1    1    2    0    0 -0.41798733632E+02 -0.45168161259E+01 -0.25740155593E+02  0.49295956944E+02  0.00000000000E+00 0.  1.
         11    1    1    2    0    0 -0.77027439459E+02 -0.77457942976E+02 -0.28368329429E+03  0.30398876759E+03  0.00000000000E+00 0. -1.
</event>
<event>
 7    1  0.2989693E-009  0.1161556E+03  0.7561462E-02  0.1249577E+00
         -2   -1    0    0    0  501 -0.00000000000E+00  0.00000000000E+00  0.25138103156E+02  0.25138103156E+02  0.00000000000E+00 0. -1.
          2   -1    0    0  501    0  0.00000000000E+00 -0.00000000000E+00 -0.73420638396E+03  0.73420638396E+03  0.00000000000E+00 0.  1.
         25    2    1    2    0    0  0.68117748683E+02  0.33259279946E+02 -0.30217727268E+03  0.33571579749E+03  0.12509110746E+03 0.  0.
          5    1    3    3  502    0  0.60600904510E+02 -0.38935853109E+02 -0.17376504375E+03  0.18814949672E+03  0.41800000000E+01 0.  1.
         -5    1    3    3    0  502  0.75168441728E+01  0.72195133055E+02 -0.12841222893E+03  0.14756630077E+03  0.41800000000E+01 0.  1.
        -11    1    1    2    0    0 -0.17357401145E+02  0.10626604542E+02 -0.13194726425E+02  0.24254997506E+02  0.00000000000E+00 0. -1.
         11    1    1    2    0    0 -0.50760347538E+02 -0.43885884488E+02 -0.39369628169E+03  0.39937369212E+03  0.00000000000E+00 0.  1.
</event>
<event>
 7    1  0.2989693E-009  0.1062493E+03  0.7561462E-02  0.1267678E+00
          4   -1    0    0  501    0  0.00000000000E+00  0.00000000000E+00  0.89881618094E+03  0.89881618094E+03  0.00000000000E+00 0. -1.
         -4   -1    0    0    0  501 -0.00000000000E+00 -0.00000000000E+00 -0.16731482408E+02  0.16731482408E+02  0.00000000000E+00 0.  1.
         25    2    1    2    0    0 -0.26347181564E+02 -0.51388641867E+02  0.48136521101E+03  0.50069495556E+03  0.12509198879E+03 0.  0.
          5    1    3    3  502    0 -0.59167583751E+02 -0.45678151106E+02  0.15011606305E+03  0.16774862516E+03  0.41800000000E+01 0.  1.
         -5    1    3    3    0  502  0.32820402187E+02 -0.57104907613E+01  0.33124914796E+03  0.33294633040E+03  0.41800000000E+01 0.  1.
        -11    1    1    2    0    0  0.47718457258E+02  0.63548874553E+02  0.34351192216E+03  0.35258467251E+03  0.00000000000E+00 0. -1.
         11    1    1    2    0    0 -0.21371275694E+02 -0.12160232685E+02  0.57207565364E+02  0.62268035288E+02  0.00000000000E+00 0.  1.
</event>
<event>
 7    1  0.2989693E-009  0.1429022E+03  0.7561462E-02  0.1209476E+00
         -2   -1    0    0    0  501 -0.00000000000E+00  0.00000000000E+00  0.60598388433E+03  0.60598388433E+03  0.00000000000E+00 0.  1.
          2   -1    0    0  501    0  0.00000000000E+00 -0.00000000000E+00 -0.36656465918E+02  0.36656465918E+02  0.00000000000E+00 0. -1.
         25    2    1    2    0    0  0.14361486671E+02 -0.99701388194E+02  0.33993263311E+03  0.37596672833E+03  0.12510062612E+03 0.  0.
          5    1    3    3  502    0 -0.46371701825E+02 -0.83517003661E+02  0.23304658434E+03  0.25189999505E+03  0.41800000000E+01 0. -1.
         -5    1    3    3    0  502  0.60733188496E+02 -0.16184384533E+02  0.10688604876E+03  0.12406673328E+03  0.41800000000E+01 0. -1.
        -11    1    1    2    0    0  0.86743387312E+01  0.10348671427E+03  0.21622366843E+03  0.23986958742E+03  0.00000000000E+00 0.  1.
         11    1    1    2    0    0 -0.23035825402E+02 -0.37853260763E+01  0.13171116886E+02  0.26804034500E+02  0.00000000000E+00 0. -1.
</event>
<event>
 7    1  0.2989693E-009  0.8915944E+02  0.7561462E-02  0.1304900E+00
          1   -1    0    0  501    0  0.00000000000E+00  0.00000000000E+00  0.39612379909E+03  0.39612379909E+03  0.00000000000E+00 0. -1.
         -1   -1    0    0    0  501 -0.00000000000E+00 -0.00000000000E+00 -0.49526301595E+02  0.49526301595E+02  0.00000000000E+00 0.  1.
         25    2    1    2    0    0 -0.60179782164E+02 -0.35352088663E+01  0.27968654381E+03  0.31225893763E+03  0.12508787895E+03 0.  0.
          5    1    3    3  502    0 -0.22288371259E+02  0.64560611681E+01 -0.56240363543E+01  0.24239521532E+02  0.41800000000E+01 0.  1.
         -5    1    3    3    0  502 -0.37891410905E+02 -0.99912700345E+01  0.28531058017E+03  0.28801941610E+03  0.41800000000E+01 0.  1.
        -11    1    1    2    0    0 -0.27214685006E+01 -0.39195171646E+02  0.20708130189E+02  0.44412774369E+02  0.00000000000E+00 0.  1.
         11    1    1    2    0    0  0.62901250664E+02  0.42730380513E+02  0.46202823496E+02  0.88978388685E+02  0.00000000000E+00 0. -1.
</event>
<event>
 7    1  0.2989693E-009  0.1560202E+03  0.7561462E-02  0.1193265E+00
         -2   -1    0    0    0  501 -0.00000000000E+00  0.00000000000E+00  0.21690132530E+04  0.21690132530E+04  0.00000000000E+00 0.  1.
          2   -1    0    0  501    0  0.00000000000E+00 -0.00000000000E+00 -0.31339086178E+02  0.31339086178E+02  0.00000000000E+00 0. -1.
         25    2    1    2    0    0  0.13826752963E+03  0.19468928426E+02  0.19078797744E+04  0.19170679247E+04  0.12508895040E+03 0.  0.
          5    1    3    3  502    0  0.12308801831E+03  0.53981705826E+02  0.17284041095E+04  0.17336271003E+04  0.41800000000E+01 0.  1.
         -5    1    3    3    0  502  0.15179511319E+02 -0.34512777400E+02  0.17947566491E+03  0.18344082442E+03  0.41800000000E+01 0.  1.
        -11    1    1    2    0    0 -0.33184597753E+02 -0.41856329861E+01  0.38974219344E+01  0.33673831817E+02  0.00000000000E+00 0. -1.
         11    1    1    2    0    0 -0.10508293188E+03 -0.15283295440E+02  0.22589697053E+03  0.24961058268E+03  0.00000000000E+00 0.  1.
</event>
<event>
 7    1  0.2989693E-009  0.7552677E+02  0.7561462E-02  0.1342247E+00
          1   -1    0    0  501    0  0.00000000000E+00  0.00000000000E+00  0.62529727220E+02  0.62529727220E+02  0.00000000000E+00 0. -1.
         -1   -1    0    0    0  501 -0.00000000000E+00 -0.00000000000E+00 -0.37206341259E+03  0.37206341259E+03  0.00000000000E+00 0.  1.
         25    2    1    2    0    0 -0.71494086693E+02 -0.16081212611E+01 -0.27897384739E+03  0.31398846555E+03  0.12509339904E+03 0.  0.
          5    1    3    3  502    0 -0.64423837507E+02 -0.12104373514E+02 -0.44965712855E+02  0.79601095657E+02  0.41800000000E+01 0.  1.
         -5    1    3    3    0  502 -0.70702491860E+01  0.10496252253E+02 -0.23400813453E+03  0.23438736989E+03  0.41800000000E+01 0.  1.
        -11    1    1    2    0    0  0.45281173279E+02  0.52191878325E+01 -0.63617549062E+02  0.78261210851E+02  0.00000000000E+00 0. -1.
         11    1    1    2    0    0  0.26212913413E+02 -0.36110665714E+01  0.33057711085E+02  0.42343463410E+02  0.00000000000E+00 0.  1.
</event>
<event>
 7    1  0.2989693E-009  0.9367498E+02  0.7561462E-02  0.1294189E+00
          1   -1    0    0  501    0  0.00000000000E+00  0.00000000000E+00  0.55870999014E+03  0.55870999014E+03  0.00000000000E+00 0. -1.
         -1   -1    0    0    0  501 -0.00000000000E+00 -0.00000000000E+00 -0.41636017354E+02  0.41636017354E+02  0.00000000000E+00 0.  1.
         25    2    1    2    0    0  0.22232726454E+02 -0.64034021708E+02  0.44131016379E+03  0.46367787984E+03  0.12509142866E+03 0.  0.
          5    1    3    3  502    0 -0.89365181953E+01  0.13267429939E+02  0.21664987804E+01  0.16674896450E+02  0.41800000000E+01 0. -1.
         -5    1    3    3    0  502  0.31169244649E+02 -0.77301451648E+02  0.43914366501E+03  0.44700298339E+03  0.41800000000E+01 0. -1.
        -11    1    1    2    0    0  0.16132345513E+02  0.37191789010E+02  0.79967940420E+02  0.89656863857E+02  0.00000000000E+00 0. -1.
         11    1    1    2    0    0 -0.38365071967E+02  0.26842232698E+02 -0.42041314222E+01  0.47011263802E+02  0.00000000000E+00 0.  1.
</event>
<event>
 7    1  0.2989693E-009  0.1578488E+03  0.7561462E-02  0.1191147E+00
         -1   -1    0    0    0  501 -0.00000000000E+00  0.00000000000E+00  0.18353314212E+03  0.18353314212E+03  0.00000000000E+00 0.  1.
          1   -1    0    0  501    0  0.00000000000E+00 -0.00000000000E+00 -0.16815178222E+03  0.16815178222E+03  0.00000000000E+00 0. -1.
         25    2    1    2    0    0  0.64408236265E+02 -0.11426267771E+03  0.60693110500E+02  0.19114300629E+03  0.12509042639E+03 0.  0.
          5    1    3    3  502    0  0.17727843614E+02  0.26289366789E+02  0.29130390762E+01  0.32114878826E+02  0.41800000000E+01 0.  1.
         -5    1    3    3    0  502  0.46680392651E+02 -0.14055204450E+03  0.57780071424E+02  0.15902812746E+03  0.41800000000E+01 0.  1.
        -11    1    1    2    0    0 -0.12871661894E+02  0.57345179610E+02  0.17519951709E+02  0.61327791517E+02  0.00000000000E+00 0.  1.
         11    1    1    2    0    0 -0.51536574370E+02  0.56917498101E+02 -0.62831702309E+02  0.99214126530E+02  0.00000000000E+00 0. -1.
</event>
<event>
 7    1  0.2989693E-009  0.1416786E+03  0.7561462E-02  0.1211088E+00
          2   -1    0    0  501    0  0.00000000000E+00  0.00000000000E+00  0.86384195551E+03  0.86384195551E+03  0.00000000000E+00 0. -1.
         -2   -1    0    0    0  501 -0.00000000000E+00 -0.00000000000E+00 -0.29576079791E+02  0.29576079791E+02  0.00000000000E+00 0.  1.
         25    2    1    2    0    0  0.62277855138E+02 -0.98197686726E+02  0.40674129567E+03  0.44114343624E+03  0.12509089823E+03 0.  0.
          5    1    3    3  502    0  0.89516795149E+02 -0.39420192563E+02  0.17546954197E+03  0.20093342369E+03  0.41800000000E+01 0.  1.
         -5    1    3    3    0  502 -0.27238940011E+02 -0.58777494164E+02  0.23127175370E+03  0.24021001256E+03  0.41800000000E+01 0.  1.
        -11    1    1    2    0    0 -0.27827961751E+02  0.17702295463E+02  0.27986864348E+02  0.43255419267E+02  0.00000000000E+00 0.  1.
         11    1    1    2    0    0 -0.34449893386E+02  0.80495391263E+02  0.39953771570E+03  0.40901917979E+03  0.00000000000E+00 0. -1.
</event>
<event>
 7    1  0.2989693E-009  0.1584992E+03  0.7561462E-02  0.1190402E+00
          2   -1    0    0  501    0  0.00000000000E+00  0.00000000000E+00  0.14040743149E+03  0.14040743149E+03  0.00000000000E+00 0. -1.
         -2   -1    0    0    0  501 -0.00000000000E+00 -0.00000000000E+00 -0.20164678841E+03  0.20164678841E+03  0.00000000000E+00 0.  1.
         25    2    1    2    0    0  0.10326888473E+03 -0.69118821457E+02 -0.86380133279E+02  0.19633595042E+03  0.12507759179E+03 0.  0.
          5    1    3    3  502    0  0.96305853340E+02  0.98637847575E+01 -0.48712160768E+02  0.10845486916E+03  0.41800000000E+01 0. -1.
         -5    1    3    3    0  502  0.69630313926E+01 -0.78982606214E+02 -0.37667972511E+02  0.87881081261E+02  0.41800000000E+01 0. -1.
        -11    1    1    2    0    0 -0.40027366150E+02  0.66237363908E+02  0.28115943706E+02  0.82341269779E+02  0.00000000000E+00 0. -1.
         11    1    1    2    0    0 -0.63241518583E+02  0.28814575491E+01 -0.29751673533E+01  0.63376999700E+02  0.00000000000E+00 0.  1.
</event>
<event>
 7    1  0.2989693E-009  0.1913687E+03  0.7561462E-02  0.1157233E+00
         -2   -1    0    0    0  501 -0.00000000000E+00  0.00000000000E+00  0.22892781560E+03  0.22892781560E+03  0.00000000000E+00 0. -1.
          2   -1    0    0  501    0  0.00000000000E+00 -0.00000000000E+00 -0.51200253646E+03  0.51200253646E+03  0.00000000000E+00 0.  1.
         25    2    1    2    0    0 -0.15586510438E+03  0.88459052931E+01 -0.45055119962E+03  0.49296524105E+03  0.12508462973E+03 0.  0.
          5    1    3    3  502    0 -0.85508734213E+02  0.66841807045E+02 -0.25452180324E+03  0.27672801000E+03  0.41800000000E+01 0.  1.
         -5    1    3    3    0  502 -0.70356370164E+02 -0.57995901752E+02 -0.19602939639E+03  0.21623723105E+03  0.41800000000E+01 0.  1.
        -11    1    1    2    0    0  0.17497935638E+02 -0.37648004583E+02  0.36804077079E+02  0.55480537942E+02  0.00000000000E+00 0.  1.
         11    1    1    2    0    0  0.13836716874E+03  0.28802099290E+02  0.13067240168E+03  0.19248457307E+03  0.00000000000E+00 0. -1.
</event>
<event>
 7    1  0.2989693E-009  0.1024416E+03  0.7561462E-02  0.1275244E+00
         -1   -1    0    0    0  501 -0.00000000000E+00  0.00000000000E+00  0.86267687395E+02  0.86267687395E+02  0.00000000000E+00 0.  1.
          1   -1    0    0  501    0  0.00000000000E+00 -0.00000000000E+00 -0.15342724053E+03  0.15342724053E+03  0.00000000000E+00 0. -1.
         25    2    1    2    0    0  0.14533386871E+02  0.24037964300E+02 -0.13423373113E+02  0.12889845376E+03  0.12508229841E+03 0.  0.
          5    1    3    3  502    0  0.40808196234E+02  0.57296647787E+02  0.21656955921E+02  0.73720491502E+02  0.41800000000E+01 0.  1.
         -5    1    3    3    0  502 -0.26274809363E+02 -0.33258683487E+02 -0.35080329034E+02  0.55177962263E+02  0.41800000000E+01 0.  1.
        -11    1    1    2    0    0 -0.32717832328E+02  0.23923676100E+02 -0.64667161018E+01  0.41044089069E+02  0.00000000000E+00 0.  1.
         11    1    1    2    0    0  0.18184445457E+02 -0.47961640400E+02 -0.47269463919E+02  0.69752385090E+02  0.00000000000E+00 0. -1.
</event>
<event>
 7    1  0.2989693E-009  0.1784668E+03  0.7561462E-02  0.1169295E+00
          2   -1    0    0  501    0  0.00000000000E+00  0.00000000000E+00  0.47972435054E+03  0.47972435054E+03  0.00000000000E+00 0. -1.
         -2   -1    0    0    0  501 -0.00000000000E+00 -0.00000000000E+00 -0.11604386867E+03  0.11604386867E+03  0.00000000000E+00 0.  1.
         25    2    1    2    0    0  0.13443936558E+03  0.63195463085E+02  0.37396567836E+03  0.42138546664E+03  0.12509106017E+03 0.  0.
          5    1    3    3  502    0  0.41161637434E+02 -0.31245408292E+02  0.53543064325E+02  0.74531121506E+02  0.41800000000E+01 0. -1.
         -5    1    3    3    0  502  0.93277728144E+02  0.94440871377E+02  0.32042261403E+03  0.34685434513E+03  0.41800000000E+01 0. -1.
        -11    1    1    2    0    0 -0.11268765963E+03 -0.80187385618E+01  0.51762430056E+01  0.11309112384E+03  0.00000000000E+00 0.  1.
         11    1    1    2    0    0 -0.21751705952E+02 -0.55176724523E+02 -0.15461439491E+02  0.61291628727E+02  0.00000000000E+00 0. -1.
</event>
<event>
 7    1  0.2989693E-009  0.1066898E+03  0.7561462E-02  0.1266826E+00
          4   -1    0    0  501    0  0.00000000000E+00  0.00000000000E+00  0.36156528782E+03  0.36156528782E+03  0.00000000000E+00 0. -1.
         -4   -1    0    0    0  501 -0.00000000000E+00 -0.00000000000E+00 -0.45550851987E+02  0.45550851987E+02  0.00000000000E+00 0.  1.
         25    2    1    2    0    0  0.52114006599E+02  0.39477526388E+02  0.14248786495E+03  0.20056084883E+03  0.12509003819E+03 0.  0.
          5    1    3    3  502    0  0.61607867370E+02 -0.16827071389E+02  0.12544097481E+03  0.14082467900E+03  0.41800000000E+01 0. -1.
         -5    1    3    3    0  502 -0.94938607704E+01  0.56304597776E+02  0.17046890135E+02  0.59736169834E+02  0.41800000000E+01 0. -1.
        -11    1    1    2    0    0  0.14114672561E+02 -0.17202327822E+02  0.10964678199E+03  0.11188190589E+03  0.00000000000E+00 0. -1.
         11    1    1    2    0    0 -0.66228679160E+02 -0.22275198565E+02  0.63879788890E+02  0.94673385083E+02  0.00000000000E+00 0.  1.
</event>
<event>
 7    1  0.2989693E-009  0.7764869E+02  0.7561462E-02  0.1335860E+00
         -1   -1    0    0    0  501 -0.00000000000E+00  0.00000000000E+00  0.30532787879E+02  0.30532787879E+02  0.00000000000E+00 0.  1.
          1   -1    0    0  501    0  0.00000000000E+00 -0.00000000000E+00 -0.45346416781E+03  0.45346416781E+03  0.00000000000E+00 0. -1.
         25    2    1    2    0    0  0.11768475689E+02  0.35051032533E+02 -0.18813592886E+03  0.22893224719E+03  0.12509106353E+03 0.  0.
          5    1    3    3  502    0 -0.45870773922E+01  0.39277845216E+02  0.22840091840E+00  0.39765751229E+02  0.41800000000E+01 0.  1.
         -5    1    3    3    0  502  0.16355553081E+02 -0.42268126831E+01 -0.18836432978E+03  0.18916649596E+03  0.41800000000E+01 0.  1.
        -11    1    1    2    0    0  0.26552892426E+02  0.18440512242E+02 -0.57693378801E+02  0.66133460105E+02  0.00000000000E+00 0. -1.
         11    1    1    2    0    0 -0.38321368115E+02 -0.53491544775E+02 -0.17710207227E+03  0.18893124839E+03  0.00000000000E+00 0.  1.
</event>
<event>
 7    1  0.2989693E-009  0.1160256E+03  0.7561462E-02  0.1249801E+00
          1   -1    0    0  501    0  0.00000000000E+00  0.00000000000E+00  0.15877782814E+03  0.15877782814E+03  0.00000000000E+00 0. -1.
         -1   -1    0    0    0  501 -0.00000000000E+00 -0.00000000000E+00 -0.10018773254E+03  0.10018773254E+03  0.00000000000E+00 0.  1.
         25    2    1    2    0    0  0.45122963454E+02  0.55085781783E+01 -0.15986809208E+02  0.13405126536E+03  0.12509091658E+03 0.  0.
          5    1    3    3  502    0 -0.18266141364E+02  0.51396400742E+02 -0.53696632237E+01  0.54968605701E+02  0.41800000000E+01 0. -1.
         -5    1    3    3    0  502  0.63389104819E+02 -0.45887822564E+02 -0.10617145984E+02  0.79082659656E+02  0.41800000000E+01 0. -1.
        -11    1    1    2    0    0 -0.25451880103E+02  0.41126302878E+02  0.46216219997E+02  0.66896262826E+02  0.00000000000E+00 0. -1.
         11    1    1    2    0    0 -0.19671083352E+02 -0.46634881057E+02  0.28360684815E+02  0.58018032495E+02  0.00000000000E+00 0.  1.
</event>
<event>
 7    1  0.2989693E-009  0.1287700E+03  0.7561462E-02  0.1229292E+00
          1   -1    0    0  501    0  0.00000000000E+00  0.00000000000E+00  0.13830037032E+03  0.13830037032E+03  0.00000000000E+00 0. -1.
         -1   -1    0    0    0  501 -0.00000000000E+00 -0.00000000000E+00 -0.29902269776E+03  0.29902269776E+03  0.00000000000E+00 0.  1.
         25    2    1    2    0    0 -0.13308302993E+02 -0.95342790702E+02 -0.23905483017E+03  0.28646576526E+03  0.12509222267E+03 0.  0.
          5    1    3    3  502    0  0.10430864712E+02  0.20517004333E+02 -0.46046182404E+01  0.23841671807E+02  0.41800000000E+01 0. -1.
         -5    1    3    3    0  502 -0.23739167705E+02 -0.11585979503E+03 -0.23445021193E+03  0.26262409345E+03  0.41800000000E+01 0. -1.
        -11    1    1    2    0    0  0.25742102563E+02  0.71156371083E+01 -0.68698401185E+01  0.27576853321E+02  0.00000000000E+00 0.  1.
         11    1    1    2    0    0 -0.12433799570E+02  0.88227153594E+02  0.85202342850E+02  0.12328044950E+03  0.00000000000E+00 0. -1.
</event>
<event>
 7    1  0.2989693E-009  0.1087273E+03  0.7561462E-02  0.1262945E+00
          4   -1    0    0  501    0  0.00000000000E+00  0.00000000000E+00  0.18356969962E+03  0.18356969962E+03  0.00000000000E+00 0. -1.
         -4   -1    0    0    0  501 -0.00000000000E+00 -0.00000000000E+00 -0.10073392680E+03  0.10073392680E+03  0.00000000000E+00 0.  1.
         25    2    1    2    0    0 -0.14703044452E+02  0.75742960656E+02  0.36379261608E+02  0.15136000492E+03  0.12503289491E+03 0.  0.
          5    1    3    3  502    0  0.38946777581E+02  0.61903877284E+01 -0.22437627179E+02  0.45564151453E+02  0.41800000000E+01 0.  1.
         -5    1    3    3    0  502 -0.53649822034E+02  0.69552572927E+02  0.58816888786E+02  0.10579585347E+03  0.41800000000E+01 0.  1.
        -11    1    1    2    0    0  0.22945303124E+02 -0.12594562440E+02  0.62078951256E+02  0.67371404376E+02  0.00000000000E+00 0. -1.
         11    1    1    2    0    0 -0.82422586717E+01 -0.63148398216E+02 -0.15622440047E+02  0.65572217122E+02  0.00000000000E+00 0.  1.
</event>
<event>
 7    1  0.2989693E-009  0.7058012E+02  0.7561462E-02  0.1358131E+00
          2   -1    0    0  501    0  0.00000000000E+00  0.00000000000E+00  0.11887499015E+03  0.11887499015E+03  0.00000000000E+00 0. -1.
         -2   -1    0    0    0  501 -0.00000000000E+00 -0.00000000000E+00 -0.11368489194E+03  0.11368489194E+03  0.00000000000E+00 0.  1.
         25    2    1    2    0    0 -0.22943016504E+02  0.30028127081E+02 -0.14937062594E+02  0.13152626567E+03  0.12509185545E+03 0.  0.
          5    1    3    3  502    0  0.99542935475E+01  0.29427162816E+02  0.49767639287E+02  0.58816121868E+02  0.41800000000E+01 0. -1.
         -5    1    3    3    0  502 -0.32897310052E+02  0.60096426477E+00 -0.64704701881E+02  0.72710143806E+02  0.41800000000E+01 0. -1.
        -11    1    1    2    0    0 -0.13723707529E+02 -0.36876203339E+02  0.42194784464E+02  0.57693971583E+02  0.00000000000E+00 0. -1.
         11    1    1    2    0    0  0.36666724033E+02  0.68480762584E+01 -0.22067623660E+02  0.43339644827E+02  0.00000000000E+00 0.  1.
</event>
<event>
 7    1  0.2989693E-009  0.7888407E+02  0.7561462E-02  0.1332248E+00
          1   -1    0    0  501    0  0.00000000000E+00  0.00000000000E+00  0.53243519090E+02  0.53243519090E+02  0.00000000000E+00 0. -1.
         -1   -1    0    0    0  501 -0.00000000000E+00 -0.00000000000E+00 -0.23312357101E+03  0.23312357101E+03  0.00000000000E+00 0.  1.
         25    2    1    2    0    0  0.11064502296E+02  0.23264868886E+02 -0.86321199734E+02  0.15417329368E+03  0.12511745532E+03 0.  0.
          5    1    3    3  502    0  0.28167272879E+02 -0.77521188148E+01 -0.10832036269E+03  0.11226871328E+03  0.41800000000E+01 0.  1.
         -5    1    3    3    0  502 -0.17102770583E+02  0.31016987701E+02  0.21999162958E+02  0.41904580400E+02  0.41800000000E+01 0.  1.
        -11    1    1    2    0    0 -0.33549159491E+02  0.23323632098E+02 -0.32802524168E+02  0.52397934202E+02  0.00000000000E+00 0.  1.
         11    1    1    2    0    0  0.22484657195E+02 -0.46588500984E+02 -0.60756328019E+02  0.79795862220E+02  0.00000000000E+00 0. -1.
</event>
<event>
 7    1  0.2989693E-009  0.1256301E+03  0.7561462E-02  0.1234088E+00
          2   -1    0    0  501    0  0.00000000000E+00  0.00000000000E+00  0.65095492144E+03  0.65095492144E+03  0.00000000000E+00 0. -1.
         -2   -1    0    0    0  501 -0.00000000000E+00 -0.00000000000E+00 -0.45726831351E+02  0.45726831351E+02  0.00000000000E+00 0.  1.
         25    2    1    2    0    0 -0.37948567185E+02 -0.86205228945E+02  0.51690604947E+03  0.54010249293E+03  0.12508958246E+03 0.  0.
          5    1    3    3  502    0  0.41629937368E+02 -0.39872068841E+01  0.13241403158E+03  0.13892407158E+03  0.41800000000E+01 0.  1.
         -5    1    3    3    0  502 -0.79578504553E+02 -0.82218022061E+02  0.38449201789E+03  0.40117842135E+03  0.41800000000E+01 0.  1.
        -11    1    1    2    0    0  0.15225317634E+02  0.47155787463E+02 -0.79938034692E+01  0.50193420706E+02  0.00000000000E+00 0.  1.
         11    1    1    2    0    0  0.22723249552E+02  0.39049441482E+02  0.96315844087E+02  0.10638583915E+03  0.00000000000E+00 0. -1.
</event>
<event>
 7    1  0.2989693E-009  0.1010844E+03  0.7561462E-02  0.1278032E+00
         -1   -1    0    0    0  501 -0.00000000000E+00  0.00000000000E+00  0.89207402619E+02  0.89207402619E+02  0.00000000000E+00 0.  1.
          1   -1    0    0  501    0  0.00000000000E+00 -0.00000000000E+00 -0.15177411119E+03  0.15177411119E+03  0.00000000000E+00 0. -1.
         25    2    1    2    0    0  0.36559035337E+02  0.14704161666E+02 -0.50251572832E+02  0.14043459470E+03  0.12507549473E+03 0.  0.
          5    1    3    3  502    0 -0.72825970646E+01 -0.48097274905E+02 -0.39860436497E+02  0.63029444477E+02  0.41800000000E+01 0. -1.
         -5    1    3    3    0  502  0.43841632401E+02  0.62801436571E+02 -0.10391136335E+02  0.77405150225E+02  0.41800000000E+01 0. -1.
        -11    1    1    2    0    0 -0.54824622332E+02 -0.29198116084E+01  0.22637651652E+02  0.59386259235E+02  0.00000000000E+00 0.  1.
         11    1    1    2    0    0  0.18265586995E+02 -0.11784350058E+02 -0.34952787391E+02  0.41160659870E+02  0.00000000000E+00 0. -1.
</event>
<event>
 7    1  0.2989693E-009  0.9488571E+02  0.7561462E-02  0.1291434E+00
          1   -1    0    0  501    0  0.00000000000E+00  0.00000000000E+00  0.29808600264E+02  0.29808600264E+02  0.00000000000E+00 0. -1.
         -1   -1    0    0    0  501 -0.00000000000E+00 -0.00000000000E+00 -0.37060460898E+03  0.37060460898E+03  0.00000000000E+00 0.  1.
         25    2    1    2    0    0 -0.10209878402E+02  0.21956073091E+01 -0.20077639313E+03  0.23678746392E+03  0.12509228882E+03 0.  0.
          5    1    3    3  502    0  0.29267405410E+02 -0.50551699477E+02 -0.10897337812E+03  0.12371226648E+03  0.41800000000E+01 0.  1.
         -5    1    3    3    0  502 -0.39477283812E+02  0.52747306786E+02 -0.91803015008E+02  0.11307519743E+03  0.41800000000E+01 0.  1.
        -11    1    1    2    0    0  0.34193494770E+02 -0.15746996375E+02 -0.12826520657E+03  0.13367545098E+03  0.00000000000E+00 0.  1.
         11    1    1    2    0    0 -0.23983616368E+02  0.13551389066E+02 -0.11754409016E+02  0.29950294339E+02  0.00000000000E+00 0. -1.
</event>
<event>
 7    1  0.2989693E-009  0.8072523E+02  0.7561462E-02  0.1327006E+00
         -2   -1    0    0    0  501 -0.00000000000E+00  0.00000000000E+00  0.24804161507E+02  0.24804161507E+02  0.00000000000E+00 0.  1.
          2   -1    0    0  501    0  0.00000000000E+00 -0.00000000000E+00 -0.62419241665E+03  0.62419241665E+03  0.00000000000E+00 0. -1.
         25    2    1    2    0    0 -0.12615825567E+01 -0.56614521351E+02 -0.35607602644E+03  0.38163375837E+03  0.12508954116E+03 0.  0.
          5    1    3    3  502    0 -0.62014678486E+00 -0.96272649457E+01 -0.32493588547E+03  0.32510593793E+03  0.41800000000E+01 0. -1.
         -5    1    3    3    0  502 -0.64143577187E+00 -0.46987256405E+02 -0.31140140965E+02  0.56527820440E+02  0.41800000000E+01 0. -1.
        -11    1    1    2    0    0 -0.34524004541E+02  0.58496294116E+02 -0.19959079423E+03  0.21083218079E+03  0.00000000000E+00 0.  1.
         11    1    1    2    0    0  0.35785587098E+02 -0.18817727653E+01 -0.43721434485E+02  0.56530639003E+02  0.00000000000E+00 0. -1.
</event>
<event>
 7    1  0.2989693E-009  0.1783396E+03  0.7561462E-02  0.1169420E+00
         -2   -1    0    0    0  501 -0.00000000000E+00  0.00000000000E+00  0.16321528784E+03  0.16321528784E+03  0.00000000000E+00 0.  1.
          2   -1    0    0  501    0  0.00000000000E+00 -0.00000000000E+00 -0.21446314120E+03  0.21446314120E+03  0.00000000000E+00 0. -1.
         25    2    1    2    0    0 -0.12572971122E+03  0.67885416191E+02  0.24864380232E+02  0.19152424274E+03  0.12508760186E+03 0.  0.
          5    1    3    3  502    0 -0.14928664956E+03  0.64647542964E+02  0.97251104502E+01  0.16302717173E+03  0.41800000000E+01 0. -1.
         -5    1    3    3    0  502  0.23556938340E+02  0.32378732277E+01  0.15139269782E+02  0.28497071017E+02  0.41800000000E+01 0. -1.
        -11    1    1    2    0    0  0.94063222491E+02 -0.90779091657E+02 -0.56113122123E+02  0.14225827140E+03  0.00000000000E+00 0. -1.
         11    1    1    2    0    0  0.31666488727E+02  0.22893675466E+02 -0.19999111467E+02  0.43895914891E+02  0.00000000000E+00 0.  1.
</event>
<event>
 7    1  0.2989693E-009  0.1040851E+03  0.7561462E-02  0.1271933E+00
          1   -1    0    0  501    0  0.00000000000E+00  0.00000000000E+00  0.55023649732E+03  0.55023649732E+03  0.00000000000E+00 0. -1.
         -1   -1    0    0    0  501 -0.00000000000E+00 -0.00000000000E+00 -0.41038277918E+02  0.41038277918E+02  0.00000000000E+00 0.  1.
         25    2    1    2    0    0  0.97277097084E+02 -0.33914266489E+02  0.30346030529E+03  0.34401701920E+03  0.12508613641E+03 0.  0.
          5    1    3    3  502    0  0.76819301123E+02 -0.27626716113E+02  0.31051774328E+03  0.32109684171E+03  0.41800000000E+01 0.  1.
         -5    1    3    3    0  502  0.20457795960E+02 -0.62875503762E+01 -0.70574379814E+01  0.22920177489E+02  0.41800000000E+01 0.  1.
        -11    1    1    2    0    0 -0.33685268263E+02  0.21107638165E+02  0.16707974989E+03  0.17174362436E+03  0.00000000000E+00 0. -1.
         11    1    1    2    0    0 -0.63591828821E+02  0.12806628324E+02  0.38658164222E+02  0.75514131676E+02  0.00000000000E+00 0.  1.
</event>
<event>
 7    1  0.2989693E-009  0.8973363E+02  0.7561462E-02  0.1303498E+00
         -2   -1    0    0    0  501 -0.00000000000E+00  0.00000000000E+00  0.83871591116E+02  0.83871591116E+02  0.00000000000E+00 0. -1.
          2   -1    0    0  501    0  0.00000000000E+00 -0.00000000000E+00 -0.18599021656E+03  0.18599021656E+03  0.00000000000E+00 0.  1.
         25    2    1    2    0    0  0.40498571074E+02 -0.20866939651E+02 -0.10797740677E+03  0.17141011177E+03  0.12508694023E+03 0.  0.
          5    1    3    3  502    0  0.13065917254E+02 -0.50991498349E+02  0.32269239214E+01  0.52903086257E+02  0.41800000000E+01 0. -1.
         -5    1    3    3    0  502  0.27432653819E+02  0.30124558698E+02 -0.11120433069E+03  0.11850702551E+03  0.41800000000E+01 0. -1.
        -11    1    1    2    0    0  0.16290775112E+02 -0.11869257419E+02  0.23115461372E+02  0.30669091605E+02  0.00000000000E+00 0. -1.
         11    1    1    2    0    0 -0.56789346185E+02  0.32736197070E+02 -0.17256680044E+02  0.67782604294E+02  0.00000000000E+00 0.  1.
</event>
<event>
 7    1  0.2989693E-009  0.6660020E+02  0.7561462E-02  0.1372051E+00
          2   -1    0    0  501    0  0.00000000000E+00  0.00000000000E+00  0.33566834873E+02  0.33566834873E+02  0.00000000000E+00 0. -1.
         -2   -1    0    0    0  501 -0.00000000000E+00 -0.00000000000E+00 -0.46637649879E+03  0.46637649879E+03  0.00000000000E+00 0.  1.
         25    2    1    2    0    0  0.85525412991E+01 -0.22487211976E+01 -0.36227645763E+03  0.38336690838E+03  0.12509097481E+03 0.  0.
          5    1    3    3  502    0  0.22640314520E+02  0.80855524068E+01 -0.41039903567E+01  0.24744193989E+02  0.41800000000E+01 0.  1.
         -5    1    3    3    0  502 -0.14087773221E+02 -0.10334273604E+02 -0.35817246727E+03  0.35862271439E+03  0.41800000000E+01 0.  1.
        -11    1    1    2    0    0 -0.26788136742E+02 -0.38089068612E+02 -0.24138527900E+02  0.52450452305E+02  0.00000000000E+00 0. -1.
         11    1    1    2    0    0  0.18235595443E+02  0.40337789810E+02 -0.46394678392E+02  0.64125972983E+02  0.00000000000E+00 0.  1.
</event>
<event>
 7    1  0.2989693E-009  0.1244598E+03  0.7561462E-02  0.1235916E+00
         -1   -1    0    0    0  501 -0.00000000000E+00  0.00000000000E+00  0.21161519097E+02  0.21161519097E+02  0.00000000000E+00 0.  1.
          1   -1    0    0  501    0  0.00000000000E+00 -0.00000000000E+00 -0.92410667722E+03  0.92410667722E+03  0.00000000000E+00 0. -1.
         25    2    1    2    0    0  0.24980491916E+02  0.75913633433E+02 -0.62400502316E+03  0.64141704054E+03  0.12508655500E+03 0.  0.
          5    1    3    3  502    0 -0.47268811964E+02  0.17115543524E+02 -0.14788309421E+03  0.15625032597E+03  0.41800000000E+01 0.  1.
         -5    1    3    3    0  502  0.72249303880E+02  0.58798089909E+02 -0.47612192896E+03  0.48516671456E+03  0.41800000000E+01 0.  1.
        -11    1    1    2    0    0 -0.40831626673E+02 -0.79140113373E+02 -0.27207558235E+03  0.28627871348E+03  0.00000000000E+00 0. -1.
         11    1    1    2    0    0  0.15851134756E+02  0.32264799392E+01 -0.68645526146E+01  0.17572442302E+02  0.00000000000E+00 0.  1.
</event>
<event>
 7    1  0.2989693E-009  0.1009461E+03  0.7561462E-02  0.1278319E+00
          1   -1    0    0  501    0  0.00000000000E+00  0.00000000000E+00  0.26478904947E+03  0.26478904947E+03  0.00000000000E+00 0. -1.
         -1   -1    0    0    0  501 -0.00000000000E+00 -0.00000000000E+00 -0.11111588053E+03  0.11111588053E+03  0.00000000000E+00 0.  1.
         25    2    1    2    0    0  0.26391259250E+02 -0.74790805044E+02  0.19773355733E+03  0.24706210551E+03  0.12510380170E+03 0.  0.
          5    1    3    3  502    0  0.10485646201E+02 -0.12400784070E+02 -0.16378074391E+02  0.23440177955E+02  0.41800000000E+01 0. -1.
         -5    1    3    3    0  502  0.15905613048E+02 -0.62390020974E+02  0.21411163172E+03  0.22362192755E+03  0.41800000000E+01 0. -1.
        -11    1    1    2    0    0 -0.59413870754E+02  0.59929888243E+02 -0.25542910093E+02  0.88170515473E+02  0.00000000000E+00 0.  1.
         11    1    1    2    0    0  0.33022611505E+02  0.14860916802E+02 -0.18517478301E+02  0.40672309025E+02  0.00000000000E+00 0. -1.
</event>
<event>
 7    1  0.2989693E-009  0.1247422E+03  0.7561462E-02  0.1235473E+00
          2   -1    0    0  501    0  0.00000000000E+00  0.00000000000E+00  0.63510548410E+03  0.63510548410E+03  0.00000000000E+00 0. -1.
         -2   -1    0    0    0  501 -0.00000000000E+00 -0.00000000000E+00 -0.36957109685E+02  0.36957109685E+02  0.00000000000E+00 0.  1.
         25    2    1    2    0    0  0.99492705679E+02  0.29351634675E+02  0.36229703086E+03  0.39706938824E+03  0.12507854961E+03 0.  0.
          5    1    3    3  502    0  0.85922458282E+02  0.67845602800E+01  0.94586043442E+02  0.12803394515E+03  0.41800000000E+01 0. -1.
         -5    1    3    3    0  502  0.13570247397E+02  0.22567074394E+02  0.26771098741E+03  0.26903544310E+03  0.41800000000E+01 0. -1.
        -11    1    1    2    0    0 -0.11372729826E+03 -0.37960323169E+02  0.22552293185E+03  0.25541236715E+03  0.00000000000E+00 0.  1.
         11    1    1    2    0    0  0.14234592582E+02  0.86086884950E+01  0.10328411713E+02  0.19580838391E+02  0.00000000000E+00 0. -1.
</event>
<event>
 7    1  0.2989693E-009  0.1162700E+03  0.7561462E-02  0.1249380E+00
         -2   -1    0    0    0  501 -0.00000000000E+00  0.00000000000E+00  0.30571068254E+03  0.30571068254E+03  0.00000000000E+00 0.  1.
          2   -1    0    0  501    0  0.00000000000E+00 -0.00000000000E+00 -0.11194176496E+03  0.11194176496E+03  0.00000000000E+00 0. -1.
         25    2    1    2    0    0 -0.78836884527E+02 -0.55824289572E+02  0.23047119808E+03  0.27945714120E+03  0.12509082682E+03 0.  0.
          5    1    3    3  502    0 -0.77317997657E+02 -0.50403983137E+02  0.62970163172E+02  0.11180942772E+03  0.41800000000E+01 0. -1.
         -5    1    3    3    0  502 -0.15188868709E+01 -0.54203064349E+01  0.16750103491E+03  0.16764771348E+03  0.41800000000E+01 0. -1.
        -11    1    1    2    0    0  0.42377447920E+02 -0.21595280523E+02 -0.15617158382E+02  0.50060961527E+02  0.00000000000E+00 0.  1.
         11    1    1    2    0    0  0.36459436607E+02  0.77419570096E+02 -0.21085122124E+02  0.88134344761E+02  0.00000000000E+00 0. -1.
</event>
<event>
 7    1  0.2989693E-009  0.9529617E+02  0.7561462E-02  0.1290510E+00
          2   -1    0    0  501    0  0.00000000000E+00  0.00000000000E+00  0.47686479489E+02  0.47686479489E+02  0.00000000000E+00 0. -1.
         -2   -1    0    0    0  501 -0.00000000000E+00 -0.00000000000E+00 -0.34618323943E+03  0.34618323943E+03  0.00000000000E+00 0.  1.
         25    2    1    2    0    0 -0.68068664613E+01  0.63130841399E+02 -0.12081914658E+03  0.18514020863E+03  0.12509114319E+03 0.  0.
          5    1    3    3  502    0 -0.53162729235E+02  0.50525253396E+02 -0.11515018528E+03  0.13658738807E+03  0.41800000000E+01 0.  1.
         -5    1    3    3    0  502  0.46355862774E+02  0.12605588004E+02 -0.56689613066E+01  0.48552820564E+02  0.41800000000E+01 0.  1.
        -11    1    1    2    0    0  0.16848587356E+02 -0.31486391951E+02 -0.90160218354E+01  0.36831459701E+02  0.00000000000E+00 0. -1.
         11    1    1    2    0    0 -0.10041720895E+02 -0.31644449448E+02 -0.16866159152E+03  0.17189805058E+03  0.00000000000E+00 0.  1.
</event>
<event>
 7    1  0.2989693E-009  0.1599603E+03  0.7561462E-02  0.1188742E+00
          1   -1    0    0  501    0  0.00000000000E+00  0.00000000000E+00  0.10035446469E+03  0.10035446469E+03  0.00000000000E+00 0. -1.
         -1   -1    0    0    0  501 -0.00000000000E+00 -0.00000000000E+00 -0.34084347953E+03  0.34084347953E+03  0.00000000000E+00 0.  1.
         25    2    1    2    0    0  0.11706381075E+03  0.52972732380E+02 -0.35251467931E+02  0.18276255596E+03  0.12509772063E+03 0.  0.
          5    1    3    3  502    0 -0.12067820973E+02 -0.12949661216E+02 -0.33022449901E+02  0.37699875677E+02  0.41800000000E+01 0. -1.
         -5    1    3    3    0  502  0.12913163173E+03  0.65922393596E+02 -0.22290180306E+01  0.14506268028E+03  0.41800000000E+01 0. -1.
        -11    1    1    2    0    0 -0.98676624508E+02  0.20247340985E+01 -0.12061293590E+03  0.15584818279E+03  0.00000000000E+00 0.  1.
         11    1    1    2    0    0 -0.18387186246E+02 -0.54997466478E+02 -0.84624611007E+02  0.10258720547E+03  0.00000000000E+00 0. -1.
</event>
<event>
 7    1  0.2989693E-009  0.3376595E+03  0.7561462E-02  0.1067797E+00
          1   -1    0    0  501    0  0.00000000000E+00  0.00000000000E+00  0.11757463058E+04  0.11757463058E+04  0.00000000000E+00 0. -1.
         -1   -1    0    0    0  501 -0.00000000000E+00 -0.00000000000E+00 -0.14044783664E+03  0.14044783664E+03  0.00000000000E+00 0.  1.
         25    2    1    2    0    0  0.30869845749E+03 -0.95908491745E+02  0.16573026215E+03  0.38419777866E+03  0.12509291302E+03 0.  0.
          5    1    3    3  502    0  0.21541720267E+03 -0.12460198768E+03  0.12154240198E+03  0.27698421330E+03  0.41800000000E+01 0. -1.
         -5    1    3    3    0  502  0.93281254822E+02  0.28693495932E+02  0.44187860168E+02  0.10721356536E+03  0.41800000000E+01 0. -1.
        -11    1    1    2    0    0 -0.25354253437E+03  0.53397010873E+02  0.75159695664E+03  0.79500505831E+03  0.00000000000E+00 0.  1.
         11    1    1    2    0    0 -0.55155923126E+02  0.42511480871E+02  0.11797125040E+03  0.13699130550E+03  0.00000000000E+00 0. -1.
</event>
<event>
 7    1  0.2989693E-009  0.8096938E+02  0.7561462E-02  0.1326323E+00
          1   -1    0    0  501    0  0.00000000000E+00  0.00000000000E+00  0.34023128729E+02  0.34023128729E+02  0.00000000000E+00 0. -1.
         -1   -1    0    0    0  501 -0.00000000000E+00 -0.00000000000E+00 -0.41393004047E+03  0.41393004047E+03  0.00000000000E+00 0.  1.
         25    2    1    2    0    0 -0.45429091490E+02  0.10267834816E+02 -0.21370351553E+03  0.25196580129E+03  0.12509333188E+03 0.  0.
          5    1    3    3  502    0 -0.55754624009E+02  0.30032815490E+02 -0.21954779437E+03  0.22853720598E+03  0.41800000000E+01 0.  1.
         -5    1    3    3    0  502  0.10325532518E+02 -0.19764980674E+02  0.58442788389E+01  0.23428595305E+02  0.41800000000E+01 0.  1.
        -11    1    1    2    0    0  0.15470749551E+02 -0.34137325398E+02 -0.15612433484E+02  0.40601097969E+02  0.00000000000E+00 0. -1.
         11    1    1    2    0    0  0.29958341939E+02  0.23869490582E+02 -0.15059096273E+03  0.15538626994E+03  0.00000000000E+00 0.  1.
</event>
<event>
 7    1  0.2989693E-009  0.1123918E+03  0.7561462E-02  0.1256204E+00
         -2   -1    0    0    0  501 -0.00000000000E+00  0.00000000000E+00  0.40243460985E+02  0.40243460985E+02  0.00000000000E+00 0.  1.
          2   -1    0    0  501    0  0.00000000000E+00 -0.00000000000E+00 -0.45586728566E+03  0.45586728566E+03  0.00000000000E+00 0. -1.
         25    2    1    2    0    0 -0.28883912826E+02  0.95711417662E+01 -0.36053657982E+03  0.38282881934E+03  0.12508154281E+03 0.  0.
          5    1    3    3  502    0 -0.53599406551E+02 -0.44048641637E+02 -0.19013292085E+03  0.20243808733E+03  0.41800000000E+01 0. -1.
         -5    1    3    3    0  502  0.24715493726E+02  0.53619783403E+02 -0.17040365897E+03  0.18039073200E+03  0.41800000000E+01 0. -1.
        -11    1    1    2    0    0  0.59949458630E+02 -0.20194458049E+02 -0.48701924148E+02  0.79835024530E+02  0.00000000000E+00 0.  1.
         11    1    1    2    0    0 -0.31065545805E+02  0.10623316283E+02 -0.63853207092E+01  0.33446902779E+02  0.00000000000E+00 0. -1.
</event>
<event>
 7    1  0.2989693E-009  0.1110965E+03  0.7561462E-02  0.1258553E+00
          1   -1    0    0  501    0  0.00000000000E+00  0.00000000000E+00  0.22740483387E+03  0.22740483387E+03  0.00000000000E+00 0. -1.
         -1   -1    0    0    0  501 -0.00000000000E+00 -0.00000000000E+00 -0.69185936053E+02  0.69185936053E+02  0.00000000000E+00 0.  1.
         25    2    1    2    0    0  0.42677734524E+02 -0.19096338353E+02  0.13813562679E+03  0.19213319298E+03  0.12509058036E+03 0.  0.
          5    1    3    3  502    0 -0.30061317430E+02  0.30921679982E+02  0.31131723183E+02  0.53352504035E+02  0.41800000000E+01 0. -1.
         -5    1    3    3    0  502  0.72739051955E+02 -0.50018018334E+02  0.10700390360E+03  0.13878068894E+03  0.41800000000E+01 0. -1.
        -11    1    1    2    0    0 -0.45924950670E+02  0.45050910960E+02 -0.94314032766E+01  0.65020281760E+02  0.00000000000E+00 0.  1.
         11    1    1    2    0    0  0.32472161451E+01 -0.25954572608E+02  0.29514674305E+02  0.39437295182E+02  0.00000000000E+00 0. -1.
</event>
<event>
 7    1  0.2989693E-009  0.1188130E+03  0.7561462E-02  0.1245068E+00
         -3   -1    0    0    0  501 -0.00000000000E+00  0.00000000000E+00  0.18490064329E+03  0.18490064329E+03  0.00000000000E+00 0.  1.
          3   -1    0    0  501    0  0.00000000000E+00 -0.00000000000E+00 -0.12837542503E+03  0.12837542503E+03  0.00000000000E+00 0. -1.
         25    2    1    2    0    0 -0.80844864139E+02 -0.76876474914E+02  0.52368764612E+02  0.17559996383E+03  0.12508787047E+03 0.  0.
          5    1    3    3  502    0 -0.44088784707E+02 -0.62691130425E+02  0.91828292491E+02  0.11968252367E+03  0.41800000000E+01 0. -1.
         -5    1    3    3    0  502 -0.36756079432E+02 -0.14185344488E+02 -0.39459527879E+02  0.55917440158E+02  0.41800000000E+01 0. -1.
        -11    1    1    2    0    0  0.38479111737E+02  0.67747169893E+02 -0.28973647867E+02  0.83125166702E+02  0.00000000000E+00 0.  1.
         11    1    1    2    0    0  0.42365752402E+02  0.91293050210E+01  0.33130101521E+02  0.54550937788E+02  0.00000000000E+00 0. -1.
</event>
<event>
 7    1  0.2989693E-009  0.1340585E+03  0.7561462E-02  0.1221555E+00
         -1   -1    0    0    0  501 -0.00000000000E+00  0.00000000000E+00  0.15181881870E+03  0.15181881870E+03  0.00000000000E+00 0.  1.
          1   -1    0    0  501    0  0.00000000000E+00 -0.00000000000E+00 -0.14267946294E+03  0.14267946294E+03  0.00000000000E+00 0. -1.
         25    2    1    2    0    0 -0.51663020320E+02  0.81108457349E+02  0.10037631012E+02  0.15809685876E+03  0.12508482399E+03 0.  0.
          5    1    3    3  502    0 -0.66179700294E+02  0.94031558967E+02 -0.25061062145E+02  0.11775914422E+03  0.41800000000E+01 0.  1.
         -5    1    3    3    0  502  0.14516679974E+02 -0.12923101618E+02  0.35098693157E+02  0.40337714539E+02  0.41800000000E+01 0.  1.
        -11    1    1    2    0    0  0.54041857281E+02 -0.20493576903E+01 -0.14856836443E+02  0.56084291868E+02  0.00000000000E+00 0. -1.
         11    1    1    2    0    0 -0.23788369607E+01 -0.79059099658E+02  0.13958561192E+02  0.80317131016E+02  0.00000000000E+00 0.  1.
</event>
<event>
 7    1  0.2989693E-009  0.8575593E+02  0.7561462E-02  0.1313467E+00
         -1   -1    0    0    0  501 -0.00000000000E+00  0.00000000000E+00  0.13145774791E+03  0.13145774791E+03  0.00000000000E+00 0.  1.
          1   -1    0    0  501    0  0.00000000000E+00 -0.00000000000E+00 -0.11436847884E+03  0.11436847884E+03  0.00000000000E+00 0. -1.
         25    2    1    2    0    0  0.43172018373E+02  0.38985480808E+02 -0.37163470382E+01  0.13800136386E+03  0.12508746663E+03 0.  0.
          5    1    3    3  502    0  0.67021391107E+02  0.52059525094E+02  0.33826783220E+02  0.91453729732E+02  0.41800000000E+01 0. -1.
         -5    1    3    3    0  502 -0.23849372734E+02 -0.13074044286E+02 -0.37543130258E+02  0.46547634133E+02  0.41800000000E+01 0. -1.
        -11    1    1    2    0    0 -0.13433673433E+02 -0.18714393877E+02  0.54097342224E+02  0.58798082926E+02  0.00000000000E+00 0.  1.
         11    1    1    2    0    0 -0.29738344940E+02 -0.20271086930E+02 -0.33291726117E+02  0.49026779957E+02  0.00000000000E+00 0. -1.
</event>
<event>
 7    1  0.2989693E-009  0.1309680E+03  0.7561462E-02  0.1226026E+00
         -2   -1    0    0    0  501 -0.00000000000E+00  0.00000000000E+00  0.44128022834E+03  0.44128022834E+03  0.00000000000E+00 0.  1.
          2   -1    0    0  501    0  0.00000000000E+00 -0.00000000000E+00 -0.41553330199E+02  0.41553330199E+02  0.00000000000E+00 0. -1.
         25    2    1    2    0    0 -0.36703577805E+02  0.69486738943E+02  0.18708883931E+03  0.23838216464E+03  0.12509301784E+03 0.  0.
          5    1    3    3  502    0 -0.79327434673E+02  0.55090154128E+02  0.15604247924E+03  0.18356060225E+03  0.41800000000E+01 0. -1.
         -5    1    3    3    0  502  0.42623856868E+02  0.14396584815E+02  0.31046360077E+02  0.54821562388E+02  0.41800000000E+01 0. -1.
        -11    1    1    2    0    0  0.32954515536E+02 -0.91758589633E+02  0.18085641330E+03  0.20546211597E+03  0.00000000000E+00 0.  1.
         11    1    1    2    0    0  0.37490622686E+01  0.22271850690E+02  0.31781645522E+02  0.38989277925E+02  0.00000000000E+00 0. -1.
</event>
<event>
 7    1  0.2989693E-009  0.6888105E+02  0.7561462E-02  0.1363940E+00
          3   -1    0    0  501    0  0.00000000000E+00  0.00000000000E+00  0.12435740432E+03  0.12435740432E+03  0.00000000000E+00 0. -1.
         -3   -1    0    0    0  501 -0.00000000000E+00 -0.00000000000E+00 -0.98957102903E+02  0.98957102903E+02  0.00000000000E+00 0.  1.
         25    2    1    2    0    0 -0.10236754412E+02  0.36314773950E+02  0.16908171010E+02  0.13174556900E+03  0.12508978678E+03 0.  0.
          5    1    3    3  502    0  0.51800838282E+01  0.65297533654E+02  0.51831280795E+02  0.83633457651E+02  0.41800000000E+01 0.  1.
         -5    1    3    3    0  502 -0.15416838240E+02 -0.28982759704E+02 -0.34923109785E+02  0.48112111348E+02  0.41800000000E+01 0.  1.
        -11    1    1    2    0    0  0.31248526699E+01 -0.27638189616E+02  0.45262275676E+02  0.53125397211E+02  0.00000000000E+00 0. -1.
         11    1    1    2    0    0  0.71119017422E+01 -0.86765843347E+01 -0.36770145272E+02  0.38443541010E+02  0.00000000000E+00 0.  1.
</event>
<event>
 7    1  0.2989693E-009  0.1146920E+03  0.7561462E-02  0.1252120E+00
         -3   -1    0    0    0  501 -0.00000000000E+00  0.00000000000E+00  0.11743910096E+03  0.11743910096E+03  0.00000000000E+00 0.  1.
          3   -1    0    0  501    0  0.00000000000E+00 -0.00000000000E+00 -0.13567250616E+03  0.13567250616E+03  0.00000000000E+00 0. -1.
         25    2    1    2    0    0  0.64121597249E+02 -0.40125442746E+01  0.39525415945E+01  0.14067671434E+03  0.12508651257E+03 0.  0.
          5    1    3    3  502    0  0.30956810346E+02 -0.62752896253E+02  0.16310828863E+02  0.71970588668E+02  0.41800000000E+01 0.  1.
         -5    1    3    3    0  502  0.33164786903E+02  0.58740351979E+02 -0.12358287268E+02  0.68706125674E+02  0.41800000000E+01 0.  1.
        -11    1    1    2    0    0 -0.43096998148E+02  0.34127138032E+02  0.18141829842E+02  0.57889021322E+02  0.00000000000E+00 0.  1.
         11    1    1    2    0    0 -0.21024599101E+02 -0.30114593758E+02 -0.40327776640E+02  0.54545871459E+02  0.00000000000E+00 0. -1.
</event>
<event>
 7    1  0.2989693E-009  0.1275471E+03  0.7561462E-02  0.1231141E+00
         -1   -1    0    0    0  501 -0.00000000000E+00  0.00000000000E+00  0.24990901924E+02  0.24990901924E+02  0.00000000000E+00 0.  1.
          1   -1    0    0  501    0  0.00000000000E+00 -0.00000000000E+00 -0.68063912996E+03  0.68063912996E+03  0.00000000000E+00 0. -1.
         25    2    1    2    0    0 -0.80003294297E+01 -0.76658436771E+02 -0.44230701324E+03  0.46607164807E+03  0.12508703361E+03 0.  0.
          5    1    3    3  502    0 -0.30059111563E+01  0.34627792880E+02 -0.12180525973E+03  0.12673639272E+03  0.41800000000E+01 0.  1.
         -5    1    3    3    0  502 -0.49944182734E+01 -0.11128622965E+03 -0.32050175351E+03  0.33933525535E+03  0.41800000000E+01 0.  1.
        -11    1    1    2    0    0  0.42174261549E+02  0.48957765062E+02 -0.11727621238E+03  0.13390011608E+03  0.00000000000E+00 0.  1.
         11    1    1    2    0    0 -0.34173932119E+02  0.27700671709E+02 -0.96065002420E+02  0.10565826773E+03  0.00000000000E+00 0. -1.
</event>
<event>
 7    1  0.2989693E-009  0.1192299E+03  0.7561462E-02  0.1244373E+00
         -3   -1    0    0    0  501 -0.00000000000E+00  0.00000000000E+00  0.65219148304E+02  0.65219148304E+02  0.00000000000E+00 0.  1.
          3   -1    0    0  501    0  0.00000000000E+00 -0.00000000000E+00 -0.25819855639E+03  0.25819855639E+03  0.00000000000E+00 0. -1.
         25    2    1    2    0    0 -0.67674124416E+02 -0.94437398940E+01 -0.84108718363E+02  0.16550399609E+03  0.12509326472E+03 0.  0.
          5    1    3    3  502    0 -0.98379819137E+02  0.56498228252E+00 -0.31051546329E+02  0.10325007965E+03  0.41800000000E+01 0.  1.
         -5    1    3    3    0  502  0.30705694720E+02 -0.10008722176E+02 -0.53057172035E+02  0.62253916440E+02  0.41800000000E+01 0.  1.
        -11    1    1    2    0    0 -0.74850004868E+01  0.28846172611E+02 -0.57700273146E+02  0.64941885003E+02  0.00000000000E+00 0.  1.
         11    1    1    2    0    0  0.75159124903E+02 -0.19402432717E+02 -0.51170416581E+02  0.92971823606E+02  0.00000000000E+00 0. -1.
</event>
<event>
 7    1  0.2989693E-009  0.1503526E+03  0.7561462E-02  0.1200040E+00
         -2   -1    0    0    0  501 -0.00000000000E+00  0.00000000000E+00  0.18308283094E+03  0.18308283094E+03  0.00000000000E+00 0.  1.
          2   -1    0    0  501    0  0.00000000000E+00 -0.00000000000E+00 -0.13015377724E+03  0.13015377724E+03  0.00000000000E+00 0. -1.
         25    2    1    2    0    0 -0.29059208717E+02  0.10577441703E+03  0.28137336285E+02  0.16873691653E+03  0.12509105642E+03 0.  0.
          5    1    3    3  502    0 -0.65878535703E+02  0.10597372778E+03  0.37787617935E+02  0.13044458178E+03  0.41800000000E+01 0. -1.
         -5    1    3    3    0  502  0.36819326987E+02 -0.19931075517E+00 -0.96502816499E+01  0.38292334748E+02  0.41800000000E+01 0. -1.
        -11    1    1    2    0    0  0.40174424554E+02 -0.11657234779E+03  0.11062341498E+02  0.12379609063E+03  0.00000000000E+00 0. -1.
         11    1    1    2    0    0 -0.11115215837E+02  0.10797930758E+02  0.13729375924E+02  0.20703601016E+02  0.00000000000E+00 0.  1.
</event>
<event>
 7    1  0.2989693E-009  0.9236627E+02  0.7561462E-02  0.1297221E+00
         -2   -1    0    0    0  501 -0.00000000000E+00  0.00000000000E+00  0.14706964125E+03  0.14706964125E+03  0.00000000000E+00 0.  1.
          2   -1    0    0  501    0  0.00000000000E+00 -0.00000000000E+00 -0.11106226523E+03  0.11106226523E+03  0.00000000000E+00 0. -1.
         25    2    1    2    0    0  0.15504100183E+01 -0.35419183585E+02 -0.35323307327E+02  0.13473097753E+03  0.12509107854E+03 0.  0.
          5    1    3    3  502    0 -0.47982814805E+01  0.28427376697E+02  0.30873775892E+02  0.42447634668E+02  0.41800000000E+01 0. -1.
         -5    1    3    3    0  502  0.63486914988E+01 -0.63846560282E+02 -0.66197083219E+02  0.92283342865E+02  0.41800000000E+01 0. -1.
        -11    1    1    2    0    0 -0.38356289729E+02  0.38530103512E+02  0.15635807576E+02  0.56570772639E+02  0.00000000000E+00 0. -1.
         11    1    1    2    0    0  0.36805879710E+02 -0.31109199265E+01  0.55694875778E+02  0.66830156307E+02  0.00000000000E+00 0.  1.
</event>
<event>
 7    1  0.3038779E-009  0.1035152E+03  0.7561462E-02  0.1273073E+00
         -1   -1    0    0    0  501 -0.00000000000E+00  0.00000000000E+00  0.10479996850E+02  0.10479996850E+02  0.00000000000E+00 0.  1.
          1   -1    0    0  501    0  0.00000000000E+00 -0.00000000000E+00 -0.16079483576E+04  0.16079483576E+04  0.00000000000E+00 0. -1.
         25    2    1    2    0    0 -0.56952347269E+02 -0.15255536683E+02 -0.11350037256E+04  0.11433971716E+04  0.12508930265E+03 0.  0.
          5    1    3    3  502    0  0.15434302681E+02  0.26485510824E+02 -0.68398165720E+03  0.68468100584E+03  0.41800000000E+01 0.  1.
         -5    1    3    3    0  502 -0.72386649949E+02 -0.41741047507E+02 -0.45102206838E+03  0.45871616573E+03  0.41800000000E+01 0.  1.
        -11    1    1    2    0    0 -0.13390118989E+02 -0.11017075097E+02 -0.21034873896E+02  0.27260541998E+02  0.00000000000E+00 0.  1.
         11    1    1    2    0    0  0.70342466257E+02  0.26272611780E+02 -0.44142976128E+03  0.44777064088E+03  0.00000000000E+00 0. -1.
</event>
<event>
 7    1  0.2989693E-009  0.1545918E+03  0.7561462E-02  0.1194941E+00
         -2   -1    0    0    0  501 -0.00000000000E+00  0.00000000000E+00  0.15375854094E+03  0.15375854094E+03  0.00000000000E+00 0.  1.
          2   -1    0    0  501    0  0.00000000000E+00 -0.00000000000E+00 -0.20658628073E+03  0.20658628073E+03  0.00000000000E+00 0. -1.
         25    2    1    2    0    0 -0.12831761891E+03 -0.58039602695E+02 -0.18162397198E+02  0.18923915753E+03  0.12509028446E+03 0.  0.
          5    1    3    3  502    0 -0.76737991299E+02 -0.46672417445E+02 -0.70884079857E+02  0.11449479917E+03  0.41800000000E+01 0.  1.
         -5    1    3    3    0  502 -0.51579627608E+02 -0.11367185249E+02  0.52721682659E+02  0.74744358363E+02  0.41800000000E+01 0.  1.
        -11    1    1    2    0    0  0.10865012874E+03  0.81392688086E+02 -0.19952992412E+02  0.13721421958E+03  0.00000000000E+00 0.  1.
         11    1    1    2    0    0  0.19667490165E+02 -0.23353085391E+02 -0.14712350182E+02  0.33891444563E+02  0.00000000000E+00 0. -1.
</event>
<event>
 7    1  0.2989693E-009  0.1576309E+03  0.7561462E-02  0.1191398E+00
         -1   -1    0    0    0  501 -0.00000000000E+00  0.00000000000E+00  0.43488147347E+02  0.43488147347E+02  0.00000000000E+00 0.  1.
          1   -1    0    0  501    0  0.00000000000E+00 -0.00000000000E+00 -0.11674735685E+04  0.11674735685E+04  0.00000000000E+00 0. -1.
         25    2    1    2    0    0 -0.13034793087E+03  0.43434895658E+02 -0.96284476619E+03  0.98060881383E+03  0.12508568555E+03 0.  0.
          5    1    3    3  502    0 -0.37357431840E+02  0.67644948597E+02 -0.61002404099E+03  0.61491318068E+03  0.41800000000E+01 0. -1.
         -5    1    3    3    0  502 -0.92990499029E+02 -0.24210052939E+02 -0.35282072520E+03  0.36569563315E+03  0.41800000000E+01 0. -1.
        -11    1    1    2    0    0  0.10260855378E+03 -0.18235847000E+02 -0.55102297515E+02  0.11788691452E+03  0.00000000000E+00 0.  1.
         11    1    1    2    0    0  0.27739377094E+02 -0.25199048658E+02 -0.10603835749E+03  0.11246598755E+03  0.00000000000E+00 0. -1.
</event>
<event>
 7    1  0.2989693E-009  0.1047122E+03  0.7561462E-02  0.1270688E+00
         -2   -1    0    0    0  501 -0.00000000000E+00  0.00000000000E+00  0.89455185761E+03  0.89455185761E+03  0.00000000000E+00 0.  1.
          2   -1    0    0  501    0  0.00000000000E+00 -0.00000000000E+00 -0.18612479689E+02  0.18612479689E+02  0.00000000000E+00 0. -1.
         25    2    1    2    0    0 -0.69404040349E+02  0.13725725947E+02  0.46806867100E+03  0.48963421035E+03  0.12509221718E+03 0.  0.
          5    1    3    3  502    0 -0.82687055479E+02  0.93581941648E+01  0.46767061303E+03  0.47503473519E+03  0.41800000000E+01 0. -1.
         -5    1    3    3    0  502  0.13283015130E+02  0.43675317820E+01  0.39805797250E+00  0.14599475160E+02  0.41800000000E+01 0. -1.
        -11    1    1    2    0    0  0.56616967351E+02  0.31307816264E+02  0.19084985582E+03  0.20151756206E+03  0.00000000000E+00 0.  1.
         11    1    1    2    0    0  0.12787072999E+02 -0.45033542211E+02  0.21702085110E+03  0.22201256489E+03  0.00000000000E+00 0. -1.
</event>
<event>
 7    1  0.2989693E-009  0.1071015E+03  0.7561462E-02  0.1266033E+00
         -1   -1    0    0    0  501 -0.00000000000E+00  0.00000000000E+00  0.31997553871E+02  0.31997553871E+02  0.00000000000E+00 0.  1.
          1   -1    0    0  501    0  0.00000000000E+00 -0.00000000000E+00 -0.37155761510E+03  0.37155761510E+03  0.00000000000E+00 0. -1.
         25    2    1    2    0    0 -0.29933967179E+02 -0.20411187449E+02 -0.22602615994E+03  0.26085948579E+03  0.12508871807E+03 0.  0.
          5    1    3    3  502    0 -0.66515253751E+02 -0.48980029471E+02 -0.12927282116E+03  0.15346744593E+03  0.41800000000E+01 0.  1.
         -5    1    3    3    0  502  0.36581286572E+02  0.28568842022E+02 -0.96753338779E+02  0.10739203987E+03  0.41800000000E+01 0.  1.
        -11    1    1    2    0    0  0.27169976995E+02 -0.26467602604E+02 -0.64322511542E+02  0.74673470045E+02  0.00000000000E+00 0. -1.
         11    1    1    2    0    0  0.27639901836E+01  0.46878790054E+02 -0.49211389747E+02  0.68022213133E+02  0.00000000000E+00 0.  1.
</event>
<event>
 7    1  0.2989693E-009  0.1902568E+03  0.7561462E-02  0.1158230E+00
          1   -1    0    0  501    0  0.00000000000E+00  0.00000000000E+00  0.70644642570E+03  0.70644642570E+03  0.00000000000E+00 0. -1.
         -1   -1    0    0    0  501 -0.00000000000E+00 -0.00000000000E+00 -0.77675477521E+02  0.77675477521E+02  0.00000000000E+00 0.  1.
         25    2    1    2    0    0 -0.45472083008E+02 -0.16733565156E+03  0.13547649828E+03  0.25311215072E+03  0.12507177394E+03 0.  0.
          5    1    3    3  502    0  0.22742838907E+02 -0.79937689857E+01  0.58504321600E+02  0.63414234285E+02  0.41800000000E+01 0.  1.
         -5    1    3    3    0  502 -0.68214921914E+02 -0.15934188258E+03  0.76972176684E+02  0.18969791643E+03  0.41800000000E+01 0.  1.
        -11    1    1    2    0    0 -0.12664310115E+02  0.51844573307E+02  0.24849922450E+03  0.25416551519E+03  0.00000000000E+00 0. -1.
         11    1    1    2    0    0  0.58136393123E+02  0.11549107825E+03  0.24479522539E+03  0.27684423732E+03  0.00000000000E+00 0.  1.
</event>
<event>
 7    1  0.2989693E-009  0.1336480E+03  0.7561462E-02  0.1222141E+00
          1   -1    0    0  501    0  0.00000000000E+00  0.00000000000E+00  0.16331754360E+03  0.16331754360E+03  0.00000000000E+00 0. -1.
         -1   -1    0    0    0  501 -0.00000000000E+00 -0.00000000000E+00 -0.12674811462E+03  0.12674811462E+03  0.00000000000E+00 0.  1.
         25    2    1    2    0    0  0.14113294746E+01  0.94608022859E+02  0.11152829161E+02  0.15724476315E+03  0.12509540399E+03 0.  0.
          5    1    3    3  502    0 -0.53557642217E+02  0.38020307267E+02 -0.24950809483E+02  0.70384516042E+02  0.41800000000E+01 0. -1.
         -5    1    3    3    0  502  0.54968971692E+02  0.56587715592E+02  0.36103638644E+02  0.86860247111E+02  0.41800000000E+01 0. -1.
        -11    1    1    2    0    0 -0.37049034184E+01  0.13677801651E+02 -0.11648939148E+02  0.18344109426E+02  0.00000000000E+00 0.  1.
         11    1    1    2    0    0  0.22935739438E+01 -0.10828582451E+03  0.37065538963E+02  0.11447678564E+03  0.00000000000E+00 0. -1.
</event>
<event>
 7    1  0.4203725E-009  0.9760729E+02  0.7561462E-02  0.1285409E+00
          1   -1    0    0  501    0  0.00000000000E+00  0.00000000000E+00  0.59301690063E+03  0.59301690063E+03  0.00000000000E+00 0. -1.
         -1   -1    0    0    0  501 -0.00000000000E+00 -0.00000000000E+00 -0.37127422920E+02  0.37127422920E+02  0.00000000000E+00 0.  1.
         25    2    1    2    0    0 -0.67218076298E+02 -0.55172674573E+02  0.19214188329E+03  0.24521154119E+03  0.12509157773E+03 0.  0.
          5    1    3    3  502    0 -0.40675150771E+02 -0.62673136547E+02  0.29893298625E+02  0.80582080127E+02  0.41800000000E+01 0.  1.
         -5    1    3    3    0  502 -0.26542925527E+02  0.75004619736E+01  0.16224858466E+03  0.16462946106E+03  0.41800000000E+01 0.  1.
        -11    1    1    2    0    0  0.10322375146E+02  0.27183902543E+02  0.19775104344E+02  0.35164907763E+02  0.00000000000E+00 0.  1.
         11    1    1    2    0    0  0.56895701152E+02  0.27988772030E+02  0.34397249008E+03  0.34976787460E+03  0.00000000000E+00 0. -1.
</event>
<event>
 7    1  0.2989693E-009  0.1786142E+03  0.7561462E-02  0.1169151E+00
          2   -1    0    0  501    0  0.00000000000E+00  0.00000000000E+00  0.13407489583E+04  0.13407489583E+04  0.00000000000E+00 0. -1.
         -2   -1    0    0    0  501 -0.00000000000E+00 -0.00000000000E+00 -0.29820619426E+02  0.29820619426E+02  0.00000000000E+00 0.  1.
         25    2    1    2    0    0 -0.73212782351E+02  0.15091363763E+03  0.70422667632E+03  0.73465660331E+03  0.12510026229E+03 0.  0.
          5    1    3    3  502    0 -0.14458082009E+02  0.95565024341E+02  0.56860286572E+03  0.57677413371E+03  0.41800000000E+01 0. -1.
         -5    1    3    3    0  502 -0.58754700341E+02  0.55348613289E+02  0.13562381060E+03  0.15788246960E+03  0.41800000000E+01 0. -1.
        -11    1    1    2    0    0  0.82082560971E+02 -0.10699822955E+03  0.53182163824E+03  0.54865328108E+03  0.00000000000E+00 0. -1.
         11    1    1    2    0    0 -0.88697786201E+01 -0.43915408082E+02  0.74880024334E+02  0.87259693353E+02  0.00000000000E+00 0.  1.
</event>
<event>
 7    1  0.2989693E-009  0.1544850E+03  0.7561462E-02  0.1195068E+00
          1   -1    0    0  501    0  0.00000000000E+00  0.00000000000E+00  0.37252145980E+03  0.37252145980E+03  0.00000000000E+00 0. -1.
         -1   -1    0    0    0  501 -0.00000000000E+00 -0.00000000000E+00 -0.10240933464E+03  0.10240933464E+03  0.00000000000E+00 0.  1.
         25    2    1    2    0    0  0.88601725249E+02 -0.12312918755E+03  0.71917767438E+02  0.20935949184E+03  0.12509264169E+03 0.  0.
          5    1    3    3  502    0  0.68506388959E+02 -0.63723270407E+02 -0.22138445466E+02  0.96235979172E+02  0.41800000000E+01 0. -1.
         -5    1    3    3    0  502  0.20095336290E+02 -0.59405917147E+02  0.94056212904E+02  0.11312351267E+03  0.41800000000E+01 0. -1.
        -11    1    1    2    0    0 -0.66868057964E+02  0.10323461581E+03  0.87304327050E+02  0.15083357915E+03  0.00000000000E+00 0.  1.
         11    1    1    2    0    0 -0.21733667285E+02  0.19894571745E+02  0.11089003068E+03  0.11473772345E+03  0.00000000000E+00 0. -1.
</event>
<event>
 7    1  0.2989693E-009  0.1230629E+03  0.7561462E-02  0.1238128E+00
         -2   -1    0    0    0  501 -0.00000000000E+00  0.00000000000E+00  0.16758765922E+03  0.16758765922E+03  0.00000000000E+00 0.  1.
          2   -1    0    0  501    0  0.00000000000E+00 -0.00000000000E+00 -0.10739245547E+03  0.10739245547E+03  0.00000000000E+00 0. -1.
         25    2    1    2    0    0 -0.77744450283E+02 -0.10874105176E+02  0.35029959022E+02  0.15177720389E+03  0.12508707319E+03 0.  0.
          5    1    3    3  502    0 -0.92262318042E+02 -0.41696696885E+02  0.51539838196E+02  0.11368719006E+03  0.41800000000E+01 0.  1.
         -5    1    3    3    0  502  0.14517867759E+02  0.30822591708E+02 -0.16509879174E+02  0.38090013839E+02  0.41800000000E+01 0.  1.
        -11    1    1    2    0    0  0.38177251704E+02  0.44435075705E+02  0.37907062312E+02  0.69777674608E+02  0.00000000000E+00 0. -1.
         11    1    1    2    0    0  0.39567198580E+02 -0.33560970529E+02 -0.12741817588E+02  0.53425236188E+02  0.00000000000E+00 0.  1.
</event>
<event>
 7    1  0.2989693E-009  0.2177291E+03  0.7561462E-02  0.1135588E+00
          2   -1    0    0  501    0  0.00000000000E+00  0.00000000000E+00  0.73426638186E+03  0.73426638186E+03  0.00000000000E+00 0.  1.
         -2   -1    0    0    0  501 -0.00000000000E+00 -0.00000000000E+00 -0.16679292068E+03  0.16679292068E+03  0.00000000000E+00 0. -1.
         25    2    1    2    0    0 -0.54763197228E+02  0.18671426209E+03  0.63539571675E+03  0.67619259852E+03  0.12508992764E+03 0.  0.
          5    1    3    3  502    0  0.27450248036E+02  0.11578959203E+03  0.27252040042E+03  0.29739802754E+03  0.41800000000E+01 0.  1.
         -5    1    3    3    0  502 -0.82213445264E+02  0.70924670062E+02  0.36287531633E+03  0.37879457098E+03  0.41800000000E+01 0.  1.
        -11    1    1    2    0    0  0.72343540004E+02 -0.13588053335E+03 -0.73880854551E+02  0.17074978124E+03  0.00000000000E+00 0.  1.
         11    1    1    2    0    0 -0.17580342775E+02 -0.50833728738E+02  0.59585989812E+01  0.54116922782E+02  0.00000000000E+00 0. -1.
</event>
<event>
 7    1  0.2989693E-009  0.1799906E+03  0.7561462E-02  0.1167812E+00
         -4   -1    0    0    0  501 -0.00000000000E+00  0.00000000000E+00  0.14214337699E+03  0.14214337699E+03  0.00000000000E+00 0.  1.
          4   -1    0    0  501    0  0.00000000000E+00 -0.00000000000E+00 -0.29173893664E+03  0.29173893664E+03  0.00000000000E+00 0. -1.
         25    2    1    2    0    0  0.66855903220E+02 -0.14270581237E+03 -0.66932243428E+02  0.21202719268E+03  0.12506376191E+03 0.  0.
          5    1    3    3  502    0  0.71967910862E+02 -0.57578706309E+02  0.15256950179E+02  0.93514354742E+02  0.41800000000E+01 0.  1.
         -5    1    3    3    0  502 -0.51120076423E+01 -0.85127106066E+02 -0.82189193608E+02  0.11851283793E+03  0.41800000000E+01 0.  1.
        -11    1    1    2    0    0 -0.56969890865E+02  0.21754217420E+02 -0.79842883235E+02  0.10046740986E+03  0.00000000000E+00 0.  1.
         11    1    1    2    0    0 -0.98860123548E+01  0.12095159495E+03 -0.28204329856E+01  0.12138771109E+03  0.00000000000E+00 0. -1.
</event>
<event>
 7    1  0.2989693E-009  0.1218045E+03  0.7561462E-02  0.1240150E+00
          1   -1    0    0  501    0  0.00000000000E+00  0.00000000000E+00  0.29919791915E+03  0.29919791915E+03  0.00000000000E+00 0. -1.
         -1   -1    0    0    0  501 -0.00000000000E+00 -0.00000000000E+00 -0.89717463796E+02  0.89717463796E+02  0.00000000000E+00 0.  1.
         25    2    1    2    0    0  0.27789300992E+02  0.89444660118E+02  0.20552491480E+03  0.25818705819E+03  0.12508986346E+03 0.  0.
          5    1    3    3  502    0 -0.19830254094E+02  0.54771398964E+02  0.17289863955E+02  0.60906132018E+02  0.41800000000E+01 0.  1.
         -5    1    3    3    0  502  0.47619555086E+02  0.34673261154E+02  0.18823505085E+03  0.19728092617E+03  0.41800000000E+01 0.  1.
        -11    1    1    2    0    0 -0.51084605008E+02 -0.23526907064E+02  0.18715829245E+02  0.59274231240E+02  0.00000000000E+00 0.  1.
         11    1    1    2    0    0  0.23295304016E+02 -0.65917753054E+02 -0.14760288694E+02  0.71454093509E+02  0.00000000000E+00 0. -1.
</event>
<event>
 7    1  0.2989693E-009  0.1057581E+03  0.7561462E-02  0.1268633E+00
          2   -1    0    0  501    0  0.00000000000E+00  0.00000000000E+00  0.40355990041E+03  0.40355990041E+03  0.00000000000E+00 0.  1.
         -2   -1    0    0    0  501 -0.00000000000E+00 -0.00000000000E+00 -0.44813908230E+02  0.44813908230E+02  0.00000000000E+00 0. -1.
         25    2    1    2    0    0 -0.69454209384E+02 -0.37128995151E+02  0.19005734585E+03  0.24077098938E+03  0.12508567116E+03 0.  0.
          5    1    3    3  502    0  0.18215669168E+02 -0.19350322026E+02  0.13044985289E+03  0.13319490263E+03  0.41800000000E+01 0.  1.
         -5    1    3    3    0  502 -0.87669878552E+02 -0.17778673124E+02  0.59607492962E+02  0.10757608675E+03  0.41800000000E+01 0.  1.
        -11    1    1    2    0    0  0.30400816889E+02  0.45882146844E+02  0.15629870872E+03  0.16570657022E+03  0.00000000000E+00 0.  1.
         11    1    1    2    0    0  0.39053392495E+02 -0.87531516935E+01  0.12389937603E+02  0.41896249042E+02  0.00000000000E+00 0. -1.
</event>
<event>
 7    1  0.2989693E-009  0.1402276E+03  0.7561462E-02  0.1213023E+00
          2   -1    0    0  501    0  0.00000000000E+00  0.00000000000E+00  0.13278421162E+03  0.13278421162E+03  0.00000000000E+00 0. -1.
         -2   -1    0    0    0  501 -0.00000000000E+00 -0.00000000000E+00 -0.16829866552E+03  0.16829866552E+03  0.00000000000E+00 0.  1.
         25    2    1    2    0    0  0.90985168828E+02  0.37291011341E+02  0.10819097903E+02  0.15945854707E+03  0.12506420303E+03 0.  0.
          5    1    3    3  502    0  0.86479155784E+02  0.76783310243E+02  0.22348466720E+02  0.11786113643E+03  0.41800000000E+01 0. -1.
         -5    1    3    3    0  502  0.45060130438E+01 -0.39492298901E+02 -0.11529368817E+02  0.41597410633E+02  0.41800000000E+01 0. -1.
        -11    1    1    2    0    0 -0.47733254912E+02 -0.59389522869E+02 -0.52692561583E+02  0.92639543918E+02  0.00000000000E+00 0. -1.
         11    1    1    2    0    0 -0.43251913915E+02  0.22098511528E+02  0.63590097728E+01  0.48984786152E+02  0.00000000000E+00 0.  1.
</event>
<event>
 7    1  0.2989693E-009  0.8511096E+02  0.7561462E-02  0.1315143E+00
          2   -1    0    0  501    0  0.00000000000E+00  0.00000000000E+00  0.54410969473E+02  0.54410969473E+02  0.00000000000E+00 0. -1.
         -2   -1    0    0    0  501 -0.00000000000E+00 -0.00000000000E+00 -0.42684553228E+03  0.42684553228E+03  0.00000000000E+00 0.  1.
         25    2    1    2    0    0  0.11705496973E+02 -0.27237916196E+02 -0.36222750740E+03  0.38436343590E+03  0.12509021145E+03 0.  0.
          5    1    3    3  502    0  0.43155567308E+02 -0.49152872288E+02 -0.10165243593E+03  0.12095080808E+03  0.41800000000E+01 0.  1.
         -5    1    3    3    0  502 -0.31450070335E+02  0.21914956092E+02 -0.26057507147E+03  0.26341262782E+03  0.41800000000E+01 0.  1.
        -11    1    1    2    0    0  0.73908677416E+01  0.41583301736E+02  0.28824521484E+02  0.51133638126E+02  0.00000000000E+00 0. -1.
         11    1    1    2    0    0 -0.19096364715E+02 -0.14345385540E+02 -0.39031576899E+02  0.45759427737E+02  0.00000000000E+00 0.  1.
</event>
<event>
 7    1  0.2989693E-009  0.7683120E+02  0.7561462E-02  0.1338292E+00
         -1   -1    0    0    0  501 -0.00000000000E+00  0.00000000000E+00  0.82260329507E+03  0.82260329507E+03  0.00000000000E+00 0.  1.
          1   -1    0    0  501    0  0.00000000000E+00 -0.00000000000E+00 -0.23127514287E+02  0.23127514287E+02  0.00000000000E+00 0. -1.
         25    2    1    2    0    0 -0.32933413477E+02 -0.66963527632E+02  0.55953011918E+03  0.57817839607E+03  0.12509028603E+03 0.  0.
          5    1    3    3  502    0 -0.26906417196E+02 -0.33554876516E+02  0.53336820279E+03  0.53511587266E+03  0.41800000000E+01 0.  1.
         -5    1    3    3    0  502 -0.60269962818E+01 -0.33408651117E+02  0.26161916395E+02  0.43062523418E+02  0.41800000000E+01 0.  1.
        -11    1    1    2    0    0  0.28488164925E+02  0.41133420577E+02  0.23575933798E+03  0.24101037171E+03  0.00000000000E+00 0.  1.
         11    1    1    2    0    0  0.44452485529E+01  0.25830107055E+02  0.41863236211E+01  0.26542041568E+02  0.00000000000E+00 0. -1.
</event>
<event>
 7    1  0.2989693E-009  0.7366659E+02  0.7561462E-02  0.1348051E+00
         -1   -1    0    0    0  501 -0.00000000000E+00  0.00000000000E+00  0.27429116874E+03  0.27429116874E+03  0.00000000000E+00 0.  1.
          1   -1    0    0  501    0  0.00000000000E+00 -0.00000000000E+00 -0.14491587864E+03  0.14491587864E+03  0.00000000000E+00 0. -1.
         25    2    1    2    0    0  0.17579273989E+02 -0.28661081154E+00  0.24555008827E+03  0.27613404530E+03  0.12508418008E+03 0.  0.
          5    1    3    3  502    0  0.31962508364E+02  0.26055991112E+02  0.15743107138E+02  0.44337731517E+02  0.41800000000E+01 0. -1.
         -5    1    3    3    0  502 -0.14383234376E+02 -0.26342601923E+02  0.22980698113E+03  0.23179631378E+03  0.41800000000E+01 0. -1.
        -11    1    1    2    0    0 -0.31957600427E+02 -0.28873346822E+02 -0.34560553823E+02  0.55221284504E+02  0.00000000000E+00 0.  1.
         11    1    1    2    0    0  0.14378326438E+02  0.29159957633E+02 -0.81614244343E+02  0.87851717570E+02  0.00000000000E+00 0. -1.
</event>
<event>
 7    1  0.2989693E-009  0.8173665E+02  0.7561462E-02  0.1324194E+00
          1   -1    0    0  501    0  0.00000000000E+00  0.00000000000E+00  0.10308122950E+03  0.10308122950E+03  0.00000000000E+00 0. -1.
         -1   -1    0    0    0  501 -0.00000000000E+00 -0.00000000000E+00 -0.14963122465E+03  0.14963122465E+03  0.00000000000E+00 0.  1.
         25    2    1    2    0    0  0.45902874485E+02 -0.33778164396E+02 -0.46802000459E+02  0.14520940261E+03  0.12508918851E+03 0.  0.
          5    1    3    3  502    0  0.44330909263E+02 -0.38879466252E+01  0.35790862238E+02  0.57260840588E+02  0.41800000000E+01 0.  1.
         -5    1    3    3    0  502  0.15719652218E+01 -0.29890217771E+02 -0.82592862697E+02  0.87948562021E+02  0.41800000000E+01 0.  1.
        -11    1    1    2    0    0  0.20500527875E+01  0.40130209039E+02  0.30504906013E+02  0.50449833347E+02  0.00000000000E+00 0. -1.
         11    1    1    2    0    0 -0.47952927273E+02 -0.63520446424E+01 -0.30252900702E+02  0.57053218192E+02  0.00000000000E+00 0.  1.
</event>
<event>
 7    1  0.2989693E-009  0.9298773E+02  0.7561462E-02  0.1295774E+00
         -2   -1    0    0    0  501 -0.00000000000E+00  0.00000000000E+00  0.24897706389E+02  0.24897706389E+02  0.00000000000E+00 0.  1.
          2   -1    0    0  501    0  0.00000000000E+00 -0.00000000000E+00 -0.57845409731E+03  0.57845409731E+03  0.00000000000E+00 0. -1.
         25    2    1    2    0    0  0.26153700344E+02  0.36789589158E+02 -0.24874063169E+03  0.28205989233E+03  0.12509352940E+03 0.  0.
          5    1    3    3  502    0 -0.25558445262E+02  0.41271077986E+02 -0.30028358537E+02  0.57233824953E+02  0.41800000000E+01 0. -1.
         -5    1    3    3    0  502  0.51712145606E+02 -0.44814888278E+01 -0.21871227316E+03  0.22482606738E+03  0.41800000000E+01 0. -1.
        -11    1    1    2    0    0 -0.42611780742E+02  0.23929898870E+01 -0.65132056014E+02  0.77869602408E+02  0.00000000000E+00 0. -1.
         11    1    1    2    0    0  0.16458080398E+02 -0.39182579046E+02 -0.23968370322E+03  0.24342230896E+03  0.00000000000E+00 0.  1.
</event>
<event>
 7    1  0.2989693E-009  0.2077176E+03  0.7561462E-02  0.1143386E+00
         -2   -1    0    0    0  501 -0.00000000000E+00  0.00000000000E+00  0.62787193302E+02  0.62787193302E+02  0.00000000000E+00 0.  1.
          2   -1    0    0  501    0  0.00000000000E+00 -0.00000000000E+00 -0.86163260266E+03  0.86163260266E+03  0.00000000000E+00 0. -1.
         25    2    1    2    0    0  0.55649324270E+01 -0.19495789990E+03 -0.27956139605E+03  0.36310095838E+03  0.12509268808E+03 0.  0.
          5    1    3    3  502    0  0.51322794013E+02 -0.93372731836E+02 -0.19825085330E+03  0.22510746205E+03  0.41800000000E+01 0. -1.
         -5    1    3    3    0  502 -0.45757861586E+02 -0.10158516807E+03 -0.81310542746E+02  0.13799349633E+03  0.41800000000E+01 0. -1.
        -11    1    1    2    0    0 -0.17971817084E+02  0.11320651458E+03 -0.40056014647E+03  0.41663789085E+03  0.00000000000E+00 0. -1.
         11    1    1    2    0    0  0.12406884657E+02  0.81751385324E+02 -0.11872386684E+03  0.14468094673E+03  0.00000000000E+00 0.  1.
</event>
<event>
 7    1  0.2989693E-009  0.1504077E+03  0.7561462E-02  0.1199973E+00
         -2   -1    0    0    0  501 -0.00000000000E+00  0.00000000000E+00  0.17528735868E+02  0.17528735868E+02  0.00000000000E+00 0.  1.
          2   -1    0    0  501    0  0.00000000000E+00 -0.00000000000E+00 -0.35244754002E+04  0.35244754002E+04  0.00000000000E+00 0. -1.
         25    2    1    2    0    0 -0.67543147793E+02 -0.10428962240E+03 -0.31251240444E+04  0.31300935327E+04  0.12508728486E+03 0.  0.
          5    1    3    3  502    0 -0.84299373043E+02 -0.18405544425E+02 -0.18049906067E+04  0.18070566430E+04  0.41800000000E+01 0.  1.
         -5    1    3    3    0  502  0.16756225250E+02 -0.85884077972E+02 -0.13201334376E+04  0.13230368897E+04  0.41800000000E+01 0.  1.
        -11    1    1    2    0    0  0.48555184108E+02  0.51760202780E+02 -0.89118256346E+02  0.11392448424E+03  0.00000000000E+00 0.  1.
         11    1    1    2    0    0  0.18987963685E+02  0.52529419617E+02 -0.29270436365E+03  0.29798611912E+03  0.00000000000E+00 0. -1.
</event>
<event>
 7    1  0.2989693E-009  0.2183832E+03  0.7561462E-02  0.1135094E+00
         -4   -1    0    0    0  501 -0.00000000000E+00  0.00000000000E+00  0.89965667126E+02  0.89965667126E+02  0.00000000000E+00 0.  1.
          4   -1    0    0  501    0  0.00000000000E+00 -0.00000000000E+00 -0.67049658587E+03  0.67049658587E+03  0.00000000000E+00 0. -1.
         25    2    1    2    0    0  0.18359871383E+03 -0.95837242851E+02 -0.18453184324E+03  0.30428829545E+03  0.12508437450E+03 0.  0.
          5    1    3    3  502    0  0.13065279151E+03 -0.10346009215E+03 -0.18707053821E+03  0.25057334508E+03  0.41800000000E+01 0. -1.
         -5    1    3    3    0  502  0.52945922319E+02  0.76228493010E+01  0.25386949703E+01  0.53714950375E+02  0.41800000000E+01 0. -1.
        -11    1    1    2    0    0 -0.10795617722E+03  0.89973494133E+02 -0.18764565138E+03  0.23443689199E+03  0.00000000000E+00 0.  1.
         11    1    1    2    0    0 -0.75642536614E+02  0.58637487184E+01 -0.20835342412E+03  0.22173706555E+03  0.00000000000E+00 0. -1.
</event>
<event>
 7    1  0.2989693E-009  0.1771616E+03  0.7561462E-02  0.1170579E+00
          1   -1    0    0  501    0  0.00000000000E+00  0.00000000000E+00  0.48353794470E+03  0.48353794470E+03  0.00000000000E+00 0. -1.
         -1   -1    0    0    0  501 -0.00000000000E+00 -0.00000000000E+00 -0.11132552555E+03  0.11132552555E+03  0.00000000000E+00 0.  1.
         25    2    1    2    0    0  0.11419159401E+02  0.15974925777E+03  0.29560450158E+02  0.20535659225E+03  0.12508911705E+03 0.  0.
          5    1    3    3  502    0  0.16150144832E+02  0.16936083814E+03  0.53837847671E+02  0.17849343662E+03  0.41800000000E+01 0.  1.
         -5    1    3    3    0  502 -0.47309854305E+01 -0.96115803679E+01 -0.24277397513E+02  0.26863155628E+02  0.41800000000E+01 0.  1.
        -11    1    1    2    0    0 -0.34287014135E+02 -0.50588563469E+02  0.59986775516E+02  0.85634194858E+02  0.00000000000E+00 0.  1.
         11    1    1    2    0    0  0.22867854734E+02 -0.10916069430E+03  0.28266519347E+03  0.30387268314E+03  0.00000000000E+00 0. -1.
</event>
<event>
 7    1  0.2989693E-009  0.9145597E+02  0.7561462E-02  0.1299364E+00
          2   -1    0    0  501    0  0.00000000000E+00  0.00000000000E+00  0.21971594303E+03  0.21971594303E+03  0.00000000000E+00 0. -1.
         -2   -1    0    0    0  501 -0.00000000000E+00 -0.00000000000E+00 -0.57099905905E+02  0.57099905905E+02  0.00000000000E+00 0.  1.
         25    2    1    2    0    0  0.17724120763E+02 -0.18777854232E+02  0.70651850022E+02  0.14596058396E+03  0.12508419522E+03 0.  0.
          5    1    3    3  502    0  0.61052667777E+02 -0.29626467198E+02  0.73667653738E+01  0.68387845656E+02  0.41800000000E+01 0.  1.
         -5    1    3    3    0  502 -0.43328547015E+02  0.10848612966E+02  0.63285084648E+02  0.77572738308E+02  0.41800000000E+01 0.  1.
        -11    1    1    2    0    0 -0.10861875269E+02  0.43276732134E+02  0.10954028184E+02  0.45943950767E+02  0.00000000000E+00 0.  1.
         11    1    1    2    0    0 -0.68622454934E+01 -0.24498877903E+02  0.81010158922E+02  0.84911314207E+02  0.00000000000E+00 0. -1.
</event>
<event>
 7    1  0.2989693E-009  0.1638198E+03  0.7561462E-02  0.1184451E+00
         -1   -1    0    0    0  501 -0.00000000000E+00  0.00000000000E+00  0.60874271916E+02  0.60874271916E+02  0.00000000000E+00 0.  1.
          1   -1    0    0  501    0  0.00000000000E+00 -0.00000000000E+00 -0.57214075309E+03  0.57214075309E+03  0.00000000000E+00 0. -1.
         25    2    1    2    0    0 -0.63137504858E+02  0.13600675876E+03 -0.23833816716E+03  0.30811769690E+03  0.12508896943E+03 0.  0.
          5    1    3    3  502    0 -0.36043013224E+02  0.47675707194E+02 -0.19862511074E+03  0.20746440388E+03  0.41800000000E+01 0. -1.
         -5    1    3    3    0  502 -0.27094491634E+02  0.88331051563E+02 -0.39713056417E+02  0.10065329303E+03  0.41800000000E+01 0. -1.
        -11    1    1    2    0    0 -0.21714370120E+02 -0.49555842214E+02 -0.10103515534E+03  0.11460976390E+03  0.00000000000E+00 0. -1.
         11    1    1    2    0    0  0.84851874978E+02 -0.86450916543E+02 -0.17189315868E+03  0.21028756421E+03  0.00000000000E+00 0.  1.
</event>
<event>
 7    1  0.2989693E-009  0.1105763E+03  0.7561462E-02  0.1259506E+00
         -2   -1    0    0    0  501 -0.00000000000E+00  0.00000000000E+00  0.42179966630E+02  0.42179966630E+02  0.00000000000E+00 0.  1.
          2   -1    0    0  501    0  0.00000000000E+00 -0.00000000000E+00 -0.30182139270E+03  0.30182139270E+03  0.00000000000E+00 0. -1.
         25    2    1    2    0    0 -0.15391738848E+02 -0.26175834545E+02 -0.15556289117E+03  0.20191266246E+03  0.12508729037E+03 0.  0.
          5    1    3    3  502    0 -0.57454919842E+02  0.24495186743E+02 -0.80348537273E+02  0.10185500395E+03  0.41800000000E+01 0. -1.
         -5    1    3    3    0  502  0.42063180994E+02 -0.50671021289E+02 -0.75214353895E+02  0.10005765851E+03  0.41800000000E+01 0. -1.
        -11    1    1    2    0    0  0.46432823600E+02  0.37334657579E+02 -0.85556617388E+02  0.10425842193E+03  0.00000000000E+00 0. -1.
         11    1    1    2    0    0 -0.31041084753E+02 -0.11158823034E+02 -0.18521917512E+02  0.37830274946E+02  0.00000000000E+00 0.  1.
</event>
<event>
 7    1  0.2989693E-009  0.9961092E+02  0.7561462E-02  0.1281116E+00
          1   -1    0    0  501    0  0.00000000000E+00  0.00000000000E+00  0.94535982922E+02  0.94535982922E+02  0.00000000000E+00 0. -1.
         -1   -1    0    0    0  501 -0.00000000000E+00 -0.00000000000E+00 -0.15009858649E+03  0.15009858649E+03  0.00000000000E+00 0.  1.
         25    2    1    2    0    0 -0.38226161278E+02 -0.73959668157E+01 -0.62483187837E+02  0.14514369659E+03  0.12508638681E+03 0.  0.
          5    1    3    3  502    0 -0.61072980259E+02 -0.43946788507E+02 -0.83479799325E+01  0.75818139694E+02  0.41800000000E+01 0.  1.
         -5    1    3    3    0  502  0.22846818981E+02  0.36550821691E+02 -0.54135207905E+02  0.69325556895E+02  0.41800000000E+01 0.  1.
        -11    1    1    2    0    0  0.31296796875E+02  0.37971957767E+02 -0.24617062458E+02  0.55021439779E+02  0.00000000000E+00 0.  1.
         11    1    1    2    0    0  0.69293644035E+01 -0.30575990952E+02  0.31537646730E+02  0.44469433041E+02  0.00000000000E+00 0. -1.
</event>
<event>
 7    1  0.2989693E-009  0.1983764E+03  0.7561462E-02  0.1151116E+00
          1   -1    0    0  501    0  0.00000000000E+00  0.00000000000E+00  0.89738131663E+03  0.89738131663E+03  0.00000000000E+00 0. -1.
         -1   -1    0    0    0  501 -0.00000000000E+00 -0.00000000000E+00 -0.45229780107E+02  0.45229780107E+02  0.00000000000E+00 0.  1.
         25    2    1    2    0    0 -0.14900121183E+03 -0.84520231993E+02  0.45264370522E+03  0.49988047855E+03  0.12509651562E+03 0.  0.
          5    1    3    3  502    0 -0.28708763377E+02 -0.85109203828E+02  0.22657016147E+03  0.24376070261E+03  0.41800000000E+01 0.  1.
         -5    1    3    3    0  502 -0.12029244846E+03  0.58897183503E+00  0.22607354375E+03  0.25611977594E+03  0.41800000000E+01 0.  1.
        -11    1    1    2    0    0 -0.83760510948E+01  0.75512974268E+01  0.80409834207E+01  0.13850550139E+02  0.00000000000E+00 0.  1.
         11    1    1    2    0    0  0.15737726293E+03  0.76968934566E+02  0.39146684788E+03  0.42888006804E+03  0.00000000000E+00 0. -1.
</event>
<event>
 7    1  0.2989693E-009  0.7337651E+02  0.7561462E-02  0.1348973E+00
          1   -1    0    0  501    0  0.00000000000E+00  0.00000000000E+00  0.17156943693E+04  0.17156943693E+04  0.00000000000E+00 0. -1.
         -1   -1    0    0    0  501 -0.00000000000E+00 -0.00000000000E+00 -0.94127125369E+01  0.94127125369E+01  0.00000000000E+00 0.  1.
         25    2    1    2    0    0 -0.37872247077E+02 -0.12523123841E+02  0.12493929395E+04  0.12562734657E+04  0.12509663338E+03 0.  0.
          5    1    3    3  502    0 -0.11296833660E+02 -0.92915825881E+01  0.11986746625E+04  0.11987711920E+04  0.41800000000E+01 0. -1.
         -5    1    3    3    0  502 -0.26575413416E+02 -0.32315412533E+01  0.50718277045E+02  0.57502273725E+02  0.41800000000E+01 0. -1.
        -11    1    1    2    0    0  0.64291572697E+02  0.31813788459E+02  0.33790283482E+03  0.34543284330E+03  0.00000000000E+00 0.  1.
         11    1    1    2    0    0 -0.26419325621E+02 -0.19290664617E+02  0.11898588241E+03  0.12340077277E+03  0.00000000000E+00 0. -1.
</event>
<event>
 7    1  0.2989693E-009  0.1405483E+03  0.7561462E-02  0.1212593E+00
         -2   -1    0    0    0  501 -0.00000000000E+00  0.00000000000E+00  0.80170114985E+02  0.80170114985E+02  0.00000000000E+00 0.  1.
          2   -1    0    0  501    0  0.00000000000E+00 -0.00000000000E+00 -0.34281080429E+03  0.34281080429E+03  0.00000000000E+00 0. -1.
         25    2    1    2    0    0 -0.78006520529E+02  0.91606895804E+02 -0.18776242004E+03  0.25569552888E+03  0.12509451028E+03 0.  0.
          5    1    3    3  502    0 -0.42500210189E+02  0.10651618438E+03 -0.76592691145E+02  0.13797056983E+03  0.41800000000E+01 0.  1.
         -5    1    3    3    0  502 -0.35506310340E+02 -0.14909288578E+02 -0.11116972890E+03  0.11772495905E+03  0.41800000000E+01 0.  1.
        -11    1    1    2    0    0 -0.15788886469E+00 -0.24736576418E+02  0.16466576588E+02  0.29716515379E+02  0.00000000000E+00 0.  1.
         11    1    1    2    0    0  0.78164409394E+02 -0.66870319386E+02 -0.91344845848E+02  0.13756887502E+03  0.00000000000E+00 0. -1.
</event>
<event>
 7    1  0.2989693E-009  0.1324599E+03  0.7561462E-02  0.1223851E+00
         -1   -1    0    0    0  501 -0.00000000000E+00  0.00000000000E+00  0.14073230414E+03  0.14073230414E+03  0.00000000000E+00 0.  1.
          1   -1    0    0  501    0  0.00000000000E+00 -0.00000000000E+00 -0.20025432711E+03  0.20025432711E+03  0.00000000000E+00 0. -1.
         25    2    1    2    0    0  0.10357200101E+02  0.91988445312E+02 -0.12088318500E+03  0.19705243461E+03  0.12509105445E+03 0.  0.
          5    1    3    3  502    0 -0.31943181430E+02  0.89315556756E+02 -0.12182051473E+03  0.15445175858E+03  0.41800000000E+01 0. -1.
         -5    1    3    3    0  502  0.42300381530E+02  0.26728885558E+01  0.93732973749E+00  0.42600676026E+02  0.41800000000E+01 0. -1.
        -11    1    1    2    0    0  0.37053810928E+02 -0.22796919007E+02  0.35530666927E+02  0.56170390001E+02  0.00000000000E+00 0.  1.
         11    1    1    2    0    0 -0.47411011029E+02 -0.69191526305E+02  0.25830495099E+02  0.87763806641E+02  0.00000000000E+00 0. -1.
</event>
<event>
 7    1  0.2989693E-009  0.1041507E+03  0.7561462E-02  0.1271802E+00
          1   -1    0    0  501    0  0.00000000000E+00  0.00000000000E+00  0.84572859459E+02  0.84572859459E+02  0.00000000000E+00 0. -1.
         -1   -1    0    0    0  501 -0.00000000000E+00 -0.00000000000E+00 -0.20866656786E+03  0.20866656786E+03  0.00000000000E+00 0.  1.
         25    2    1    2    0    0 -0.83819039691E+01  0.29252457728E+02 -0.14508953361E+03  0.19399471778E+03  0.12512799513E+03 0.  0.
          5    1    3    3  502    0 -0.52422146579E+02 -0.22766666260E+02 -0.45154881893E+02  0.72957784392E+02  0.41800000000E+01 0.  1.
         -5    1    3    3    0  502  0.44040242610E+02  0.52019123987E+02 -0.99934651720E+02  0.12103693339E+03  0.41800000000E+01 0.  1.
        -11    1    1    2    0    0  0.35976052596E+02  0.75021410016E+01  0.35453922701E+02  0.51064068727E+02  0.00000000000E+00 0. -1.
         11    1    1    2    0    0 -0.27594148627E+02 -0.36754598729E+02 -0.14458097490E+02  0.48180640814E+02  0.00000000000E+00 0.  1.
</event>
<event>
 7    1  0.2989693E-009  0.9625874E+02  0.7561462E-02  0.1288366E+00
          1   -1    0    0  501    0  0.00000000000E+00  0.00000000000E+00  0.14100047886E+03  0.14100047886E+03  0.00000000000E+00 0. -1.
         -1   -1    0    0    0  501 -0.00000000000E+00 -0.00000000000E+00 -0.89654045876E+02  0.89654045876E+02  0.00000000000E+00 0.  1.
         25    2    1    2    0    0  0.20265420535E+01  0.24895193631E+02  0.52151191992E+02  0.13780463444E+03  0.12508594208E+03 0.  0.
          5    1    3    3  502    0 -0.46253312068E+02  0.26664946119E+01  0.67814527385E+02  0.82236011547E+02  0.41800000000E+01 0.  1.
         -5    1    3    3    0  502  0.48279854122E+02  0.22228699020E+02 -0.15663335393E+02  0.55568622889E+02  0.41800000000E+01 0.  1.
        -11    1    1    2    0    0 -0.41954329177E+01 -0.58679827141E+02  0.21347262834E+01  0.58868334672E+02  0.00000000000E+00 0.  1.
         11    1    1    2    0    0  0.21688908641E+01  0.33784633510E+02 -0.29394852930E+01  0.33981555626E+02  0.00000000000E+00 0. -1.
</event>
<event>
 7    1  0.2989693E-009  0.1258229E+03  0.7561462E-02  0.1233789E+00
         -1   -1    0    0    0  501 -0.00000000000E+00  0.00000000000E+00  0.15231439344E+03  0.15231439344E+03  0.00000000000E+00 0.  1.
          1   -1    0    0  501    0  0.00000000000E+00 -0.00000000000E+00 -0.18604658177E+03  0.18604658177E+03  0.00000000000E+00 0. -1.
         25    2    1    2    0    0 -0.66811038784E+02 -0.93352400523E+01  0.90463303415E+02  0.16846961172E+03  0.12509012430E+03 0.  0.
          5    1    3    3  502    0  0.21911976814E+02  0.34332878320E+02  0.13564514666E+02  0.43131771582E+02  0.41800000000E+01 0.  1.
         -5    1    3    3    0  502 -0.88723015598E+02 -0.43668118372E+02  0.76898788749E+02  0.12533784014E+03  0.41800000000E+01 0.  1.
        -11    1    1    2    0    0  0.24939724314E+01 -0.34052502125E+02 -0.60672368342E+02  0.69619889972E+02  0.00000000000E+00 0.  1.
         11    1    1    2    0    0  0.64317066352E+02  0.43387742177E+02 -0.63523123404E+02  0.10027147352E+03  0.00000000000E+00 0. -1.
</event>
<event>
 7    1  0.2989693E-009  0.1950531E+03  0.7561462E-02  0.1153981E+00
          1   -1    0    0  501    0  0.00000000000E+00  0.00000000000E+00  0.75108053395E+03  0.75108053395E+03  0.00000000000E+00 0. -1.
         -1   -1    0    0    0  501 -0.00000000000E+00 -0.00000000000E+00 -0.92585090180E+02  0.92585090180E+02  0.00000000000E+00 0.  1.
         25    2    1    2    0    0 -0.13209169944E+02 -0.17432275625E+03  0.75008075025E+02  0.22767781846E+03  0.12509225468E+03 0.  0.
          5    1    3    3  502    0  0.47997345258E+02 -0.26673202708E+02  0.18265842803E+02  0.58019981970E+02  0.41800000000E+01 0.  1.
         -5    1    3    3    0  502 -0.61206515202E+02 -0.14764955354E+03  0.56742232222E+02  0.16965783649E+03  0.41800000000E+01 0.  1.
        -11    1    1    2    0    0  0.10462071624E+01  0.84466461432E+02  0.42571317542E+03  0.43401311660E+03  0.00000000000E+00 0. -1.
         11    1    1    2    0    0  0.12162962781E+02  0.89856294820E+02  0.15777419333E+03  0.18197468908E+03  0.00000000000E+00 0.  1.
</event>
<event>
 7    1  0.2989693E-009  0.1215493E+03  0.7561462E-02  0.1240563E+00
         -2   -1    0    0    0  501 -0.00000000000E+00  0.00000000000E+00  0.11299314170E+03  0.11299314170E+03  0.00000000000E+00 0.  1.
          2   -1    0    0  501    0  0.00000000000E+00 -0.00000000000E+00 -0.18836822445E+03  0.18836822445E+03  0.00000000000E+00 0. -1.
         25    2    1    2    0    0 -0.40876041666E+02 -0.54170231632E+02  0.31301543945E+02  0.14571502028E+03  0.12509122952E+03 0.  0.
          5    1    3    3  502    0  0.16156826028E+02  0.26775784144E+02 -0.16584756307E+02  0.35644244775E+02  0.41800000000E+01 0. -1.
         -5    1    3    3    0  502 -0.57032867695E+02 -0.80946015776E+02  0.47886300252E+02  0.11007077550E+03  0.41800000000E+01 0. -1.
        -11    1    1    2    0    0  0.97061270348E+01 -0.25287621330E+02 -0.17738255636E+02  0.32377745560E+02  0.00000000000E+00 0.  1.
         11    1    1    2    0    0  0.31169914631E+02  0.79457852961E+02 -0.88938371066E+02  0.12326860031E+03  0.00000000000E+00 0. -1.
</event>
<event>
 7    1  0.2989693E-009  0.1094130E+03  0.7561462E-02  0.1261661E+00
         -1   -1    0    0    0  501 -0.00000000000E+00  0.00000000000E+00  0.40279747565E+03  0.40279747565E+03  0.00000000000E+00 0.  1.
          1   -1    0    0  501    0  0.00000000000E+00 -0.00000000000E+00 -0.40942775060E+02  0.40942775060E+02  0.00000000000E+00 0. -1.
         25    2    1    2    0    0  0.46954925519E+02 -0.10958093012E+02  0.11497928455E+03  0.17661491611E+03  0.12509095844E+03 0.  0.
          5    1    3    3  502    0  0.89111291457E+02 -0.17561737242E+02  0.83241034412E+02  0.12327116082E+03  0.41800000000E+01 0. -1.
         -5    1    3    3    0  502 -0.42156365938E+02  0.66036442306E+01  0.31738250141E+02  0.53343755288E+02  0.41800000000E+01 0. -1.
        -11    1    1    2    0    0 -0.17862471058E+02  0.40071270523E+02  0.19995570805E+03  0.20471213881E+03  0.00000000000E+00 0.  1.
         11    1    1    2    0    0 -0.29092454461E+02 -0.29113177511E+02  0.46919707984E+02  0.62413195789E+02  0.00000000000E+00 0. -1.
</event>
<event>
 7    1  0.2989693E-009  0.1574367E+03  0.7561462E-02  0.1191622E+00
         -2   -1    0    0    0  501 -0.00000000000E+00  0.00000000000E+00  0.43922631951E+02  0.43922631951E+02  0.00000000000E+00 0.  1.
          2   -1    0    0  501    0  0.00000000000E+00 -0.00000000000E+00 -0.88405401991E+03  0.88405401991E+03  0.00000000000E+00 0. -1.
         25    2    1    2    0    0  0.52744659372E+02 -0.10767354569E+03 -0.17624071224E+03  0.24715117429E+03  0.12508925920E+03 0.  0.
          5    1    3    3  502    0  0.90264854342E+02 -0.48313357311E+02 -0.95603212179E+02  0.14014054018E+03  0.41800000000E+01 0. -1.
         -5    1    3    3    0  502 -0.37520194970E+02 -0.59360188376E+02 -0.80637500063E+02  0.10701063410E+03  0.41800000000E+01 0. -1.
        -11    1    1    2    0    0 -0.72695978301E+02  0.85655118901E+02 -0.59915075320E+03  0.60959259323E+03  0.00000000000E+00 0.  1.
         11    1    1    2    0    0  0.19951318929E+02  0.22018426787E+02 -0.64739922514E+02  0.71232884346E+02  0.00000000000E+00 0. -1.
</event>
<event>
 7    1  0.2989693E-009  0.1485685E+03  0.7561462E-02  0.1202243E+00
         -2   -1    0    0    0  501 -0.00000000000E+00  0.00000000000E+00  0.37241825297E+02  0.37241825297E+02  0.00000000000E+00 0.  1.
          2   -1    0    0  501    0  0.00000000000E+00 -0.00000000000E+00 -0.83617910412E+03  0.83617910412E+03  0.00000000000E+00 0. -1.
         25    2    1    2    0    0 -0.98307133768E+02 -0.68716407530E+02 -0.24648400345E+03  0.30132115517E+03  0.12511529636E+03 0.  0.
          5    1    3    3  502    0 -0.83758864935E+02  0.15673783557E+02 -0.14724202049E+03  0.17017314696E+03  0.41800000000E+01 0.  1.
         -5    1    3    3    0  502 -0.14548268832E+02 -0.84390191087E+02 -0.99241982951E+02  0.13114800821E+03  0.41800000000E+01 0.  1.
        -11    1    1    2    0    0  0.82537021283E+02  0.36564338034E+02 -0.50303024507E+03  0.51106627570E+03  0.00000000000E+00 0.  1.
         11    1    1    2    0    0  0.15770112485E+02  0.32152069496E+02 -0.49423030302E+02  0.61033498547E+02  0.00000000000E+00 0. -1.
</event>
<event>
 7    1  0.2989693E-009  0.9002633E+02  0.7561462E-02  0.1302788E+00
         -2   -1    0    0    0  501 -0.00000000000E+00  0.00000000000E+00  0.25894953877E+03  0.25894953877E+03  0.00000000000E+00 0.  1.
          2   -1    0    0  501    0  0.00000000000E+00 -0.00000000000E+00 -0.64160973444E+02  0.64160973444E+02  0.00000000000E+00 0. -1.
         25    2    1    2    0    0 -0.67469061708E+02 -0.53009030583E+02  0.16327483030E+03  0.22286494204E+03  0.12509228821E+03 0.  0.
          5    1    3    3  502    0 -0.18083793443E+02 -0.17381084033E+02  0.15971061773E+03  0.16172222940E+03  0.41800000000E+01 0. -1.
         -5    1    3    3    0  502 -0.49385268266E+02 -0.35627946550E+02  0.35642125672E+01  0.61142712634E+02  0.41800000000E+01 0. -1.
        -11    1    1    2    0    0  0.37281500083E+02  0.51211601826E+02  0.12625750529E+02  0.64590618409E+02  0.00000000000E+00 0. -1.
         11    1    1    2    0    0  0.30187561625E+02  0.17974287573E+01  0.18887984496E+02  0.35654951765E+02  0.00000000000E+00 0.  1.
</event>
<event>
 6    1  0.2989693E-009  0.1481563E+03  0.7561462E-02  0.1202757E+00
          2   -1    0    0  501    0  0.00000000000E+00  0.00000000000E+00  0.67005322659E+03  0.67005322659E+03  0.00000000000E+00 0. -1.
         -2   -1    0    0    0  501 -0.00000000000E+00 -0.00000000000E+00 -0.44452209799E+02  0.44452209799E+02  0.00000000000E+00 0.  1.
          5    1    1    2  502    0 -0.32179087572E+02  0.10044189697E+02  0.17583186560E+03  0.17908293270E+03  0.41800000000E+01 0. -1.
         -5    1    1    2    0  502 -0.22035440348E+02 -0.12889470817E+03  0.21249461775E+03  0.24954126192E+03  0.41800000000E+01 0. -1.
        -11    1    1    2    0    0  0.28135098438E+01  0.19014232081E+02 -0.41102771162E+01  0.19655819424E+02  0.00000000000E+00 0.  1.
         11    1    1    2    0    0  0.51401018076E+02  0.99836286390E+02  0.24138481056E+03  0.26622542235E+03  0.00000000000E+00 0. -1.
</event>
<event>
 7    1  0.2989693E-009  0.1110926E+03  0.7561462E-02  0.1258560E+00
         -4   -1    0    0    0  501 -0.00000000000E+00  0.00000000000E+00  0.19683325078E+03  0.19683325078E+03  0.00000000000E+00 0.  1.
          4   -1    0    0  501    0  0.00000000000E+00 -0.00000000000E+00 -0.92538399476E+02  0.92538399476E+02  0.00000000000E+00 0. -1.
         25    2    1    2    0    0  0.44832134062E+02 -0.58568349602E+02  0.16003302995E+02  0.14609750558E+03  0.12509278001E+03 0.  0.
          5    1    3    3  502    0 -0.28111096059E+02 -0.62528773790E+02 -0.78638089264E+01  0.69133155318E+02  0.41800000000E+01 0. -1.
         -5    1    3    3    0  502  0.72943230121E+02  0.39604241884E+01  0.23867111921E+02  0.76964350265E+02  0.41800000000E+01 0. -1.
        -11    1    1    2    0    0 -0.41095577040E+02  0.28452820436E+02  0.99155609566E+02  0.11104163341E+03  0.00000000000E+00 0.  1.
         11    1    1    2    0    0 -0.37365570219E+01  0.30115529166E+02 -0.10864061253E+02  0.32232511262E+02  0.00000000000E+00 0. -1.
</event>
<event>
 7    1  0.2989693E-009  0.1167851E+03  0.7561462E-02  0.1248497E+00
          1   -1    0    0  501    0  0.00000000000E+00  0.00000000000E+00  0.14038337679E+03  0.14038337679E+03  0.00000000000E+00 0. -1.
         -1   -1    0    0    0  501 -0.00000000000E+00 -0.00000000000E+00 -0.14096411221E+03  0.14096411221E+03  0.00000000000E+00 0.  1.
         25    2    1    2    0    0 -0.82645570666E+02  0.37519985566E+02  0.45864343522E+01  0.15462041387E+03  0.12509355434E+03 0.  0.
          5    1    3    3  502    0  0.18360063722E+02 -0.17729788137E+02 -0.24687502009E+02  0.35754475002E+02  0.41800000000E+01 0. -1.
         -5    1    3    3    0  502 -0.10100563439E+03  0.55249773703E+02  0.29273936361E+02  0.11886593887E+03  0.41800000000E+01 0. -1.
        -11    1    1    2    0    0  0.42530137737E+02 -0.95239275628E+01 -0.45734780596E+02  0.63175849565E+02  0.00000000000E+00 0.  1.
         11    1    1    2    0    0  0.40115432929E+02 -0.27996058003E+02  0.40567610830E+02  0.63551225568E+02  0.00000000000E+00 0. -1.
</event>
<event>
 7    1  0.2989693E-009  0.9275562E+02  0.7561462E-02  0.1296313E+00
         -1   -1    0    0    0  501 -0.00000000000E+00  0.00000000000E+00  0.15131733449E+03  0.15131733449E+03  0.00000000000E+00 0.  1.
          1   -1    0    0  501    0  0.00000000000E+00 -0.00000000000E+00 -0.13865269013E+03  0.13865269013E+03  0.00000000000E+00 0. -1.
         25    2    1    2    0    0  0.47666314706E+02  0.62667894024E+02  0.62900536915E+02  0.16063396465E+03  0.12508976998E+03 0.  0.
          5    1    3    3  502    0  0.37670295174E+02  0.66447372303E+02  0.97646140036E+02  0.12404251484E+03  0.41800000000E+01 0. -1.
         -5    1    3    3    0  502  0.99960195327E+01 -0.37794782799E+01 -0.34745603120E+02  0.36591449804E+02  0.41800000000E+01 0. -1.
        -11    1    1    2    0    0 -0.41575659354E+02 -0.73882695890E+02 -0.67148605571E+02  0.10814861734E+03  0.00000000000E+00 0. -1.
         11    1    1    2    0    0 -0.60906553523E+01  0.11214801867E+02  0.16912713023E+02  0.21187442633E+02  0.00000000000E+00 0.  1.
</event>
<event>
 7    1  0.2989693E-009  0.1461515E+03  0.7561462E-02  0.1205283E+00
         -1   -1    0    0    0  501 -0.00000000000E+00  0.00000000000E+00  0.68854186542E+03  0.68854186542E+03  0.00000000000E+00 0.  1.
          1   -1    0    0  501    0  0.00000000000E+00 -0.00000000000E+00 -0.36600968253E+02  0.36600968253E+02  0.00000000000E+00 0. -1.
         25    2    1    2    0    0  0.88017799668E+02 -0.68459970786E+02  0.27528146696E+03  0.32227488874E+03  0.12508923696E+03 0.  0.
          5    1    3    3  502    0  0.21408529540E+02 -0.78883692939E+02  0.75376767115E+02  0.11126585986E+03  0.41800000000E+01 0. -1.
         -5    1    3    3    0  502  0.66609270127E+02  0.10423722153E+02  0.19990469985E+03  0.21100902889E+03  0.41800000000E+01 0. -1.
        -11    1    1    2    0    0 -0.39276472664E+02 -0.18350468291E+02  0.11083964342E+03  0.11901599701E+03  0.00000000000E+00 0.  1.
         11    1    1    2    0    0 -0.48741327003E+02  0.86810439077E+02  0.26581978678E+03  0.28385194791E+03  0.00000000000E+00 0. -1.
</event>
<event>
 7    1  0.2989693E-009  0.1021476E+03  0.7561462E-02  0.1275844E+00
         -2   -1    0    0    0  501 -0.00000000000E+00  0.00000000000E+00  0.34502941420E+02  0.34502941420E+02  0.00000000000E+00 0.  1.
          2   -1    0    0  501    0  0.00000000000E+00 -0.00000000000E+00 -0.37869909265E+03  0.37869909265E+03  0.00000000000E+00 0. -1.
         25    2    1    2    0    0 -0.33452001327E+02 -0.76257644901E+01 -0.17989503408E+03  0.22178121141E+03  0.12508994272E+03 0.  0.
          5    1    3    3  502    0 -0.53104207984E+02  0.34207018158E+02 -0.41209814011E+02  0.75537395823E+02  0.41800000000E+01 0. -1.
         -5    1    3    3    0  502  0.19652206656E+02 -0.41832782648E+02 -0.13868522007E+03  0.14624381559E+03  0.41800000000E+01 0. -1.
        -11    1    1    2    0    0 -0.87819557898E+01  0.40261064319E+02 -0.97960325667E+02  0.10627465103E+03  0.00000000000E+00 0. -1.
         11    1    1    2    0    0  0.42233957117E+02 -0.32635299829E+02 -0.66340791476E+02  0.85146171625E+02  0.00000000000E+00 0.  1.
</event>
<event>
 7    1  0.2989693E-009  0.9021856E+02  0.7561462E-02  0.1302323E+00
          2   -1    0    0  501    0  0.00000000000E+00  0.00000000000E+00  0.28478563201E+03  0.28478563201E+03  0.00000000000E+00 0. -1.
         -2   -1    0    0    0  501 -0.00000000000E+00 -0.00000000000E+00 -0.67697699109E+02  0.67697699109E+02  0.00000000000E+00 0.  1.
         25    2    1    2    0    0  0.81698293770E+02  0.19565191778E+02  0.14866400036E+03  0.21169999825E+03  0.12513391356E+03 0.  0.
          5    1    3    3  502    0  0.88151403959E+01 -0.11497535744E+02  0.12911198776E+03  0.12998952962E+03  0.41800000000E+01 0.  1.
         -5    1    3    3    0  502  0.72883153374E+02  0.31062727521E+02  0.19552012602E+02  0.81710468629E+02  0.41800000000E+01 0.  1.
        -11    1    1    2    0    0 -0.56505789525E+02 -0.22159980354E+02  0.89291921877E+02  0.10796766318E+03  0.00000000000E+00 0. -1.
         11    1    1    2    0    0 -0.25192504245E+02  0.25947885760E+01 -0.20867989342E+02  0.32815669687E+02  0.00000000000E+00 0.  1.
</event>
<event>
 7    1  0.5704954E-009  0.1029521E+03  0.7561462E-02  0.1274208E+00
         -2   -1    0    0    0  501 -0.00000000000E+00  0.00000000000E+00  0.19214847148E+02  0.19214847148E+02  0.00000000000E+00 0.  1.
          2   -1    0    0  501    0  0.00000000000E+00 -0.00000000000E+00 -0.95065038730E+03  0.95065038730E+03  0.00000000000E+00 0. -1.
         25    2    1    2    0    0 -0.36868140653E+02 -0.55302652368E+02 -0.67701468357E+03  0.69167526730E+03  0.12509256761E+03 0.  0.
          5    1    3    3  502    0 -0.41847041110E+01 -0.89859464972E+02 -0.51330304101E+03  0.52114270551E+03  0.41800000000E+01 0. -1.
         -5    1    3    3    0  502 -0.32683436542E+02  0.34556812604E+02 -0.16371164255E+03  0.17053256178E+03  0.41800000000E+01 0. -1.
        -11    1    1    2    0    0  0.36178681136E+02  0.44832068212E+02 -0.25999990292E+03  0.26630576567E+03  0.00000000000E+00 0. -1.
         11    1    1    2    0    0  0.68945951682E+00  0.10470584155E+02  0.55790463332E+01  0.11884201486E+02  0.00000000000E+00 0.  1.
</event>
<event>
 7    1  0.2989693E-009  0.1242672E+03  0.7561462E-02  0.1236219E+00
          1   -1    0    0  501    0  0.00000000000E+00  0.00000000000E+00  0.53541602680E+03  0.53541602680E+03  0.00000000000E+00 0. -1.
         -1   -1    0    0    0  501 -0.00000000000E+00 -0.00000000000E+00 -0.32976551411E+02  0.32976551411E+02  0.00000000000E+00 0.  1.
         25    2    1    2    0    0 -0.38909630163E+01 -0.64002248039E+02  0.36021768637E+03  0.38667235791E+03  0.12508918199E+03 0.  0.
          5    1    3    3  502    0  0.29845155435E+02  0.25633674581E+02  0.15805575940E+03  0.16293223762E+03  0.41800000000E+01 0.  1.
         -5    1    3    3    0  502 -0.33736118451E+02 -0.89635922621E+02  0.20216192696E+03  0.22374012029E+03  0.41800000000E+01 0.  1.
        -11    1    1    2    0    0 -0.24239770521E+02  0.78003307815E+02  0.10382127303E+03  0.13210200316E+03  0.00000000000E+00 0. -1.
         11    1    1    2    0    0  0.28130733537E+02 -0.14001059775E+02  0.38400515987E+02  0.49618217140E+02  0.00000000000E+00 0.  1.
</event>
<event>
 7    1  0.2989693E-009  0.1051705E+03  0.7561462E-02  0.1269784E+00
          2   -1    0    0  501    0  0.00000000000E+00  0.00000000000E+00  0.24097107448E+03  0.24097107448E+03  0.00000000000E+00 0. -1.
         -2   -1    0    0    0  501 -0.00000000000E+00 -0.00000000000E+00 -0.93670151328E+02  0.93670151328E+02  0.00000000000E+00 0.  1.
         25    2    1    2    0    0  0.42581812230E+02  0.61914734634E+02  0.73677219212E+00  0.14592378981E+03  0.12508622826E+03 0.  0.
          5    1    3    3  502    0 -0.43732623918E+01  0.80697969980E+02 -0.30333092537E+02  0.86422547323E+02  0.41800000000E+01 0. -1.
         -5    1    3    3    0  502  0.46955074621E+02 -0.18783235347E+02  0.31069864729E+02  0.59501242484E+02  0.41800000000E+01 0. -1.
        -11    1    1    2    0    0 -0.19442475227E+02 -0.10066191409E+02 -0.85763844697E+01  0.23513664601E+02  0.00000000000E+00 0.  1.
         11    1    1    2    0    0 -0.23139337003E+02 -0.51848543225E+02  0.15514053542E+03  0.16520377140E+03  0.00000000000E+00 0. -1.
</event>
<event>
 7    1  0.2989693E-009  0.1630498E+03  0.7561462E-02  0.1185296E+00
         -2   -1    0    0    0  501 -0.00000000000E+00  0.00000000000E+00  0.16416470104E+03  0.16416470104E+03  0.00000000000E+00 0.  1.
          2   -1    0    0  501    0  0.00000000000E+00 -0.00000000000E+00 -0.31258920845E+03  0.31258920845E+03  0.00000000000E+00 0. -1.
         25    2    1    2    0    0 -0.14896001747E+03  0.60321782259E+02 -0.19992783075E+03  0.28538849102E+03  0.12509056349E+03 0.  0.
          5    1    3    3  502    0 -0.98134122717E+02  0.26659315110E+02 -0.19986060026E+03  0.22428276140E+03  0.41800000000E+01 0.  1.
         -5    1    3    3    0  502 -0.50825894757E+02  0.33662467149E+02 -0.67230490775E-01  0.61105729620E+02  0.41800000000E+01 0.  1.
        -11    1    1    2    0    0  0.80327131479E+02 -0.17156858138E+02  0.70324681489E+02  0.10813124738E+03  0.00000000000E+00 0.  1.
         11    1    1    2    0    0  0.68632885996E+02 -0.43164924122E+02 -0.18821358144E+02  0.83234171089E+02  0.00000000000E+00 0. -1.
</event>
<event>
 7    1  0.2989693E-009  0.1314979E+03  0.7561462E-02  0.1225250E+00
          2   -1    0    0  501    0  0.00000000000E+00  0.00000000000E+00  0.76487898393E+02  0.76487898393E+02  0.00000000000E+00 0. -1.
         -2   -1    0    0    0  501 -0.00000000000E+00 -0.00000000000E+00 -0.31971514746E+03  0.31971514746E+03  0.00000000000E+00 0.  1.
         25    2    1    2    0    0 -0.63475069344E+02 -0.78596986546E+02 -0.82995052208E+02  0.18094858074E+03  0.12509052505E+03 0.  0.
          5    1    3    3  502    0 -0.88920047572E+02 -0.83315704204E+02 -0.35986794086E+02  0.12712514769E+03  0.41800000000E+01 0.  1.
         -5    1    3    3    0  502  0.25444978228E+02  0.47187176581E+01 -0.47008258122E+02  0.53823433047E+02  0.41800000000E+01 0.  1.
        -11    1    1    2    0    0  0.65960278730E+02  0.42047467391E+02 -0.16058008438E+03  0.17861889985E+03  0.00000000000E+00 0.  1.
         11    1    1    2    0    0 -0.24852093862E+01  0.36549519156E+02  0.34788752408E+00  0.36635565260E+02  0.00000000000E+00 0. -1.
</event>
<event>
 7    1  0.2989693E-009  0.9755498E+02  0.7561462E-02  0.1285523E+00
          1   -1    0    0  501    0  0.00000000000E+00  0.00000000000E+00  0.41586388123E+03  0.41586388123E+03  0.00000000000E+00 0. -1.
         -1   -1    0    0    0  501 -0.00000000000E+00 -0.00000000000E+00 -0.95223107217E+02  0.95223107217E+02  0.00000000000E+00 0.  1.
         25    2    1    2    0    0  0.43862912076E+02  0.32086225652E+02  0.36997688423E+03  0.39431434919E+03  0.12508968855E+03 0.  0.
          5    1    3    3  502    0  0.70666368075E+02  0.34402175107E+01  0.33225584249E+03  0.33973075801E+03  0.41800000000E+01 0. -1.
         -5    1    3    3    0  502 -0.26803455999E+02  0.28646008141E+02  0.37721041745E+02  0.54583591181E+02  0.41800000000E+01 0. -1.
        -11    1    1    2    0    0 -0.49545455663E+02 -0.47327807413E+02 -0.40313474239E+01  0.68636180644E+02  0.00000000000E+00 0. -1.
         11    1    1    2    0    0  0.56825435870E+01  0.15241581761E+02 -0.45304762791E+02  0.48136458613E+02  0.00000000000E+00 0.  1.
</event>
<event>
 7    1  0.2989693E-009  0.2446878E+03  0.7561462E-02  0.1116709E+00
         -1   -1    0    0    0  501 -0.00000000000E+00  0.00000000000E+00  0.34630008716E+02  0.34630008716E+02  0.00000000000E+00 0.  1.
          1   -1    0    0  501    0  0.00000000000E+00 -0.00000000000E+00 -0.26165681848E+04  0.26165681848E+04  0.00000000000E+00 0. -1.
         25    2    1    2    0    0 -0.12010121621E+02  0.24414049633E+03 -0.19293107960E+04  0.19487522164E+04  0.12508488433E+03 0.  0.
          5    1    3    3  502    0 -0.13636168857E+02  0.15276593612E+03 -0.15879478952E+04  0.15953430247E+04  0.41800000000E+01 0. -1.
         -5    1    3    3    0  502  0.16260472361E+01  0.91374560215E+02 -0.34136290084E+03  0.35340919167E+03  0.41800000000E+01 0. -1.
        -11    1    1    2    0    0  0.11718870228E+02 -0.21525583825E+03 -0.62966448848E+03  0.66554472117E+03  0.00000000000E+00 0. -1.
         11    1    1    2    0    0  0.29125139362E+00 -0.28884658083E+02 -0.22962891539E+02  0.36901255910E+02  0.00000000000E+00 0.  1.
</event>
<event>
 7    1  0.2989693E-009  0.9557354E+02  0.7561462E-02  0.1289890E+00
         -2   -1    0    0    0  501 -0.00000000000E+00  0.00000000000E+00  0.10691566841E+03  0.10691566841E+03  0.00000000000E+00 0.  1.
          2   -1    0    0  501    0  0.00000000000E+00 -0.00000000000E+00 -0.11352168049E+03  0.11352168049E+03  0.00000000000E+00 0. -1.
         25    2    1    2    0    0 -0.16851306601E+02  0.19355120022E+02 -0.14016866666E+02  0.12846292924E+03  0.12509062487E+03 0.  0.
          5    1    3    3  502    0  0.47717070733E+02  0.12014818775E+01  0.21426069604E+02  0.52487248515E+02  0.41800000000E+01 0. -1.
         -5    1    3    3    0  502 -0.64568377334E+02  0.18153638145E+02 -0.35442936271E+02  0.75975680720E+02  0.41800000000E+01 0. -1.
        -11    1    1    2    0    0 -0.25610140338E+02 -0.21609586917E+02  0.28973798087E+02  0.44298245004E+02  0.00000000000E+00 0.  1.
         11    1    1    2    0    0  0.42461446939E+02  0.22544668944E+01 -0.21562943502E+02  0.47676174653E+02  0.00000000000E+00 0. -1.
</event>
<event>
 7    1  0.2989693E-009  0.1172278E+03  0.7561462E-02  0.1247742E+00
          3   -1    0    0  501    0  0.00000000000E+00  0.00000000000E+00  0.31730291454E+03  0.31730291454E+03  0.00000000000E+00 0. -1.
         -3   -1    0    0    0  501 -0.00000000000E+00 -0.00000000000E+00 -0.48734103254E+02  0.48734103254E+02  0.00000000000E+00 0.  1.
         25    2    1    2    0    0  0.21135852153E+02 -0.57075398789E+02  0.15977193715E+03  0.21184590026E+03  0.12508912087E+03 0.  0.
          5    1    3    3  502    0 -0.30863679635E+02 -0.66613645631E+02  0.47123707213E+02  0.87338769664E+02  0.41800000000E+01 0.  1.
         -5    1    3    3    0  502  0.51999531788E+02  0.95382468425E+01  0.11264822994E+03  0.12450713059E+03  0.41800000000E+01 0.  1.
        -11    1    1    2    0    0 -0.43792054772E+02 -0.27884834606E+01  0.32527122924E+02  0.54621730354E+02  0.00000000000E+00 0. -1.
         11    1    1    2    0    0  0.22656202619E+02  0.59863882250E+02  0.76269751203E+02  0.99569387181E+02  0.00000000000E+00 0.  1.
</event>
<event>
 7    1  0.2989693E-009  0.1119429E+03  0.7561462E-02  0.1257014E+00
         -1   -1    0    0    0  501 -0.00000000000E+00  0.00000000000E+00  0.59460721214E+02  0.59460721214E+02  0.00000000000E+00 0.  1.
          1   -1    0    0  501    0  0.00000000000E+00 -0.00000000000E+00 -0.30512531551E+03  0.30512531551E+03  0.00000000000E+00 0. -1.
         25    2    1    2    0    0 -0.60170318133E+02 -0.51547177866E+02 -0.14350845173E+03  0.20619819430E+03  0.12508173681E+03 0.  0.
          5    1    3    3  502    0 -0.53007375889E+02 -0.84463458602E+02 -0.14019357121E+03  0.17209174166E+03  0.41800000000E+01 0.  1.
         -5    1    3    3    0  502 -0.71629422440E+01  0.32916280736E+02 -0.33148805248E+01  0.34106452644E+02  0.41800000000E+01 0.  1.
        -11    1    1    2    0    0  0.48541751229E+02  0.13549867729E+02 -0.10708000767E+03  0.11834706828E+03  0.00000000000E+00 0. -1.
         11    1    1    2    0    0  0.11628566904E+02  0.37997310137E+02  0.49238651154E+01  0.40040774138E+02  0.00000000000E+00 0.  1.
</event>
<event>
 7    1  0.2989693E-009  0.5785761E+02  0.7561462E-02  0.1407049E+00
          4   -1    0    0  501    0  0.00000000000E+00  0.00000000000E+00  0.17505864386E+03  0.17505864386E+03  0.00000000000E+00 0. -1.
         -4   -1    0    0    0  501 -0.00000000000E+00 -0.00000000000E+00 -0.57512524559E+02  0.57512524559E+02  0.00000000000E+00 0.  1.
         25    2    1    2    0    0  0.90739008142E+00 -0.28768046226E+02  0.87240026646E+02  0.15520035921E+03  0.12509158809E+03 0.  0.
          5    1    3    3  502    0 -0.27639703945E+02  0.60519902436E+01 -0.22576255850E+02  0.36438160605E+02  0.41800000000E+01 0. -1.
         -5    1    3    3    0  502  0.28547094027E+02 -0.34820036470E+02  0.10981628250E+03  0.11876219861E+03  0.41800000000E+01 0. -1.
        -11    1    1    2    0    0 -0.15611012214E+02  0.12806098430E+02 -0.16306440857E+02  0.25953802664E+02  0.00000000000E+00 0.  1.
         11    1    1    2    0    0  0.14703622132E+02  0.15961947796E+02  0.46612533507E+02  0.51417006537E+02  0.00000000000E+00 0. -1.
</event>
<event>
 7    1  0.2989693E-009  0.1781495E+03  0.7561462E-02  0.1169606E+00
          1   -1    0    0  501    0  0.00000000000E+00  0.00000000000E+00  0.44324854236E+03  0.44324854236E+03  0.00000000000E+00 0. -1.
         -1   -1    0    0    0  501 -0.00000000000E+00 -0.00000000000E+00 -0.98662384147E+02  0.98662384147E+02  0.00000000000E+00 0.  1.
         25    2    1    2    0    0 -0.41198514566E+02  0.15562257618E+03  0.77468191172E+02  0.21809265734E+03  0.12508949886E+03 0.  0.
          5    1    3    3  502    0  0.17335246007E+02  0.54280015251E+02  0.83105262286E+02  0.10085032389E+03  0.41800000000E+01 0.  1.
         -5    1    3    3    0  502 -0.58533760574E+02  0.10134256093E+03 -0.56370711133E+01  0.11724233345E+03  0.41800000000E+01 0.  1.
        -11    1    1    2    0    0  0.67838081514E+02 -0.11098696463E+03  0.20543527027E+03  0.24315378239E+03  0.00000000000E+00 0.  1.
         11    1    1    2    0    0 -0.26639566947E+02 -0.44635611546E+02  0.61682696774E+02  0.80664486774E+02  0.00000000000E+00 0. -1.
</event>
<event>
 7    1  0.3987438E-009  0.7650670E+02  0.7561462E-02  0.1339268E+00
         -1   -1    0    0    0  501 -0.00000000000E+00  0.00000000000E+00  0.10271814835E+03  0.10271814835E+03  0.00000000000E+00 0.  1.
          1   -1    0    0  501    0  0.00000000000E+00 -0.00000000000E+00 -0.19624627882E+03  0.19624627882E+03  0.00000000000E+00 0. -1.
         25    2    1    2    0    0  0.41871900021E+02 -0.52474170823E+02 -0.11620964518E+03  0.18346254332E+03  0.12508808319E+03 0.  0.
          5    1    3    3  502    0  0.62368778946E+01 -0.55632688475E+01 -0.12359130671E+03  0.12394406843E+03  0.41800000000E+01 0. -1.
         -5    1    3    3    0  502  0.35635022126E+02 -0.46910901976E+02  0.73816615296E+01  0.59518474888E+02  0.41800000000E+01 0. -1.
        -11    1    1    2    0    0 -0.41337642342E+02  0.10523912072E+02  0.49781108175E+02  0.65556938083E+02  0.00000000000E+00 0.  1.
         11    1    1    2    0    0 -0.53425767896E+00  0.41950258752E+02 -0.27099593467E+02  0.49944945757E+02  0.00000000000E+00 0. -1.
</event>
<event>
 7    1  0.2989693E-009  0.7237283E+02  0.7561462E-02  0.1352205E+00
          4   -1    0    0  501    0  0.00000000000E+00  0.00000000000E+00  0.15689214921E+03  0.15689214921E+03  0.00000000000E+00 0. -1.
         -4   -1    0    0    0  501 -0.00000000000E+00 -0.00000000000E+00 -0.94890439274E+02  0.94890439274E+02  0.00000000000E+00 0.  1.
         25    2    1    2    0    0  0.12390767024E+01 -0.14952923034E+02  0.89943896605E+02  0.15479863690E+03  0.12509032029E+03 0.  0.
          5    1    3    3  502    0  0.47292186328E+02 -0.17410727574E+02  0.95596385920E+02  0.10814724094E+03  0.41800000000E+01 0.  1.
         -5    1    3    3    0  502 -0.46053109625E+02  0.24578045407E+01 -0.56524893153E+01  0.46651395958E+02  0.41800000000E+01 0.  1.
        -11    1    1    2    0    0  0.14537030754E+02  0.25175442055E+02 -0.56066683005E+02  0.63155372606E+02  0.00000000000E+00 0.  1.
         11    1    1    2    0    0 -0.15776107456E+02 -0.10222519021E+02  0.28124496338E+02  0.33828578981E+02  0.00000000000E+00 0. -1.
</event>
<event>
 7    1  0.2989693E-009  0.1262596E+03  0.7561462E-02  0.1233114E+00
          2   -1    0    0  501    0  0.00000000000E+00  0.00000000000E+00  0.93850693897E+02  0.93850693897E+02  0.00000000000E+00 0. -1.
         -2   -1    0    0    0  501 -0.00000000000E+00 -0.00000000000E+00 -0.23340827581E+03  0.23340827581E+03  0.00000000000E+00 0.  1.
         25    2    1    2    0    0 -0.74384907920E+02 -0.60911951725E+02 -0.42422474546E+02  0.16337803765E+03  0.12509730792E+03 0.  0.
          5    1    3    3  502    0  0.24193732545E+02 -0.27845692376E+02  0.19860325189E+02  0.42102543807E+02  0.41800000000E+01 0.  1.
         -5    1    3    3    0  502 -0.98578640464E+02 -0.33066259348E+02 -0.62282799735E+02  0.12127549384E+03  0.41800000000E+01 0.  1.
        -11    1    1    2    0    0 -0.87318669883E+01  0.12175578603E+02 -0.57967592830E+02  0.59872631760E+02  0.00000000000E+00 0.  1.
         11    1    1    2    0    0  0.83116774908E+02  0.48736373122E+02 -0.39167514535E+02  0.10400830030E+03  0.00000000000E+00 0. -1.
</event>
<event>
 7    1  0.2989693E-009  0.1615908E+03  0.7561462E-02  0.1186912E+00
          2   -1    0    0  501    0  0.00000000000E+00  0.00000000000E+00  0.48577534759E+02  0.48577534759E+02  0.00000000000E+00 0. -1.
         -2   -1    0    0    0  501 -0.00000000000E+00 -0.00000000000E+00 -0.76087679437E+03  0.76087679437E+03  0.00000000000E+00 0.  1.
         25    2    1    2    0    0  0.25832970364E+02 -0.13976039645E+03 -0.51837954006E+03  0.55187471599E+03  0.12509214134E+03 0.  0.
          5    1    3    3  502    0 -0.43257476420E+02 -0.44954190522E+02 -0.10554124831E+03  0.12267239301E+03  0.41800000000E+01 0.  1.
         -5    1    3    3    0  502  0.69090446785E+02 -0.94806205931E+02 -0.41283829174E+03  0.42920232298E+03  0.41800000000E+01 0.  1.
        -11    1    1    2    0    0 -0.18087715320E+02  0.49903473548E+02 -0.14621176436E+03  0.15554871312E+03  0.00000000000E+00 0.  1.
         11    1    1    2    0    0 -0.77452550443E+01  0.89856922905E+02 -0.47707955201E+02  0.10203090002E+03  0.00000000000E+00 0. -1.
</event>
<event>
 7    1  0.2989693E-009  0.1470219E+03  0.7561462E-02  0.1204181E+00
          1   -1    0    0  501    0  0.00000000000E+00  0.00000000000E+00  0.29676540663E+03  0.29676540663E+03  0.00000000000E+00 0. -1.
         -1   -1    0    0    0  501 -0.00000000000E+00 -0.00000000000E+00 -0.14076084320E+03  0.14076084320E+03  0.00000000000E+00 0.  1.
         25    2    1    2    0    0  0.76719792443E+02 -0.94781646214E+02  0.21312358332E+03  0.27557340965E+03  0.12509818275E+03 0.  0.
          5    1    3    3  502    0  0.23679222589E+02 -0.88171406558E+02  0.50662625056E+02  0.10449438499E+03  0.41800000000E+01 0. -1.
         -5    1    3    3    0  502  0.53040569853E+02 -0.66102396557E+01  0.16246095827E+03  0.17107902466E+03  0.41800000000E+01 0. -1.
        -11    1    1    2    0    0 -0.36886024927E+02  0.10208141209E+03 -0.28062753411E+02  0.11211026562E+03  0.00000000000E+00 0.  1.
         11    1    1    2    0    0 -0.39833767516E+02 -0.72997658773E+01 -0.29056266485E+02  0.49842574557E+02  0.00000000000E+00 0. -1.
</event>
<event>
 7    1  0.2989693E-009  0.2835240E+03  0.7561462E-02  0.1093780E+00
          1   -1    0    0  501    0  0.00000000000E+00  0.00000000000E+00  0.11615138038E+04  0.11615138038E+04  0.00000000000E+00 0.  1.
         -1   -1    0    0    0  501 -0.00000000000E+00 -0.00000000000E+00 -0.71001176585E+02  0.71001176585E+02  0.00000000000E+00 0. -1.
         25    2    1    2    0    0 -0.26309147544E+03 -0.26066124768E+02  0.61457609515E+03  0.68062312970E+03  0.12508997018E+03 0.  0.
          5    1    3    3  502    0 -0.22747420667E+03 -0.66070895412E+02  0.52826063137E+03  0.57895305939E+03  0.41800000000E+01 0. -1.
         -5    1    3    3    0  502 -0.35617268768E+02  0.40004770644E+02  0.86315463785E+02  0.10167007031E+03  0.41800000000E+01 0. -1.
        -11    1    1    2    0    0  0.30123249005E+01 -0.13061499561E+02  0.95486098667E+01  0.16457606827E+02  0.00000000000E+00 0.  1.
         11    1    1    2    0    0  0.26007915054E+03  0.39127624328E+02  0.46638792225E+03  0.53543424391E+03  0.00000000000E+00 0. -1.
</event>
<event>
 7    1  0.2989693E-009  0.1178223E+03  0.7561462E-02  0.1246733E+00
         -2   -1    0    0    0  501 -0.00000000000E+00  0.00000000000E+00  0.14618290213E+03  0.14618290213E+03  0.00000000000E+00 0.  1.
          2   -1    0    0  501    0  0.00000000000E+00 -0.00000000000E+00 -0.13659999411E+03  0.13659999411E+03  0.00000000000E+00 0. -1.
         25    2    1    2    0    0  0.76955641122E+02  0.49413599132E+02 -0.50841442503E+01  0.15504083346E+03  0.12509171451E+03 0.  0.
          5    1    3    3  502    0 -0.72273728766E+01 -0.16858836278E+02 -0.38402114721E+02  0.42762718510E+02  0.41800000000E+01 0.  1.
         -5    1    3    3    0  502  0.84183013999E+02  0.66272435410E+02  0.33317970470E+02  0.11227811495E+03  0.41800000000E+01 0.  1.
        -11    1    1    2    0    0 -0.54043147780E+02 -0.62975622547E+02  0.38981563669E+02  0.91685076012E+02  0.00000000000E+00 0.  1.
         11    1    1    2    0    0 -0.22912493342E+02  0.13562023415E+02 -0.24314511394E+02  0.36056986765E+02  0.00000000000E+00 0. -1.
</event>
<event>
 7    1  0.2989693E-009  0.1712796E+03  0.7561462E-02  0.1176520E+00
         -1   -1    0    0    0  501 -0.00000000000E+00  0.00000000000E+00  0.39023542851E+02  0.39023542851E+02  0.00000000000E+00 0.  1.
          1   -1    0    0  501    0  0.00000000000E+00 -0.00000000000E+00 -0.80267716928E+03  0.80267716928E+03  0.00000000000E+00 0. -1.
         25    2    1    2    0    0  0.96585079219E+02  0.98954684215E+02 -0.36574972289E+03  0.41053669082E+03  0.12508720025E+03 0.  0.
          5    1    3    3  502    0 -0.23529616201E+02  0.43897162214E+02 -0.64835373108E+02  0.81863921816E+02  0.41800000000E+01 0.  1.
         -5    1    3    3    0  502  0.12011469542E+03  0.55057522001E+02 -0.30091434978E+03  0.32867276901E+03  0.41800000000E+01 0.  1.
        -11    1    1    2    0    0 -0.43199213604E+02 -0.97873842833E+02 -0.31385504346E+03  0.33158777039E+03  0.00000000000E+00 0. -1.
         11    1    1    2    0    0 -0.53385865615E+02 -0.10808413824E+01 -0.84048860087E+02  0.99576250921E+02  0.00000000000E+00 0.  1.
</event>
<event>
 7    1  0.2989693E-009  0.5739391E+02  0.7561462E-02  0.1409106E+00
         -1   -1    0    0    0  501 -0.00000000000E+00  0.00000000000E+00  0.10028678107E+03  0.10028678107E+03  0.00000000000E+00 0.  1.
          1   -1    0    0  501    0  0.00000000000E+00 -0.00000000000E+00 -0.15159476091E+03  0.15159476091E+03  0.00000000000E+00 0. -1.
         25    2    1    2    0    0 -0.30336278537E+02 -0.38838046431E+02 -0.60547614352E+02  0.14745412518E+03  0.12509205323E+03 0.  0.
          5    1    3    3  502    0 -0.14202757803E+02 -0.41395381639E+01  0.38356885673E+02  0.41322840947E+02  0.41800000000E+01 0. -1.
         -5    1    3    3    0  502 -0.16133520734E+02 -0.34698508267E+02 -0.98904500025E+02  0.10613128423E+03  0.41800000000E+01 0. -1.
        -11    1    1    2    0    0  0.16979252245E+02 -0.27863998270E+01  0.44854210542E+02  0.48041224320E+02  0.00000000000E+00 0.  1.
         11    1    1    2    0    0  0.13357026292E+02  0.41624446258E+02 -0.35614576025E+02  0.56386192487E+02  0.00000000000E+00 0. -1.
</event>
<event>
 7    1  0.2989693E-009  0.1121217E+03  0.7561462E-02  0.1256691E+00
         -2   -1    0    0    0  501 -0.00000000000E+00  0.00000000000E+00  0.76080858210E+02  0.76080858210E+02  0.00000000000E+00 0.  1.
          2   -1    0    0  501    0  0.00000000000E+00 -0.00000000000E+00 -0.28851971175E+03  0.28851971175E+03  0.00000000000E+00 0. -1.
         25    2    1    2    0    0  0.30917809384E+02 -0.66195162381E+02 -0.29561114980E+02  0.14785166658E+03  0.12509414587E+03 0.  0.
          5    1    3    3  502    0  0.26651423453E+02 -0.84543477749E+02  0.23155545078E+02  0.91714500870E+02  0.41800000000E+01 0. -1.
         -5    1    3    3    0  502  0.42663859308E+01  0.18348315368E+02 -0.52716660058E+02  0.56137165705E+02  0.41800000000E+01 0. -1.
        -11    1    1    2    0    0  0.14130393455E+02  0.69607057456E+02 -0.11690340717E+03  0.13678895085E+03  0.00000000000E+00 0. -1.
         11    1    1    2    0    0 -0.45048202839E+02 -0.34118950750E+01 -0.65974331392E+02  0.79959952536E+02  0.00000000000E+00 0.  1.
</event>
<event>
 7    1  0.2989693E-009  0.1686029E+03  0.7561462E-02  0.1179313E+00
         -1   -1    0    0    0  501 -0.00000000000E+00  0.00000000000E+00  0.30862654088E+02  0.30862654088E+02  0.00000000000E+00 0.  1.
          1   -1    0    0  501    0  0.00000000000E+00 -0.00000000000E+00 -0.99306000758E+03  0.99306000758E+03  0.00000000000E+00 0. -1.
         25    2    1    2    0    0 -0.13524138162E+03  0.44765346429E+01 -0.56671330518E+03  0.59592103929E+03  0.12509054375E+03 0.  0.
          5    1    3    3  502    0 -0.67649710674E+01  0.47645520791E+02 -0.16607724934E+03  0.17295949131E+03  0.41800000000E+01 0. -1.
         -5    1    3    3    0  502 -0.12847641055E+03 -0.43168986148E+02 -0.40063605583E+03  0.42296154798E+03  0.41800000000E+01 0. -1.
        -11    1    1    2    0    0  0.50069084074E+02 -0.36867544461E+02 -0.91299068755E+02  0.11046107446E+03  0.00000000000E+00 0.  1.
         11    1    1    2    0    0  0.85172297543E+02  0.32391009818E+02 -0.30418497956E+03  0.31754054792E+03  0.00000000000E+00 0. -1.
</event>
<event>
 7    1  0.2989693E-009  0.1521044E+03  0.7561462E-02  0.1197911E+00
          2   -1    0    0  501    0  0.00000000000E+00  0.00000000000E+00  0.22829631564E+03  0.22829631564E+03  0.00000000000E+00 0. -1.
         -2   -1    0    0    0  501 -0.00000000000E+00 -0.00000000000E+00 -0.12445669289E+03  0.12445669289E+03  0.00000000000E+00 0.  1.
         25    2    1    2    0    0  0.66483323831E+02 -0.82906595637E+02  0.13055380207E+03  0.20972357964E+03  0.12508456608E+03 0.  0.
          5    1    3    3  502    0  0.89164358656E+02 -0.10071178232E+03  0.10135046563E+03  0.16847117034E+03  0.41800000000E+01 0. -1.
         -5    1    3    3    0  502 -0.22681034825E+02  0.17805186679E+02  0.29203336443E+02  0.41252409297E+02  0.41800000000E+01 0. -1.
        -11    1    1    2    0    0 -0.26621951799E+02  0.95144749773E+02 -0.17806466556E+02  0.10039084609E+03  0.00000000000E+00 0.  1.
         11    1    1    2    0    0 -0.39861372033E+02 -0.12238154135E+02 -0.89077127679E+01  0.42638582806E+02  0.00000000000E+00 0. -1.
</event>
<event>
 7    1  0.2989693E-009  0.2115306E+03  0.7561462E-02  0.1140360E+00
          1   -1    0    0  501    0  0.00000000000E+00  0.00000000000E+00  0.53538652669E+03  0.53538652669E+03  0.00000000000E+00 0. -1.
         -1   -1    0    0    0  501 -0.00000000000E+00 -0.00000000000E+00 -0.10143350558E+03  0.10143350558E+03  0.00000000000E+00 0.  1.
         25    2    1    2    0    0  0.19974092217E+03 -0.43499454057E+02  0.18422624775E+03  0.30227811868E+03  0.12507642536E+03 0.  0.
          5    1    3    3  502    0  0.80671794100E+02 -0.45828760171E+02  0.15317793526E+03  0.17913449102E+03  0.41800000000E+01 0. -1.
         -5    1    3    3    0  502  0.11906912807E+03  0.23293061133E+01  0.31048312491E+02  0.12314362766E+03  0.41800000000E+01 0. -1.
        -11    1    1    2    0    0 -0.13373435651E+03  0.53924189767E+02  0.11605943747E+03  0.18510129492E+03  0.00000000000E+00 0. -1.
         11    1    1    2    0    0 -0.66006565657E+02 -0.10424735710E+02  0.13366733589E+03  0.14944061867E+03  0.00000000000E+00 0.  1.
</event>
<event>
 7    1  0.2989693E-009  0.9951334E+02  0.7561462E-02  0.1281323E+00
         -2   -1    0    0    0  501 -0.00000000000E+00  0.00000000000E+00  0.33268638712E+02  0.33268638712E+02  0.00000000000E+00 0.  1.
          2   -1    0    0  501    0  0.00000000000E+00 -0.00000000000E+00 -0.40847595283E+03  0.40847595283E+03  0.00000000000E+00 0. -1.
         25    2    1    2    0    0 -0.39507111285E+02  0.59652066107E+01 -0.18541292113E+03  0.22720408578E+03  0.12508936701E+03 0.  0.
          5    1    3    3  502    0  0.12934087110E+02  0.37260103551E+02 -0.92738328680E+01  0.40731834013E+02  0.41800000000E+01 0.  1.
         -5    1    3    3    0  502 -0.52441198395E+02 -0.31294896940E+02 -0.17613908827E+03  0.18647225177E+03  0.41800000000E+01 0.  1.
        -11    1    1    2    0    0  0.12647696927E+02  0.41625978950E+02 -0.63975171621E+02  0.77366071019E+02  0.00000000000E+00 0.  1.
         11    1    1    2    0    0  0.26859414358E+02 -0.47591185561E+02 -0.12581922136E+03  0.13717443474E+03  0.00000000000E+00 0. -1.
</event>
<event>
 7    1  0.2989693E-009  0.1238162E+03  0.7561462E-02  0.1236931E+00
          1   -1    0    0  501    0  0.00000000000E+00  0.00000000000E+00  0.35358519060E+03  0.35358519060E+03  0.00000000000E+00 0. -1.
         -1   -1    0    0    0  501 -0.00000000000E+00 -0.00000000000E+00 -0.58750402033E+02  0.58750402033E+02  0.00000000000E+00 0.  1.
         25    2    1    2    0    0  0.64760860552E+02 -0.55592928624E+02  0.21807611295E+03  0.26549730810E+03  0.12508831600E+03 0.  0.
          5    1    3    3  502    0 -0.24514812243E+02 -0.41073478960E+02  0.13241912440E+03  0.14085561260E+03  0.41800000000E+01 0.  1.
         -5    1    3    3    0  502  0.89275672794E+02 -0.14519449664E+02  0.85656988550E+02  0.12464169551E+03  0.41800000000E+01 0.  1.
        -11    1    1    2    0    0 -0.45686913986E+02 -0.46105826629E+01  0.69458621811E+02  0.83264948964E+02  0.00000000000E+00 0. -1.
         11    1    1    2    0    0 -0.19073946565E+02  0.60203511287E+02  0.73000538020E+01  0.63573335561E+02  0.00000000000E+00 0.  1.
</event>
<event>
 7    1  0.2989693E-009  0.1679128E+03  0.7561462E-02  0.1180042E+00
         -1   -1    0    0    0  501 -0.00000000000E+00  0.00000000000E+00  0.12860212566E+03  0.12860212566E+03  0.00000000000E+00 0.  1.
          1   -1    0    0  501    0  0.00000000000E+00 -0.00000000000E+00 -0.31318186480E+03  0.31318186480E+03  0.00000000000E+00 0. -1.
         25    2    1    2    0    0 -0.12454817383E+03 -0.75651663491E+02 -0.18952747529E+03  0.26982213771E+03  0.12509156772E+03 0.  0.
          5    1    3    3  502    0 -0.12177797258E+03 -0.27911075175E+02 -0.18264673545E+03  0.22132827450E+03  0.41800000000E+01 0.  1.
         -5    1    3    3    0  502 -0.27702012435E+01 -0.47740588316E+02 -0.68807398422E+01  0.48493863204E+02  0.41800000000E+01 0.  1.
        -11    1    1    2    0    0  0.22428977179E+02 -0.14408460170E+02  0.22230163705E+02  0.34710847298E+02  0.00000000000E+00 0.  1.
         11    1    1    2    0    0  0.10211919665E+03  0.90060123661E+02 -0.17282427555E+02  0.13725100546E+03  0.00000000000E+00 0. -1.
</event>
<event>
 7    1  0.2989693E-009  0.1082505E+03  0.7561462E-02  0.1263844E+00
          1   -1    0    0  501    0  0.00000000000E+00  0.00000000000E+00  0.32730465181E+03  0.32730465181E+03  0.00000000000E+00 0. -1.
         -1   -1    0    0    0  501 -0.00000000000E+00 -0.00000000000E+00 -0.42739663472E+02  0.42739663472E+02  0.00000000000E+00 0.  1.
         25    2    1    2    0    0 -0.11410958695E+02 -0.44128044977E+02  0.15722837843E+03  0.20602281119E+03  0.12508853431E+03 0.  0.
          5    1    3    3  502    0  0.53733615701E+02 -0.29189523526E+02  0.47791143751E+02  0.77722555034E+02  0.41800000000E+01 0. -1.
         -5    1    3    3    0  502 -0.65144574396E+02 -0.14938521451E+02  0.10943723468E+03  0.12830025616E+03  0.41800000000E+01 0. -1.
        -11    1    1    2    0    0 -0.22912038072E+02  0.48502274305E+02  0.11567696769E+03  0.12750918773E+03  0.00000000000E+00 0. -1.
         11    1    1    2    0    0  0.34322996767E+02 -0.43742293278E+01  0.11659642218E+02  0.36512316359E+02  0.00000000000E+00 0.  1.
</event>
<event>
 7    1  0.2989693E-009  0.9424505E+02  0.7561462E-02  0.1292886E+00
         -2   -1    0    0    0  501 -0.00000000000E+00  0.00000000000E+00  0.29139712483E+03  0.29139712483E+03  0.00000000000E+00 0.  1.
          2   -1    0    0  501    0  0.00000000000E+00 -0.00000000000E+00 -0.55687706354E+02  0.55687706354E+02  0.00000000000E+00 0. -1.
         25    2    1    2    0    0 -0.63534616099E+02 -0.20385029345E+02  0.13136485839E+03  0.19327160603E+03  0.12507993769E+03 0.  0.
          5    1    3    3  502    0 -0.48732275748E+02 -0.39849769728E+02  0.36777645584E+01  0.63196813203E+02  0.41800000000E+01 0. -1.
         -5    1    3    3    0  502 -0.14802340351E+02  0.19464740382E+02  0.12768709383E+03  0.13007479283E+03  0.41800000000E+01 0. -1.
        -11    1    1    2    0    0  0.57992381194E+02  0.46227025548E+02  0.10355442498E+03  0.12737179084E+03  0.00000000000E+00 0.  1.
         11    1    1    2    0    0  0.55422349046E+01 -0.25841996203E+02  0.79013510855E+00  0.26441434321E+02  0.00000000000E+00 0. -1.
</event>
<event>
 7    1  0.2989693E-009  0.1033370E+03  0.7561462E-02  0.1273431E+00
          1   -1    0    0  501    0  0.00000000000E+00  0.00000000000E+00  0.72237345395E+02  0.72237345395E+02  0.00000000000E+00 0. -1.
         -1   -1    0    0    0  501 -0.00000000000E+00 -0.00000000000E+00 -0.25421673154E+03  0.25421673154E+03  0.00000000000E+00 0.  1.
         25    2    1    2    0    0  0.73602373971E+02 -0.33017594732E+02 -0.10914687811E+03  0.18454915426E+03  0.12505150268E+03 0.  0.
          5    1    3    3  502    0  0.67918527466E+02  0.65668498808E+01 -0.14025460459E+00  0.68363308594E+02  0.41800000000E+01 0.  1.
         -5    1    3    3    0  502  0.56838465047E+01 -0.39584444613E+02 -0.10900662350E+03  0.11618584567E+03  0.41800000000E+01 0.  1.
        -11    1    1    2    0    0 -0.70260977939E+01  0.30691730539E+02 -0.68211912275E+02  0.75127979808E+02  0.00000000000E+00 0.  1.
         11    1    1    2    0    0 -0.66576276177E+02  0.23258641929E+01 -0.46205957692E+01  0.66776942870E+02  0.00000000000E+00 0. -1.
</event>
<event>
 7    1  0.2989693E-009  0.9047183E+02  0.7561462E-02  0.1301713E+00
         -1   -1    0    0    0  501 -0.00000000000E+00  0.00000000000E+00  0.11134380319E+03  0.11134380319E+03  0.00000000000E+00 0.  1.
          1   -1    0    0  501    0  0.00000000000E+00 -0.00000000000E+00 -0.24459185097E+03  0.24459185097E+03  0.00000000000E+00 0. -1.
         25    2    1    2    0    0 -0.59260335840E+02  0.55369064083E+02  0.29659634704E+02  0.15200273509E+03  0.12509043482E+03 0.  0.
          5    1    3    3  502    0 -0.10028231027E+02  0.47925182975E+02  0.71549437509E+02  0.86799671592E+02  0.41800000000E+01 0. -1.
         -5    1    3    3    0  502 -0.49232104813E+02  0.74438811079E+01 -0.41889802805E+02  0.65203063497E+02  0.41800000000E+01 0. -1.
        -11    1    1    2    0    0  0.44263596121E+02 -0.47396666894E+02 -0.17259754977E+03  0.18437902311E+03  0.00000000000E+00 0. -1.
         11    1    1    2    0    0  0.14996739720E+02 -0.79723971885E+01  0.96898672887E+01  0.19553895960E+02  0.00000000000E+00 0.  1.
</event>
<event>
 7    1  0.2989693E-009  0.1008371E+03  0.7561462E-02  0.1278546E+00
          1   -1    0    0  501    0  0.00000000000E+00  0.00000000000E+00  0.13158559282E+03  0.13158559282E+03  0.00000000000E+00 0. -1.
         -1   -1    0    0    0  501 -0.00000000000E+00 -0.00000000000E+00 -0.14004718792E+03  0.14004718792E+03  0.00000000000E+00 0.  1.
         25    2    1    2    0    0 -0.62225768364E+02 -0.37741736664E+02 -0.40942793527E+02  0.15040563758E+03  0.12509619714E+03 0.  0.
          5    1    3    3  502    0  0.13562529518E+02 -0.16203673796E+02 -0.64550378984E+02  0.68049431139E+02  0.41800000000E+01 0. -1.
         -5    1    3    3    0  502 -0.75788297883E+02 -0.21538062868E+02  0.23607585457E+02  0.82356206440E+02  0.41800000000E+01 0. -1.
        -11    1    1    2    0    0 -0.18992576237E+01  0.37056646829E+02  0.42391898168E+02  0.56337157223E+02  0.00000000000E+00 0. -1.
         11    1    1    2    0    0  0.64125025988E+02  0.68508983523E+00 -0.99106997366E+01  0.64889985940E+02  0.00000000000E+00 0.  1.
</event>
<event>
 7    1  0.2989693E-009  0.1112530E+03  0.7561462E-02  0.1258267E+00
          2   -1    0    0  501    0  0.00000000000E+00  0.00000000000E+00  0.43246031111E+03  0.43246031111E+03  0.00000000000E+00 0.  1.
         -2   -1    0    0    0  501 -0.00000000000E+00 -0.00000000000E+00 -0.36860483049E+02  0.36860483049E+02  0.00000000000E+00 0. -1.
         25    2    1    2    0    0 -0.34513181392E+02 -0.17408405089E+02  0.12449147928E+03  0.18066461652E+03  0.12508941998E+03 0.  0.
          5    1    3    3  502    0 -0.34532191625E+02 -0.66481289856E+02  0.46026607419E+02  0.88023605640E+02  0.41800000000E+01 0. -1.
         -5    1    3    3    0  502  0.19010233897E-01  0.49072884767E+02  0.78464871861E+02  0.92641010880E+02  0.41800000000E+01 0. -1.
        -11    1    1    2    0    0  0.44594992295E+02  0.48294059532E+02  0.19875045482E+03  0.20933889466E+03  0.00000000000E+00 0.  1.
         11    1    1    2    0    0 -0.10081810903E+02 -0.30885654443E+02  0.72357893963E+02  0.79317282986E+02  0.00000000000E+00 0. -1.
</event>
<event>
 7    1  0.2989693E-009  0.8730389E+02  0.7561462E-02  0.1309515E+00
         -2   -1    0    0    0  501 -0.00000000000E+00  0.00000000000E+00  0.14318682596E+03  0.14318682596E+03  0.00000000000E+00 0. -1.
          2   -1    0    0  501    0  0.00000000000E+00 -0.00000000000E+00 -0.10064778663E+03  0.10064778663E+03  0.00000000000E+00 0.  1.
         25    2    1    2    0    0 -0.32095197233E+02  0.74383282597E+02  0.72404169070E+01  0.14920938211E+03  0.12509213267E+03 0.  0.
          5    1    3    3  502    0 -0.20908725570E+02  0.14171069512E+02 -0.55693212009E+02  0.61296005416E+02  0.41800000000E+01 0.  1.
         -5    1    3    3    0  502 -0.11186471664E+02  0.60212213085E+02  0.62933628916E+02  0.87913376692E+02  0.41800000000E+01 0.  1.
        -11    1    1    2    0    0  0.74245455285E+01 -0.56902054513E+02  0.20263155468E+02  0.60856907198E+02  0.00000000000E+00 0.  1.
         11    1    1    2    0    0  0.24670651705E+02 -0.17481228084E+02  0.15035466961E+02  0.33768323287E+02  0.00000000000E+00 0. -1.
</event>
<event>
 7    1  0.2989693E-009  0.1432608E+03  0.7561462E-02  0.1209007E+00
         -1   -1    0    0    0  501 -0.00000000000E+00  0.00000000000E+00  0.16335031308E+03  0.16335031308E+03  0.00000000000E+00 0.  1.
          1   -1    0    0  501    0  0.00000000000E+00 -0.00000000000E+00 -0.21907290615E+03  0.21907290615E+03  0.00000000000E+00 0. -1.
         25    2    1    2    0    0  0.10782839948E+03  0.55437038990E+02  0.69379836138E+02  0.18751248679E+03  0.12508853669E+03 0.  0.
          5    1    3    3  502    0  0.67437624466E+02 -0.21175699410E+02 -0.80499810330E+01  0.71263721723E+02  0.41800000000E+01 0. -1.
         -5    1    3    3    0  502  0.40390775015E+02  0.76612738400E+02  0.77429817171E+02  0.11624876506E+03  0.41800000000E+01 0. -1.
        -11    1    1    2    0    0 -0.52561280449E+02 -0.27262050748E+01 -0.53850157962E+01  0.52906698930E+02  0.00000000000E+00 0.  1.
         11    1    1    2    0    0 -0.55267119033E+02 -0.52710833915E+02 -0.11971741342E+03  0.14200403351E+03  0.00000000000E+00 0. -1.
</event>
<event>
 7    1  0.2989693E-009  0.1140796E+03  0.7561462E-02  0.1253196E+00
          2   -1    0    0  501    0  0.00000000000E+00  0.00000000000E+00  0.53867078565E+03  0.53867078565E+03  0.00000000000E+00 0. -1.
         -2   -1    0    0    0  501 -0.00000000000E+00 -0.00000000000E+00 -0.37718795466E+02  0.37718795466E+02  0.00000000000E+00 0.  1.
         25    2    1    2    0    0  0.40348151633E+02 -0.27351034918E+02  0.11404105099E+03  0.17616107639E+03  0.12510520003E+03 0.  0.
          5    1    3    3  502    0  0.58040424746E+02 -0.68113145366E+02  0.78329354796E+02  0.11900021722E+03  0.41800000000E+01 0. -1.
         -5    1    3    3    0  502 -0.17692273113E+02  0.40762110448E+02  0.35711696195E+02  0.57160859171E+02  0.41800000000E+01 0. -1.
        -11    1    1    2    0    0  0.18542929809E+02 -0.12917910408E+02  0.38968251979E+02  0.45047056702E+02  0.00000000000E+00 0.  1.
         11    1    1    2    0    0 -0.58891081443E+02  0.40268945326E+02  0.34794268722E+03  0.35518144802E+03  0.00000000000E+00 0. -1.
</event>
<event>
 7    1  0.7803160E-009  0.1368743E+03  0.7561462E-02  0.1217598E+00
         -3   -1    0    0    0  501 -0.00000000000E+00  0.00000000000E+00  0.12710465597E+03  0.12710465597E+03  0.00000000000E+00 0.  1.
          3   -1    0    0  501    0  0.00000000000E+00 -0.00000000000E+00 -0.19300357305E+03  0.19300357305E+03  0.00000000000E+00 0. -1.
         25    2    1    2    0    0 -0.74421734768E+02 -0.79653549098E+02 -0.63528958063E+02  0.17767203100E+03  0.12509252414E+03 0.  0.
          5    1    3    3  502    0 -0.32703094722E+02 -0.10878940129E+03 -0.53515505946E+02  0.12564238144E+03  0.41800000000E+01 0. -1.
         -5    1    3    3    0  502 -0.41718640046E+02  0.29135852188E+02 -0.10013452117E+02  0.52029649560E+02  0.41800000000E+01 0. -1.
        -11    1    1    2    0    0  0.27470263020E+02  0.28615903117E+02  0.43824187447E+02  0.59110444652E+02  0.00000000000E+00 0.  1.
         11    1    1    2    0    0  0.46951471749E+02  0.51037645981E+02 -0.46194146465E+02  0.83325753367E+02  0.00000000000E+00 0. -1.
</event>
<event>
 7    1  0.2989693E-009  0.9221182E+02  0.7561462E-02  0.1297582E+00
          2   -1    0    0  501    0  0.00000000000E+00  0.00000000000E+00  0.10134402377E+04  0.10134402377E+04  0.00000000000E+00 0. -1.
         -2   -1    0    0    0  501 -0.00000000000E+00 -0.00000000000E+00 -0.26534790077E+02  0.26534790077E+02  0.00000000000E+00 0.  1.
         25    2    1    2    0    0 -0.64068003512E+02  0.99633728732E+01  0.85135127647E+03  0.86293122473E+03  0.12508926730E+03 0.  0.
          5    1    3    3  502    0 -0.49505052685E+02 -0.12126410914E+02  0.82042518157E+03  0.82201748828E+03  0.41800000000E+01 0.  1.
         -5    1    3    3    0  502 -0.14562950827E+02  0.22089783788E+02  0.30926094898E+02  0.40913736449E+02  0.41800000000E+01 0.  1.
        -11    1    1    2    0    0  0.18521165946E+02  0.36812862499E+02  0.85028775302E+02  0.94488692777E+02  0.00000000000E+00 0. -1.
         11    1    1    2    0    0  0.45546837566E+02 -0.46776235373E+02  0.50525395885E+02  0.82555110304E+02  0.00000000000E+00 0.  1.
</event>
<event>
 7    1  0.2989693E-009  0.9254614E+02  0.7561462E-02  0.1296800E+00
          2   -1    0    0  501    0  0.00000000000E+00  0.00000000000E+00  0.27022296281E+03  0.27022296281E+03  0.00000000000E+00 0.  1.
         -2   -1    0    0    0  501 -0.00000000000E+00 -0.00000000000E+00 -0.64073837810E+02  0.64073837810E+02  0.00000000000E+00 0. -1.
         25    2    1    2    0    0 -0.52893272208E+02 -0.44855146358E+02  0.14884124017E+03  0.20641613371E+03  0.12507686869E+03 0.  0.
          5    1    3    3  502    0 -0.63548063786E+02 -0.19789781945E+02  0.16250694576E+03  0.17565867955E+03  0.41800000000E+01 0. -1.
         -5    1    3    3    0  502  0.10654791579E+02 -0.25065364413E+02 -0.13665705599E+02  0.30757454157E+02  0.41800000000E+01 0. -1.
        -11    1    1    2    0    0 -0.10203183996E+02 -0.40909265231E+01  0.45919930877E+02  0.47217377047E+02  0.00000000000E+00 0. -1.
         11    1    1    2    0    0  0.63096456203E+02  0.48946072881E+02  0.11387953955E+02  0.80663289861E+02  0.00000000000E+00 0.  1.
</event>
<event>
 7    1  0.2989693E-009  0.1314213E+03  0.7561462E-02  0.1225362E+00
          2   -1    0    0  501    0  0.00000000000E+00  0.00000000000E+00  0.16005763957E+03  0.16005763957E+03  0.00000000000E+00 0. -1.
         -2   -1    0    0    0  501 -0.00000000000E+00 -0.00000000000E+00 -0.14276720901E+03  0.14276720901E+03  0.00000000000E+00 0.  1.
         25    2    1    2    0    0 -0.86088980834E+02 -0.43984855585E+02 -0.30496350125E+02  0.16100924224E+03  0.12509184056E+03 0.  0.
          5    1    3    3  502    0 -0.10161741507E+03 -0.48840927023E+02  0.13772444943E+02  0.11366040576E+03  0.41800000000E+01 0.  1.
         -5    1    3    3    0  502  0.15528434236E+02  0.48560714381E+01 -0.44268795068E+02  0.47348836484E+02  0.41800000000E+01 0.  1.
        -11    1    1    2    0    0  0.94968377911E+02  0.61806947242E+02  0.43967375789E+02  0.12154102873E+03  0.00000000000E+00 0.  1.
         11    1    1    2    0    0 -0.88793970771E+01 -0.17822091656E+02  0.38194048892E+01  0.20274577608E+02  0.00000000000E+00 0. -1.
</event>
<event>
 7    1  0.2989693E-009  0.2015490E+03  0.7561462E-02  0.1148439E+00
         -1   -1    0    0    0  501 -0.00000000000E+00  0.00000000000E+00  0.26332816645E+03  0.26332816645E+03  0.00000000000E+00 0.  1.
          1   -1    0    0  501    0  0.00000000000E+00 -0.00000000000E+00 -0.19021967360E+03  0.19021967360E+03  0.00000000000E+00 0. -1.
         25    2    1    2    0    0  0.17630364693E+03 -0.87218007698E+01  0.12225769088E+03  0.24850289919E+03  0.12509077582E+03 0.  0.
          5    1    3    3  502    0  0.10560517372E+03 -0.65942338341E+02  0.80623897905E+02  0.14838642126E+03  0.41800000000E+01 0.  1.
         -5    1    3    3    0  502  0.70698473210E+02  0.57220537571E+02  0.41633792980E+02  0.10011647792E+03  0.41800000000E+01 0.  1.
        -11    1    1    2    0    0 -0.15456716291E+03 -0.15010184372E+02 -0.11797903712E+02  0.15574178635E+03  0.00000000000E+00 0.  1.
         11    1    1    2    0    0 -0.21736484019E+02  0.23731985142E+02 -0.37351294329E+02  0.49303154507E+02  0.00000000000E+00 0. -1.
</event>
<event>
 7    1  0.3737424E-009  0.7935296E+02  0.7561462E-02  0.1330898E+00
         -2   -1    0    0    0  501 -0.00000000000E+00  0.00000000000E+00  0.99032305847E+02  0.99032305847E+02  0.00000000000E+00 0. -1.
          2   -1    0    0  501    0  0.00000000000E+00 -0.00000000000E+00 -0.17574787148E+03  0.17574787148E+03  0.00000000000E+00 0.  1.
         25    2    1    2    0    0  0.78752364065E+01  0.66061879314E+02 -0.71568333570E+01  0.14186330527E+03  0.12509111028E+03 0.  0.
          5    1    3    3  502    0 -0.19165103639E+02  0.11293815735E+02  0.52010606646E+02  0.56722368383E+02  0.41800000000E+01 0.  1.
         -5    1    3    3    0  502  0.27040340046E+02  0.54768063579E+02 -0.59167440003E+02  0.85140936890E+02  0.41800000000E+01 0.  1.
        -11    1    1    2    0    0 -0.21206378790E+02 -0.33307079724E+02 -0.85461368815E+02  0.94142007737E+02  0.00000000000E+00 0.  1.
         11    1    1    2    0    0  0.13331142383E+02 -0.32754799590E+02  0.15902636543E+02  0.38774864313E+02  0.00000000000E+00 0. -1.
</event>
<event>
 7    1  0.2989693E-009  0.1220619E+03  0.7561462E-02  0.1239734E+00
          1   -1    0    0  501    0  0.00000000000E+00  0.00000000000E+00  0.18263334625E+03  0.18263334625E+03  0.00000000000E+00 0. -1.
         -1   -1    0    0    0  501 -0.00000000000E+00 -0.00000000000E+00 -0.10725477214E+03  0.10725477214E+03  0.00000000000E+00 0.  1.
         25    2    1    2    0    0 -0.31384516916E+02  0.67643294106E+02  0.89843547311E+02  0.17111333854E+03  0.12508920214E+03 0.  0.
          5    1    3    3  502    0 -0.53736226204E+02  0.95364824042E+02  0.63447463714E+02  0.12659022365E+03  0.41800000000E+01 0.  1.
         -5    1    3    3    0  502  0.22351709288E+02 -0.27721529937E+02  0.26396083597E+02  0.44523114889E+02  0.41800000000E+01 0.  1.
        -11    1    1    2    0    0  0.39058550616E+02 -0.96564932329E+01 -0.38359380190E+02  0.55590109609E+02  0.00000000000E+00 0.  1.
         11    1    1    2    0    0 -0.76740337000E+01 -0.57986800873E+02  0.23894406983E+02  0.63184670243E+02  0.00000000000E+00 0. -1.
</event>
<event>
 7    1  0.3757372E-009  0.7722457E+02  0.7561462E-02  0.1337117E+00
          2   -1    0    0  501    0  0.00000000000E+00  0.00000000000E+00  0.13583910237E+03  0.13583910237E+03  0.00000000000E+00 0. -1.
         -2   -1    0    0    0  501 -0.00000000000E+00 -0.00000000000E+00 -0.12764551937E+03  0.12764551937E+03  0.00000000000E+00 0.  1.
         25    2    1    2    0    0 -0.19043495364E+02  0.35139961008E+02 -0.59353159149E+02  0.14411270047E+03  0.12509277102E+03 0.  0.
          5    1    3    3  502    0 -0.18439654303E+02 -0.34609194429E+02 -0.62794107753E+02  0.74151126480E+02  0.41800000000E+01 0. -1.
         -5    1    3    3    0  502 -0.60384106094E+00  0.69749155437E+02  0.34409486036E+01  0.69961573992E+02  0.41800000000E+01 0. -1.
        -11    1    1    2    0    0 -0.36426307887E+01 -0.12752482326E+02 -0.21238374176E+02  0.25039231262E+02  0.00000000000E+00 0.  1.
         11    1    1    2    0    0  0.22686126153E+02 -0.22387478682E+02  0.88785116325E+02  0.94332689998E+02  0.00000000000E+00 0. -1.
</event>
<event>
 7    1  0.2989693E-009  0.1243994E+03  0.7561462E-02  0.1236011E+00
         -2   -1    0    0    0  501 -0.00000000000E+00  0.00000000000E+00  0.10099155296E+03  0.10099155296E+03  0.00000000000E+00 0.  1.
          2   -1    0    0  501    0  0.00000000000E+00 -0.00000000000E+00 -0.17533669690E+03  0.17533669690E+03  0.00000000000E+00 0. -1.
         25    2    1    2    0    0 -0.68356337703E+02  0.31720414598E+02 -0.35596032412E+02  0.15030845643E+03  0.12508709344E+03 0.  0.
          5    1    3    3  502    0 -0.62266696562E+02 -0.38056363206E+02 -0.35801573850E+01  0.73182772619E+02  0.41800000000E+01 0.  1.
         -5    1    3    3    0  502 -0.60896411404E+01  0.69776777805E+02 -0.32015875027E+02  0.77125683814E+02  0.41800000000E+01 0.  1.
        -11    1    1    2    0    0 -0.10967940958E+02 -0.23318286262E+02  0.15015282545E+02  0.29824434831E+02  0.00000000000E+00 0.  1.
         11    1    1    2    0    0  0.79324278661E+02 -0.84021283365E+01 -0.53764394072E+02  0.96195358597E+02  0.00000000000E+00 0. -1.
</event>
<event>
 7    1  0.2989693E-009  0.8237328E+02  0.7561462E-02  0.1322448E+00
         -1   -1    0    0    0  501 -0.00000000000E+00  0.00000000000E+00  0.46670496810E+02  0.46670496810E+02  0.00000000000E+00 0.  1.
          1   -1    0    0  501    0  0.00000000000E+00 -0.00000000000E+00 -0.24364509298E+03  0.24364509298E+03  0.00000000000E+00 0. -1.
         25    2    1    2    0    0 -0.21842604934E+02 -0.26607765847E+01 -0.12114348634E+03  0.17551910313E+03  0.12508809760E+03 0.  0.
          5    1    3    3  502    0 -0.45132649757E+02 -0.21505075259E+02  0.49983441126E+00  0.50171172704E+02  0.41800000000E+01 0.  1.
         -5    1    3    3    0  502  0.23290044824E+02  0.18844298674E+02 -0.12164332075E+03  0.12534793043E+03  0.41800000000E+01 0.  1.
        -11    1    1    2    0    0 -0.30547155195E+02 -0.62680999667E+01 -0.17004455973E+02  0.35518576698E+02  0.00000000000E+00 0.  1.
         11    1    1    2    0    0  0.52389760129E+02  0.89288765514E+01 -0.58826653862E+02  0.79277909959E+02  0.00000000000E+00 0. -1.
</event>
<event>
 7    1  0.2989693E-009  0.1446243E+03  0.7561462E-02  0.1207239E+00
          1   -1    0    0  501    0  0.00000000000E+00  0.00000000000E+00  0.68794126612E+02  0.68794126612E+02  0.00000000000E+00 0. -1.
         -1   -1    0    0    0  501 -0.00000000000E+00 -0.00000000000E+00 -0.32785344951E+03  0.32785344951E+03  0.00000000000E+00 0.  1.
         25    2    1    2    0    0  0.96517202521E+02  0.38058440517E+02 -0.13025714732E+03  0.20827299267E+03  0.12508676897E+03 0.  0.
          5    1    3    3  502    0  0.71944726506E+01 -0.39457986800E+02 -0.14846371265E+02  0.42971854728E+02  0.41800000000E+01 0. -1.
         -5    1    3    3    0  502  0.89322729871E+02  0.77516427317E+02 -0.11541077605E+03  0.16530113794E+03  0.41800000000E+01 0. -1.
        -11    1    1    2    0    0 -0.40388931012E+02 -0.58292068344E+02 -0.40087687217E+02  0.81463204249E+02  0.00000000000E+00 0. -1.
         11    1    1    2    0    0 -0.56128271509E+02  0.20233627827E+02 -0.88714488363E+02  0.10691137920E+03  0.00000000000E+00 0.  1.
</event>
<event>
 7    1  0.2989693E-009  0.1108771E+03  0.7561462E-02  0.1258954E+00
         -1   -1    0    0    0  501 -0.00000000000E+00  0.00000000000E+00  0.13891017802E+03  0.13891017802E+03  0.00000000000E+00 0.  1.
          1   -1    0    0  501    0  0.00000000000E+00 -0.00000000000E+00 -0.10106654448E+03  0.10106654448E+03  0.00000000000E+00 0. -1.
         25    2    1    2    0    0 -0.28509557503E+02  0.26840989457E+02  0.49215796069E+02  0.14001408502E+03  0.12509402798E+03 0.  0.
          5    1    3    3  502    0 -0.35620499363E+01  0.71408952999E+02  0.40980595282E+01  0.71736972755E+02  0.41800000000E+01 0.  1.
         -5    1    3    3    0  502 -0.24947507567E+02 -0.44567963542E+02  0.45117736541E+02  0.68277112260E+02  0.41800000000E+01 0.  1.
        -11    1    1    2    0    0  0.15338643410E+02  0.33649540332E+02 -0.87373912995E+01  0.37998783572E+02  0.00000000000E+00 0. -1.
         11    1    1    2    0    0  0.13170914093E+02 -0.60490529789E+02 -0.26347712350E+01  0.61963853912E+02  0.00000000000E+00 0.  1.
</event>
<event>
 7    1  0.2989693E-009  0.8984375E+02  0.7561462E-02  0.1303231E+00
          2   -1    0    0  501    0  0.00000000000E+00  0.00000000000E+00  0.61556720240E+02  0.61556720240E+02  0.00000000000E+00 0. -1.
         -2   -1    0    0    0  501 -0.00000000000E+00 -0.00000000000E+00 -0.25506002921E+03  0.25506002921E+03  0.00000000000E+00 0.  1.
         25    2    1    2    0    0 -0.31891278159E+02 -0.11181875148E+02 -0.17296596400E+03  0.21612105584E+03  0.12509595564E+03 0.  0.
          5    1    3    3  502    0  0.37749184038E+02  0.19731077930E+01 -0.12445163606E+03  0.13013291731E+03  0.41800000000E+01 0.  1.
         -5    1    3    3    0  502 -0.69640462197E+02 -0.13154982941E+02 -0.48514327938E+02  0.85988138522E+02  0.41800000000E+01 0.  1.
        -11    1    1    2    0    0  0.45396553247E+02 -0.90947527819E+01 -0.45993026122E+02  0.65260401674E+02  0.00000000000E+00 0.  1.
         11    1    1    2    0    0 -0.13505275088E+02  0.20276627930E+02  0.25455681150E+02  0.35235291942E+02  0.00000000000E+00 0. -1.
</event>
<event>
 6    1  0.2989693E-009  0.1424788E+03  0.7561462E-02  0.1210032E+00
         -4   -1    0    0    0  501 -0.00000000000E+00  0.00000000000E+00  0.56131621494E+02  0.56131621494E+02  0.00000000000E+00 0.  1.
          4   -1    0    0  501    0  0.00000000000E+00 -0.00000000000E+00 -0.43547706291E+03  0.43547706291E+03  0.00000000000E+00 0. -1.
          5    1    1    2  502    0  0.35180474089E+02 -0.15009358910E+02 -0.15133770878E+02  0.41345495921E+02  0.41800000000E+01 0.  1.
         -5    1    1    2    0  502 -0.10638945227E+03 -0.49925878921E+02 -0.98630017186E+02  0.15348179576E+03  0.41800000000E+01 0.  1.
        -11    1    1    2    0    0  0.70809210539E+01  0.64366672661E+02 -0.99161547970E+02  0.11843234604E+03  0.00000000000E+00 0.  1.
         11    1    1    2    0    0  0.64128057126E+02  0.56856516938E+00 -0.16642010538E+03  0.17834904668E+03  0.00000000000E+00 0. -1.
</event>
<event>
 7    1  0.2989693E-009  0.1055897E+03  0.7561462E-02  0.1268962E+00
         -1   -1    0    0    0  501 -0.00000000000E+00  0.00000000000E+00  0.39094564771E+02  0.39094564771E+02  0.00000000000E+00 0.  1.
          1   -1    0    0  501    0  0.00000000000E+00 -0.00000000000E+00 -0.31895855621E+03  0.31895855621E+03  0.00000000000E+00 0. -1.
         25    2    1    2    0    0 -0.66401118573E+01 -0.26692631061E+02 -0.12999401512E+03  0.18248898900E+03  0.12508876649E+03 0.  0.
          5    1    3    3  502    0  0.54410678671E+02 -0.35254292546E+02 -0.53534223590E+02  0.84182970913E+02  0.41800000000E+01 0. -1.
         -5    1    3    3    0  502 -0.61050790528E+02  0.85616614854E+01 -0.76459791528E+02  0.98306018086E+02  0.41800000000E+01 0. -1.
        -11    1    1    2    0    0 -0.18789575249E+02 -0.22337355049E+02 -0.87567578521E+02  0.92304313965E+02  0.00000000000E+00 0. -1.
         11    1    1    2    0    0  0.25429687107E+02  0.49029986110E+02 -0.62302397801E+02  0.83259818016E+02  0.00000000000E+00 0.  1.
</event>
<event>
 7    1  0.2989693E-009  0.1334047E+03  0.7561462E-02  0.1222489E+00
          2   -1    0    0  501    0  0.00000000000E+00  0.00000000000E+00  0.17055757183E+04  0.17055757183E+04  0.00000000000E+00 0. -1.
         -2   -1    0    0    0  501 -0.00000000000E+00 -0.00000000000E+00 -0.13394508152E+02  0.13394508152E+02  0.00000000000E+00 0.  1.
         25    2    1    2    0    0  0.67129949297E+02 -0.67073955608E+02  0.12413265122E+04  0.12512186220E+04  0.12510469500E+03 0.  0.
          5    1    3    3  502    0  0.50822464153E+02  0.19331979420E+02  0.24428127348E+03  0.25029474877E+03  0.41800000000E+01 0. -1.
         -5    1    3    3    0  502  0.16307485144E+02 -0.86405935028E+02  0.99704523868E+03  0.10009238733E+04  0.41800000000E+01 0. -1.
        -11    1    1    2    0    0 -0.36376927981E+02  0.82260530952E+02  0.34134294113E+03  0.35299444656E+03  0.00000000000E+00 0.  1.
         11    1    1    2    0    0 -0.30753021316E+02 -0.15186575344E+02  0.10951175687E+03  0.11475715787E+03  0.00000000000E+00 0. -1.
</event>
<event>
 7    1  0.2989693E-009  0.7327116E+02  0.7561462E-02  0.1349310E+00
          3   -1    0    0  501    0  0.00000000000E+00  0.00000000000E+00  0.27477476671E+03  0.27477476671E+03  0.00000000000E+00 0. -1.
         -3   -1    0    0    0  501 -0.00000000000E+00 -0.00000000000E+00 -0.48806176729E+02  0.48806176729E+02  0.00000000000E+00 0.  1.
         25    2    1    2    0    0 -0.70335734874E+01  0.31160909315E+02  0.15757125371E+03  0.20370566872E+03  0.12508727373E+03 0.  0.
          5    1    3    3  502    0 -0.21304815083E+02  0.43022353909E+02  0.33399352279E+01  0.48305751717E+02  0.41800000000E+01 0. -1.
         -5    1    3    3    0  502  0.14271241596E+02 -0.11861444594E+02  0.15423131848E+03  0.15539991700E+03  0.41800000000E+01 0. -1.
        -11    1    1    2    0    0 -0.20489132569E+01 -0.54369315299E+02  0.85884847201E+01  0.55081599118E+02  0.00000000000E+00 0.  1.
         11    1    1    2    0    0  0.90824867443E+01  0.23208405984E+02  0.59808851550E+02  0.64793675598E+02  0.00000000000E+00 0. -1.
</event>
<event>
 7    1  0.2989693E-009  0.1563221E+03  0.7561462E-02  0.1192913E+00
         -2   -1    0    0    0  501 -0.00000000000E+00  0.00000000000E+00  0.58152662615E+02  0.58152662615E+02  0.00000000000E+00 0. -1.
          2   -1    0    0  501    0  0.00000000000E+00 -0.00000000000E+00 -0.45635261725E+03  0.45635261725E+03  0.00000000000E+00 0.  1.
         25    2    1    2    0    0  0.48042736758E+02 -0.10903432205E+03 -0.24742510796E+03  0.30176443372E+03  0.12508397766E+03 0.  0.
          5    1    3    3  502    0  0.14345699038E+02 -0.12440069715E+03 -0.22695159667E+03  0.25924087672E+03  0.41800000000E+01 0.  1.
         -5    1    3    3    0  502  0.33697037721E+02  0.15366375103E+02 -0.20473511291E+02  0.42523556995E+02  0.41800000000E+01 0.  1.
        -11    1    1    2    0    0 -0.48196418129E+02  0.77750486531E+01 -0.48125081538E+02  0.68551948004E+02  0.00000000000E+00 0.  1.
         11    1    1    2    0    0  0.15368137093E+00  0.10125927339E+03 -0.10264976514E+03  0.14418889815E+03  0.00000000000E+00 0. -1.
</event>
<event>
 7    1  0.2989693E-009  0.1079269E+03  0.7561462E-02  0.1264458E+00
         -1   -1    0    0    0  501 -0.00000000000E+00  0.00000000000E+00  0.54425415861E+02  0.54425415861E+02  0.00000000000E+00 0.  1.
          1   -1    0    0  501    0  0.00000000000E+00 -0.00000000000E+00 -0.26894705979E+03  0.26894705979E+03  0.00000000000E+00 0. -1.
         25    2    1    2    0    0 -0.22703459390E+02 -0.22502108780E+02 -0.18447938655E+03  0.22517153093E+03  0.12509109604E+03 0.  0.
          5    1    3    3  502    0 -0.69839381422E+02  0.71882897307E+01 -0.12597816894E+03  0.14428160713E+03  0.41800000000E+01 0.  1.
         -5    1    3    3    0  502  0.47135922032E+02 -0.29690398511E+02 -0.58501217614E+02  0.80889923797E+02  0.41800000000E+01 0.  1.
        -11    1    1    2    0    0  0.49213314630E+02  0.34959244245E+02 -0.66810173853E+01  0.60734957713E+02  0.00000000000E+00 0.  1.
         11    1    1    2    0    0 -0.26509855240E+02 -0.12457135465E+02 -0.23361239993E+02  0.37465987014E+02  0.00000000000E+00 0. -1.
</event>
<event>
 7    1  0.2989693E-009  0.8293157E+02  0.7561462E-02  0.1320932E+00
         -2   -1    0    0    0  501 -0.00000000000E+00  0.00000000000E+00  0.14641546120E+03  0.14641546120E+03  0.00000000000E+00 0.  1.
          2   -1    0    0  501    0  0.00000000000E+00 -0.00000000000E+00 -0.95552806893E+02  0.95552806893E+02  0.00000000000E+00 0. -1.
         25    2    1    2    0    0 -0.11984582891E+01  0.38235577217E+02  0.68524145821E+02  0.14766909536E+03  0.12508879844E+03 0.  0.
          5    1    3    3  502    0 -0.40358673148E+02  0.67191221577E+02  0.25443402128E+02  0.82512555815E+02  0.41800000000E+01 0.  1.
         -5    1    3    3    0  502  0.39160214859E+02 -0.28955644360E+02  0.43080743693E+02  0.65156539543E+02  0.41800000000E+01 0.  1.
        -11    1    1    2    0    0  0.27088882569E+01 -0.18620416059E+02 -0.51681519391E+02  0.55000340148E+02  0.00000000000E+00 0. -1.
         11    1    1    2    0    0 -0.15104299678E+01 -0.19615161158E+02  0.34020027875E+02  0.39298832585E+02  0.00000000000E+00 0.  1.
</event>
<event>
 7    1  0.2989693E-009  0.1025027E+03  0.7561462E-02  0.1275119E+00
          1   -1    0    0  501    0  0.00000000000E+00  0.00000000000E+00  0.57675677920E+02  0.57675677920E+02  0.00000000000E+00 0. -1.
         -1   -1    0    0    0  501 -0.00000000000E+00 -0.00000000000E+00 -0.23562708953E+03  0.23562708953E+03  0.00000000000E+00 0.  1.
         25    2    1    2    0    0 -0.43482334251E+02 -0.10887169583E+02 -0.13454520698E+03  0.18909112991E+03  0.12507517275E+03 0.  0.
          5    1    3    3  502    0 -0.65122118602E+02  0.24962765656E+02 -0.12891836434E+03  0.14663371735E+03  0.41800000000E+01 0. -1.
         -5    1    3    3    0  502  0.21639784351E+02 -0.35849935239E+02 -0.56268426379E+01  0.42457412562E+02  0.41800000000E+01 0. -1.
        -11    1    1    2    0    0 -0.58528575267E+01 -0.29017088578E+02 -0.23229188069E+02  0.37627683281E+02  0.00000000000E+00 0.  1.
         11    1    1    2    0    0  0.49335191778E+02  0.39904258161E+02 -0.20177016566E+02  0.66583954258E+02  0.00000000000E+00 0. -1.
</event>
<event>
 7    1  0.2989693E-009  0.1811477E+03  0.7561462E-02  0.1166697E+00
         -3   -1    0    0    0  501 -0.00000000000E+00  0.00000000000E+00  0.93683651985E+02  0.93683651985E+02  0.00000000000E+00 0.  1.
          3   -1    0    0  501    0  0.00000000000E+00 -0.00000000000E+00 -0.45186364252E+03  0.45186364252E+03  0.00000000000E+00 0. -1.
         25    2    1    2    0    0 -0.10551242077E+03 -0.11829734235E+03 -0.28476331492E+03  0.34909143756E+03  0.12509018392E+03 0.  0.
          5    1    3    3  502    0 -0.12541447146E+03 -0.99000739059E+02 -0.18037029802E+03  0.24099969460E+03  0.41800000000E+01 0. -1.
         -5    1    3    3    0  502  0.19902050699E+02 -0.19296603293E+02 -0.10439301689E+03  0.10809174296E+03  0.41800000000E+01 0. -1.
        -11    1    1    2    0    0  0.58126686963E+02  0.11257444510E+03 -0.26317309522E+02  0.12939983852E+03  0.00000000000E+00 0.  1.
         11    1    1    2    0    0  0.47385733803E+02  0.57228972499E+01 -0.47099366098E+02  0.67056018431E+02  0.00000000000E+00 0. -1.
</event>
<event>
 7    1  0.2989693E-009  0.1044005E+03  0.7561462E-02  0.1271305E+00
         -2   -1    0    0    0  501 -0.00000000000E+00  0.00000000000E+00  0.71356316909E+02  0.71356316909E+02  0.00000000000E+00 0.  1.
          2   -1    0    0  501    0  0.00000000000E+00 -0.00000000000E+00 -0.28730870942E+03  0.28730870942E+03  0.00000000000E+00 0. -1.
         25    2    1    2    0    0 -0.53199429753E+02  0.40755309509E+02 -0.19566435860E+03  0.24170897438E+03  0.12509001755E+03 0.  0.
          5    1    3    3  502    0  0.40872928927E+02  0.82195239003E+01 -0.50036874227E+02  0.65263451293E+02  0.41800000000E+01 0. -1.
         -5    1    3    3    0  502 -0.94072358680E+02  0.32535785609E+02 -0.14562748438E+03  0.17644552309E+03  0.41800000000E+01 0. -1.
        -11    1    1    2    0    0  0.28800480335E+02 -0.25722111745E+02 -0.57945931389E+02  0.69633509640E+02  0.00000000000E+00 0. -1.
         11    1    1    2    0    0  0.24398949418E+02 -0.15033197764E+02  0.37657897481E+02  0.47322542307E+02  0.00000000000E+00 0.  1.
</event>
<event>
 7    1  0.2989693E-009  0.1059870E+03  0.7561462E-02  0.1268187E+00
          4   -1    0    0  501    0  0.00000000000E+00  0.00000000000E+00  0.58294056596E+03  0.58294056596E+03  0.00000000000E+00 0. -1.
         -4   -1    0    0    0  501 -0.00000000000E+00 -0.00000000000E+00 -0.28860133087E+02  0.28860133087E+02  0.00000000000E+00 0.  1.
         25    2    1    2    0    0  0.63481670520E+02  0.30427456874E+02  0.32066072777E+03  0.35132124830E+03  0.12509022562E+03 0.  0.
          5    1    3    3  502    0  0.77030274626E+02 -0.33733737681E+01  0.93689545415E+02  0.12140941553E+03  0.41800000000E+01 0.  1.
         -5    1    3    3    0  502 -0.13548604106E+02  0.33800830642E+02  0.22697118236E+03  0.22991183277E+03  0.41800000000E+01 0.  1.
        -11    1    1    2    0    0 -0.95295448653E+01 -0.41878001301E+02  0.17477173265E+03  0.17997149150E+03  0.00000000000E+00 0. -1.
         11    1    1    2    0    0 -0.53952125655E+02  0.11450544427E+02  0.58647972451E+02  0.80507959252E+02  0.00000000000E+00 0.  1.
</event>
<event>
 7    1  0.2989693E-009  0.1246048E+03  0.7561462E-02  0.1235688E+00
          2   -1    0    0  501    0  0.00000000000E+00  0.00000000000E+00  0.47028702728E+03  0.47028702728E+03  0.00000000000E+00 0. -1.
         -2   -1    0    0    0  501 -0.00000000000E+00 -0.00000000000E+00 -0.38043493386E+02  0.38043493386E+02  0.00000000000E+00 0.  1.
         25    2    1    2    0    0  0.44323381377E+02  0.54434161896E+02  0.30419638677E+03  0.33631920039E+03  0.12509005838E+03 0.  0.
          5    1    3    3  502    0  0.75252316607E+01  0.86007961487E+02  0.24431730860E+03  0.25915713039E+03  0.41800000000E+01 0.  1.
         -5    1    3    3    0  502  0.36798149716E+02 -0.31573799591E+02  0.59879078169E+02  0.77162069993E+02  0.41800000000E+01 0.  1.
        -11    1    1    2    0    0 -0.19025509380E+02 -0.77542019957E+02  0.98275450616E+02  0.12662068970E+03  0.00000000000E+00 0. -1.
         11    1    1    2    0    0 -0.25297871997E+02  0.23107858061E+02  0.29771696508E+02  0.45390630583E+02  0.00000000000E+00 0.  1.
</event>
<event>
 7    1  0.2989693E-009  0.1084169E+03  0.7561462E-02  0.1263530E+00
         -1   -1    0    0    0  501 -0.00000000000E+00  0.00000000000E+00  0.16931307184E+03  0.16931307184E+03  0.00000000000E+00 0.  1.
          1   -1    0    0  501    0  0.00000000000E+00 -0.00000000000E+00 -0.11862271477E+03  0.11862271477E+03  0.00000000000E+00 0. -1.
         25    2    1    2    0    0 -0.55844338653E+01 -0.11107111600E+02  0.11559004892E+03  0.17077284523E+03  0.12509097261E+03 0.  0.
          5    1    3    3  502    0  0.37635173957E+02  0.40762285450E+02  0.35764380309E+02  0.66140256522E+02  0.41800000000E+01 0.  1.
         -5    1    3    3    0  502 -0.43219607822E+02 -0.51869397050E+02  0.79825668613E+02  0.10463258871E+03  0.41800000000E+01 0.  1.
        -11    1    1    2    0    0  0.47184907065E+02 -0.78543151381E+01 -0.49711816393E+02  0.68988190367E+02  0.00000000000E+00 0. -1.
         11    1    1    2    0    0 -0.41600473200E+02  0.18961426739E+02 -0.15187875455E+02  0.48174751014E+02  0.00000000000E+00 0.  1.
</event>
<event>
 7    1  0.2989693E-009  0.1357316E+03  0.7561462E-02  0.1219191E+00
          2   -1    0    0  501    0  0.00000000000E+00  0.00000000000E+00  0.18223999788E+03  0.18223999788E+03  0.00000000000E+00 0. -1.
         -2   -1    0    0    0  501 -0.00000000000E+00 -0.00000000000E+00 -0.15867250320E+03  0.15867250320E+03  0.00000000000E+00 0.  1.
         25    2    1    2    0    0 -0.10066732176E+03  0.30799653847E+02 -0.65199761294E+02  0.17601586094E+03  0.12509215037E+03 0.  0.
          5    1    3    3  502    0 -0.27366588081E+02  0.72975026727E+02 -0.39831409093E+02  0.87625899250E+02  0.41800000000E+01 0. -1.
         -5    1    3    3    0  502 -0.73300733677E+02 -0.42175372880E+02 -0.25368352201E+02  0.88389961695E+02  0.41800000000E+01 0. -1.
        -11    1    1    2    0    0  0.80188017059E+02 -0.35556681008E+02  0.16015398816E+02  0.89167755626E+02  0.00000000000E+00 0.  1.
         11    1    1    2    0    0  0.20479304699E+02  0.47570271606E+01  0.72751857162E+02  0.75728884508E+02  0.00000000000E+00 0. -1.
</event>
<event>
 7    1  0.2989693E-009  0.1318613E+03  0.7561462E-02  0.1224720E+00
          1   -1    0    0  501    0  0.00000000000E+00  0.00000000000E+00  0.77647497736E+02  0.77647497736E+02  0.00000000000E+00 0. -1.
         -1   -1    0    0    0  501 -0.00000000000E+00 -0.00000000000E+00 -0.30827958056E+03  0.30827958056E+03  0.00000000000E+00 0.  1.
         25    2    1    2    0    0  0.15830266224E+02  0.10249302802E+03 -0.76881111286E+02  0.17975776615E+03  0.12508689419E+03 0.  0.
          5    1    3    3  502    0 -0.32338915074E+02  0.10341332731E+03 -0.74071799342E+02  0.13131727058E+03  0.41800000000E+01 0.  1.
         -5    1    3    3    0  502  0.48169181297E+02 -0.92029929609E+00 -0.28093119448E+01  0.48440495572E+02  0.41800000000E+01 0.  1.
        -11    1    1    2    0    0 -0.17531899332E+02 -0.32581207289E+02  0.28722580986E+00  0.36999798125E+02  0.00000000000E+00 0. -1.
         11    1    1    2    0    0  0.17016331080E+01 -0.69911820727E+02 -0.15403819735E+03  0.16916951403E+03  0.00000000000E+00 0.  1.
</event>
<event>
 7    1  0.2989693E-009  0.1157064E+03  0.7561462E-02  0.1250353E+00
          2   -1    0    0  501    0  0.00000000000E+00  0.00000000000E+00  0.19231982643E+04  0.19231982643E+04  0.00000000000E+00 0. -1.
         -2   -1    0    0    0  501 -0.00000000000E+00 -0.00000000000E+00 -0.10311813231E+02  0.10311813231E+02  0.00000000000E+00 0.  1.
         25    2    1    2    0    0 -0.38755177948E+01 -0.73371421719E+02  0.13682359783E+04  0.13759056241E+04  0.12509280215E+03 0.  0.
          5    1    3    3  502    0  0.35945215779E+02 -0.59604630683E+02  0.12128978478E+04  0.12149005853E+04  0.41800000000E+01 0. -1.
         -5    1    3    3    0  502 -0.39820733574E+02 -0.13766791035E+02  0.15533813042E+03  0.16100503880E+03  0.41800000000E+01 0. -1.
        -11    1    1    2    0    0  0.46276950495E+02  0.18123150711E+02  0.24070472046E+03  0.24578195049E+03  0.00000000000E+00 0.  1.
         11    1    1    2    0    0 -0.42401432700E+02  0.55248271007E+02  0.30394575237E+03  0.31182250292E+03  0.00000000000E+00 0. -1.
</event>
<event>
 7    1  0.2989693E-009  0.1116864E+03  0.7561462E-02  0.1257478E+00
          2   -1    0    0  501    0  0.00000000000E+00  0.00000000000E+00  0.47574691779E+03  0.47574691779E+03  0.00000000000E+00 0.  1.
         -2   -1    0    0    0  501 -0.00000000000E+00 -0.00000000000E+00 -0.37188287827E+02  0.37188287827E+02  0.00000000000E+00 0. -1.
         25    2    1    2    0    0 -0.45778595965E+02 -0.12823265647E+02  0.35627960655E+03  0.38058505497E+03  0.12509880107E+03 0.  0.
          5    1    3    3  502    0 -0.83532777322E+02 -0.26875072869E+02  0.28898706335E+03  0.30204468148E+03  0.41800000000E+01 0.  1.
         -5    1    3    3    0  502  0.37754181357E+02  0.14051807221E+02  0.67292543201E+02  0.78540373481E+02  0.41800000000E+01 0.  1.
        -11    1    1    2    0    0  0.59733726463E+02 -0.16991960360E+02  0.26371609086E+02  0.67470783009E+02  0.00000000000E+00 0. -1.
         11    1    1    2    0    0 -0.13955130499E+02  0.29815226007E+02  0.55907414323E+02  0.64879367640E+02  0.00000000000E+00 0.  1.
</event>
<event>
 7    1  0.2989693E-009  0.9041745E+02  0.7561462E-02  0.1301844E+00
          1   -1    0    0  501    0  0.00000000000E+00  0.00000000000E+00  0.31256230996E+03  0.31256230996E+03  0.00000000000E+00 0. -1.
         -1   -1    0    0    0  501 -0.00000000000E+00 -0.00000000000E+00 -0.49736328761E+02  0.49736328761E+02  0.00000000000E+00 0.  1.
         25    2    1    2    0    0 -0.37248657847E+02 -0.22843422415E+02  0.22342068978E+03  0.25975661395E+03  0.12508960554E+03 0.  0.
          5    1    3    3  502    0  0.26829703656E+02 -0.20380432071E+02  0.78979901540E+01  0.34857505047E+02  0.41800000000E+01 0. -1.
         -5    1    3    3    0  502 -0.64078361503E+02 -0.24629903447E+01  0.21552269962E+03  0.22489910891E+03  0.41800000000E+01 0. -1.
        -11    1    1    2    0    0 -0.14128910588E+02 -0.13616507249E+02 -0.10422906013E+02  0.22218738799E+02  0.00000000000E+00 0.  1.
         11    1    1    2    0    0  0.51377568435E+02  0.36459929664E+02  0.49828197436E+02  0.80323285970E+02  0.00000000000E+00 0. -1.
</event>
<event>
 7    1  0.2989693E-009  0.1185805E+03  0.7561462E-02  0.1245457E+00
          1   -1    0    0  501    0  0.00000000000E+00  0.00000000000E+00  0.10794714814E+03  0.10794714814E+03  0.00000000000E+00 0. -1.
         -1   -1    0    0    0  501 -0.00000000000E+00 -0.00000000000E+00 -0.30806049036E+03  0.30806049036E+03  0.00000000000E+00 0.  1.
         25    2    1    2    0    0 -0.28221135431E+02 -0.96121564635E+02  0.15942772193E+02  0.16105493418E+03  0.12509489264E+03 0.  0.
          5    1    3    3  502    0  0.18684991610E+02 -0.38367986579E+02  0.60556856688E+02  0.74201324769E+02  0.41800000000E+01 0.  1.
         -5    1    3    3    0  502 -0.46906127041E+02 -0.57753578056E+02 -0.44614084495E+02  0.86853609410E+02  0.41800000000E+01 0.  1.
        -11    1    1    2    0    0 -0.15190509997E+02  0.63947453138E+02 -0.17546206227E+03  0.18736852364E+03  0.00000000000E+00 0.  1.
         11    1    1    2    0    0  0.43411645427E+02  0.32174111497E+02 -0.40594052142E+02  0.67584180683E+02  0.00000000000E+00 0. -1.
</event>
<event>
 7    1  0.2989693E-009  0.8952564E+02  0.7561462E-02  0.1304005E+00
          2   -1    0    0  501    0  0.00000000000E+00  0.00000000000E+00  0.12464303511E+04  0.12464303511E+04  0.00000000000E+00 0. -1.
         -2   -1    0    0    0  501 -0.00000000000E+00 -0.00000000000E+00 -0.11931477326E+02  0.11931477326E+02  0.00000000000E+00 0.  1.
         25    2    1    2    0    0  0.11010934415E+02  0.10305241984E+01  0.98743100887E+03  0.99538418805E+03  0.12508949543E+03 0.  0.
          5    1    3    3  502    0  0.53398693258E+00 -0.55184925022E+02  0.70635019081E+03  0.70851515548E+03  0.41800000000E+01 0.  1.
         -5    1    3    3    0  502  0.10476947482E+02  0.56215449221E+02  0.28108081806E+03  0.28686903256E+03  0.41800000000E+01 0.  1.
        -11    1    1    2    0    0  0.10525027313E+02  0.28178347891E+02  0.28565989181E+02  0.41482661772E+02  0.00000000000E+00 0.  1.
         11    1    1    2    0    0 -0.21535961727E+02 -0.29208872089E+02  0.21850187570E+03  0.22149497859E+03  0.00000000000E+00 0. -1.
</event>
<event>
 7    1  0.2989693E-009  0.1164200E+03  0.7561462E-02  0.1249123E+00
         -2   -1    0    0    0  501 -0.00000000000E+00  0.00000000000E+00  0.28351102480E+02  0.28351102480E+02  0.00000000000E+00 0.  1.
          2   -1    0    0  501    0  0.00000000000E+00 -0.00000000000E+00 -0.58711347986E+03  0.58711347986E+03  0.00000000000E+00 0. -1.
         25    2    1    2    0    0  0.58638643068E+02  0.99172591572E+00 -0.39508071680E+03  0.41853959739E+03  0.12508855989E+03 0.  0.
          5    1    3    3  502    0  0.41101335617E+02  0.61186585079E+02 -0.24363701234E+03  0.25457726560E+03  0.41800000000E+01 0. -1.
         -5    1    3    3    0  502  0.17537307451E+02 -0.60194859163E+02 -0.15144370446E+03  0.16396233178E+03  0.41800000000E+01 0. -1.
        -11    1    1    2    0    0  0.11781907609E+02 -0.20019608608E+02 -0.72712103570E+01  0.24340677389E+02  0.00000000000E+00 0.  1.
         11    1    1    2    0    0 -0.70420550677E+02  0.19027882692E+02 -0.15641045022E+03  0.17258430756E+03  0.00000000000E+00 0. -1.
</event>
<event>
 7    1  0.2989693E-009  0.2118103E+03  0.7561462E-02  0.1140140E+00
          2   -1    0    0  501    0  0.00000000000E+00  0.00000000000E+00  0.11687038814E+03  0.11687038814E+03  0.00000000000E+00 0. -1.
         -2   -1    0    0    0  501 -0.00000000000E+00 -0.00000000000E+00 -0.44344937834E+03  0.44344937834E+03  0.00000000000E+00 0.  1.
         25    2    1    2    0    0  0.18998230850E+03 -0.48057954280E+01 -0.98599104257E+02  0.24796318112E+03  0.12509029786E+03 0.  0.
          5    1    3    3  502    0  0.14026195277E+03  0.51720930651E+02 -0.82742177667E+02  0.17091579924E+03  0.41800000000E+01 0.  1.
         -5    1    3    3    0  502  0.49720355724E+02 -0.56526726079E+02 -0.15856926590E+02  0.77047381885E+02  0.41800000000E+01 0.  1.
        -11    1    1    2    0    0 -0.54635243848E+02 -0.24994706195E+02 -0.12821468782E+03  0.14159361349E+03  0.00000000000E+00 0.  1.
         11    1    1    2    0    0 -0.13534706465E+03  0.29800501623E+02 -0.99765198123E+02  0.17076297187E+03  0.00000000000E+00 0. -1.
</event>
<event>
 7    1  0.2989693E-009  0.1243964E+03  0.7561462E-02  0.1236016E+00
          1   -1    0    0  501    0  0.00000000000E+00  0.00000000000E+00  0.46044047494E+03  0.46044047494E+03  0.00000000000E+00 0. -1.
         -1   -1    0    0    0  501 -0.00000000000E+00 -0.00000000000E+00 -0.44433167257E+02  0.44433167257E+02  0.00000000000E+00 0.  1.
         25    2    1    2    0    0  0.19364623185E+02 -0.89955695639E+02  0.19138895825E+03  0.24646471174E+03  0.12509238581E+03 0.  0.
          5    1    3    3  502    0  0.42274605519E+02 -0.74825832636E+01  0.77660149455E+01  0.43828241035E+02  0.41800000000E+01 0.  1.
         -5    1    3    3    0  502 -0.22909982334E+02 -0.82473112375E+02  0.18362294330E+03  0.20263647071E+03  0.41800000000E+01 0.  1.
        -11    1    1    2    0    0  0.25826232240E+02  0.91927650101E+01  0.96781199412E+02  0.10058877552E+03  0.00000000000E+00 0.  1.
         11    1    1    2    0    0 -0.45190855425E+02  0.80762930629E+02  0.12783715003E+03  0.15782015494E+03  0.00000000000E+00 0. -1.
</event>
<event>
 7    1  0.2989693E-009  0.1032668E+03  0.7561462E-02  0.1273573E+00
         -2   -1    0    0    0  501 -0.00000000000E+00  0.00000000000E+00  0.37147802437E+02  0.37147802437E+02  0.00000000000E+00 0. -1.
          2   -1    0    0  501    0  0.00000000000E+00 -0.00000000000E+00 -0.40160525397E+03  0.40160525397E+03  0.00000000000E+00 0.  1.
         25    2    1    2    0    0 -0.55470909173E+02  0.12557537794E+02 -0.22720222834E+03  0.26552184062E+03  0.12508509809E+03 0.  0.
          5    1    3    3  502    0 -0.85489470099E+02  0.24080735764E+02 -0.21163371650E+03  0.22955311737E+03  0.41800000000E+01 0. -1.
         -5    1    3    3    0  502  0.30018560926E+02 -0.11523197970E+02 -0.15568511837E+02  0.35968723251E+02  0.41800000000E+01 0. -1.
        -11    1    1    2    0    0  0.67115971002E+02 -0.21539496427E+02 -0.54286710693E+02  0.88969379157E+02  0.00000000000E+00 0. -1.
         11    1    1    2    0    0 -0.11645061828E+02  0.89819586328E+01 -0.82968512502E+02  0.84261836632E+02  0.00000000000E+00 0.  1.
</event>
<event>
 7    1  0.2989693E-009  0.1250901E+03  0.7561462E-02  0.1234929E+00
          1   -1    0    0  501    0  0.00000000000E+00  0.00000000000E+00  0.99768714084E+03  0.99768714084E+03  0.00000000000E+00 0. -1.
         -1   -1    0    0    0  501 -0.00000000000E+00 -0.00000000000E+00 -0.18208042276E+02  0.18208042276E+02  0.00000000000E+00 0.  1.
         25    2    1    2    0    0 -0.67316272225E+02  0.10314836900E+02  0.37118386326E+03  0.39756934933E+03  0.12508417492E+03 0.  0.
          5    1    3    3  502    0  0.35640774029E+02  0.28251683477E+01  0.63366827129E+02  0.72877112525E+02  0.41800000000E+01 0.  1.
         -5    1    3    3    0  502 -0.10295704625E+03  0.74896685528E+01  0.30781703613E+03  0.32469223680E+03  0.41800000000E+01 0.  1.
        -11    1    1    2    0    0  0.60478629853E+02 -0.45085036695E+02  0.40495439838E+03  0.41192036848E+03  0.00000000000E+00 0.  1.
         11    1    1    2    0    0  0.68376423719E+01  0.34770199794E+02  0.20334083692E+03  0.20640546530E+03  0.00000000000E+00 0. -1.
</event>
<event>
 7    1  0.2989693E-009  0.1348450E+03  0.7561462E-02  0.1220439E+00
         -1   -1    0    0    0  501 -0.00000000000E+00  0.00000000000E+00  0.16647164698E+02  0.16647164698E+02  0.00000000000E+00 0.  1.
          1   -1    0    0  501    0  0.00000000000E+00 -0.00000000000E+00 -0.11807406718E+04  0.11807406718E+04  0.00000000000E+00 0. -1.
         25    2    1    2    0    0  0.81794141339E+02  0.29690525264E+02 -0.55737994497E+03  0.57783359532E+03  0.12508977568E+03 0.  0.
          5    1    3    3  502    0  0.63449655867E+02 -0.38238915242E+02 -0.19452690663E+03  0.20819765434E+03  0.41800000000E+01 0. -1.
         -5    1    3    3    0  502  0.18344485472E+02  0.67929440506E+02 -0.36285303834E+03  0.36963594098E+03  0.41800000000E+01 0. -1.
        -11    1    1    2    0    0 -0.24021206930E+01 -0.44226826070E+02 -0.24154387964E+03  0.24557122820E+03  0.00000000000E+00 0.  1.
         11    1    1    2    0    0 -0.79392020646E+02  0.14536300806E+02 -0.36516968249E+03  0.37398301298E+03  0.00000000000E+00 0. -1.
</event>
<event>
 7    1  0.2989693E-009  0.1226949E+03  0.7561462E-02  0.1238716E+00
         -1   -1    0    0    0  501 -0.00000000000E+00  0.00000000000E+00  0.33293417037E+02  0.33293417037E+02  0.00000000000E+00 0.  1.
          1   -1    0    0  501    0  0.00000000000E+00 -0.00000000000E+00 -0.67687942917E+03  0.67687942917E+03  0.00000000000E+00 0. -1.
         25    2    1    2    0    0 -0.44028862126E+02 -0.43462030494E+02 -0.15288705286E+03  0.20700161971E+03  0.12509089030E+03 0.  0.
          5    1    3    3  502    0 -0.31055881525E+02  0.39383810188E+02 -0.86047924539E+02  0.99685856567E+02  0.41800000000E+01 0.  1.
         -5    1    3    3    0  502 -0.12972980602E+02 -0.82845840681E+02 -0.66839128324E+02  0.10731576314E+03  0.41800000000E+01 0.  1.
        -11    1    1    2    0    0  0.59082875137E+02  0.63043425616E+02 -0.36742107873E+03  0.37744338481E+03  0.00000000000E+00 0.  1.
         11    1    1    2    0    0 -0.15054013010E+02 -0.19581395122E+02 -0.12327788054E+03  0.12572784168E+03  0.00000000000E+00 0. -1.
</event>
<event>
 7    1  0.2989693E-009  0.1027103E+03  0.7561462E-02  0.1274698E+00
         -2   -1    0    0    0  501 -0.00000000000E+00  0.00000000000E+00  0.88737756072E+02  0.88737756072E+02  0.00000000000E+00 0.  1.
          2   -1    0    0  501    0  0.00000000000E+00 -0.00000000000E+00 -0.14239273460E+03  0.14239273460E+03  0.00000000000E+00 0. -1.
         25    2    1    2    0    0 -0.24888035080E+02 -0.14373193893E+02 -0.18754249955E+02  0.12971137868E+03  0.12508923565E+03 0.  0.
          5    1    3    3  502    0  0.56244572265E+01 -0.66802649241E+02 -0.14779096098E+02  0.68775886372E+02  0.41800000000E+01 0.  1.
         -5    1    3    3    0  502 -0.30512492307E+02  0.52429455348E+02 -0.39751538563E+01  0.60935492310E+02  0.41800000000E+01 0.  1.
        -11    1    1    2    0    0 -0.20919615810E+02  0.22719586043E+02 -0.44216713157E+02  0.53934475413E+02  0.00000000000E+00 0. -1.
         11    1    1    2    0    0  0.45807650890E+02 -0.83463921503E+01  0.93159845854E+01  0.47484636577E+02  0.00000000000E+00 0.  1.
</event>
<event>
 7    1  0.2989693E-009  0.9960912E+02  0.7561462E-02  0.1281120E+00
          1   -1    0    0  501    0  0.00000000000E+00  0.00000000000E+00  0.61246661258E+03  0.61246661258E+03  0.00000000000E+00 0. -1.
         -1   -1    0    0    0  501 -0.00000000000E+00 -0.00000000000E+00 -0.20824698002E+02  0.20824698002E+02  0.00000000000E+00 0.  1.
         25    2    1    2    0    0 -0.22344738100E+01  0.29845181124E+02  0.37881444724E+03  0.40005587319E+03  0.12509431854E+03 0.  0.
          5    1    3    3  502    0  0.54241424382E+02  0.93406470423E+01  0.94567851303E+02  0.10949854203E+03  0.41800000000E+01 0.  1.
         -5    1    3    3    0  502 -0.56475898192E+02  0.20504534082E+02  0.28424659593E+03  0.29055733117E+03  0.41800000000E+01 0.  1.
        -11    1    1    2    0    0  0.17220913760E+02 -0.53269331204E+02  0.80725977746E+02  0.98238816161E+02  0.00000000000E+00 0.  1.
         11    1    1    2    0    0 -0.14986439950E+02  0.23424150079E+02  0.13210148959E+03  0.13499662123E+03  0.00000000000E+00 0. -1.
</event>
<event>
 7    1  0.2989693E-009  0.9305976E+02  0.7561462E-02  0.1295607E+00
         -2   -1    0    0    0  501 -0.00000000000E+00  0.00000000000E+00  0.37142396693E+02  0.37142396693E+02  0.00000000000E+00 0.  1.
          2   -1    0    0  501    0  0.00000000000E+00 -0.00000000000E+00 -0.50101748681E+03  0.50101748681E+03  0.00000000000E+00 0. -1.
         25    2    1    2    0    0 -0.77351670738E+02  0.85981775286E+01 -0.32133877024E+03  0.35350228766E+03  0.12509217599E+03 0.  0.
          5    1    3    3  502    0 -0.35943919174E+02 -0.30419148274E+02 -0.28588615387E+02  0.55245554002E+02  0.41800000000E+01 0.  1.
         -5    1    3    3    0  502 -0.41407751564E+02  0.39017325802E+02 -0.29275015486E+03  0.29825673366E+03  0.41800000000E+01 0.  1.
        -11    1    1    2    0    0  0.76460151233E+01  0.70030794493E+01  0.11123615321E+02  0.15206560652E+02  0.00000000000E+00 0.  1.
         11    1    1    2    0    0  0.69705655614E+02 -0.15601256978E+02 -0.15365993520E+03  0.16945103520E+03  0.00000000000E+00 0. -1.
</event>
<event>
 7    1  0.2989693E-009  0.1164446E+03  0.7561462E-02  0.1249080E+00
         -1   -1    0    0    0  501 -0.00000000000E+00  0.00000000000E+00  0.62977270746E+02  0.62977270746E+02  0.00000000000E+00 0.  1.
          1   -1    0    0  501    0  0.00000000000E+00 -0.00000000000E+00 -0.69820571831E+03  0.69820571831E+03  0.00000000000E+00 0. -1.
         25    2    1    2    0    0 -0.22477276487E+02  0.64672383616E+02 -0.63133195446E+03  0.64723560626E+03  0.12508456389E+03 0.  0.
          5    1    3    3  502    0 -0.18051878757E+02 -0.24378091574E+02 -0.36628518789E+03  0.36756288297E+03  0.41800000000E+01 0.  1.
         -5    1    3    3    0  502 -0.44253977294E+01  0.89050475190E+02 -0.26504676658E+03  0.27967272329E+03  0.41800000000E+01 0.  1.
        -11    1    1    2    0    0 -0.33830870658E+02 -0.37445593669E+02  0.52488582269E+01  0.50737075275E+02  0.00000000000E+00 0.  1.
         11    1    1    2    0    0  0.56308147145E+02 -0.27226789947E+02 -0.91453513239E+01  0.63210307518E+02  0.00000000000E+00 0. -1.
</event>
<event>
 7    1  0.2989693E-009  0.1494220E+03  0.7561462E-02  0.1201185E+00
          1   -1    0    0  501    0  0.00000000000E+00  0.00000000000E+00  0.33930109831E+04  0.33930109831E+04  0.00000000000E+00 0. -1.
         -1   -1    0    0    0  501 -0.00000000000E+00 -0.00000000000E+00 -0.94315147330E+01  0.94315147330E+01  0.00000000000E+00 0.  1.
         25    2    1    2    0    0  0.16573766019E+02  0.11052278327E+03  0.26052920700E+04  0.26106865089E+04  0.12508917853E+03 0.  0.
          5    1    3    3  502    0 -0.12587558574E+02 -0.17914194433E+02  0.91294396109E+03  0.91321602783E+03  0.41800000000E+01 0. -1.
         -5    1    3    3    0  502  0.29161324593E+02  0.12843697770E+03  0.16923481089E+04  0.16974704811E+04  0.41800000000E+01 0. -1.
        -11    1    1    2    0    0  0.22093818122E+02 -0.10305906427E+03  0.59798388939E+03  0.60720181118E+03  0.00000000000E+00 0. -1.
         11    1    1    2    0    0 -0.38667584141E+02 -0.74637190016E+01  0.18030350897E+03  0.18455417771E+03  0.00000000000E+00 0.  1.
</event>
<event>
 7    1  0.2989693E-009  0.1157176E+03  0.7561462E-02  0.1250334E+00
         -2   -1    0    0    0  501 -0.00000000000E+00  0.00000000000E+00  0.24885801390E+03  0.24885801390E+03  0.00000000000E+00 0.  1.
          2   -1    0    0  501    0  0.00000000000E+00 -0.00000000000E+00 -0.64981741149E+02  0.64981741149E+02  0.00000000000E+00 0. -1.
         25    2    1    2    0    0  0.46832960478E+02  0.45250740749E+02  0.95970717312E+02  0.17058513660E+03  0.12509178439E+03 0.  0.
          5    1    3    3  502    0  0.50085129871E+02 -0.20802121016E+02  0.88528235582E+02  0.10390365426E+03  0.41800000000E+01 0. -1.
         -5    1    3    3    0  502 -0.32521693932E+01  0.66052861765E+02  0.74424817300E+01  0.66681482343E+02  0.41800000000E+01 0. -1.
        -11    1    1    2    0    0  0.27052890516E+02 -0.92868357138E+01  0.10810370167E+02  0.30577251446E+02  0.00000000000E+00 0. -1.
         11    1    1    2    0    0 -0.73885850994E+02 -0.35963905035E+02  0.77095185274E+02  0.11267736700E+03  0.00000000000E+00 0.  1.
</event>
<event>
 7    1  0.2989693E-009  0.1750940E+03  0.7561462E-02  0.1172637E+00
          1   -1    0    0  501    0  0.00000000000E+00  0.00000000000E+00  0.37487660236E+02  0.37487660236E+02  0.00000000000E+00 0. -1.
         -1   -1    0    0    0  501 -0.00000000000E+00 -0.00000000000E+00 -0.12652670234E+04  0.12652670234E+04  0.00000000000E+00 0.  1.
         25    2    1    2    0    0  0.87026318250E+02  0.12920924278E+03 -0.94355063957E+03  0.96447052295E+03  0.12508785598E+03 0.  0.
          5    1    3    3  502    0  0.10456757231E+03  0.12800826395E+03 -0.66182743787E+03  0.68216825105E+03  0.41800000000E+01 0.  1.
         -5    1    3    3    0  502 -0.17541254059E+02  0.12009788256E+01 -0.28172320169E+03  0.28230227189E+03  0.41800000000E+01 0.  1.
        -11    1    1    2    0    0  0.92053149596E+01 -0.10743874394E+02  0.16203141258E+01  0.14240578583E+02  0.00000000000E+00 0.  1.
         11    1    1    2    0    0 -0.96231633209E+02 -0.11846536838E+03 -0.28584903768E+03  0.32404358206E+03  0.00000000000E+00 0. -1.
</event>
<event>
 7    1  0.2989693E-009  0.8913758E+02  0.7561462E-02  0.1304954E+00
          3   -1    0    0  501    0  0.00000000000E+00  0.00000000000E+00  0.71723492127E+02  0.71723492127E+02  0.00000000000E+00 0. -1.
         -3   -1    0    0    0  501 -0.00000000000E+00 -0.00000000000E+00 -0.20063345191E+03  0.20063345191E+03  0.00000000000E+00 0.  1.
         25    2    1    2    0    0 -0.33286824332E+02  0.26796561505E+02 -0.38659678469E+02  0.13773958788E+03  0.12510617469E+03 0.  0.
          5    1    3    3  502    0 -0.41095306797E+02  0.73690507092E+02 -0.25030790177E+02  0.88108614409E+02  0.41800000000E+01 0. -1.
         -5    1    3    3    0  502  0.78084824645E+01 -0.46893945587E+02 -0.13628888292E+02  0.49630973466E+02  0.41800000000E+01 0. -1.
        -11    1    1    2    0    0  0.12408486422E+02 -0.21023121007E+02 -0.10539568660E+03  0.10818591825E+03  0.00000000000E+00 0.  1.
         11    1    1    2    0    0  0.20878337910E+02 -0.57734404983E+01  0.15145405288E+02  0.26431437918E+02  0.00000000000E+00 0. -1.
</event>
<event>
 6    1  0.2989693E-009  0.1759061E+03  0.7561462E-02  0.1171825E+00
          2   -1    0    0  501    0  0.00000000000E+00  0.00000000000E+00  0.15039445443E+03  0.15039445443E+03  0.00000000000E+00 0. -1.
         -2   -1    0    0    0  501 -0.00000000000E+00 -0.00000000000E+00 -0.26608902472E+03  0.26608902472E+03  0.00000000000E+00 0.  1.
          5    1    1    2  502    0  0.27015736908E+02  0.23970946617E+02  0.42131032417E+02  0.55650270574E+02  0.41800000000E+01 0.  1.
         -5    1    1    2    0  502  0.13102989169E+03 -0.60135992736E+02 -0.37613427035E+02  0.14905506510E+03  0.41800000000E+01 0.  1.
        -11    1    1    2    0    0 -0.64208548315E+02  0.42776554645E+02 -0.74260351450E+02  0.10708487802E+03  0.00000000000E+00 0. -1.
         11    1    1    2    0    0 -0.93837080283E+02 -0.66115085262E+01 -0.45951824222E+02  0.10469326545E+03  0.00000000000E+00 0.  1.
</event>
<event>
 7    1  0.2989693E-009  0.1041753E+03  0.7561462E-02  0.1271753E+00
         -1   -1    0    0    0  501 -0.00000000000E+00  0.00000000000E+00  0.13145900112E+03  0.13145900112E+03  0.00000000000E+00 0.  1.
          1   -1    0    0  501    0  0.00000000000E+00 -0.00000000000E+00 -0.95954564265E+02  0.95954564265E+02  0.00000000000E+00 0. -1.
         25    2    1    2    0    0  0.80810821730E+01  0.28884702040E+02  0.87950765358E+01  0.12893170757E+03  0.12508557848E+03 0.  0.
          5    1    3    3  502    0 -0.54014269905E+02  0.12286722081E+02 -0.19094723424E+02  0.58741686693E+02  0.41800000000E+01 0.  1.
         -5    1    3    3    0  502  0.62095352078E+02  0.16597979958E+02  0.27889799960E+02  0.70190020874E+02  0.41800000000E+01 0.  1.
        -11    1    1    2    0    0 -0.45047353439E+02 -0.24170434587E+02 -0.24243661010E+01  0.51179600536E+02  0.00000000000E+00 0. -1.
         11    1    1    2    0    0  0.36966271266E+02 -0.47142674527E+01  0.29133726423E+02  0.47302257284E+02  0.00000000000E+00 0.  1.
</event>
<event>
 7    1  0.2989693E-009  0.1618875E+03  0.7561462E-02  0.1186582E+00
          1   -1    0    0  501    0  0.00000000000E+00  0.00000000000E+00  0.12758902936E+04  0.12758902936E+04  0.00000000000E+00 0. -1.
         -1   -1    0    0    0  501 -0.00000000000E+00 -0.00000000000E+00 -0.26666008673E+02  0.26666008673E+02  0.00000000000E+00 0.  1.
         25    2    1    2    0    0  0.13513401781E+03 -0.71236162979E+02  0.64660340557E+03  0.67607655544E+03  0.12509097107E+03 0.  0.
          5    1    3    3  502    0  0.89909735995E+02 -0.52719019871E+02  0.59799085028E+03  0.60702025098E+03  0.41800000000E+01 0.  1.
         -5    1    3    3    0  502  0.45224281814E+02 -0.18517143108E+02  0.48612555293E+02  0.69056304466E+02  0.41800000000E+01 0.  1.
        -11    1    1    2    0    0 -0.75586948543E+02  0.80193231708E+02  0.41824242003E+03  0.43251712465E+03  0.00000000000E+00 0.  1.
         11    1    1    2    0    0 -0.59547069265E+02 -0.89570687290E+01  0.18437845930E+03  0.19396262216E+03  0.00000000000E+00 0. -1.
</event>
<event>
 7    1  0.2989693E-009  0.1279597E+03  0.7561462E-02  0.1230515E+00
          2   -1    0    0  501    0  0.00000000000E+00  0.00000000000E+00  0.10840160831E+04  0.10840160831E+04  0.00000000000E+00 0. -1.
         -2   -1    0    0    0  501 -0.00000000000E+00 -0.00000000000E+00 -0.19321465629E+02  0.19321465629E+02  0.00000000000E+00 0.  1.
         25    2    1    2    0    0  0.87346116198E+02 -0.32658568076E+02  0.64709568039E+03  0.66564025299E+03  0.12509276853E+03 0.  0.
          5    1    3    3  502    0  0.35881318691E+02 -0.60678945019E+02  0.52948567407E+03  0.53417408664E+03  0.41800000000E+01 0. -1.
         -5    1    3    3    0  502  0.51464797508E+02  0.28020376943E+02  0.11761000632E+03  0.13146616635E+03  0.41800000000E+01 0. -1.
        -11    1    1    2    0    0 -0.42445497685E+02  0.60364616171E+02  0.18467849659E+03  0.19887597709E+03  0.00000000000E+00 0.  1.
         11    1    1    2    0    0 -0.44900618513E+02 -0.27706048095E+02  0.23292044045E+03  0.23882131861E+03  0.00000000000E+00 0. -1.
</event>
<event>
 7    1  0.2989693E-009  0.1872113E+03  0.7561462E-02  0.1161001E+00
         -2   -1    0    0    0  501 -0.00000000000E+00  0.00000000000E+00  0.18397532777E+03  0.18397532777E+03  0.00000000000E+00 0.  1.
          2   -1    0    0  501    0  0.00000000000E+00 -0.00000000000E+00 -0.26027139634E+03  0.26027139634E+03  0.00000000000E+00 0. -1.
         25    2    1    2    0    0  0.10443131665E+03 -0.13410840219E+03  0.44284428560E+02  0.21563701399E+03  0.12508895936E+03 0.  0.
          5    1    3    3  502    0  0.67823991940E+01 -0.54183535559E+02  0.67855147404E+02  0.87198909934E+02  0.41800000000E+01 0. -1.
         -5    1    3    3    0  502  0.97648917453E+02 -0.79924866634E+02 -0.23570718843E+02  0.12843810405E+03  0.41800000000E+01 0. -1.
        -11    1    1    2    0    0 -0.83326830642E+02  0.32204931437E+02 -0.66222689211E+02  0.11120235105E+03  0.00000000000E+00 0. -1.
         11    1    1    2    0    0 -0.21104486005E+02  0.10190347076E+03 -0.54357807919E+02  0.11740735907E+03  0.00000000000E+00 0.  1.
</event>
<event>
 7    1  0.2989693E-009  0.9857199E+02  0.7561462E-02  0.1283328E+00
          3   -1    0    0  501    0  0.00000000000E+00  0.00000000000E+00  0.31147091476E+03  0.31147091476E+03  0.00000000000E+00 0. -1.
         -3   -1    0    0    0  501 -0.00000000000E+00 -0.00000000000E+00 -0.44666011005E+02  0.44666011005E+02  0.00000000000E+00 0.  1.
         25    2    1    2    0    0  0.41878001167E+02 -0.28361447096E+02  0.16469802831E+03  0.21289431074E+03  0.12506161821E+03 0.  0.
          5    1    3    3  502    0 -0.67932728124E+01  0.44063005407E+02  0.77228515631E+02  0.89271568976E+02  0.41800000000E+01 0. -1.
         -5    1    3    3    0  502  0.48671273979E+02 -0.72424452502E+02  0.87469512684E+02  0.12362274176E+03  0.41800000000E+01 0. -1.
        -11    1    1    2    0    0 -0.40365321684E+02  0.39621437880E+01  0.24522649675E+01  0.40633377678E+02  0.00000000000E+00 0.  1.
         11    1    1    2    0    0 -0.15126794829E+01  0.24399303308E+02  0.99654610468E+02  0.10260923735E+03  0.00000000000E+00 0. -1.
</event>
<event>
 7    1  0.2989693E-009  0.1059078E+03  0.7561462E-02  0.1268341E+00
         -1   -1    0    0    0  501 -0.00000000000E+00  0.00000000000E+00  0.46924954241E+02  0.46924954241E+02  0.00000000000E+00 0.  1.
          1   -1    0    0  501    0  0.00000000000E+00 -0.00000000000E+00 -0.28025522221E+03  0.28025522221E+03  0.00000000000E+00 0. -1.
         25    2    1    2    0    0  0.16226947388E+02 -0.23555265917E+02 -0.16969710534E+03  0.21275014514E+03  0.12508937733E+03 0.  0.
          5    1    3    3  502    0  0.59756325752E+02 -0.47568337001E+02 -0.84160731835E+02  0.11372803672E+03  0.41800000000E+01 0. -1.
         -5    1    3    3    0  502 -0.43529378364E+02  0.24013071084E+02 -0.85536373506E+02  0.99022108421E+02  0.41800000000E+01 0. -1.
        -11    1    1    2    0    0  0.26205975167E+02  0.32823170884E+02 -0.56521045458E+02  0.70418337533E+02  0.00000000000E+00 0. -1.
         11    1    1    2    0    0 -0.42432922554E+02 -0.92679049670E+01 -0.71121171731E+01  0.44011693783E+02  0.00000000000E+00 0.  1.
</event>
<event>
 7    1  0.2989693E-009  0.1110464E+03  0.7561462E-02  0.1258644E+00
         -2   -1    0    0    0  501 -0.00000000000E+00  0.00000000000E+00  0.70875408575E+02  0.70875408575E+02  0.00000000000E+00 0.  1.
          2   -1    0    0  501    0  0.00000000000E+00 -0.00000000000E+00 -0.38871697772E+03  0.38871697772E+03  0.00000000000E+00 0. -1.
         25    2    1    2    0    0 -0.75695709608E+02  0.44576045157E+02 -0.29252511059E+03  0.33005254707E+03  0.12508748637E+03 0.  0.
          5    1    3    3  502    0 -0.36884907152E+02  0.14820469669E+01 -0.59327387925E+01  0.37621305511E+02  0.41800000000E+01 0.  1.
         -5    1    3    3    0  502 -0.38810802456E+02  0.43093998190E+02 -0.28659237179E+03  0.29243124156E+03  0.41800000000E+01 0.  1.
        -11    1    1    2    0    0  0.37229985191E+02  0.26692977608E+02 -0.13020486995E+02  0.47624782756E+02  0.00000000000E+00 0. -1.
         11    1    1    2    0    0  0.38465724416E+02 -0.71269022765E+02 -0.12295971569E+02  0.81915056477E+02  0.00000000000E+00 0.  1.
</event>
<event>
 7    1  0.2989693E-009  0.4554681E+03  0.7561462E-02  0.1026104E+00
         -2   -1    0    0    0  501 -0.00000000000E+00  0.00000000000E+00  0.12771217744E+03  0.12771217744E+03  0.00000000000E+00 0. -1.
          2   -1    0    0  501    0  0.00000000000E+00 -0.00000000000E+00 -0.17073809720E+04  0.17073809720E+04  0.00000000000E+00 0.  1.
         25    2    1    2    0    0  0.17304297547E+02 -0.45265904820E+03 -0.74457123546E+03  0.88047397185E+03  0.12509371607E+03 0.  0.
          5    1    3    3  502    0  0.15944839184E+02 -0.20083618257E+03 -0.44901725891E+03  0.49216194624E+03  0.41800000000E+01 0. -1.
         -5    1    3    3    0  502  0.13594583624E+01 -0.25182286563E+03 -0.29555397655E+03  0.38831202561E+03  0.41800000000E+01 0. -1.
        -11    1    1    2    0    0 -0.40027285134E+02  0.20548919925E+03 -0.45217235905E+03  0.49828489526E+03  0.00000000000E+00 0. -1.
         11    1    1    2    0    0  0.22722987588E+02  0.24716984895E+03 -0.38292520009E+03  0.45633428236E+03  0.00000000000E+00 0.  1.
</event>
<event>
 7    1  0.2989693E-009  0.1686033E+03  0.7561462E-02  0.1179312E+00
          2   -1    0    0  501    0  0.00000000000E+00  0.00000000000E+00  0.15839091037E+04  0.15839091037E+04  0.00000000000E+00 0. -1.
         -2   -1    0    0    0  501 -0.00000000000E+00 -0.00000000000E+00 -0.23893557118E+02  0.23893557118E+02  0.00000000000E+00 0.  1.
         25    2    1    2    0    0 -0.63312426133E+02  0.14721401115E+03  0.89134225277E+03  0.91423128395E+03  0.12508957027E+03 0.  0.
          5    1    3    3  502    0 -0.30557014378E+02  0.62094533651E+01  0.41918075194E+03  0.42035968365E+03  0.41800000000E+01 0.  1.
         -5    1    3    3    0  502 -0.32755411755E+02  0.14100455779E+03  0.47216150083E+03  0.49387160030E+03  0.41800000000E+01 0.  1.
        -11    1    1    2    0    0  0.50566793280E+02 -0.13014958443E+03  0.65126129822E+03  0.66606095327E+03  0.00000000000E+00 0. -1.
         11    1    1    2    0    0  0.12745632853E+02 -0.17064426724E+02  0.17411995587E+02  0.27510423598E+02  0.00000000000E+00 0.  1.
</event>
<event>
 7    1  0.3880644E-009  0.1272741E+03  0.7561462E-02  0.1231557E+00
         -2   -1    0    0    0  501 -0.00000000000E+00  0.00000000000E+00  0.26064522055E+02  0.26064522055E+02  0.00000000000E+00 0.  1.
          2   -1    0    0  501    0  0.00000000000E+00 -0.00000000000E+00 -0.10230344418E+04  0.10230344418E+04  0.00000000000E+00 0. -1.
         25    2    1    2    0    0  0.19235001204E+02 -0.11977871224E+03 -0.51317934925E+03  0.54195910291E+03  0.12509875920E+03 0.  0.
          5    1    3    3  502    0  0.25354861737E+01 -0.23988415280E+02 -0.55744026043E+01  0.25108148521E+02  0.41800000000E+01 0.  1.
         -5    1    3    3    0  502  0.16699515031E+02 -0.95790296961E+02 -0.50760494665E+03  0.51685095439E+03  0.41800000000E+01 0.  1.
        -11    1    1    2    0    0 -0.38143152764E+02  0.75252949358E+02 -0.41215095299E+03  0.42069741447E+03  0.00000000000E+00 0. -1.
         11    1    1    2    0    0  0.18908151559E+02  0.44525762883E+02 -0.71639617477E+02  0.86442446448E+02  0.00000000000E+00 0.  1.
</event>
<event>
 7    1  0.2989693E-009  0.9554494E+02  0.7561462E-02  0.1289953E+00
          2   -1    0    0  501    0  0.00000000000E+00  0.00000000000E+00  0.13994499109E+03  0.13994499109E+03  0.00000000000E+00 0. -1.
         -2   -1    0    0    0  501 -0.00000000000E+00 -0.00000000000E+00 -0.10912470034E+03  0.10912470034E+03  0.00000000000E+00 0.  1.
         25    2    1    2    0    0 -0.53810817215E+02  0.13996358711E+02 -0.66020454663E+01  0.13705274339E+03  0.12509342653E+03 0.  0.
          5    1    3    3  502    0 -0.25191727601E+02  0.60526203566E+02  0.28900628098E+02  0.71768817477E+02  0.41800000000E+01 0.  1.
         -5    1    3    3    0  502 -0.28619089615E+02 -0.46529844855E+02 -0.35502673565E+02  0.65283925915E+02  0.41800000000E+01 0.  1.
        -11    1    1    2    0    0  0.54392975360E+01  0.13791841386E+02 -0.24522249616E+02  0.28655567918E+02  0.00000000000E+00 0.  1.
         11    1    1    2    0    0  0.48371519679E+02 -0.27788200097E+02  0.61944585835E+02  0.83361380117E+02  0.00000000000E+00 0. -1.
</event>
<event>
 7    1  0.2989693E-009  0.1300222E+03  0.7561462E-02  0.1227423E+00
          2   -1    0    0  501    0  0.00000000000E+00  0.00000000000E+00  0.50080992660E+02  0.50080992660E+02  0.00000000000E+00 0.  1.
         -2   -1    0    0    0  501 -0.00000000000E+00 -0.00000000000E+00 -0.42960890896E+03  0.42960890896E+03  0.00000000000E+00 0. -1.
         25    2    1    2    0    0  0.63320900248E+02  0.64735620875E+02 -0.26691666407E+03  0.30837213796E+03  0.12509449585E+03 0.  0.
          5    1    3    3  502    0  0.23889709259E+02 -0.34969350833E+02 -0.45347636246E+02  0.62188859286E+02  0.41800000000E+01 0.  1.
         -5    1    3    3    0  502  0.39431190989E+02  0.99704971708E+02 -0.22156902783E+03  0.24618327867E+03  0.41800000000E+01 0.  1.
        -11    1    1    2    0    0 -0.60379547883E+01 -0.50900934111E+02 -0.88875732224E+01  0.52022600369E+02  0.00000000000E+00 0.  1.
         11    1    1    2    0    0 -0.57282945460E+02 -0.13834686763E+02 -0.10372367900E+03  0.11929516329E+03  0.00000000000E+00 0. -1.
</event>
<event>
 7    1  0.2989693E-009  0.8762844E+02  0.7561462E-02  0.1308699E+00
          1   -1    0    0  501    0  0.00000000000E+00  0.00000000000E+00  0.52349187245E+03  0.52349187245E+03  0.00000000000E+00 0.  1.
         -1   -1    0    0    0  501 -0.00000000000E+00 -0.00000000000E+00 -0.25725222495E+02  0.25725222495E+02  0.00000000000E+00 0. -1.
         25    2    1    2    0    0  0.13361447963E+02 -0.20687050584E+02  0.35901718575E+03  0.38098136692E+03  0.12508788879E+03 0.  0.
          5    1    3    3  502    0  0.41913615264E+02 -0.46423316752E+02  0.31988443445E+03  0.32596840228E+03  0.41800000000E+01 0.  1.
         -5    1    3    3    0  502 -0.28552167301E+02  0.25736266168E+02  0.39132751295E+02  0.55012964634E+02  0.41800000000E+01 0.  1.
        -11    1    1    2    0    0  0.23781355591E+02 -0.99300393323E+01  0.10819508858E+03  0.11122201108E+03  0.00000000000E+00 0. -1.
         11    1    1    2    0    0 -0.37142803553E+02  0.30617089916E+02  0.30554375628E+02  0.57013716953E+02  0.00000000000E+00 0.  1.
</event>
<event>
 7    1  0.3819338E-009  0.1385018E+03  0.7561462E-02  0.1215359E+00
         -1   -1    0    0    0  501 -0.00000000000E+00  0.00000000000E+00  0.10132960439E+03  0.10132960439E+03  0.00000000000E+00 0.  1.
          1   -1    0    0  501    0  0.00000000000E+00 -0.00000000000E+00 -0.35376617300E+03  0.35376617300E+03  0.00000000000E+00 0. -1.
         25    2    1    2    0    0 -0.34246133372E+02  0.11143509233E+03 -0.25524180908E+03  0.30722303963E+03  0.12508811904E+03 0.  0.
          5    1    3    3  502    0 -0.49207123887E+02  0.12826818206E+03 -0.24739284427E+03  0.28301017538E+03  0.41800000000E+01 0.  1.
         -5    1    3    3    0  502  0.14960990515E+02 -0.16833089726E+02 -0.78489648092E+01  0.24212864256E+02  0.41800000000E+01 0.  1.
        -11    1    1    2    0    0  0.16281157677E+02 -0.59986081253E+02  0.46824274116E+02  0.77819783384E+02  0.00000000000E+00 0. -1.
         11    1    1    2    0    0  0.17964975695E+02 -0.51449011081E+02 -0.44019033643E+02  0.70052954369E+02  0.00000000000E+00 0.  1.
</event>
<event>
 7    1  0.2989693E-009  0.8714811E+02  0.7561462E-02  0.1309909E+00
         -1   -1    0    0    0  501 -0.00000000000E+00  0.00000000000E+00  0.25850791976E+02  0.25850791976E+02  0.00000000000E+00 0.  1.
          1   -1    0    0  501    0  0.00000000000E+00 -0.00000000000E+00 -0.88574138584E+03  0.88574138584E+03  0.00000000000E+00 0. -1.
         25    2    1    2    0    0  0.67488887151E+02  0.77917582276E+01 -0.71143330040E+03  0.72553533160E+03  0.12509482445E+03 0.  0.
          5    1    3    3  502    0  0.11381584761E+02 -0.32388107592E+02 -0.51768113539E+02  0.62257047509E+02  0.41800000000E+01 0.  1.
         -5    1    3    3    0  502  0.56107302390E+02  0.40179865820E+02 -0.65966518686E+03  0.66327828409E+03  0.41800000000E+01 0.  1.
        -11    1    1    2    0    0 -0.23759959506E+02  0.63911287671E+01  0.56448771386E+01  0.25243748544E+02  0.00000000000E+00 0.  1.
         11    1    1    2    0    0 -0.43728927644E+02 -0.14182886995E+02 -0.15410217060E+03  0.16081309767E+03  0.00000000000E+00 0. -1.
</event>
<event>
 7    1  0.2989693E-009  0.1054059E+03  0.7561462E-02  0.1269322E+00
          1   -1    0    0  501    0  0.00000000000E+00  0.00000000000E+00  0.39696899920E+02  0.39696899920E+02  0.00000000000E+00 0. -1.
         -1   -1    0    0    0  501 -0.00000000000E+00 -0.00000000000E+00 -0.40099012189E+03  0.40099012189E+03  0.00000000000E+00 0.  1.
         25    2    1    2    0    0 -0.36488195898E+02 -0.54350303653E+02 -0.21499640350E+03  0.25720906408E+03  0.12509078775E+03 0.  0.
          5    1    3    3  502    0 -0.18399205978E+01  0.34817511642E+02 -0.10827627170E+03  0.11382823831E+03  0.41800000000E+01 0. -1.
         -5    1    3    3    0  502 -0.34648275300E+02 -0.89167815295E+02 -0.10672013181E+03  0.14338082577E+03  0.41800000000E+01 0. -1.
        -11    1    1    2    0    0 -0.36952089887E+01  0.35261957022E+02 -0.55737106349E+01  0.35890478302E+02  0.00000000000E+00 0. -1.
         11    1    1    2    0    0  0.40183404887E+02  0.19088346631E+02 -0.14072310783E+03  0.14758747942E+03  0.00000000000E+00 0.  1.
</event>
<event>
 7    1  0.2989693E-009  0.9648409E+02  0.7561462E-02  0.1287868E+00
          1   -1    0    0  501    0  0.00000000000E+00  0.00000000000E+00  0.27463507437E+03  0.27463507437E+03  0.00000000000E+00 0. -1.
         -1   -1    0    0    0  501 -0.00000000000E+00 -0.00000000000E+00 -0.74731657302E+02  0.74731657302E+02  0.00000000000E+00 0.  1.
         25    2    1    2    0    0  0.66739692010E+02 -0.63931377755E+02  0.12427489415E+03  0.19908087549E+03  0.12509011999E+03 0.  0.
          5    1    3    3  502    0  0.88239783507E+00  0.20810358977E+01  0.10330549993E+03  0.10341473808E+03  0.41800000000E+01 0. -1.
         -5    1    3    3    0  502  0.65857294175E+02 -0.66012413653E+02  0.20969394214E+02  0.95666137405E+02  0.41800000000E+01 0. -1.
        -11    1    1    2    0    0 -0.53598689214E+02  0.37674495513E+02  0.94788231063E+02  0.11522584712E+03  0.00000000000E+00 0. -1.
         11    1    1    2    0    0 -0.13141002796E+02  0.26256882243E+02 -0.19159708137E+02  0.35060009063E+02  0.00000000000E+00 0.  1.
</event>
<event>
 7    1  0.2989693E-009  0.2600426E+03  0.7561462E-02  0.1107118E+00
          2   -1    0    0  501    0  0.00000000000E+00  0.00000000000E+00  0.63365932799E+03  0.63365932799E+03  0.00000000000E+00 0.  1.
         -2   -1    0    0    0  501 -0.00000000000E+00 -0.00000000000E+00 -0.11606579451E+03  0.11606579451E+03  0.00000000000E+00 0. -1.
         25    2    1    2    0    0 -0.20029852043E+03 -0.14191221152E+03  0.22622222192E+03  0.35648586049E+03  0.12508837664E+03 0.  0.
          5    1    3    3  502    0 -0.28445341791E+02  0.15098720021E+02  0.66926698014E+02  0.74389274246E+02  0.41800000000E+01 0. -1.
         -5    1    3    3    0  502 -0.17185317864E+03 -0.15701093154E+03  0.15929552391E+03  0.28209658624E+03  0.41800000000E+01 0. -1.
        -11    1    1    2    0    0  0.16309859413E+03  0.77874878699E+02  0.24974970313E+03  0.30828649396E+03  0.00000000000E+00 0.  1.
         11    1    1    2    0    0  0.37199926297E+02  0.64037332823E+02  0.41621608427E+02  0.84952768052E+02  0.00000000000E+00 0. -1.
</event>
<event>
 7    1  0.2989693E-009  0.1880144E+03  0.7561462E-02  0.1160265E+00
         -1   -1    0    0    0  501 -0.00000000000E+00  0.00000000000E+00  0.79441861384E+02  0.79441861384E+02  0.00000000000E+00 0.  1.
          1   -1    0    0  501    0  0.00000000000E+00 -0.00000000000E+00 -0.53495029243E+03  0.53495029243E+03  0.00000000000E+00 0. -1.
         25    2    1    2    0    0 -0.14527842083E+02  0.16597048603E+03 -0.33052641824E+03  0.39070396327E+03  0.12507842870E+03 0.  0.
          5    1    3    3  502    0 -0.41937068940E+02  0.17078113300E+03 -0.30785929855E+03  0.35456978615E+03  0.41800000000E+01 0.  1.
         -5    1    3    3    0  502  0.27409226857E+02 -0.48106469739E+01 -0.22667119690E+02  0.36134177122E+02  0.41800000000E+01 0.  1.
        -11    1    1    2    0    0 -0.62664529721E+01 -0.13203840429E+03 -0.12770442473E+03  0.18379833714E+03  0.00000000000E+00 0. -1.
         11    1    1    2    0    0  0.20794295056E+02 -0.33932081737E+02  0.27224119254E+01  0.39889853404E+02  0.00000000000E+00 0.  1.
</event>
<event>
 7    1  0.2989693E-009  0.1416763E+03  0.7561462E-02  0.1211091E+00
          1   -1    0    0  501    0  0.00000000000E+00  0.00000000000E+00  0.40027451834E+03  0.40027451834E+03  0.00000000000E+00 0. -1.
         -1   -1    0    0    0  501 -0.00000000000E+00 -0.00000000000E+00 -0.60360412658E+02  0.60360412658E+02  0.00000000000E+00 0.  1.
         25    2    1    2    0    0  0.14577342248E+02  0.10455224965E+03  0.12415057260E+03  0.20543975406E+03  0.12509378904E+03 0.  0.
          5    1    3    3  502    0 -0.45198595264E+02  0.59070935541E+02  0.10332903010E+03  0.12738386593E+03  0.41800000000E+01 0.  1.
         -5    1    3    3    0  502  0.59775937512E+02  0.45481314114E+02  0.20821542500E+02  0.78055888126E+02  0.41800000000E+01 0.  1.
        -11    1    1    2    0    0 -0.36740102390E+02 -0.12289632206E+02  0.87096501160E+02  0.95324030012E+02  0.00000000000E+00 0.  1.
         11    1    1    2    0    0  0.22162760141E+02 -0.92262617449E+02  0.12866703193E+03  0.15987114693E+03  0.00000000000E+00 0. -1.
</event>
<event>
 7    1  0.2989693E-009  0.2517795E+03  0.7561462E-02  0.1112185E+00
         -2   -1    0    0    0  501 -0.00000000000E+00  0.00000000000E+00  0.17021250722E+03  0.17021250722E+03  0.00000000000E+00 0. -1.
          2   -1    0    0  501    0  0.00000000000E+00 -0.00000000000E+00 -0.41328675002E+03  0.41328675002E+03  0.00000000000E+00 0.  1.
         25    2    1    2    0    0  0.11504457586E+03 -0.19214114878E+03 -0.20085906285E+03  0.32579979499E+03  0.12509063834E+03 0.  0.
          5    1    3    3  502    0  0.14725170156E+02 -0.14462005523E+03 -0.11284480225E+03  0.18407393298E+03  0.41800000000E+01 0. -1.
         -5    1    3    3    0  502  0.10031940570E+03 -0.47521093555E+02 -0.88014260602E+02  0.14172586201E+03  0.41800000000E+01 0. -1.
        -11    1    1    2    0    0  0.20106079878E+02  0.26539200629E+02  0.14857228706E+02  0.36459852755E+02  0.00000000000E+00 0.  1.
         11    1    1    2    0    0 -0.13515065573E+03  0.16560194816E+03 -0.57072408666E+02  0.22123960949E+03  0.00000000000E+00 0. -1.
</event>
<event>
 7    1  0.2989693E-009  0.9936666E+02  0.7561462E-02  0.1281633E+00
          3   -1    0    0  501    0  0.00000000000E+00  0.00000000000E+00  0.44538894193E+03  0.44538894193E+03  0.00000000000E+00 0. -1.
         -3   -1    0    0    0  501 -0.00000000000E+00 -0.00000000000E+00 -0.31056801194E+02  0.31056801194E+02  0.00000000000E+00 0.  1.
         25    2    1    2    0    0  0.25993118583E+02 -0.29747538978E+02  0.28601670171E+03  0.31466468247E+03  0.12509096870E+03 0.  0.
          5    1    3    3  502    0  0.58126828443E+02 -0.37984841833E+02  0.80266898370E+02  0.10621592992E+03  0.41800000000E+01 0.  1.
         -5    1    3    3    0  502 -0.32133709860E+02  0.82373028547E+01  0.20574980334E+03  0.20844875256E+03  0.41800000000E+01 0.  1.
        -11    1    1    2    0    0 -0.10815679852E+02 -0.31150200551E+02  0.63549441227E+02  0.71595009640E+02  0.00000000000E+00 0. -1.
         11    1    1    2    0    0 -0.15177438730E+02  0.60897739530E+02  0.64765997797E+02  0.90186051011E+02  0.00000000000E+00 0.  1.
</event>
<event>
 7    1  0.2989693E-009  0.1149492E+03  0.7561462E-02  0.1251670E+00
         -2   -1    0    0    0  501 -0.00000000000E+00  0.00000000000E+00  0.47950060941E+02  0.47950060941E+02  0.00000000000E+00 0.  1.
          2   -1    0    0  501    0  0.00000000000E+00 -0.00000000000E+00 -0.52530923587E+03  0.52530923587E+03  0.00000000000E+00 0. -1.
         25    2    1    2    0    0 -0.63671687861E+02  0.50049537820E+02 -0.40489638960E+03  0.43144476815E+03  0.12507782213E+03 0.  0.
          5    1    3    3  502    0  0.32387007591E+02  0.39024941555E+02 -0.11316120008E+03  0.12407575882E+03  0.41800000000E+01 0. -1.
         -5    1    3    3    0  502 -0.96058695451E+02  0.11024596266E+02 -0.29173518952E+03  0.30736900933E+03  0.41800000000E+01 0. -1.
        -11    1    1    2    0    0  0.25893472676E+02 -0.11742955184E+02 -0.82343086992E+02  0.87113448440E+02  0.00000000000E+00 0. -1.
         11    1    1    2    0    0  0.37778215185E+02 -0.38306582636E+02  0.98803016615E+01  0.54701080215E+02  0.00000000000E+00 0.  1.
</event>
<event>
 7    1  0.2989693E-009  0.1580488E+03  0.7561462E-02  0.1190917E+00
         -1   -1    0    0    0  501 -0.00000000000E+00  0.00000000000E+00  0.52452617259E+02  0.52452617259E+02  0.00000000000E+00 0.  1.
          1   -1    0    0  501    0  0.00000000000E+00 -0.00000000000E+00 -0.51907255025E+03  0.51907255025E+03  0.00000000000E+00 0. -1.
         25    2    1    2    0    0  0.79412057243E+02 -0.88923621541E+02 -0.19018368321E+03  0.25696580369E+03  0.12509158886E+03 0.  0.
          5    1    3    3  502    0  0.83025374997E+02 -0.37158385912E+01 -0.65756677043E+02  0.10605863155E+03  0.41800000000E+01 0. -1.
         -5    1    3    3    0  502 -0.36133177537E+01 -0.85207782950E+02 -0.12442700616E+03  0.15090717214E+03  0.41800000000E+01 0. -1.
        -11    1    1    2    0    0 -0.62368651958E+02  0.57924632593E+01 -0.89258497719E+02  0.10904348120E+03  0.00000000000E+00 0.  1.
         11    1    1    2    0    0 -0.17043405285E+02  0.83131158282E+02 -0.18717775207E+03  0.20551588262E+03  0.00000000000E+00 0. -1.
</event>
<event>
 7    1  0.2989693E-009  0.1094369E+03  0.7561462E-02  0.1261616E+00
         -2   -1    0    0    0  501 -0.00000000000E+00  0.00000000000E+00  0.48917107302E+02  0.48917107302E+02  0.00000000000E+00 0. -1.
          2   -1    0    0  501    0  0.00000000000E+00 -0.00000000000E+00 -0.40116687305E+03  0.40116687305E+03  0.00000000000E+00 0.  1.
         25    2    1    2    0    0 -0.58527846552E+02 -0.27056119774E+02 -0.94953505469E+02  0.16976749559E+03  0.12508913590E+03 0.  0.
          5    1    3    3  502    0 -0.59407245415E+02 -0.60333536378E+02 -0.10480599291E+03  0.13480031517E+03  0.41800000000E+01 0. -1.
         -5    1    3    3    0  502  0.87939886314E+00  0.33277416605E+02  0.98524874386E+01  0.34967180426E+02  0.41800000000E+01 0. -1.
        -11    1    1    2    0    0  0.66986317630E+01  0.45155478296E+02 -0.17874726583E+03  0.18448434603E+03  0.00000000000E+00 0.  1.
         11    1    1    2    0    0  0.51829214789E+02 -0.18099358523E+02 -0.78548994445E+02  0.95832138727E+02  0.00000000000E+00 0. -1.
</event>
<event>
 7    1  0.2989693E-009  0.1044682E+03  0.7561462E-02  0.1271171E+00
          2   -1    0    0  501    0  0.00000000000E+00  0.00000000000E+00  0.32727705961E+03  0.32727705961E+03  0.00000000000E+00 0. -1.
         -2   -1    0    0    0  501 -0.00000000000E+00 -0.00000000000E+00 -0.47946532583E+02  0.47946532583E+02  0.00000000000E+00 0.  1.
         25    2    1    2    0    0 -0.33761588181E+01 -0.66183744629E+02  0.18445414839E+03  0.23251303944E+03  0.12508914480E+03 0.  0.
          5    1    3    3  502    0 -0.39713107450E+02 -0.24188230852E+02  0.78578948393E+01  0.47343640823E+02  0.41800000000E+01 0.  1.
         -5    1    3    3    0  502  0.36336948632E+02 -0.41995513777E+02  0.17659625356E+03  0.18516939861E+03  0.41800000000E+01 0.  1.
        -11    1    1    2    0    0  0.43203913072E+02  0.28714174115E+02  0.44067937174E+02  0.68066621678E+02  0.00000000000E+00 0. -1.
         11    1    1    2    0    0 -0.39827754254E+02  0.37469570514E+02  0.50808441458E+02  0.74643931079E+02  0.00000000000E+00 0.  1.
</event>
<event>
 7    1  0.3833829E-009  0.1754087E+03  0.7561462E-02  0.1172322E+00
          1   -1    0    0  501    0  0.00000000000E+00  0.00000000000E+00  0.10484823372E+04  0.10484823372E+04  0.00000000000E+00 0. -1.
         -1   -1    0    0    0  501 -0.00000000000E+00 -0.00000000000E+00 -0.32660104758E+02  0.32660104758E+02  0.00000000000E+00 0.  1.
         25    2    1    2    0    0 -0.48787453396E+02  0.12894198656E+03  0.36621670470E+03  0.41081437557E+03  0.12509006704E+03 0.  0.
          5    1    3    3  502    0  0.42299212269E+02  0.44552103108E+02  0.10992889004E+03  0.12599978776E+03  0.41800000000E+01 0.  1.
         -5    1    3    3    0  502 -0.91086665665E+02  0.84389883451E+02  0.25628781466E+03  0.28481458782E+03  0.41800000000E+01 0.  1.
        -11    1    1    2    0    0  0.73772929431E+02 -0.73256363475E+02  0.38683770162E+03  0.40056503505E+03  0.00000000000E+00 0.  1.
         11    1    1    2    0    0 -0.24985476034E+02 -0.55685623084E+02  0.26276782616E+03  0.26976303137E+03  0.00000000000E+00 0. -1.
</event>
<event>
 7    1  0.2989693E-009  0.1079911E+03  0.7561462E-02  0.1264336E+00
          2   -1    0    0  501    0  0.00000000000E+00  0.00000000000E+00  0.81228543196E+03  0.81228543196E+03  0.00000000000E+00 0. -1.
         -2   -1    0    0    0  501 -0.00000000000E+00 -0.00000000000E+00 -0.16271356713E+02  0.16271356713E+02  0.00000000000E+00 0.  1.
         25    2    1    2    0    0  0.20887068914E+02  0.34630092350E+02  0.46218141013E+03  0.48051555528E+03  0.12509208628E+03 0.  0.
          5    1    3    3  502    0  0.68416950430E+02  0.37740249712E+02  0.34871498444E+03  0.35738609140E+03  0.41800000000E+01 0. -1.
         -5    1    3    3    0  502 -0.47529881516E+02 -0.31101573620E+01  0.11346642569E+03  0.12312946388E+03  0.41800000000E+01 0. -1.
        -11    1    1    2    0    0  0.19850030853E+02 -0.43866813533E+02  0.24742902030E+03  0.25207030991E+03  0.00000000000E+00 0. -1.
         11    1    1    2    0    0 -0.40737099767E+02  0.92367211837E+01  0.86403644819E+02  0.95970923480E+02  0.00000000000E+00 0.  1.
</event>
<event>
 7    1  0.2989693E-009  0.9971526E+02  0.7561462E-02  0.1280896E+00
          2   -1    0    0  501    0  0.00000000000E+00  0.00000000000E+00  0.12840105745E+04  0.12840105745E+04  0.00000000000E+00 0. -1.
         -2   -1    0    0    0  501 -0.00000000000E+00 -0.00000000000E+00 -0.99958476878E+01  0.99958476878E+01  0.00000000000E+00 0.  1.
         25    2    1    2    0    0 -0.13645047214E+01  0.33571107410E+02  0.81879399110E+03  0.82897531515E+03  0.12509033594E+03 0.  0.
          5    1    3    3  502    0  0.34052272972E+02  0.54315945013E+02  0.23193928708E+03  0.24067215142E+03  0.41800000000E+01 0.  1.
         -5    1    3    3    0  502 -0.35416777693E+02 -0.20744837603E+02  0.58685470402E+03  0.58830316373E+03  0.41800000000E+01 0.  1.
        -11    1    1    2    0    0 -0.17369250140E+01  0.30116433080E+02  0.11525496807E+03  0.11913741694E+03  0.00000000000E+00 0.  1.
         11    1    1    2    0    0  0.31014297354E+01 -0.63687540490E+02  0.33996576766E+03  0.34589369011E+03  0.00000000000E+00 0. -1.
</event>
<event>
 7    1  0.2989693E-009  0.8262542E+02  0.7561462E-02  0.1321762E+00
         -3   -1    0    0    0  501 -0.00000000000E+00  0.00000000000E+00  0.10001647793E+03  0.10001647793E+03  0.00000000000E+00 0.  1.
          3   -1    0    0  501    0  0.00000000000E+00 -0.00000000000E+00 -0.19617527873E+03  0.19617527873E+03  0.00000000000E+00 0. -1.
         25    2    1    2    0    0  0.33025268946E+00 -0.37373112238E+01 -0.14855577140E+03  0.19424380934E+03  0.12509102163E+03 0.  0.
          5    1    3    3  502    0  0.38333785130E+02 -0.38446023067E+02 -0.24189326697E+02  0.59583317280E+02  0.41800000000E+01 0.  1.
         -5    1    3    3    0  502 -0.38003532440E+02  0.34708711843E+02 -0.12436644470E+03  0.13466049206E+03  0.41800000000E+01 0.  1.
        -11    1    1    2    0    0 -0.21866547883E+02  0.21930169964E+02  0.64282042984E+02  0.71353061050E+02  0.00000000000E+00 0.  1.
         11    1    1    2    0    0  0.21536295193E+02 -0.18192858740E+02 -0.11885072385E+02  0.30594886262E+02  0.00000000000E+00 0. -1.
</event>
<event>
 7    1  0.3353761E-009  0.1164927E+03  0.7561462E-02  0.1248998E+00
          2   -1    0    0  501    0  0.00000000000E+00  0.00000000000E+00  0.76730285811E+03  0.76730285811E+03  0.00000000000E+00 0. -1.
         -2   -1    0    0    0  501 -0.00000000000E+00 -0.00000000000E+00 -0.18748485387E+02  0.18748485387E+02  0.00000000000E+00 0.  1.
         25    2    1    2    0    0  0.26824406274E+02 -0.43458194551E+02  0.41597296108E+03  0.43736613641E+03  0.12508984567E+03 0.  0.
          5    1    3    3  502    0  0.37686526868E+02  0.36609533995E+02  0.13330211105E+03  0.14334384360E+03  0.41800000000E+01 0.  1.
         -5    1    3    3    0  502 -0.10862120594E+02 -0.80067728545E+02  0.28267085003E+03  0.29402229282E+03  0.41800000000E+01 0.  1.
        -11    1    1    2    0    0 -0.56070532277E+02  0.13857384632E+02  0.13614551132E+03  0.14789026997E+03  0.00000000000E+00 0.  1.
         11    1    1    2    0    0  0.29246126003E+02  0.29600809919E+02  0.19643590032E+03  0.20079493711E+03  0.00000000000E+00 0. -1.
</event>
<event>
 7    1  0.2989693E-009  0.1104776E+03  0.7561462E-02  0.1259688E+00
         -2   -1    0    0    0  501 -0.00000000000E+00  0.00000000000E+00  0.12971938296E+03  0.12971938296E+03  0.00000000000E+00 0.  1.
          2   -1    0    0  501    0  0.00000000000E+00 -0.00000000000E+00 -0.10234036324E+03  0.10234036324E+03  0.00000000000E+00 0. -1.
         25    2    1    2    0    0  0.30882412294E+02 -0.23902489029E+01  0.39092571749E+02  0.13466578730E+03  0.12508880215E+03 0.  0.
          5    1    3    3  502    0 -0.35682734171E+02  0.35092997942E+02  0.36697867420E+01  0.50355890989E+02  0.41800000000E+01 0.  1.
         -5    1    3    3    0  502  0.66565146466E+02 -0.37483246845E+02  0.35422785007E+02  0.84309896310E+02  0.41800000000E+01 0.  1.
        -11    1    1    2    0    0  0.37960297599E+01  0.41661861251E+02 -0.16085854389E+02  0.44820477867E+02  0.00000000000E+00 0. -1.
         11    1    1    2    0    0 -0.34678442054E+02 -0.39271612348E+02  0.43723023599E+01  0.52573481030E+02  0.00000000000E+00 0.  1.
</event>
<event>
 7    1  0.2989693E-009  0.1603616E+03  0.7561462E-02  0.1188289E+00
          2   -1    0    0  501    0  0.00000000000E+00  0.00000000000E+00  0.60402396458E+03  0.60402396458E+03  0.00000000000E+00 0. -1.
         -2   -1    0    0    0  501 -0.00000000000E+00 -0.00000000000E+00 -0.60240275311E+02  0.60240275311E+02  0.00000000000E+00 0.  1.
         25    2    1    2    0    0  0.35951046291E+02 -0.15405577469E+03  0.28984792177E+03  0.35310730454E+03  0.12508913351E+03 0.  0.
          5    1    3    3  502    0 -0.27613217683E+01 -0.65904890487E+02  0.23975636713E+02  0.70309196012E+02  0.41800000000E+01 0.  1.
         -5    1    3    3    0  502  0.38712368059E+02 -0.88150884201E+02  0.26587228506E+03  0.28279810853E+03  0.41800000000E+01 0.  1.
        -11    1    1    2    0    0 -0.11100505339E+02  0.57241096764E+02  0.17294515874E+03  0.18250970470E+03  0.00000000000E+00 0. -1.
         11    1    1    2    0    0 -0.24850540952E+02  0.96814677924E+02  0.80990608755E+02  0.12864723065E+03  0.00000000000E+00 0.  1.
</event>
<event>
 7    1  0.2989693E-009  0.1196867E+03  0.7561462E-02  0.1243615E+00
          1   -1    0    0  501    0  0.00000000000E+00  0.00000000000E+00  0.17389848967E+03  0.17389848967E+03  0.00000000000E+00 0. -1.
         -1   -1    0    0    0  501 -0.00000000000E+00 -0.00000000000E+00 -0.95417941987E+02  0.95417941987E+02  0.00000000000E+00 0.  1.
         25    2    1    2    0    0 -0.55706893210E+02  0.30210241555E+02  0.11637414680E+02  0.14070727400E+03  0.12508873207E+03 0.  0.
          5    1    3    3  502    0  0.22275801782E+02  0.46526193389E+02  0.28619273179E+02  0.59139100548E+02  0.41800000000E+01 0. -1.
         -5    1    3    3    0  502 -0.77982694992E+02 -0.16315951834E+02 -0.16981858499E+02  0.81568173454E+02  0.41800000000E+01 0. -1.
        -11    1    1    2    0    0  0.14410140476E+02 -0.56881733144E+02  0.48534342669E+02  0.76149629890E+02  0.00000000000E+00 0. -1.
         11    1    1    2    0    0  0.41296752734E+02  0.26671491589E+02  0.18308790334E+02  0.52459527766E+02  0.00000000000E+00 0.  1.
</event>
<event>
 7    1  0.2989693E-009  0.1448871E+03  0.7561462E-02  0.1206900E+00
         -1   -1    0    0    0  501 -0.00000000000E+00  0.00000000000E+00  0.28652537423E+02  0.28652537423E+02  0.00000000000E+00 0.  1.
          1   -1    0    0  501    0  0.00000000000E+00 -0.00000000000E+00 -0.84564627027E+03  0.84564627027E+03  0.00000000000E+00 0. -1.
         25    2    1    2    0    0  0.10211560912E+03 -0.26222781086E+02 -0.54638510222E+03  0.57034972376E+03  0.12508755171E+03 0.  0.
          5    1    3    3  502    0  0.12700709141E+03 -0.33671872230E+01 -0.46651052643E+03  0.48352009564E+03  0.41800000000E+01 0.  1.
         -5    1    3    3    0  502 -0.24891482294E+02 -0.22855593863E+02 -0.79874575788E+02  0.86829628117E+02  0.41800000000E+01 0.  1.
        -11    1    1    2    0    0 -0.67841220892E+02  0.52197830909E+02 -0.12054593922E+03  0.14784575837E+03  0.00000000000E+00 0.  1.
         11    1    1    2    0    0 -0.34274388228E+02 -0.25975049823E+02 -0.15006269140E+03  0.15610332556E+03  0.00000000000E+00 0. -1.
</event>
<event>
 7    1  0.2989693E-009  0.5392134E+02  0.7561462E-02  0.1425270E+00
          2   -1    0    0  501    0  0.00000000000E+00  0.00000000000E+00  0.50825088204E+02  0.50825088204E+02  0.00000000000E+00 0.  1.
         -2   -1    0    0    0  501 -0.00000000000E+00 -0.00000000000E+00 -0.25173366964E+03  0.25173366964E+03  0.00000000000E+00 0. -1.
         25    2    1    2    0    0  0.65882876404E+01 -0.22431993772E+02 -0.14892286995E+03  0.19589125054E+03  0.12509500776E+03 0.  0.
          5    1    3    3  502    0  0.51884461045E+01 -0.92972219574E+01 -0.17015476839E+03  0.17053878127E+03  0.41800000000E+01 0. -1.
         -5    1    3    3    0  502  0.13998415359E+01 -0.13134771815E+02  0.21231898442E+02  0.25352469276E+02  0.41800000000E+01 0. -1.
        -11    1    1    2    0    0  0.32865194106E+02 -0.66561840001E+01  0.21949552890E+01  0.33604219940E+02  0.00000000000E+00 0.  1.
         11    1    1    2    0    0 -0.39453481746E+02  0.29088177772E+02 -0.54180666773E+02  0.73063287361E+02  0.00000000000E+00 0. -1.
</event>
<event>
 7    1  0.2989693E-009  0.1075955E+03  0.7561462E-02  0.1265089E+00
          2   -1    0    0  501    0  0.00000000000E+00  0.00000000000E+00  0.11575432629E+04  0.11575432629E+04  0.00000000000E+00 0. -1.
         -2   -1    0    0    0  501 -0.00000000000E+00 -0.00000000000E+00 -0.11192551627E+02  0.11192551627E+02  0.00000000000E+00 0.  1.
         25    2    1    2    0    0 -0.16900327746E+01  0.52327985829E+01  0.83894299933E+03  0.84823830348E+03  0.12511045112E+03 0.  0.
          5    1    3    3  502    0 -0.62879143588E+02  0.40827778414E+00  0.46894479451E+03  0.47316027526E+03  0.41800000000E+01 0.  1.
         -5    1    3    3    0  502  0.61189110813E+02  0.48245207987E+01  0.36999820482E+03  0.37507802822E+03  0.41800000000E+01 0.  1.
        -11    1    1    2    0    0  0.29949037599E+02  0.32052066354E+02  0.15102023117E+03  0.15726216975E+03  0.00000000000E+00 0. -1.
         11    1    1    2    0    0 -0.28259004824E+02 -0.37284864937E+02  0.15638748082E+03  0.16323534134E+03  0.00000000000E+00 0.  1.
</event>
<event>
 7    1  0.2989693E-009  0.1561925E+03  0.7561462E-02  0.1193064E+00
          1   -1    0    0  501    0  0.00000000000E+00  0.00000000000E+00  0.23022390727E+03  0.23022390727E+03  0.00000000000E+00 0. -1.
         -1   -1    0    0    0  501 -0.00000000000E+00 -0.00000000000E+00 -0.11136272814E+03  0.11136272814E+03  0.00000000000E+00 0.  1.
         25    2    1    2    0    0 -0.20132201275E+02 -0.11442573530E+03  0.46421925026E+02  0.17692179084E+03  0.12509104894E+03 0.  0.
          5    1    3    3  502    0  0.49233044633E+02 -0.47058139027E+02 -0.28969086732E+01  0.68295136081E+02  0.41800000000E+01 0. -1.
         -5    1    3    3    0  502 -0.69365245908E+02 -0.67367596269E+02  0.49318833699E+02  0.10862665476E+03  0.41800000000E+01 0. -1.
        -11    1    1    2    0    0 -0.16199142396E+02  0.10951222048E+03  0.60202019838E+02  0.12601437157E+03  0.00000000000E+00 0. -1.
         11    1    1    2    0    0  0.36331343671E+02  0.49135148128E+01  0.12237234270E+02  0.38650473003E+02  0.00000000000E+00 0.  1.
</event>
<event>
 7    1  0.2989693E-009  0.8219057E+02  0.7561462E-02  0.1322947E+00
          4   -1    0    0  501    0  0.00000000000E+00  0.00000000000E+00  0.38382225552E+02  0.38382225552E+02  0.00000000000E+00 0. -1.
         -4   -1    0    0    0  501 -0.00000000000E+00 -0.00000000000E+00 -0.34701805992E+03  0.34701805992E+03  0.00000000000E+00 0.  1.
         25    2    1    2    0    0  0.55031408920E+01  0.35176635710E+02 -0.20968825279E+03  0.24674772104E+03  0.12509034424E+03 0.  0.
          5    1    3    3  502    0 -0.10385034365E+02 -0.16988466210E+02 -0.18606308245E+03  0.18717211324E+03  0.41800000000E+01 0.  1.
         -5    1    3    3    0  502  0.15888175257E+02  0.52165101920E+02 -0.23625170333E+02  0.59575607799E+02  0.41800000000E+01 0.  1.
        -11    1    1    2    0    0  0.35938224477E+02 -0.31414929692E+02 -0.79480174530E+02  0.92712199464E+02  0.00000000000E+00 0.  1.
         11    1    1    2    0    0 -0.41441365369E+02 -0.37617060180E+01 -0.19467407046E+02  0.45940364963E+02  0.00000000000E+00 0. -1.
</event>
<event>
 7    1  0.2989693E-009  0.8701537E+02  0.7561462E-02  0.1310245E+00
         -1   -1    0    0    0  501 -0.00000000000E+00  0.00000000000E+00  0.57469822581E+02  0.57469822581E+02  0.00000000000E+00 0.  1.
          1   -1    0    0  501    0  0.00000000000E+00 -0.00000000000E+00 -0.27834788569E+03  0.27834788569E+03  0.00000000000E+00 0. -1.
         25    2    1    2    0    0  0.57076066787E+02 -0.19979852281E+01 -0.16838117146E+03  0.21740447239E+03  0.12510322285E+03 0.  0.
          5    1    3    3  502    0  0.48386049105E+02  0.30629316412E+02 -0.17372235618E+03  0.18296528143E+03  0.41800000000E+01 0.  1.
         -5    1    3    3    0  502  0.86900176819E+01 -0.32627301640E+02  0.53411847206E+01  0.34439190958E+02  0.41800000000E+01 0.  1.
        -11    1    1    2    0    0 -0.64357893020E+02  0.16432745415E+02 -0.68674779695E+02  0.95541608119E+02  0.00000000000E+00 0. -1.
         11    1    1    2    0    0  0.72818262326E+01 -0.14434760187E+02  0.16177888046E+02  0.22871627764E+02  0.00000000000E+00 0.  1.
</event>
<event>
 7    1  0.2989693E-009  0.2401507E+03  0.7561462E-02  0.1119692E+00
          2   -1    0    0  501    0  0.00000000000E+00  0.00000000000E+00  0.68497740402E+03  0.68497740402E+03  0.00000000000E+00 0. -1.
         -2   -1    0    0    0  501 -0.00000000000E+00 -0.00000000000E+00 -0.11096633987E+03  0.11096633987E+03  0.00000000000E+00 0.  1.
         25    2    1    2    0    0  0.20700888182E+03  0.91555630057E+02  0.46332668496E+03  0.53061957298E+03  0.12510157348E+03 0.  0.
          5    1    3    3  502    0  0.17612086312E+03  0.10529981394E+03  0.44895973564E+03  0.49364858541E+03  0.41800000000E+01 0. -1.
         -5    1    3    3    0  502  0.30888018696E+02 -0.13744183882E+02  0.14366949313E+02  0.36970987573E+02  0.41800000000E+01 0. -1.
        -11    1    1    2    0    0 -0.13351305348E+03 -0.14158716617E+02  0.66146026869E+02  0.14967131180E+03  0.00000000000E+00 0.  1.
         11    1    1    2    0    0 -0.73495828334E+02 -0.77396913440E+02  0.44538352322E+02  0.11565285911E+03  0.00000000000E+00 0. -1.
</event>
<event>
 7    1  0.2989693E-009  0.9026110E+02  0.7561462E-02  0.1302221E+00
          3   -1    0    0  501    0  0.00000000000E+00  0.00000000000E+00  0.86802858047E+02  0.86802858047E+02  0.00000000000E+00 0. -1.
         -3   -1    0    0    0  501 -0.00000000000E+00 -0.00000000000E+00 -0.27288993688E+03  0.27288993688E+03  0.00000000000E+00 0.  1.
         25    2    1    2    0    0 -0.35352978381E+02 -0.96536141781E+01 -0.16757309396E+03  0.21230053145E+03  0.12509096086E+03 0.  0.
          5    1    3    3  502    0 -0.75249088222E+02 -0.34434258739E+02 -0.11402956474E+03  0.14095516127E+03  0.41800000000E+01 0.  1.
         -5    1    3    3    0  502  0.39896109841E+02  0.24780644561E+02 -0.53543529222E+02  0.71345370185E+02  0.41800000000E+01 0.  1.
        -11    1    1    2    0    0  0.22503668001E+02  0.22865576541E+02 -0.78412941864E+02  0.84722128843E+02  0.00000000000E+00 0.  1.
         11    1    1    2    0    0  0.12849310380E+02 -0.13211962363E+02  0.59898956989E+02  0.62670134635E+02  0.00000000000E+00 0. -1.
</event>
<event>
 7    1  0.2989693E-009  0.1055234E+03  0.7561462E-02  0.1269092E+00
          4   -1    0    0  501    0  0.00000000000E+00  0.00000000000E+00  0.35618835250E+02  0.35618835250E+02  0.00000000000E+00 0. -1.
         -4   -1    0    0    0  501 -0.00000000000E+00 -0.00000000000E+00 -0.44232086493E+03  0.44232086493E+03  0.00000000000E+00 0.  1.
         25    2    1    2    0    0 -0.44695423296E+01 -0.57217441363E+02 -0.27192271832E+03  0.30476971314E+03  0.12509516740E+03 0.  0.
          5    1    3    3  502    0  0.45754005332E+02 -0.51867363257E+02 -0.77990524585E+02  0.10432471759E+03  0.41800000000E+01 0.  1.
         -5    1    3    3    0  502 -0.50223547662E+02 -0.53500781068E+01 -0.19393219373E+03  0.20044499555E+03  0.41800000000E+01 0.  1.
        -11    1    1    2    0    0 -0.38591422102E+01  0.73068518382E+02 -0.55349122829E+02  0.91746535385E+02  0.00000000000E+00 0. -1.
         11    1    1    2    0    0  0.83286845398E+01 -0.15851077019E+02 -0.79430188533E+02  0.81423451654E+02  0.00000000000E+00 0.  1.
</event>
<event>
 7    1  0.2989693E-009  0.1016615E+03  0.7561462E-02  0.1276840E+00
          2   -1    0    0  501    0  0.00000000000E+00  0.00000000000E+00  0.33363483966E+03  0.33363483966E+03  0.00000000000E+00 0. -1.
         -2   -1    0    0    0  501 -0.00000000000E+00 -0.00000000000E+00 -0.48442360318E+02  0.48442360318E+02  0.00000000000E+00 0.  1.
         25    2    1    2    0    0  0.20228797457E+02  0.23928376468E+02  0.24774995631E+03  0.27930059884E+03  0.12508801788E+03 0.  0.
          5    1    3    3  502    0 -0.47065367465E+02 -0.15487951545E+02  0.11483665345E+03  0.12513974122E+03  0.41800000000E+01 0. -1.
         -5    1    3    3    0  502  0.67294164922E+02  0.39416328013E+02  0.13291330285E+03  0.15416085762E+03  0.41800000000E+01 0. -1.
        -11    1    1    2    0    0  0.25468322212E+02 -0.12617672978E+02  0.46823591185E+02  0.54774901178E+02  0.00000000000E+00 0. -1.
         11    1    1    2    0    0 -0.45697119668E+02 -0.11310703490E+02 -0.93810681456E+01  0.48001699959E+02  0.00000000000E+00 0.  1.
</event>
<event>
 7    1  0.2989693E-009  0.1101745E+03  0.7561462E-02  0.1260247E+00
          1   -1    0    0  501    0  0.00000000000E+00  0.00000000000E+00  0.25015684682E+03  0.25015684682E+03  0.00000000000E+00 0. -1.
         -1   -1    0    0    0  501 -0.00000000000E+00 -0.00000000000E+00 -0.66538807321E+02  0.66538807321E+02  0.00000000000E+00 0.  1.
         25    2    1    2    0    0  0.69540246206E+02  0.35758946661E+02  0.96021322919E+02  0.17601610927E+03  0.12508808160E+03 0.  0.
          5    1    3    3  502    0  0.87315317808E+02  0.56414451734E+02  0.10421222244E+03  0.14725561040E+03  0.41800000000E+01 0.  1.
         -5    1    3    3    0  502 -0.17775071601E+02 -0.20655505073E+02 -0.81908995179E+01  0.28760498868E+02  0.41800000000E+01 0.  1.
        -11    1    1    2    0    0 -0.14156008578E+02 -0.29857393947E+02  0.77261591192E+02  0.84031006335E+02  0.00000000000E+00 0. -1.
         11    1    1    2    0    0 -0.55384237628E+02 -0.59015527134E+01  0.10335125390E+02  0.56648538542E+02  0.00000000000E+00 0.  1.
</event>
<event>
 7    1  0.2989693E-009  0.1228131E+03  0.7561462E-02  0.1238527E+00
         -3   -1    0    0    0  501 -0.00000000000E+00  0.00000000000E+00  0.26078737713E+02  0.26078737713E+02  0.00000000000E+00 0.  1.
          3   -1    0    0  501    0  0.00000000000E+00 -0.00000000000E+00 -0.75044542832E+03  0.75044542832E+03  0.00000000000E+00 0. -1.
         25    2    1    2    0    0 -0.39227737750E+02  0.47406509013E+02 -0.22035257321E+03  0.26074819217E+03  0.12509264845E+03 0.  0.
          5    1    3    3  502    0 -0.84223510133E+02  0.33039331543E+02 -0.16158171477E+03  0.18523315048E+03  0.41800000000E+01 0. -1.
         -5    1    3    3    0  502  0.44995772383E+02  0.14367177471E+02 -0.58770858438E+02  0.75515041696E+02  0.41800000000E+01 0. -1.
        -11    1    1    2    0    0  0.63648276455E+02 -0.12223215441E+02 -0.34834167741E+03  0.35431967814E+03  0.00000000000E+00 0. -1.
         11    1    1    2    0    0 -0.24420538705E+02 -0.35183293573E+02 -0.15567243998E+03  0.16145629572E+03  0.00000000000E+00 0.  1.
</event>
<event>
 7    1  0.2989693E-009  0.1163967E+03  0.7561462E-02  0.1249163E+00
         -1   -1    0    0    0  501 -0.00000000000E+00  0.00000000000E+00  0.58739530151E+02  0.58739530151E+02  0.00000000000E+00 0.  1.
          1   -1    0    0  501    0  0.00000000000E+00 -0.00000000000E+00 -0.35173722046E+03  0.35173722046E+03  0.00000000000E+00 0. -1.
         25    2    1    2    0    0  0.73728037561E+02  0.48816529710E+02 -0.21118500046E+03  0.26089384055E+03  0.12509042538E+03 0.  0.
          5    1    3    3  502    0  0.80479621502E+02  0.79026131199E+02 -0.12108455143E+03  0.16553259463E+03  0.41800000000E+01 0. -1.
         -5    1    3    3    0  502 -0.67515839414E+01 -0.30209601489E+02 -0.90100449031E+02  0.95361245921E+02  0.41800000000E+01 0. -1.
        -11    1    1    2    0    0 -0.25346631473E+02 -0.12959564108E+02  0.17516164611E+02  0.33424811915E+02  0.00000000000E+00 0.  1.
         11    1    1    2    0    0 -0.48381406087E+02 -0.35856965603E+02 -0.99328854460E+02  0.11615809815E+03  0.00000000000E+00 0. -1.
</event>
<event>
 7    1  0.2989693E-009  0.1232764E+03  0.7561462E-02  0.1237788E+00
          1   -1    0    0  501    0  0.00000000000E+00  0.00000000000E+00  0.89722000763E+02  0.89722000763E+02  0.00000000000E+00 0. -1.
         -1   -1    0    0    0  501 -0.00000000000E+00 -0.00000000000E+00 -0.29207145657E+03  0.29207145657E+03  0.00000000000E+00 0.  1.
         25    2    1    2    0    0  0.16184679847E+02 -0.72667280221E+02  0.21330004039E+01  0.14561112465E+03  0.12512223006E+03 0.  0.
          5    1    3    3  502    0 -0.14541539547E+01 -0.10673770139E+03 -0.15723062208E+01  0.10684098468E+03  0.41800000000E+01 0. -1.
         -5    1    3    3    0  502  0.17638833801E+02  0.34070421165E+02  0.37053066247E+01  0.38770139971E+02  0.41800000000E+01 0. -1.
        -11    1    1    2    0    0  0.26968513804E+02  0.24176157828E+02 -0.21713911127E+02  0.42228915218E+02  0.00000000000E+00 0. -1.
         11    1    1    2    0    0 -0.43153193650E+02  0.48491122394E+02 -0.18276854508E+03  0.19395341746E+03  0.00000000000E+00 0.  1.
</event>
<event>
 7    1  0.2989693E-009  0.1694458E+03  0.7561462E-02  0.1178427E+00
         -2   -1    0    0    0  501 -0.00000000000E+00  0.00000000000E+00  0.14625569109E+03  0.14625569109E+03  0.00000000000E+00 0.  1.
          2   -1    0    0  501    0  0.00000000000E+00 -0.00000000000E+00 -0.23915429425E+03  0.23915429425E+03  0.00000000000E+00 0. -1.
         25    2    1    2    0    0  0.13077721089E+02 -0.14172941236E+03  0.39592659689E+01  0.18954758331E+03  0.12511737464E+03 0.  0.
          5    1    3    3  502    0 -0.34564637762E+02  0.49825160629E+01  0.19272013774E+01  0.35223942923E+02  0.41800000000E+01 0.  1.
         -5    1    3    3    0  502  0.47642358851E+02 -0.14671192842E+03  0.20320645915E+01  0.15432364039E+03  0.41800000000E+01 0.  1.
        -11    1    1    2    0    0  0.17041558675E+02  0.56583995126E+02 -0.86774538220E+02  0.10498563573E+03  0.00000000000E+00 0. -1.
         11    1    1    2    0    0 -0.30119279764E+02  0.85145417229E+02 -0.10083330911E+02  0.90876766288E+02  0.00000000000E+00 0.  1.
</event>
<event>
 7    1  0.2989693E-009  0.2270672E+03  0.7561462E-02  0.1128721E+00
         -1   -1    0    0    0  501 -0.00000000000E+00  0.00000000000E+00  0.63278717188E+03  0.63278717188E+03  0.00000000000E+00 0.  1.
          1   -1    0    0  501    0  0.00000000000E+00 -0.00000000000E+00 -0.98645541427E+02  0.98645541427E+02  0.00000000000E+00 0. -1.
         25    2    1    2    0    0 -0.50077213557E+02  0.19690486210E+03  0.13278737259E+03  0.27305582244E+03  0.12509094219E+03 0.  0.
          5    1    3    3  502    0 -0.85614099356E+02  0.11137001849E+03  0.51263019349E+02  0.14959419969E+03  0.41800000000E+01 0. -1.
         -5    1    3    3    0  502  0.35536885800E+02  0.85534843609E+02  0.81524353238E+02  0.12346162276E+03  0.41800000000E+01 0. -1.
        -11    1    1    2    0    0  0.73688125487E+02 -0.12394870437E+03  0.27686973443E+03  0.31216993929E+03  0.00000000000E+00 0. -1.
         11    1    1    2    0    0 -0.23610911930E+02 -0.72956157730E+02  0.12448452344E+03  0.14620695157E+03  0.00000000000E+00 0.  1.
</event>
<event>
 7    1  0.2989693E-009  0.9983053E+02  0.7561462E-02  0.1280653E+00
          2   -1    0    0  501    0  0.00000000000E+00  0.00000000000E+00  0.15155195986E+03  0.15155195986E+03  0.00000000000E+00 0. -1.
         -2   -1    0    0    0  501 -0.00000000000E+00 -0.00000000000E+00 -0.12575307364E+03  0.12575307364E+03  0.00000000000E+00 0.  1.
         25    2    1    2    0    0  0.15869750688E+02  0.27925629173E+02  0.93855371304E+02  0.15964930779E+03  0.12508949197E+03 0.  0.
          5    1    3    3  502    0  0.14732401685E+01 -0.37681973763E+02  0.83292189991E+02  0.91526842493E+02  0.41800000000E+01 0. -1.
         -5    1    3    3    0  502  0.14396510519E+02  0.65607602936E+02  0.10563181314E+02  0.68122465293E+02  0.41800000000E+01 0. -1.
        -11    1    1    2    0    0 -0.24723426196E+02 -0.58011041584E+02 -0.55037062920E+02  0.83699504439E+02  0.00000000000E+00 0.  1.
         11    1    1    2    0    0  0.88536755086E+01  0.30085412410E+02 -0.13019422157E+02  0.33956221274E+02  0.00000000000E+00 0. -1.
</event>
<event>
 7    1  0.2989693E-009  0.1150088E+03  0.7561462E-02  0.1251566E+00
         -1   -1    0    0    0  501 -0.00000000000E+00  0.00000000000E+00  0.52776051293E+02  0.52776051293E+02  0.00000000000E+00 0.  1.
          1   -1    0    0  501    0  0.00000000000E+00 -0.00000000000E+00 -0.27837641186E+03  0.27837641186E+03  0.00000000000E+00 0. -1.
         25    2    1    2    0    0  0.37752781626E+02 -0.14239132952E+02 -0.75512102626E+02  0.15158360311E+03  0.12508991031E+03 0.  0.
          5    1    3    3  502    0 -0.44150715605E+02  0.10883925200E+02 -0.26368694032E+02  0.52730692591E+02  0.41800000000E+01 0. -1.
         -5    1    3    3    0  502  0.81903497230E+02 -0.25123058151E+02 -0.49143408594E+02  0.98852910517E+02  0.41800000000E+01 0. -1.
        -11    1    1    2    0    0 -0.28500419821E+02  0.52219264533E+02 -0.90964107228E+02  0.10869035984E+03  0.00000000000E+00 0. -1.
         11    1    1    2    0    0 -0.92523618042E+01 -0.37980131581E+02 -0.59124150718E+02  0.70878500210E+02  0.00000000000E+00 0.  1.
</event>
<event>
 7    1  0.2989693E-009  0.1762786E+03  0.7561462E-02  0.1171454E+00
          2   -1    0    0  501    0  0.00000000000E+00  0.00000000000E+00  0.13315178178E+03  0.13315178178E+03  0.00000000000E+00 0. -1.
         -2   -1    0    0    0  501 -0.00000000000E+00 -0.00000000000E+00 -0.29450004039E+03  0.29450004039E+03  0.00000000000E+00 0.  1.
         25    2    1    2    0    0 -0.87471765832E+02 -0.14011130742E+03 -0.96754705159E+02  0.22867516003E+03  0.12509343531E+03 0.  0.
          5    1    3    3  502    0  0.54299641639E+01 -0.51507184870E+02 -0.85087046001E+02  0.99698306912E+02  0.41800000000E+01 0.  1.
         -5    1    3    3    0  502 -0.92901729996E+02 -0.88604122552E+02 -0.11667659158E+02  0.12897685312E+03  0.41800000000E+01 0.  1.
        -11    1    1    2    0    0 -0.51271203881E+01  0.19079760885E+02 -0.40000401923E+02  0.44613414943E+02  0.00000000000E+00 0.  1.
         11    1    1    2    0    0  0.92598886220E+02  0.12103154654E+03 -0.24593151527E+02  0.15436324721E+03  0.00000000000E+00 0. -1.
</event>
<event>
 6    1  0.2989693E-009  0.1340998E+03  0.7561462E-02  0.1221496E+00
         -2   -1    0    0    0  501 -0.00000000000E+00  0.00000000000E+00  0.79206671789E+02  0.79206671789E+02  0.00000000000E+00 0.  1.
          2   -1    0    0  501    0  0.00000000000E+00 -0.00000000000E+00 -0.25831451879E+03  0.25831451879E+03  0.00000000000E+00 0. -1.
          5    1    1    2  502    0  0.11935620546E+01  0.39976794177E+02 -0.74398881139E+02  0.84570884930E+02  0.41800000000E+01 0. -1.
         -5    1    1    2    0  502  0.84703793846E+02 -0.59755055664E+02 -0.64347359715E+02  0.12207970540E+03  0.41800000000E+01 0. -1.
        -11    1    1    2    0    0 -0.74911025022E+02 -0.24348819706E+02 -0.21587748212E+02  0.81673481399E+02  0.00000000000E+00 0.  1.
         11    1    1    2    0    0 -0.10986330878E+02  0.44127081193E+02 -0.18773857930E+02  0.49197118842E+02  0.00000000000E+00 0. -1.
</event>
<event>
 7    1  0.2989693E-009  0.8125302E+02  0.7561462E-02  0.1325533E+00
          1   -1    0    0  501    0  0.00000000000E+00  0.00000000000E+00  0.18677013113E+03  0.18677013113E+03  0.00000000000E+00 0. -1.
         -1   -1    0    0    0  501 -0.00000000000E+00 -0.00000000000E+00 -0.81587890771E+02  0.81587890771E+02  0.00000000000E+00 0.  1.
         25    2    1    2    0    0  0.19007695697E+02 -0.29311639447E+02  0.11033041324E+03  0.17041487553E+03  0.12509182633E+03 0.  0.
          5    1    3    3  502    0  0.82765262852E+01 -0.45994127766E+02 -0.10346917916E+02  0.48046766662E+02  0.41800000000E+01 0.  1.
         -5    1    3    3    0  502  0.10731169412E+02  0.16682488320E+02  0.12067733115E+03  0.12236810887E+03  0.41800000000E+01 0.  1.
        -11    1    1    2    0    0 -0.21409582850E+02 -0.29502297449E+02  0.86939626691E+01  0.37474535080E+02  0.00000000000E+00 0. -1.
         11    1    1    2    0    0  0.24018871529E+01  0.58813936896E+02 -0.13842135547E+02  0.60468611292E+02  0.00000000000E+00 0.  1.
</event>
<event>
 7    1  0.2989693E-009  0.1134007E+03  0.7561462E-02  0.1254399E+00
         -1   -1    0    0    0  501 -0.00000000000E+00  0.00000000000E+00  0.36852167089E+03  0.36852167089E+03  0.00000000000E+00 0.  1.
          1   -1    0    0  501    0  0.00000000000E+00 -0.00000000000E+00 -0.49093230304E+02  0.49093230304E+02  0.00000000000E+00 0. -1.
         25    2    1    2    0    0 -0.36130776348E+01 -0.37486056877E+02  0.28498930150E+03  0.31350575233E+03  0.12509474804E+03 0.  0.
          5    1    3    3  502    0  0.50064594555E+02  0.16353509787E+02  0.92842495665E+02  0.10682276121E+03  0.41800000000E+01 0.  1.
         -5    1    3    3    0  502 -0.53677672189E+02 -0.53839566664E+02  0.19214680583E+03  0.20668299113E+03  0.41800000000E+01 0.  1.
        -11    1    1    2    0    0 -0.27949345638E+02  0.55026680497E+02  0.26336292989E+02  0.67102174455E+02  0.00000000000E+00 0. -1.
         11    1    1    2    0    0  0.31562423273E+02 -0.17540623620E+02  0.81028461020E+01  0.37006974408E+02  0.00000000000E+00 0.  1.
</event>
<event>
 7    1  0.2989693E-009  0.1905280E+03  0.7561462E-02  0.1157986E+00
         -2   -1    0    0    0  501 -0.00000000000E+00  0.00000000000E+00  0.39042587961E+02  0.39042587961E+02  0.00000000000E+00 0.  1.
          2   -1    0    0  501    0  0.00000000000E+00 -0.00000000000E+00 -0.97048839022E+03  0.97048839022E+03  0.00000000000E+00 0. -1.
         25    2    1    2    0    0  0.10897049685E+03 -0.11366072453E+03 -0.55572884616E+03  0.59099548044E+03  0.12509107864E+03 0.  0.
          5    1    3    3  502    0  0.26576132299E+02 -0.11354492326E+03 -0.36470108886E+03  0.38291395512E+03  0.41800000000E+01 0. -1.
         -5    1    3    3    0  502  0.82394364555E+02 -0.11580126815E+00 -0.19102775730E+03  0.20808152532E+03  0.41800000000E+01 0. -1.
        -11    1    1    2    0    0 -0.43850794430E+02  0.10792720571E+03 -0.27252278561E+03  0.29637787127E+03  0.00000000000E+00 0. -1.
         11    1    1    2    0    0 -0.65119702423E+02  0.57335188173E+01 -0.10319417049E+03  0.12215762647E+03  0.00000000000E+00 0.  1.
</event>
<event>
 7    1  0.2989693E-009  0.8856122E+02  0.7561462E-02  0.1306374E+00
         -3   -1    0    0    0  501 -0.00000000000E+00  0.00000000000E+00  0.21123772826E+03  0.21123772826E+03  0.00000000000E+00 0.  1.
          3   -1    0    0  501    0  0.00000000000E+00 -0.00000000000E+00 -0.72834946584E+02  0.72834946584E+02  0.00000000000E+00 0. -1.
         25    2    1    2    0    0 -0.39572540994E+02 -0.12300101887E+02  0.12783401413E+03  0.18359807549E+03  0.12509772040E+03 0.  0.
          5    1    3    3  502    0 -0.84189944825E+02 -0.69502923099E+01  0.67277862802E+02  0.10807421800E+03  0.41800000000E+01 0.  1.
         -5    1    3    3    0  502  0.44617403831E+02 -0.53498095770E+01  0.60556151329E+02  0.75523857495E+02  0.41800000000E+01 0.  1.
        -11    1    1    2    0    0  0.31642106031E+02 -0.12995136073E+01 -0.37971982585E+02  0.49444747660E+02  0.00000000000E+00 0. -1.
         11    1    1    2    0    0  0.79304349631E+01  0.13599615494E+02  0.48540750130E+02  0.51029851689E+02  0.00000000000E+00 0.  1.
</event>
<event>
 7    1  0.3419029E-009  0.1488037E+03  0.7561462E-02  0.1201951E+00
          2   -1    0    0  501    0  0.00000000000E+00  0.00000000000E+00  0.78706452707E+03  0.78706452707E+03  0.00000000000E+00 0. -1.
         -2   -1    0    0    0  501 -0.00000000000E+00 -0.00000000000E+00 -0.44830010930E+02  0.44830010930E+02  0.00000000000E+00 0.  1.
         25    2    1    2    0    0 -0.72679505121E+02 -0.11459656977E+03  0.23427759698E+03  0.29824145021E+03  0.12508911187E+03 0.  0.
          5    1    3    3  502    0 -0.89775722897E+01 -0.16845145628E+02 -0.13895701383E+02  0.23977461342E+02  0.41800000000E+01 0. -1.
         -5    1    3    3    0  502 -0.63701932831E+02 -0.97751424138E+02  0.24817329836E+03  0.27426398887E+03  0.41800000000E+01 0. -1.
        -11    1    1    2    0    0  0.78613242835E+02  0.43253569646E+02  0.23757565031E+03  0.25395492288E+03  0.00000000000E+00 0.  1.
         11    1    1    2    0    0 -0.59337377142E+01  0.71343000120E+02  0.27038126885E+03  0.27969816491E+03  0.00000000000E+00 0. -1.
</event>
<event>
 7    1  0.2989693E-009  0.1212411E+03  0.7561462E-02  0.1241064E+00
          1   -1    0    0  501    0  0.00000000000E+00  0.00000000000E+00  0.18555272099E+03  0.18555272099E+03  0.00000000000E+00 0. -1.
         -1   -1    0    0    0  501 -0.00000000000E+00 -0.00000000000E+00 -0.94900994035E+02  0.94900994035E+02  0.00000000000E+00 0.  1.
         25    2    1    2    0    0 -0.45969361788E+02 -0.57564194199E+02  0.71583749970E+02  0.16185856665E+03  0.12508854329E+03 0.  0.
          5    1    3    3  502    0  0.29071618077E+02 -0.62118718730E+02  0.23975960781E+02  0.72775087013E+02  0.41800000000E+01 0. -1.
         -5    1    3    3    0  502 -0.75040979865E+02  0.45545245313E+01  0.47607789189E+02  0.89083479637E+02  0.41800000000E+01 0. -1.
        -11    1    1    2    0    0  0.58838874231E+02  0.25884310095E+02 -0.19382695961E+02  0.67139403726E+02  0.00000000000E+00 0.  1.
         11    1    1    2    0    0 -0.12869512443E+02  0.31679884104E+02  0.38450672948E+02  0.51455744650E+02  0.00000000000E+00 0. -1.
</event>
<event>
 7    1  0.2989693E-009  0.1892938E+03  0.7561462E-02  0.1159100E+00
         -2   -1    0    0    0  501 -0.00000000000E+00  0.00000000000E+00  0.78959646686E+02  0.78959646686E+02  0.00000000000E+00 0.  1.
          2   -1    0    0  501    0  0.00000000000E+00 -0.00000000000E+00 -0.56811951776E+03  0.56811951776E+03  0.00000000000E+00 0. -1.
         25    2    1    2    0    0 -0.54371874025E+02  0.17188128676E+03 -0.22814306745E+03  0.31653559304E+03  0.12508415173E+03 0.  0.
          5    1    3    3  502    0 -0.27293750545E+02  0.58639012249E+01 -0.10310767374E+03  0.10690181916E+03  0.41800000000E+01 0. -1.
         -5    1    3    3    0  502 -0.27078123481E+02  0.16601738554E+03 -0.12503539371E+03  0.20963377388E+03  0.41800000000E+01 0. -1.
        -11    1    1    2    0    0  0.27551846667E+02 -0.12577346863E+03 -0.10654811724E+03  0.16712441759E+03  0.00000000000E+00 0.  1.
         11    1    1    2    0    0  0.26820027358E+02 -0.46107818128E+02 -0.15446868639E+03  0.16341915382E+03  0.00000000000E+00 0. -1.
</event>
<event>
 7    1  0.2989693E-009  0.8497730E+02  0.7561462E-02  0.1315492E+00
          1   -1    0    0  501    0  0.00000000000E+00  0.00000000000E+00  0.27253920419E+02  0.27253920419E+02  0.00000000000E+00 0. -1.
         -1   -1    0    0    0  501 -0.00000000000E+00 -0.00000000000E+00 -0.51005534077E+03  0.51005534077E+03  0.00000000000E+00 0.  1.
         25    2    1    2    0    0  0.24372421665E+02 -0.34718094516E+02 -0.25501760768E+03  0.28719443789E+03  0.12508918379E+03 0.  0.
          5    1    3    3  502    0  0.47960663401E+02 -0.27442435104E+02 -0.25620571721E+03  0.26213003340E+03  0.41800000000E+01 0.  1.
         -5    1    3    3    0  502 -0.23588241736E+02 -0.72756594126E+01  0.11881095312E+01  0.25064404488E+02  0.41800000000E+01 0.  1.
        -11    1    1    2    0    0  0.17985139885E+02 -0.15545553790E+02 -0.13087764509E+03  0.13301912451E+03  0.00000000000E+00 0.  1.
         11    1    1    2    0    0 -0.42357561549E+02  0.50263648306E+02 -0.96906167572E+02  0.11709569879E+03  0.00000000000E+00 0. -1.
</event>
<event>
 7    1  0.2989693E-009  0.9228212E+02  0.7561462E-02  0.1297417E+00
         -4   -1    0    0    0  501 -0.00000000000E+00  0.00000000000E+00  0.10184062485E+03  0.10184062485E+03  0.00000000000E+00 0. -1.
          4   -1    0    0  501    0  0.00000000000E+00 -0.00000000000E+00 -0.16213837214E+03  0.16213837214E+03  0.00000000000E+00 0.  1.
         25    2    1    2    0    0  0.62140632286E+02 -0.14152240551E+02 -0.70042239831E+01  0.14056531052E+03  0.12509117984E+03 0.  0.
          5    1    3    3  502    0  0.67450551180E+02 -0.24316643447E+02 -0.55367370597E+02  0.90685688671E+02  0.41800000000E+01 0. -1.
         -5    1    3    3    0  502 -0.53099188943E+01  0.10164402896E+02  0.48363146614E+02  0.49879621844E+02  0.41800000000E+01 0. -1.
        -11    1    1    2    0    0 -0.74906448957E+02 -0.76251076510E+01 -0.61127387312E+02  0.96982863650E+02  0.00000000000E+00 0.  1.
         11    1    1    2    0    0  0.12765816671E+02  0.21777348202E+02  0.78338640001E+01  0.26430822824E+02  0.00000000000E+00 0. -1.
</event>
<event>
 7    1  0.2989693E-009  0.7661399E+02  0.7561462E-02  0.1338945E+00
         -1   -1    0    0    0  501 -0.00000000000E+00  0.00000000000E+00  0.12480842511E+03  0.12480842511E+03  0.00000000000E+00 0.  1.
          1   -1    0    0  501    0  0.00000000000E+00 -0.00000000000E+00 -0.11306985217E+03  0.11306985217E+03  0.00000000000E+00 0. -1.
         25    2    1    2    0    0  0.34615264918E+02  0.25484325549E+01  0.45135585560E+02  0.13744268749E+03  0.12509420525E+03 0.  0.
          5    1    3    3  502    0 -0.29634664818E+02 -0.14722172537E+02 -0.24239575534E+02  0.41230876114E+02  0.41800000000E+01 0. -1.
         -5    1    3    3    0  502  0.64249929736E+02  0.17270605092E+02  0.69375161094E+02  0.96211811375E+02  0.41800000000E+01 0. -1.
        -11    1    1    2    0    0 -0.39727428915E+02 -0.12815781669E+02  0.19668268988E+02  0.46144920338E+02  0.00000000000E+00 0.  1.
         11    1    1    2    0    0  0.51121639966E+01  0.10267349114E+02 -0.53065281607E+02  0.54290669461E+02  0.00000000000E+00 0. -1.
</event>
<event>
 7    1  0.2989693E-009  0.2692739E+03  0.7561462E-02  0.1101696E+00
          2   -1    0    0  501    0  0.00000000000E+00  0.00000000000E+00  0.16066533421E+04  0.16066533421E+04  0.00000000000E+00 0. -1.
         -2   -1    0    0    0  501 -0.00000000000E+00 -0.00000000000E+00 -0.50582336494E+02  0.50582336494E+02  0.00000000000E+00 0.  1.
         25    2    1    2    0    0 -0.24862920519E+03  0.49759850594E+02  0.10022659211E+04  0.10413825437E+04  0.12509237141E+03 0.  0.
          5    1    3    3  502    0 -0.11238984503E+03 -0.40178073280E+02  0.41969799984E+03  0.43635952873E+03  0.41800000000E+01 0. -1.
         -5    1    3    3    0  502 -0.13623936016E+03  0.89937923874E+02  0.58256792122E+03  0.60502301497E+03  0.41800000000E+01 0. -1.
        -11    1    1    2    0    0  0.11728334864E+03 -0.40756865469E+02  0.36608679922E+03  0.38656959336E+03  0.00000000000E+00 0. -1.
         11    1    1    2    0    0  0.13134585655E+03 -0.90029851249E+01  0.18771828532E+03  0.22928354153E+03  0.00000000000E+00 0.  1.
</event>
<event>
 7    1  0.2989693E-009  0.1878130E+03  0.7561462E-02  0.1160449E+00
          2   -1    0    0  501    0  0.00000000000E+00  0.00000000000E+00  0.11512468868E+04  0.11512468868E+04  0.00000000000E+00 0. -1.
         -2   -1    0    0    0  501 -0.00000000000E+00 -0.00000000000E+00 -0.45877687516E+02  0.45877687516E+02  0.00000000000E+00 0.  1.
         25    2    1    2    0    0  0.79106516817E+02 -0.13428036520E+03  0.23628673931E+03  0.30946489284E+03  0.12509212303E+03 0.  0.
          5    1    3    3  502    0 -0.41836801382E+01  0.20945409962E+02  0.41089909454E+02  0.46498026162E+02  0.41800000000E+01 0. -1.
         -5    1    3    3    0  502  0.83290196955E+02 -0.15522577516E+03  0.19519682985E+03  0.26296686668E+03  0.41800000000E+01 0. -1.
        -11    1    1    2    0    0 -0.71382022537E+02  0.37629188608E+02  0.31583716203E+03  0.32598230304E+03  0.00000000000E+00 0.  1.
         11    1    1    2    0    0 -0.77244942799E+01  0.96651176594E+02  0.55324529791E+03  0.56167737840E+03  0.00000000000E+00 0. -1.
</event>
<event>
 7    1  0.2989693E-009  0.1642246E+03  0.7561462E-02  0.1184008E+00
          1   -1    0    0  501    0  0.00000000000E+00  0.00000000000E+00  0.23351158260E+03  0.23351158260E+03  0.00000000000E+00 0. -1.
         -1   -1    0    0    0  501 -0.00000000000E+00 -0.00000000000E+00 -0.16170757395E+03  0.16170757395E+03  0.00000000000E+00 0.  1.
         25    2    1    2    0    0 -0.31738066246E+01  0.14570768813E+03  0.10612188548E+03  0.21943262851E+03  0.12509204791E+03 0.  0.
          5    1    3    3  502    0 -0.31015113085E+02  0.11695058051E+03  0.12583693002E+03  0.17461895911E+03  0.41800000000E+01 0.  1.
         -5    1    3    3    0  502  0.27841306461E+02  0.28757107612E+02 -0.19715044547E+02  0.44813669400E+02  0.41800000000E+01 0.  1.
        -11    1    1    2    0    0 -0.39309351662E+02 -0.66094554931E+02 -0.37361657345E+02  0.85496249971E+02  0.00000000000E+00 0.  1.
         11    1    1    2    0    0  0.42483158287E+02 -0.79613133196E+02  0.30437805194E+01  0.90290278076E+02  0.00000000000E+00 0. -1.
</event>
<event>
 7    1  0.2989693E-009  0.1028399E+03  0.7561462E-02  0.1274435E+00
          3   -1    0    0  501    0  0.00000000000E+00  0.00000000000E+00  0.27609715820E+02  0.27609715820E+02  0.00000000000E+00 0. -1.
         -3   -1    0    0    0  501 -0.00000000000E+00 -0.00000000000E+00 -0.56546356253E+03  0.56546356253E+03  0.00000000000E+00 0.  1.
         25    2    1    2    0    0 -0.25408547896E+02  0.55483358251E+02 -0.30833103404E+03  0.33828861372E+03  0.12508861767E+03 0.  0.
          5    1    3    3  502    0 -0.39034528820E+02  0.82693878240E+02 -0.28605394375E+03  0.30034364164E+03  0.41800000000E+01 0.  1.
         -5    1    3    3    0  502  0.13625980924E+02 -0.27210519989E+02 -0.22277090292E+02  0.37944972079E+02  0.41800000000E+01 0.  1.
        -11    1    1    2    0    0 -0.11826489458E+02 -0.42301779214E+02 -0.20180632146E+03  0.20653110603E+03  0.00000000000E+00 0.  1.
         11    1    1    2    0    0  0.37235037354E+02 -0.13181579037E+02 -0.27716491210E+02  0.48253558601E+02  0.00000000000E+00 0. -1.
</event>
<event>
 7    1  0.2989693E-009  0.1962692E+03  0.7561462E-02  0.1152925E+00
          1   -1    0    0  501    0  0.00000000000E+00  0.00000000000E+00  0.88366476858E+02  0.88366476858E+02  0.00000000000E+00 0. -1.
         -1   -1    0    0    0  501 -0.00000000000E+00 -0.00000000000E+00 -0.62876646531E+03  0.62876646531E+03  0.00000000000E+00 0.  1.
         25    2    1    2    0    0 -0.12173374431E+03  0.12579616463E+03 -0.10590057475E+03  0.23980502861E+03  0.12509092882E+03 0.  0.
          5    1    3    3  502    0 -0.16187698671E+02  0.81787182610E+02  0.60330512375E+00  0.83480663657E+02  0.41800000000E+01 0.  1.
         -5    1    3    3    0  502 -0.10554604564E+03  0.44008982017E+02 -0.10650387987E+03  0.15632436495E+03  0.41800000000E+01 0.  1.
        -11    1    1    2    0    0  0.13145108322E+03 -0.12921799818E+03 -0.42525890916E+03  0.46348874652E+03  0.00000000000E+00 0.  1.
         11    1    1    2    0    0 -0.97173389022E+01  0.34218335537E+01 -0.92405045489E+01  0.13839167046E+02  0.00000000000E+00 0. -1.
</event>
<event>
 7    1  0.2989693E-009  0.1146788E+03  0.7561462E-02  0.1252143E+00
         -1   -1    0    0    0  501 -0.00000000000E+00  0.00000000000E+00  0.38654706004E+03  0.38654706004E+03  0.00000000000E+00 0.  1.
          1   -1    0    0  501    0  0.00000000000E+00 -0.00000000000E+00 -0.44590641934E+02  0.44590641934E+02  0.00000000000E+00 0. -1.
         25    2    1    2    0    0 -0.21300306196E+02 -0.14097769838E+02  0.81813400063E+02  0.15164960262E+03  0.12510683189E+03 0.  0.
          5    1    3    3  502    0 -0.53762919910E+02  0.38133793815E+02  0.42741782611E+02  0.78670008063E+02  0.41800000000E+01 0.  1.
         -5    1    3    3    0  502  0.32462613714E+02 -0.52231563653E+02  0.39071617452E+02  0.72979594552E+02  0.41800000000E+01 0.  1.
        -11    1    1    2    0    0  0.57751084019E+02  0.25990341755E+02  0.14832913895E+03  0.16128304012E+03  0.00000000000E+00 0.  1.
         11    1    1    2    0    0 -0.36450777823E+02 -0.11892571917E+02  0.11181387909E+03  0.11820505923E+03  0.00000000000E+00 0. -1.
</event>
<event>
 7    1  0.2989693E-009  0.1419853E+03  0.7561462E-02  0.1210682E+00
         -2   -1    0    0    0  501 -0.00000000000E+00  0.00000000000E+00  0.10134125955E+03  0.10134125955E+03  0.00000000000E+00 0.  1.
          2   -1    0    0  501    0  0.00000000000E+00 -0.00000000000E+00 -0.31189105694E+03  0.31189105694E+03  0.00000000000E+00 0. -1.
         25    2    1    2    0    0  0.10921063882E+03 -0.88073971049E+02 -0.88622771748E+02  0.20781112753E+03  0.12508989186E+03 0.  0.
          5    1    3    3  502    0  0.90327089321E+01 -0.19809047190E+02 -0.83513298754E+02  0.86405622792E+02  0.41800000000E+01 0. -1.
         -5    1    3    3    0  502  0.10017792989E+03 -0.68264923859E+02 -0.51094729937E+01  0.12140550474E+03  0.41800000000E+01 0. -1.
        -11    1    1    2    0    0 -0.29265080099E+02  0.19392451872E+02  0.10055990921E+02  0.36518968444E+02  0.00000000000E+00 0.  1.
         11    1    1    2    0    0 -0.79945558720E+02  0.68681519177E+02 -0.13198301656E+03  0.16890222052E+03  0.00000000000E+00 0. -1.
</event>
<event>
 7    1  0.2989693E-009  0.1336545E+03  0.7561462E-02  0.1222132E+00
          3   -1    0    0  501    0  0.00000000000E+00  0.00000000000E+00  0.13972753718E+03  0.13972753718E+03  0.00000000000E+00 0. -1.
         -3   -1    0    0    0  501 -0.00000000000E+00 -0.00000000000E+00 -0.16131626565E+03  0.16131626565E+03  0.00000000000E+00 0.  1.
         25    2    1    2    0    0  0.94615366930E+02  0.42615337032E+02 -0.12555331617E+02  0.16300198552E+03  0.12507548250E+03 0.  0.
          5    1    3    3  502    0  0.10698508787E+03  0.28391624464E+02  0.31283105999E+02  0.11509994999E+03  0.41800000000E+01 0. -1.
         -5    1    3    3    0  502 -0.12369720943E+02  0.14223712568E+02 -0.43838437616E+02  0.47902035532E+02  0.41800000000E+01 0. -1.
        -11    1    1    2    0    0 -0.78914410277E+02 -0.70117862965E+02 -0.19129950517E+01  0.10558247206E+03  0.00000000000E+00 0. -1.
         11    1    1    2    0    0 -0.15700956654E+02  0.27502525933E+02 -0.71204017991E+01  0.32459345254E+02  0.00000000000E+00 0.  1.
</event>
<event>
 7    1  0.2989693E-009  0.1063856E+03  0.7561462E-02  0.1267414E+00
         -2   -1    0    0    0  501 -0.00000000000E+00  0.00000000000E+00  0.20255140353E+02  0.20255140353E+02  0.00000000000E+00 0.  1.
          2   -1    0    0  501    0  0.00000000000E+00 -0.00000000000E+00 -0.66309563969E+03  0.66309563969E+03  0.00000000000E+00 0. -1.
         25    2    1    2    0    0 -0.33265445888E+02  0.32315213276E+02 -0.36077202823E+03  0.38465000967E+03  0.12509320800E+03 0.  0.
          5    1    3    3  502    0 -0.90425877677E+01 -0.39268260588E+02 -0.23011914587E+03  0.23365799447E+03  0.41800000000E+01 0.  1.
         -5    1    3    3    0  502 -0.24222858120E+02  0.71583473864E+02 -0.13065288236E+03  0.15099201520E+03  0.41800000000E+01 0.  1.
        -11    1    1    2    0    0  0.58897456852E+02 -0.38294799821E+02 -0.22779387701E+03  0.23838089798E+03  0.00000000000E+00 0. -1.
         11    1    1    2    0    0 -0.25632010964E+02  0.59795865443E+01 -0.54274594101E+02  0.60319872398E+02  0.00000000000E+00 0.  1.
</event>
<event>
 7    1  0.4025574E-009  0.1030003E+03  0.7561462E-02  0.1274110E+00
          2   -1    0    0  501    0  0.00000000000E+00  0.00000000000E+00  0.72953303487E+03  0.72953303487E+03  0.00000000000E+00 0.  1.
         -2   -1    0    0    0  501 -0.00000000000E+00 -0.00000000000E+00 -0.19594725479E+02  0.19594725479E+02  0.00000000000E+00 0. -1.
         25    2    1    2    0    0 -0.28565835338E+02 -0.25119242707E+02  0.50289263350E+03  0.51961150363E+03  0.12509248810E+03 0.  0.
          5    1    3    3  502    0 -0.30900741633E+02 -0.71554970395E+02  0.23340201950E+03  0.24610758771E+03  0.41800000000E+01 0. -1.
         -5    1    3    3    0  502  0.23349062950E+01  0.46435727688E+02  0.26949061400E+03  0.27350391592E+03  0.41800000000E+01 0. -1.
        -11    1    1    2    0    0  0.52819927483E+02  0.19976038889E+02  0.19284671095E+03  0.20094487004E+03  0.00000000000E+00 0.  1.
         11    1    1    2    0    0 -0.24254092145E+02  0.51432038180E+01  0.14198964942E+02  0.28571386678E+02  0.00000000000E+00 0. -1.
</event>
<event>
 7    1  0.2989693E-009  0.9176650E+02  0.7561462E-02  0.1298629E+00
         -2   -1    0    0    0  501 -0.00000000000E+00  0.00000000000E+00  0.58515268768E+02  0.58515268768E+02  0.00000000000E+00 0.  1.
          2   -1    0    0  501    0  0.00000000000E+00 -0.00000000000E+00 -0.25875028698E+03  0.25875028698E+03  0.00000000000E+00 0. -1.
         25    2    1    2    0    0 -0.28993038412E+02  0.43670583918E+02 -0.13771555662E+03  0.19329562872E+03  0.12509959781E+03 0.  0.
          5    1    3    3  502    0  0.19315303912E+02  0.46831992224E+02 -0.13542448081E+03  0.14464984916E+03  0.41800000000E+01 0.  1.
         -5    1    3    3    0  502 -0.48308342323E+02 -0.31614083057E+01 -0.22910758115E+01  0.48645779559E+02  0.41800000000E+01 0.  1.
        -11    1    1    2    0    0 -0.20716241032E+02 -0.54928916992E+01  0.13587083364E+02  0.25376038620E+02  0.00000000000E+00 0.  1.
         11    1    1    2    0    0  0.49709279443E+02 -0.38177692219E+02 -0.76106544957E+02  0.98593888407E+02  0.00000000000E+00 0. -1.
</event>
<event>
 7    1  0.2989693E-009  0.1662011E+03  0.7561462E-02  0.1181868E+00
         -2   -1    0    0    0  501 -0.00000000000E+00  0.00000000000E+00  0.21576916165E+02  0.21576916165E+02  0.00000000000E+00 0.  1.
          2   -1    0    0  501    0  0.00000000000E+00 -0.00000000000E+00 -0.14287246419E+04  0.14287246419E+04  0.00000000000E+00 0. -1.
         25    2    1    2    0    0 -0.12038687518E+03  0.53690934202E+02 -0.90654006062E+03  0.92457471824E+03  0.12509121458E+03 0.  0.
          5    1    3    3  502    0  0.15241644723E+02  0.30315442673E+02 -0.33245370789E+03  0.33420693304E+03  0.41800000000E+01 0. -1.
         -5    1    3    3    0  502 -0.13562851990E+03  0.23375491529E+02 -0.57408635273E+03  0.59036778520E+03  0.41800000000E+01 0. -1.
        -11    1    1    2    0    0  0.65741065157E+02 -0.76884338530E+02 -0.30972224341E+03  0.32582350624E+03  0.00000000000E+00 0.  1.
         11    1    1    2    0    0  0.54645810024E+02  0.23193404328E+02 -0.19088542170E+03  0.19990333357E+03  0.00000000000E+00 0. -1.
</event>
<event>
 7    1  0.2989693E-009  0.8716535E+02  0.7561462E-02  0.1309865E+00
          3   -1    0    0  501    0  0.00000000000E+00  0.00000000000E+00  0.16408762584E+03  0.16408762584E+03  0.00000000000E+00 0. -1.
         -3   -1    0    0    0  501 -0.00000000000E+00 -0.00000000000E+00 -0.12048530066E+03  0.12048530066E+03  0.00000000000E+00 0.  1.
         25    2    1    2    0    0  0.20442024767E+02 -0.12211644084E+02 -0.62331119225E+02  0.14177363606E+03  0.12509034667E+03 0.  0.
          5    1    3    3  502    0 -0.44860221439E+02 -0.30238846674E+02 -0.80316581200E+01  0.54852595635E+02  0.41800000000E+01 0. -1.
         -5    1    3    3    0  502  0.65302246206E+02  0.18027202590E+02 -0.54299461105E+02  0.86921040428E+02  0.41800000000E+01 0. -1.
        -11    1    1    2    0    0 -0.31918257304E+02  0.20592872213E+02  0.11812086567E+03  0.12407812233E+03  0.00000000000E+00 0. -1.
         11    1    1    2    0    0  0.11476232537E+02 -0.83812281288E+01 -0.12187421263E+02  0.18721168105E+02  0.00000000000E+00 0.  1.
</event>
<event>
 7    1  0.2989693E-009  0.1067425E+03  0.7561462E-02  0.1266724E+00
         -1   -1    0    0    0  501 -0.00000000000E+00  0.00000000000E+00  0.61354496045E+02  0.61354496045E+02  0.00000000000E+00 0.  1.
          1   -1    0    0  501    0  0.00000000000E+00 -0.00000000000E+00 -0.28447957141E+03  0.28447957141E+03  0.00000000000E+00 0. -1.
         25    2    1    2    0    0  0.91137749345E+01  0.65541989640E+02 -0.16708904591E+03  0.21896450916E+03  0.12509154131E+03 0.  0.
          5    1    3    3  502    0  0.58746034153E+02  0.20354050598E+01 -0.53296287864E+02  0.79455686408E+02  0.41800000000E+01 0.  1.
         -5    1    3    3    0  502 -0.49632259218E+02  0.63506584580E+02 -0.11379275805E+03  0.13950882275E+03  0.41800000000E+01 0.  1.
        -11    1    1    2    0    0 -0.10946029346E+02 -0.30984702052E+01  0.23277261849E+02  0.25908434828E+02  0.00000000000E+00 0.  1.
         11    1    1    2    0    0  0.18322544117E+01 -0.62443519434E+02 -0.79313291296E+02  0.10096112347E+03  0.00000000000E+00 0. -1.
</event>
<event>
 7    1  0.2989693E-009  0.1731965E+03  0.7561462E-02  0.1174555E+00
         -4   -1    0    0    0  501 -0.00000000000E+00  0.00000000000E+00  0.17293479920E+03  0.17293479920E+03  0.00000000000E+00 0.  1.
          4   -1    0    0  501    0  0.00000000000E+00 -0.00000000000E+00 -0.22143124422E+03  0.22143124422E+03  0.00000000000E+00 0. -1.
         25    2    1    2    0    0  0.15322266702E+03  0.51193028022E+02 -0.44961345479E+01  0.20436024297E+03  0.12507990196E+03 0.  0.
          5    1    3    3  502    0  0.16128411875E+03  0.51440127198E+02  0.27090319403E+02  0.17149347350E+03  0.41800000000E+01 0.  1.
         -5    1    3    3    0  502 -0.80614517363E+01 -0.24709917584E+00 -0.31586453951E+02  0.32866769468E+02  0.41800000000E+01 0.  1.
        -11    1    1    2    0    0 -0.46126502886E+02 -0.38577034475E+02  0.21470981429E+02  0.63850175419E+02  0.00000000000E+00 0.  1.
         11    1    1    2    0    0 -0.10709616413E+03 -0.12615993547E+02 -0.65471291901E+02  0.12615562504E+03  0.00000000000E+00 0. -1.
</event>
<event>
 7    1  0.2989693E-009  0.1167732E+03  0.7561462E-02  0.1248517E+00
          3   -1    0    0  501    0  0.00000000000E+00  0.00000000000E+00  0.27135476191E+02  0.27135476191E+02  0.00000000000E+00 0. -1.
         -3   -1    0    0    0  501 -0.00000000000E+00 -0.00000000000E+00 -0.67475393430E+03  0.67475393430E+03  0.00000000000E+00 0.  1.
         25    2    1    2    0    0 -0.55085840002E+02 -0.55380210610E+02 -0.36283947394E+03  0.39166489112E+03  0.12508991004E+03 0.  0.
          5    1    3    3  502    0 -0.27993073119E+02 -0.80401655461E+02 -0.33387863332E+03  0.34458736560E+03  0.41800000000E+01 0.  1.
         -5    1    3    3    0  502 -0.27092766883E+02  0.25021444851E+02 -0.28960840615E+02  0.47077525519E+02  0.41800000000E+01 0.  1.
        -11    1    1    2    0    0  0.69813410723E+02  0.19618974479E+02 -0.24164090764E+03  0.25228782119E+03  0.00000000000E+00 0.  1.
         11    1    1    2    0    0 -0.14727570721E+02  0.35761236131E+02 -0.43138076529E+02  0.57936698176E+02  0.00000000000E+00 0. -1.
</event>
<event>
 7    1  0.3512916E-009  0.1951790E+03  0.7561462E-02  0.1153871E+00
          4   -1    0    0  501    0  0.00000000000E+00  0.00000000000E+00  0.13191732803E+04  0.13191732803E+04  0.00000000000E+00 0. -1.
         -4   -1    0    0    0  501 -0.00000000000E+00 -0.00000000000E+00 -0.35159154711E+02  0.35159154711E+02  0.00000000000E+00 0.  1.
         25    2    1    2    0    0  0.11740559952E+03 -0.13314585870E+03  0.83486546098E+03  0.86264696270E+03  0.12509016684E+03 0.  0.
          5    1    3    3  502    0  0.89644245708E+02 -0.14048709900E+03  0.51145294322E+03  0.53793522036E+03  0.41800000000E+01 0.  1.
         -5    1    3    3    0  502  0.27761353810E+02  0.73412402965E+01  0.32341251775E+03  0.32471174234E+03  0.41800000000E+01 0.  1.
        -11    1    1    2    0    0 -0.70085264899E+02  0.21393522811E+02  0.11691687758E+03  0.13798254758E+03  0.00000000000E+00 0.  1.
         11    1    1    2    0    0 -0.47320334619E+02  0.11175233589E+03  0.33223178706E+03  0.35370292475E+03  0.00000000000E+00 0. -1.
</event>
<event>
 7    1  0.2989693E-009  0.1085326E+03  0.7561462E-02  0.1263312E+00
         -1   -1    0    0    0  501 -0.00000000000E+00  0.00000000000E+00  0.40817072315E+02  0.40817072315E+02  0.00000000000E+00 0.  1.
          1   -1    0    0  501    0  0.00000000000E+00 -0.00000000000E+00 -0.43689459227E+03  0.43689459227E+03  0.00000000000E+00 0. -1.
         25    2    1    2    0    0 -0.70281352145E+02 -0.14764433386E+02 -0.25924585195E+03  0.29667123066E+03  0.12509176789E+03 0.  0.
          5    1    3    3  502    0  0.80645928583E+01 -0.53365648673E+02 -0.72613065285E+02  0.90570744539E+02  0.41800000000E+01 0.  1.
         -5    1    3    3    0  502 -0.78345945004E+02  0.38601215287E+02 -0.18663278667E+03  0.20610048612E+03  0.41800000000E+01 0.  1.
        -11    1    1    2    0    0  0.42822144141E+02  0.20444493538E+02 -0.67010831811E+01  0.47923041020E+02  0.00000000000E+00 0.  1.
         11    1    1    2    0    0  0.27459208005E+02 -0.56800601510E+01 -0.13013058483E+03  0.13311739291E+03  0.00000000000E+00 0. -1.
</event>
<event>
 7    1  0.2989693E-009  0.1027961E+03  0.7561462E-02  0.1274524E+00
         -1   -1    0    0    0  501 -0.00000000000E+00  0.00000000000E+00  0.30092660965E+02  0.30092660965E+02  0.00000000000E+00 0.  1.
          1   -1    0    0  501    0  0.00000000000E+00 -0.00000000000E+00 -0.50032668064E+03  0.50032668064E+03  0.00000000000E+00 0. -1.
         25    2    1    2    0    0  0.33757049848E+00 -0.46003733596E+02 -0.33397707961E+03  0.35959213781E+03  0.12509739570E+03 0.  0.
          5    1    3    3  502    0 -0.12470661905E+02 -0.83260311855E+02 -0.15660481839E+03  0.17784920152E+03  0.41800000000E+01 0. -1.
         -5    1    3    3    0  502  0.12808232404E+02  0.37256578259E+02 -0.17737226122E+03  0.18174293629E+03  0.41800000000E+01 0. -1.
        -11    1    1    2    0    0  0.22231219048E+02 -0.76209823614E+01 -0.92540479628E+00  0.23519414248E+02  0.00000000000E+00 0.  1.
         11    1    1    2    0    0 -0.22568789547E+02  0.53624715958E+02 -0.13533153527E+03  0.14730778954E+03  0.00000000000E+00 0. -1.
</event>
<event>
 7    1  0.2989693E-009  0.1137064E+03  0.7561462E-02  0.1253856E+00
          2   -1    0    0  501    0  0.00000000000E+00  0.00000000000E+00  0.69566918886E+03  0.69566918886E+03  0.00000000000E+00 0. -1.
         -2   -1    0    0    0  501 -0.00000000000E+00 -0.00000000000E+00 -0.30114409667E+02  0.30114409667E+02  0.00000000000E+00 0.  1.
         25    2    1    2    0    0  0.27731379855E+02 -0.51108976021E+02  0.54075903339E+03  0.55807614583E+03  0.12508994963E+03 0.  0.
          5    1    3    3  502    0  0.56391864010E+02  0.18492762103E+02  0.18183125329E+03  0.19131675737E+03  0.41800000000E+01 0. -1.
         -5    1    3    3    0  502 -0.28660484155E+02 -0.69601738124E+02  0.35892778009E+03  0.36675938846E+03  0.41800000000E+01 0. -1.
        -11    1    1    2    0    0  0.19895798238E+02 -0.33590971783E+01 -0.34392826112E+01  0.20468389928E+02  0.00000000000E+00 0.  1.
         11    1    1    2    0    0 -0.47627178093E+02  0.54468073199E+02  0.12823502842E+03  0.14723906277E+03  0.00000000000E+00 0. -1.
</event>
<event>
 7    1  0.2989693E-009  0.8312353E+02  0.7561462E-02  0.1320414E+00
          2   -1    0    0  501    0  0.00000000000E+00  0.00000000000E+00  0.97039472373E+02  0.97039472373E+02  0.00000000000E+00 0. -1.
         -2   -1    0    0    0  501 -0.00000000000E+00 -0.00000000000E+00 -0.12097846931E+03  0.12097846931E+03  0.00000000000E+00 0.  1.
         25    2    1    2    0    0  0.76617241879E+01  0.64543600797E+01 -0.24175707019E+02  0.12779557578E+03  0.12508750376E+03 0.  0.
          5    1    3    3  502    0 -0.26058932918E+02  0.57047657588E+02 -0.18294997663E+01  0.62883405526E+02  0.41800000000E+01 0.  1.
         -5    1    3    3    0  502  0.33720657106E+02 -0.50593297508E+02 -0.22346207253E+02  0.64912170254E+02  0.41800000000E+01 0.  1.
        -11    1    1    2    0    0 -0.69617770750E+01 -0.23947341826E+02  0.39794768222E+02  0.46963444278E+02  0.00000000000E+00 0. -1.
         11    1    1    2    0    0 -0.69994711293E+00  0.17492981746E+02 -0.39558058139E+02  0.43258921624E+02  0.00000000000E+00 0.  1.
</event>
<event>
 7    1  0.3274228E-009  0.1475248E+03  0.7561462E-02  0.1203548E+00
          1   -1    0    0  501    0  0.00000000000E+00  0.00000000000E+00  0.71430659273E+03  0.71430659273E+03  0.00000000000E+00 0. -1.
         -1   -1    0    0    0  501 -0.00000000000E+00 -0.00000000000E+00 -0.34724244854E+02  0.34724244854E+02  0.00000000000E+00 0.  1.
         25    2    1    2    0    0 -0.38730751583E+02 -0.10640144294E+03  0.38829496574E+03  0.42336972051E+03  0.12509037390E+03 0.  0.
          5    1    3    3  502    0  0.42888317717E+02 -0.18435760846E+02  0.83127831900E+02  0.95430571155E+02  0.41800000000E+01 0.  1.
         -5    1    3    3    0  502 -0.81619069299E+02 -0.87965682099E+02  0.30516713384E+03  0.32793914935E+03  0.41800000000E+01 0.  1.
        -11    1    1    2    0    0 -0.14715152908E+02  0.41510123389E+02  0.35982894638E+02  0.56871739691E+02  0.00000000000E+00 0.  1.
         11    1    1    2    0    0  0.53445904491E+02  0.64891319555E+02  0.25530448750E+03  0.26878937739E+03  0.00000000000E+00 0. -1.
</event>
<event>
 7    1  0.2989693E-009  0.1131578E+03  0.7561462E-02  0.1254831E+00
         -1   -1    0    0    0  501 -0.00000000000E+00  0.00000000000E+00  0.98294039209E+02  0.98294039209E+02  0.00000000000E+00 0.  1.
          1   -1    0    0  501    0  0.00000000000E+00 -0.00000000000E+00 -0.20122034690E+03  0.20122034690E+03  0.00000000000E+00 0. -1.
         25    2    1    2    0    0  0.60295640203E+02  0.78297954415E+00 -0.12907100494E+03  0.18959105341E+03  0.12509702607E+03 0.  0.
          5    1    3    3  502    0  0.91324796255E+02  0.29828396137E+02 -0.89018126894E+02  0.13104064615E+03  0.41800000000E+01 0. -1.
         -5    1    3    3    0  502 -0.31029156052E+02 -0.29045416593E+02 -0.40052878051E+02  0.58550407262E+02  0.41800000000E+01 0. -1.
        -11    1    1    2    0    0 -0.52427357450E+02  0.26716142334E+02 -0.14140069383E+02  0.60517118509E+02  0.00000000000E+00 0. -1.
         11    1    1    2    0    0 -0.78682827526E+01 -0.27499121879E+02  0.40284766637E+02  0.49406214190E+02  0.00000000000E+00 0.  1.
</event>
<event>
 7    1  0.2989693E-009  0.1413753E+03  0.7561462E-02  0.1211490E+00
          4   -1    0    0  501    0  0.00000000000E+00  0.00000000000E+00  0.37609138360E+02  0.37609138360E+02  0.00000000000E+00 0. -1.
         -4   -1    0    0    0  501 -0.00000000000E+00 -0.00000000000E+00 -0.57656795944E+03  0.57656795944E+03  0.00000000000E+00 0.  1.
         25    2    1    2    0    0 -0.84495202094E+02 -0.77355608870E+02 -0.24649554067E+03  0.29922021171E+03  0.12509737858E+03 0.  0.
          5    1    3    3  502    0 -0.44298444468E+02 -0.10815026440E+03 -0.19117444238E+03  0.22410705409E+03  0.41800000000E+01 0. -1.
         -5    1    3    3    0  502 -0.40196757625E+02  0.30794655529E+02 -0.55321098287E+02  0.75113157625E+02  0.41800000000E+01 0. -1.
        -11    1    1    2    0    0  0.19739542784E+02  0.12603335567E+02 -0.85280797599E+02  0.88438159501E+02  0.00000000000E+00 0.  1.
         11    1    1    2    0    0  0.64755659310E+02  0.64752273302E+02 -0.20718248282E+03  0.22651872659E+03  0.00000000000E+00 0. -1.
</event>
<event>
 7    1  0.2989693E-009  0.1171016E+03  0.7561462E-02  0.1247957E+00
         -2   -1    0    0    0  501 -0.00000000000E+00  0.00000000000E+00  0.35069443757E+03  0.35069443757E+03  0.00000000000E+00 0. -1.
          2   -1    0    0  501    0  0.00000000000E+00 -0.00000000000E+00 -0.92809064091E+02  0.92809064091E+02  0.00000000000E+00 0.  1.
         25    2    1    2    0    0  0.25840891955E+02  0.67310247303E+02 -0.16524950816E+02  0.14532459639E+03  0.12509093983E+03 0.  0.
          5    1    3    3  502    0 -0.27043622987E+02  0.80925856561E+02 -0.26939501182E+02  0.89574331861E+02  0.41800000000E+01 0.  1.
         -5    1    3    3    0  502  0.52884514942E+02 -0.13615609258E+02  0.10414550366E+02  0.55750264532E+02  0.41800000000E+01 0.  1.
        -11    1    1    2    0    0 -0.15190181050E+02 -0.77674485883E+02  0.27180169803E+03  0.28309049862E+03  0.00000000000E+00 0. -1.
         11    1    1    2    0    0 -0.10650710904E+02  0.10364238581E+02  0.26086262650E+01  0.15088406646E+02  0.00000000000E+00 0.  1.
</event>
<event>
 7    1  0.2989693E-009  0.6570917E+02  0.7561462E-02  0.1375324E+00
          2   -1    0    0  501    0  0.00000000000E+00  0.00000000000E+00  0.31832566431E+03  0.31832566431E+03  0.00000000000E+00 0.  1.
         -2   -1    0    0    0  501 -0.00000000000E+00 -0.00000000000E+00 -0.47430470578E+02  0.47430470578E+02  0.00000000000E+00 0. -1.
         25    2    1    2    0    0  0.56741151025E+02  0.47065266986E+01  0.14342870863E+03  0.19864908004E+03  0.12509177802E+03 0.  0.
          5    1    3    3  502    0  0.60034823081E+02 -0.71880791413E+01  0.16369511708E+03  0.17455489744E+03  0.41800000000E+01 0.  1.
         -5    1    3    3    0  502 -0.32936720555E+01  0.11894605840E+02 -0.20266408452E+02  0.24094182601E+02  0.41800000000E+01 0.  1.
        -11    1    1    2    0    0 -0.24095413076E+02 -0.68893109340E+01 -0.91105769503E+01  0.26665598602E+02  0.00000000000E+00 0. -1.
         11    1    1    2    0    0 -0.32645737950E+02  0.21827842355E+01  0.13657706206E+03  0.14044145625E+03  0.00000000000E+00 0.  1.
</event>
<event>
 7    1  0.2989693E-009  0.9968006E+02  0.7561462E-02  0.1280970E+00
         -2   -1    0    0    0  501 -0.00000000000E+00  0.00000000000E+00  0.84081967965E+02  0.84081967965E+02  0.00000000000E+00 0.  1.
          2   -1    0    0  501    0  0.00000000000E+00 -0.00000000000E+00 -0.43862399078E+03  0.43862399078E+03  0.00000000000E+00 0. -1.
         25    2    1    2    0    0 -0.48064376968E+02  0.64217776837E+02 -0.37027636287E+03  0.39898117950E+03  0.12508912621E+03 0.  0.
          5    1    3    3  502    0 -0.12776983547E+02 -0.12899704905E+02  0.46850453499E+00  0.18637209869E+02  0.41800000000E+01 0.  1.
         -5    1    3    3    0  502 -0.35287393420E+02  0.77117481742E+02 -0.37074486740E+03  0.38034396963E+03  0.41800000000E+01 0.  1.
        -11    1    1    2    0    0  0.32964052609E+02 -0.71737939499E+02  0.44315710114E+02  0.90536417485E+02  0.00000000000E+00 0.  1.
         11    1    1    2    0    0  0.15100324358E+02  0.75201626627E+01 -0.28581370063E+02  0.33188361769E+02  0.00000000000E+00 0. -1.
</event>
<event>
 7    1  0.2989693E-009  0.9251271E+02  0.7561462E-02  0.1296878E+00
         -1   -1    0    0    0  501 -0.00000000000E+00  0.00000000000E+00  0.13276522765E+03  0.13276522765E+03  0.00000000000E+00 0.  1.
          1   -1    0    0  501    0  0.00000000000E+00 -0.00000000000E+00 -0.11532538355E+03  0.11532538355E+03  0.00000000000E+00 0. -1.
         25    2    1    2    0    0  0.34337183093E+02 -0.51648465323E+02  0.86630916220E+01  0.13989076160E+03  0.12509104649E+03 0.  0.
          5    1    3    3  502    0 -0.26073693327E+02 -0.13936626246E+02  0.49413418708E+02  0.57734092036E+02  0.41800000000E+01 0. -1.
         -5    1    3    3    0  502  0.60410876420E+02 -0.37711839076E+02 -0.40750327086E+02  0.82156669565E+02  0.41800000000E+01 0. -1.
        -11    1    1    2    0    0 -0.79236847202E+01 -0.12304883803E+02  0.32020686136E+02  0.35206807375E+02  0.00000000000E+00 0.  1.
         11    1    1    2    0    0 -0.26413498372E+02  0.63953349125E+02 -0.23243933665E+02  0.72993042222E+02  0.00000000000E+00 0. -1.
</event>
<event>
 7    1  0.2989693E-009  0.1195796E+03  0.7561462E-02  0.1243792E+00
         -2   -1    0    0    0  501 -0.00000000000E+00  0.00000000000E+00  0.49061719001E+03  0.49061719001E+03  0.00000000000E+00 0.  1.
          2   -1    0    0  501    0  0.00000000000E+00 -0.00000000000E+00 -0.34976197138E+02  0.34976197138E+02  0.00000000000E+00 0. -1.
         25    2    1    2    0    0 -0.57984195164E+02  0.20005155940E+02  0.33428266332E+03  0.36215261036E+03  0.12508893253E+03 0.  0.
          5    1    3    3  502    0  0.45852388668E+00 -0.47504012932E+02  0.87067103102E+02  0.99272324096E+02  0.41800000000E+01 0. -1.
         -5    1    3    3    0  502 -0.58442719050E+02  0.67509168872E+02  0.24721556022E+03  0.26288028626E+03  0.41800000000E+01 0. -1.
        -11    1    1    2    0    0  0.67661514537E+02 -0.40893079337E+02  0.11500723881E+03  0.13955998519E+03  0.00000000000E+00 0.  1.
         11    1    1    2    0    0 -0.96773193732E+01  0.20887923396E+02  0.63510907491E+01  0.23880791607E+02  0.00000000000E+00 0. -1.
</event>
<event>
 7    1  0.2989693E-009  0.9758814E+02  0.7561462E-02  0.1285451E+00
         -2   -1    0    0    0  501 -0.00000000000E+00  0.00000000000E+00  0.24187552090E+03  0.24187552090E+03  0.00000000000E+00 0.  1.
          2   -1    0    0  501    0  0.00000000000E+00 -0.00000000000E+00 -0.55635447167E+02  0.55635447167E+02  0.00000000000E+00 0. -1.
         25    2    1    2    0    0 -0.56370528154E+01  0.99533524064E+01  0.54238830341E+02  0.13682206618E+03  0.12509029334E+03 0.  0.
          5    1    3    3  502    0 -0.56672744179E+02  0.54077340663E+01 -0.62665644820E+01  0.57426350667E+02  0.41800000000E+01 0.  1.
         -5    1    3    3    0  502  0.51035691364E+02  0.45456183400E+01  0.60505394823E+02  0.79395715512E+02  0.41800000000E+01 0.  1.
        -11    1    1    2    0    0 -0.19647112833E+00  0.38189467269E+02  0.33099701106E+02  0.50537750489E+02  0.00000000000E+00 0. -1.
         11    1    1    2    0    0  0.58335239437E+01 -0.48142819675E+02  0.98901542286E+02  0.11015115140E+03  0.00000000000E+00 0.  1.
</event>
<event>
 7    1  0.2989693E-009  0.8580005E+02  0.7561462E-02  0.1313353E+00
          1   -1    0    0  501    0  0.00000000000E+00  0.00000000000E+00  0.55103669637E+02  0.55103669637E+02  0.00000000000E+00 0. -1.
         -1   -1    0    0    0  501 -0.00000000000E+00 -0.00000000000E+00 -0.26424719570E+03  0.26424719570E+03  0.00000000000E+00 0.  1.
         25    2    1    2    0    0 -0.48670467649E+01 -0.49814969508E+01 -0.18738374121E+03  0.22540586194E+03  0.12508650077E+03 0.  0.
          5    1    3    3  502    0 -0.65073284395E+00 -0.56125554198E+02 -0.15420019850E+03  0.16415137801E+03  0.41800000000E+01 0.  1.
         -5    1    3    3    0  502 -0.42163139210E+01  0.51144057247E+02 -0.33183542709E+02  0.61254483930E+02  0.41800000000E+01 0.  1.
        -11    1    1    2    0    0  0.23598888146E+02  0.26375817028E+02 -0.44978862215E+02  0.57233637765E+02  0.00000000000E+00 0.  1.
         11    1    1    2    0    0 -0.18731841381E+02 -0.21394320077E+02  0.23219077356E+02  0.36711365629E+02  0.00000000000E+00 0. -1.
</event>
<event>
 7    1  0.2989693E-009  0.1285869E+03  0.7561462E-02  0.1229568E+00
         -1   -1    0    0    0  501 -0.00000000000E+00  0.00000000000E+00  0.24850282442E+03  0.24850282442E+03  0.00000000000E+00 0.  1.
          1   -1    0    0  501    0  0.00000000000E+00 -0.00000000000E+00 -0.10049796782E+03  0.10049796782E+03  0.00000000000E+00 0. -1.
         25    2    1    2    0    0 -0.11177604750E+03 -0.17293506322E+02  0.81642984923E+02  0.18736677816E+03  0.12509109646E+03 0.  0.
          5    1    3    3  502    0 -0.11791814624E+03 -0.28044889142E+02  0.10512110639E+03  0.16049649351E+03  0.41800000000E+01 0. -1.
         -5    1    3    3    0  502  0.61420987395E+01  0.10751382820E+02 -0.23478121469E+02  0.26870284650E+02  0.41800000000E+01 0. -1.
        -11    1    1    2    0    0  0.10520057011E+03  0.94539215246E+00  0.13688749061E+02  0.10609163760E+03  0.00000000000E+00 0. -1.
         11    1    1    2    0    0  0.65754773819E+01  0.16348114170E+02  0.52673122614E+02  0.55542376485E+02  0.00000000000E+00 0.  1.
</event>
<event>
 6    1  0.2989693E-009  0.1147676E+03  0.7561462E-02  0.1251987E+00
          1   -1    0    0  501    0  0.00000000000E+00  0.00000000000E+00  0.13559456998E+04  0.13559456998E+04  0.00000000000E+00 0. -1.
         -1   -1    0    0    0  501 -0.00000000000E+00 -0.00000000000E+00 -0.15555730721E+02  0.15555730721E+02  0.00000000000E+00 0.  1.
          5    1    1    2  502    0  0.74100912317E+02  0.41915961128E+02  0.73004223751E+03  0.73500138364E+03  0.41800000000E+01 0. -1.
         -5    1    1    2    0  502 -0.32196451553E+02 -0.33767512807E+02  0.40636681152E+03  0.40905783737E+03  0.41800000000E+01 0. -1.
        -11    1    1    2    0    0  0.26073902005E+02  0.85776798007E+01  0.34606558208E+02  0.44170565171E+02  0.00000000000E+00 0.  1.
         11    1    1    2    0    0 -0.67978362769E+02 -0.16726128122E+02  0.16937436181E+03  0.18327164430E+03  0.00000000000E+00 0. -1.
</event>
<event>
 7    1  0.2989693E-009  0.9731087E+02  0.7561462E-02  0.1286055E+00
         -3   -1    0    0    0  501 -0.00000000000E+00  0.00000000000E+00  0.23707832161E+02  0.23707832161E+02  0.00000000000E+00 0.  1.
          3   -1    0    0  501    0  0.00000000000E+00 -0.00000000000E+00 -0.80199936146E+03  0.80199936146E+03  0.00000000000E+00 0. -1.
         25    2    1    2    0    0  0.61081170602E+02 -0.43224241661E+02 -0.31085706887E+03  0.34333493043E+03  0.12509001846E+03 0.  0.
          5    1    3    3  502    0  0.25954870402E+02 -0.11387745064E+02  0.20786560454E+00  0.28650508605E+02  0.41800000000E+01 0.  1.
         -5    1    3    3    0  502  0.35126300200E+02 -0.31836496597E+02 -0.31106493447E+03  0.31468442182E+03  0.41800000000E+01 0.  1.
        -11    1    1    2    0    0 -0.80937762960E+02  0.12643633233E+02 -0.34704676029E+03  0.35658412298E+03  0.00000000000E+00 0. -1.
         11    1    1    2    0    0  0.19856592358E+02  0.30580608428E+02 -0.12038770014E+03  0.12578814021E+03  0.00000000000E+00 0.  1.
</event>
<event>
 7    1  0.2989693E-009  0.1658735E+03  0.7561462E-02  0.1182221E+00
          1   -1    0    0  501    0  0.00000000000E+00  0.00000000000E+00  0.24237361774E+02  0.24237361774E+02  0.00000000000E+00 0. -1.
         -1   -1    0    0    0  501 -0.00000000000E+00 -0.00000000000E+00 -0.15558849281E+04  0.15558849281E+04  0.00000000000E+00 0.  1.
         25    2    1    2    0    0  0.44587083059E+02  0.14721674804E+03 -0.99845619457E+03  0.10179501137E+04  0.12508749971E+03 0.  0.
          5    1    3    3  502    0  0.50940982654E+02  0.51573340370E+02 -0.18315537191E+03  0.19702323672E+03  0.41800000000E+01 0. -1.
         -5    1    3    3    0  502 -0.63538995952E+01  0.95643407665E+02 -0.81530082266E+03  0.82092687695E+03  0.41800000000E+01 0. -1.
        -11    1    1    2    0    0 -0.52717027284E+02 -0.82092820730E+02 -0.42134282174E+03  0.43249056592E+03  0.00000000000E+00 0.  1.
         11    1    1    2    0    0  0.81299442253E+01 -0.65123927306E+02 -0.11184854998E+03  0.12968161023E+03  0.00000000000E+00 0. -1.
</event>
<event>
 7    1  0.2989693E-009  0.3413575E+03  0.7561462E-02  0.1066219E+00
          1   -1    0    0  501    0  0.00000000000E+00  0.00000000000E+00  0.21385669660E+04  0.21385669660E+04  0.00000000000E+00 0. -1.
         -1   -1    0    0    0  501 -0.00000000000E+00 -0.00000000000E+00 -0.71787320833E+02  0.71787320833E+02  0.00000000000E+00 0.  1.
         25    2    1    2    0    0 -0.27480187882E+03  0.19479375193E+03  0.15170392142E+04  0.15590111528E+04  0.12508844347E+03 0.  0.
          5    1    3    3  502    0 -0.37794881291E+02  0.17996639980E+02  0.66901073515E+02  0.79028843721E+02  0.41800000000E+01 0.  1.
         -5    1    3    3    0  502 -0.23700699752E+03  0.17679711195E+03  0.14501381407E+04  0.14799823090E+04  0.41800000000E+01 0.  1.
        -11    1    1    2    0    0  0.13620020756E+03 -0.14160365264E+03  0.26113209797E+03  0.32679055000E+03  0.00000000000E+00 0. -1.
         11    1    1    2    0    0  0.13860167126E+03 -0.53190099287E+02  0.28860833303E+03  0.32455258408E+03  0.00000000000E+00 0.  1.
</event>
<event>
 7    1  0.2989693E-009  0.9903955E+02  0.7561462E-02  0.1282329E+00
         -1   -1    0    0    0  501 -0.00000000000E+00  0.00000000000E+00  0.82914932250E+03  0.82914932250E+03  0.00000000000E+00 0.  1.
          1   -1    0    0  501    0  0.00000000000E+00 -0.00000000000E+00 -0.16072388650E+02  0.16072388650E+02  0.00000000000E+00 0. -1.
         25    2    1    2    0    0 -0.25913810352E+02 -0.24547777905E+02  0.43284747781E+03  0.45197230959E+03  0.12509160894E+03 0.  0.
          5    1    3    3  502    0 -0.31001909858E+02 -0.57124918999E+02  0.39991469360E+03  0.40518342679E+03  0.41800000000E+01 0. -1.
         -5    1    3    3    0  502  0.50880995059E+01  0.32577141094E+02  0.32932784201E+02  0.46788882800E+02  0.41800000000E+01 0. -1.
        -11    1    1    2    0    0  0.43925561217E+02 -0.22487802291E+02  0.16604403585E+03  0.17322175966E+03  0.00000000000E+00 0.  1.
         11    1    1    2    0    0 -0.18011750865E+02  0.47035580196E+02  0.21418542020E+03  0.22002764190E+03  0.00000000000E+00 0. -1.
</event>
<event>
 7    1  0.2989693E-009  0.1180908E+03  0.7561462E-02  0.1246280E+00
          1   -1    0    0  501    0  0.00000000000E+00  0.00000000000E+00  0.41488934531E+03  0.41488934531E+03  0.00000000000E+00 0. -1.
         -1   -1    0    0    0  501 -0.00000000000E+00 -0.00000000000E+00 -0.44127679911E+02  0.44127679911E+02  0.00000000000E+00 0.  1.
         25    2    1    2    0    0  0.13674054733E+02  0.78069433591E+02  0.22667580684E+03  0.27076096790E+03  0.12509102326E+03 0.  0.
          5    1    3    3  502    0  0.44682533407E+02  0.73091548748E+02  0.69412425403E+02  0.11033793768E+03  0.41800000000E+01 0. -1.
         -5    1    3    3    0  502 -0.31008478674E+02  0.49778848429E+01  0.15726338143E+03  0.16042303023E+03  0.41800000000E+01 0. -1.
        -11    1    1    2    0    0  0.37753112796E+02 -0.28502774946E+02  0.76367737928E+02  0.89831715456E+02  0.00000000000E+00 0. -1.
         11    1    1    2    0    0 -0.51427167529E+02 -0.49566658645E+02  0.67718120637E+02  0.98424341867E+02  0.00000000000E+00 0.  1.
</event>
<event>
 7    1  0.2989693E-009  0.1069114E+03  0.7561462E-02  0.1266399E+00
         -1   -1    0    0    0  501 -0.00000000000E+00  0.00000000000E+00  0.13271558386E+03  0.13271558386E+03  0.00000000000E+00 0.  1.
          1   -1    0    0  501    0  0.00000000000E+00 -0.00000000000E+00 -0.10292395646E+03  0.10292395646E+03  0.00000000000E+00 0. -1.
         25    2    1    2    0    0  0.15511001527E+02  0.87614504860E+01  0.58594949929E+02  0.13923973834E+03  0.12504792039E+03 0.  0.
          5    1    3    3  502    0 -0.55964554916E+01 -0.56835168459E+02  0.27525440873E+02  0.63534864311E+02  0.41800000000E+01 0. -1.
         -5    1    3    3    0  502  0.21107457018E+02  0.65596618945E+02  0.31069509056E+02  0.75704874029E+02  0.41800000000E+01 0. -1.
        -11    1    1    2    0    0 -0.43116142149E+02  0.20113448664E+02 -0.74422464315E+00  0.47582627095E+02  0.00000000000E+00 0.  1.
         11    1    1    2    0    0  0.27605140622E+02 -0.28874899150E+02 -0.28059097888E+02  0.48817174887E+02  0.00000000000E+00 0. -1.
</event>
<event>
 7    1  0.3183287E-009  0.1211935E+03  0.7561462E-02  0.1241141E+00
          2   -1    0    0  501    0  0.00000000000E+00  0.00000000000E+00  0.92238735842E+03  0.92238735842E+03  0.00000000000E+00 0. -1.
         -2   -1    0    0    0  501 -0.00000000000E+00 -0.00000000000E+00 -0.24661923888E+02  0.24661923888E+02  0.00000000000E+00 0.  1.
         25    2    1    2    0    0 -0.39495510877E+02  0.62671340937E+02  0.71662347211E+03  0.73122109969E+03  0.12508998160E+03 0.  0.
          5    1    3    3  502    0  0.39757180473E+02  0.22661797869E+02  0.12956046406E+03  0.13746845722E+03  0.41800000000E+01 0. -1.
         -5    1    3    3    0  502 -0.79252691350E+02  0.40009543068E+02  0.58706300805E+03  0.59375264247E+03  0.41800000000E+01 0. -1.
        -11    1    1    2    0    0 -0.37626775256E+01  0.16723733192E+02  0.49743891714E+01  0.17848964723E+02  0.00000000000E+00 0.  1.
         11    1    1    2    0    0  0.43258188403E+02 -0.79395074129E+02  0.17612757325E+03  0.19797921789E+03  0.00000000000E+00 0. -1.
</event>
<event>
 7    1  0.2989693E-009  0.2077559E+03  0.7561462E-02  0.1143355E+00
          2   -1    0    0  501    0  0.00000000000E+00  0.00000000000E+00  0.75402325123E+03  0.75402325123E+03  0.00000000000E+00 0. -1.
         -2   -1    0    0    0  501 -0.00000000000E+00 -0.00000000000E+00 -0.36398835623E+03  0.36398835623E+03  0.00000000000E+00 0.  1.
         25    2    1    2    0    0 -0.12095381679E+03  0.16052924604E+03 -0.30771285972E+03  0.38825130346E+03  0.12510957584E+03 0.  0.
          5    1    3    3  502    0 -0.10968224568E+03  0.13891114212E+03 -0.31595693114E+03  0.36217779495E+03  0.41800000000E+01 0.  1.
         -5    1    3    3    0  502 -0.11271571102E+02  0.21618103922E+02  0.82440714139E+01  0.26073508505E+02  0.41800000000E+01 0.  1.
        -11    1    1    2    0    0  0.14816773386E+02  0.62215822977E+01  0.48951575101E+02  0.51521855214E+02  0.00000000000E+00 0.  1.
         11    1    1    2    0    0  0.10613704340E+03 -0.16675082834E+03  0.64879617962E+03  0.67823844879E+03  0.00000000000E+00 0. -1.
</event>
<event>
 7    1  0.2989693E-009  0.5072930E+02  0.7561462E-02  0.1441447E+00
          1   -1    0    0  501    0  0.00000000000E+00  0.00000000000E+00  0.41566068414E+03  0.41566068414E+03  0.00000000000E+00 0. -1.
         -1   -1    0    0    0  501 -0.00000000000E+00 -0.00000000000E+00 -0.61344698414E+02  0.61344698414E+02  0.00000000000E+00 0.  1.
         25    2    1    2    0    0  0.42006899077E+02 -0.19023895943E+02  0.34991441796E+03  0.37446364695E+03  0.12512567602E+03 0.  0.
          5    1    3    3  502    0  0.28676776252E+02 -0.14982083093E+02  0.98354639005E+01  0.34073876506E+02  0.41800000000E+01 0.  1.
         -5    1    3    3    0  502  0.13330122825E+02 -0.40418128505E+01  0.34007895406E+03  0.34038977044E+03  0.41800000000E+01 0.  1.
        -11    1    1    2    0    0 -0.18894732813E+02  0.24105135102E+02 -0.41098509639E+02  0.51255789535E+02  0.00000000000E+00 0.  1.
         11    1    1    2    0    0 -0.23112166265E+02 -0.50812391587E+01  0.45500077404E+02  0.51285946073E+02  0.00000000000E+00 0. -1.
</event>
<event>
 7    1  0.2989693E-009  0.7588008E+02  0.7561462E-02  0.1341167E+00
         -2   -1    0    0    0  501 -0.00000000000E+00  0.00000000000E+00  0.32341140423E+02  0.32341140423E+02  0.00000000000E+00 0.  1.
          2   -1    0    0  501    0  0.00000000000E+00 -0.00000000000E+00 -0.44903680447E+03  0.44903680447E+03  0.00000000000E+00 0. -1.
         25    2    1    2    0    0 -0.12475102137E+01  0.52334185722E+02 -0.24652867013E+03  0.28136060424E+03  0.12508789367E+03 0.  0.
          5    1    3    3  502    0 -0.24836227640E+01 -0.50588954931E+01 -0.21617532590E+03  0.21628916925E+03  0.41800000000E+01 0.  1.
         -5    1    3    3    0  502  0.12361125503E+01  0.57393081215E+02 -0.30353344230E+02  0.65071434989E+02  0.41800000000E+01 0.  1.
        -11    1    1    2    0    0  0.31378160348E+02 -0.60476679793E+01 -0.12394485924E+03  0.12799801314E+03  0.00000000000E+00 0. -1.
         11    1    1    2    0    0 -0.30130650134E+02 -0.46286517742E+02 -0.46222134676E+02  0.72019327519E+02  0.00000000000E+00 0.  1.
</event>
<event>
 7    1  0.2989693E-009  0.1159085E+03  0.7561462E-02  0.1250004E+00
         -1   -1    0    0    0  501 -0.00000000000E+00  0.00000000000E+00  0.77599167674E+02  0.77599167674E+02  0.00000000000E+00 0.  1.
          1   -1    0    0  501    0  0.00000000000E+00 -0.00000000000E+00 -0.29890306100E+03  0.29890306100E+03  0.00000000000E+00 0. -1.
         25    2    1    2    0    0 -0.10191385940E+03 -0.28597106963E+02 -0.10890469471E+03  0.19676591399E+03  0.12510940458E+03 0.  0.
          5    1    3    3  502    0  0.59820155178E+01 -0.55930238829E+01  0.22992564698E+02  0.24762811981E+02  0.41800000000E+01 0.  1.
         -5    1    3    3    0  502 -0.10789587492E+03 -0.23004083081E+02 -0.13189725941E+03  0.17200310201E+03  0.41800000000E+01 0.  1.
        -11    1    1    2    0    0  0.12910681942E+02  0.18625061810E+02  0.12626853720E+02  0.25942553277E+02  0.00000000000E+00 0.  1.
         11    1    1    2    0    0  0.89003177463E+02  0.99720451530E+01 -0.12502605234E+03  0.15379376140E+03  0.00000000000E+00 0. -1.
</event>
<event>
 7    1  0.2989693E-009  0.9664928E+02  0.7561462E-02  0.1287504E+00
          3   -1    0    0  501    0  0.00000000000E+00  0.00000000000E+00  0.11721806892E+03  0.11721806892E+03  0.00000000000E+00 0. -1.
         -3   -1    0    0    0  501 -0.00000000000E+00 -0.00000000000E+00 -0.13208282486E+03  0.13208282486E+03  0.00000000000E+00 0.  1.
         25    2    1    2    0    0  0.18529506939E+02  0.39568755215E+02 -0.47514808641E+02  0.14076574346E+03  0.12509319916E+03 0.  0.
          5    1    3    3  502    0  0.51506972495E+02  0.54505129226E+02 -0.65924890900E+02  0.99936684794E+02  0.41800000000E+01 0. -1.
         -5    1    3    3    0  502 -0.32977465557E+02 -0.14936374011E+02  0.18410082258E+02  0.40829058670E+02  0.41800000000E+01 0. -1.
        -11    1    1    2    0    0  0.26213383157E+02 -0.96981413041E+01 -0.19127792706E+02  0.33868390205E+02  0.00000000000E+00 0.  1.
         11    1    1    2    0    0 -0.44742890096E+02 -0.29870613911E+02  0.51777845411E+02  0.74666760108E+02  0.00000000000E+00 0. -1.
</event>
<event>
 7    1  0.2989693E-009  0.1463998E+03  0.7561462E-02  0.1204968E+00
         -2   -1    0    0    0  501 -0.00000000000E+00  0.00000000000E+00  0.17575038096E+02  0.17575038096E+02  0.00000000000E+00 0.  1.
          2   -1    0    0  501    0  0.00000000000E+00 -0.00000000000E+00 -0.16624830699E+04  0.16624830699E+04  0.00000000000E+00 0. -1.
         25    2    1    2    0    0  0.11440399185E+02 -0.12449325430E+03 -0.91255303723E+03  0.92953266397E+03  0.12509386284E+03 0.  0.
          5    1    3    3  502    0  0.19034228456E+02 -0.50127712257E+02 -0.10006725852E+03  0.11360465667E+03  0.41800000000E+01 0.  1.
         -5    1    3    3    0  502 -0.75938292707E+01 -0.74365542046E+02 -0.81248577871E+03  0.81592800730E+03  0.41800000000E+01 0.  1.
        -11    1    1    2    0    0  0.29748300588E+02 -0.32530338603E+01 -0.13395798669E+03  0.13725992064E+03  0.00000000000E+00 0.  1.
         11    1    1    2    0    0 -0.41188699773E+02  0.12774628816E+03 -0.59839700785E+03  0.61326552335E+03  0.00000000000E+00 0. -1.
</event>
<event>
 7    1  0.2989693E-009  0.7959121E+02  0.7561462E-02  0.1330216E+00
          1   -1    0    0  501    0  0.00000000000E+00  0.00000000000E+00  0.16225379717E+03  0.16225379717E+03  0.00000000000E+00 0. -1.
         -1   -1    0    0    0  501 -0.00000000000E+00 -0.00000000000E+00 -0.76760194338E+02  0.76760194338E+02  0.00000000000E+00 0.  1.
         25    2    1    2    0    0 -0.11392827361E+02  0.16554557365E+02  0.20528256212E+02  0.12834786229E+03  0.12509162469E+03 0.  0.
          5    1    3    3  502    0 -0.33622014389E+02 -0.11223981883E+02 -0.42715015298E+02  0.55663835233E+02  0.41800000000E+01 0.  1.
         -5    1    3    3    0  502  0.22229187028E+02  0.27778539247E+02  0.63243271510E+02  0.72684027061E+02  0.41800000000E+01 0.  1.
        -11    1    1    2    0    0  0.32548008940E+02 -0.42919474305E+02  0.50712173434E+02  0.73980934672E+02  0.00000000000E+00 0. -1.
         11    1    1    2    0    0 -0.21155181579E+02  0.26364916940E+02  0.14253173191E+02  0.36685194546E+02  0.00000000000E+00 0.  1.
</event>
<event>
 7    1  0.2989693E-009  0.1408768E+03  0.7561462E-02  0.1212154E+00
          2   -1    0    0  501    0  0.00000000000E+00  0.00000000000E+00  0.89744088548E+02  0.89744088548E+02  0.00000000000E+00 0. -1.
         -2   -1    0    0    0  501 -0.00000000000E+00 -0.00000000000E+00 -0.23915939487E+03  0.23915939487E+03  0.00000000000E+00 0.  1.
         25    2    1    2    0    0 -0.87796631228E+02 -0.38031488135E+02 -0.53162256064E+02  0.16621802760E+03  0.12509022618E+03 0.  0.
          5    1    3    3  502    0 -0.49293272453E+02  0.41414144466E+02 -0.29878666526E+01  0.64586049718E+02  0.41800000000E+01 0. -1.
         -5    1    3    3    0  502 -0.38503358775E+02 -0.79445632601E+02 -0.50174389412E+02  0.10163197789E+03  0.41800000000E+01 0. -1.
        -11    1    1    2    0    0  0.10415738606E+03  0.41514758740E+02 -0.92931579491E+02  0.14563143456E+03  0.00000000000E+00 0.  1.
         11    1    1    2    0    0 -0.16360754834E+02 -0.34832706050E+01 -0.33214707624E+01  0.17054021252E+02  0.00000000000E+00 0. -1.
</event>
<event>
 7    1  0.2989693E-009  0.9205631E+02  0.7561462E-02  0.1297947E+00
         -2   -1    0    0    0  501 -0.00000000000E+00  0.00000000000E+00  0.12526500302E+02  0.12526500302E+02  0.00000000000E+00 0.  1.
          2   -1    0    0  501    0  0.00000000000E+00 -0.00000000000E+00 -0.12874539646E+04  0.12874539646E+04  0.00000000000E+00 0. -1.
         25    2    1    2    0    0  0.13858661741E+02 -0.37868584734E+02 -0.98850422237E+03  0.99720323374E+03  0.12509036538E+03 0.  0.
          5    1    3    3  502    0  0.41230142058E+02 -0.26417293435E+01 -0.86197912669E+03  0.86297878919E+03  0.41800000000E+01 0.  1.
         -5    1    3    3    0  502 -0.27371480317E+02 -0.35226855391E+02 -0.12652509568E+03  0.13422444454E+03  0.41800000000E+01 0.  1.
        -11    1    1    2    0    0 -0.28112605479E+02 -0.22339859434E+02 -0.92623237672E+02  0.99340082863E+02  0.00000000000E+00 0.  1.
         11    1    1    2    0    0  0.14253943737E+02  0.60208444168E+02 -0.19380000428E+03  0.20343714833E+03  0.00000000000E+00 0. -1.
</event>
<event>
 7    1  0.2989693E-009  0.1135824E+03  0.7561462E-02  0.1254076E+00
          3   -1    0    0  501    0  0.00000000000E+00  0.00000000000E+00  0.47390556198E+03  0.47390556198E+03  0.00000000000E+00 0. -1.
         -3   -1    0    0    0  501 -0.00000000000E+00 -0.00000000000E+00 -0.36940518157E+02  0.36940518157E+02  0.00000000000E+00 0.  1.
         25    2    1    2    0    0 -0.50071486235E+02 -0.46842000575E+02  0.27887000346E+03  0.31323848265E+03  0.12509413028E+03 0.  0.
          5    1    3    3  502    0  0.28208470606E+02  0.45400193616E+01  0.13642434235E+02  0.31936155084E+02  0.41800000000E+01 0.  1.
         -5    1    3    3    0  502 -0.78279956840E+02 -0.51382019937E+02  0.26522756923E+03  0.28130232757E+03  0.41800000000E+01 0.  1.
        -11    1    1    2    0    0  0.23193977891E+02 -0.21186258786E+02  0.10918919827E+02  0.33257194439E+02  0.00000000000E+00 0.  1.
         11    1    1    2    0    0  0.26877508344E+02  0.68028259361E+02  0.14717612054E+03  0.16435040305E+03  0.00000000000E+00 0. -1.
</event>
<event>
 7    1  0.2989693E-009  0.6112462E+02  0.7561462E-02  0.1393172E+00
         -1   -1    0    0    0  501 -0.00000000000E+00  0.00000000000E+00  0.12183827988E+03  0.12183827988E+03  0.00000000000E+00 0.  1.
          1   -1    0    0  501    0  0.00000000000E+00 -0.00000000000E+00 -0.94052221328E+02  0.94052221328E+02  0.00000000000E+00 0. -1.
         25    2    1    2    0    0  0.39371578132E+02 -0.10078663578E+01  0.23465067117E+02  0.13322650568E+03  0.12509018939E+03 0.  0.
          5    1    3    3  502    0  0.72334531416E+01 -0.19943769996E+01 -0.51152576828E+02  0.51868669736E+02  0.41800000000E+01 0. -1.
         -5    1    3    3    0  502  0.32138124990E+02  0.98651064187E+00  0.74617643945E+02  0.81357835941E+02  0.41800000000E+01 0. -1.
        -11    1    1    2    0    0 -0.26579897497E+01 -0.31853397004E+02  0.88984927415E+01  0.33179616985E+02  0.00000000000E+00 0. -1.
         11    1    1    2    0    0 -0.36713588382E+02  0.32861263362E+02 -0.45775013088E+01  0.49484378543E+02  0.00000000000E+00 0.  1.
</event>
<event>
 6    1  0.2989693E-009  0.1643523E+03  0.7561462E-02  0.1183869E+00
         -1   -1    0    0    0  501 -0.00000000000E+00  0.00000000000E+00  0.26223389459E+03  0.26223389459E+03  0.00000000000E+00 0.  1.
          1   -1    0    0  501    0  0.00000000000E+00 -0.00000000000E+00 -0.11962423583E+03  0.11962423583E+03  0.00000000000E+00 0. -1.
          5    1    1    2  502    0  0.42315166266E+02 -0.66913423378E+02  0.10277069564E+02  0.79944168537E+02  0.41800000000E+01 0.  1.
         -5    1    1    2    0  502 -0.84677328103E+02 -0.58218968550E+02  0.15637289460E+02  0.10402737820E+03  0.41800000000E+01 0.  1.
        -11    1    1    2    0    0 -0.97672694251E+01  0.70094668596E+02  0.96071411859E+02  0.11932467597E+03  0.00000000000E+00 0.  1.
         11    1    1    2    0    0  0.52129431262E+02  0.55037723332E+02  0.20623887874E+02  0.78561907718E+02  0.00000000000E+00 0. -1.
</event>
<event>
 7    1  0.2989693E-009  0.1021394E+03  0.7561462E-02  0.1275860E+00
          2   -1    0    0  501    0  0.00000000000E+00  0.00000000000E+00  0.22475163238E+03  0.22475163238E+03  0.00000000000E+00 0. -1.
         -2   -1    0    0    0  501 -0.00000000000E+00 -0.00000000000E+00 -0.10251854801E+03  0.10251854801E+03  0.00000000000E+00 0.  1.
         25    2    1    2    0    0 -0.44267443261E+02  0.11287685136E+02  0.16841850047E+03  0.21470835076E+03  0.12509143143E+03 0.  0.
          5    1    3    3  502    0  0.73740550944E+01  0.50119105865E+02  0.23533826215E+02  0.56014416337E+02  0.41800000000E+01 0. -1.
         -5    1    3    3    0  502 -0.51641498356E+02 -0.38831420729E+02  0.14488467425E+03  0.15869393442E+03  0.41800000000E+01 0. -1.
        -11    1    1    2    0    0 -0.13462319025E+02  0.19173243942E+02 -0.40824332133E+02  0.47068815695E+02  0.00000000000E+00 0.  1.
         11    1    1    2    0    0  0.57729762286E+02 -0.30460929079E+02 -0.53610839680E+01  0.65493013942E+02  0.00000000000E+00 0. -1.
</event>
<event>
 7    1  0.2989693E-009  0.1857134E+03  0.7561462E-02  0.1162385E+00
          2   -1    0    0  501    0  0.00000000000E+00  0.00000000000E+00  0.36511265821E+03  0.36511265821E+03  0.00000000000E+00 0. -1.
         -2   -1    0    0    0  501 -0.00000000000E+00 -0.00000000000E+00 -0.19536291993E+03  0.19536291993E+03  0.00000000000E+00 0.  1.
         25    2    1    2    0    0 -0.11658931167E+03 -0.11788920109E+03 -0.10258748360E+03  0.23165240929E+03  0.12509082943E+03 0.  0.
          5    1    3    3  502    0 -0.45289733658E+02 -0.12419726832E+03 -0.86898566783E+02  0.15825597854E+03  0.41800000000E+01 0.  1.
         -5    1    3    3    0  502 -0.71299578007E+02  0.63080672303E+01 -0.15688916821E+02  0.73396430753E+02  0.41800000000E+01 0.  1.
        -11    1    1    2    0    0  0.44634549495E+02  0.29558513896E+02  0.30793312228E+02  0.61759022258E+02  0.00000000000E+00 0. -1.
         11    1    1    2    0    0  0.71954762171E+02  0.88330687198E+02  0.24154390966E+03  0.26706414659E+03  0.00000000000E+00 0.  1.
</event>
<event>
 7    1  0.2989693E-009  0.9945099E+02  0.7561462E-02  0.1281455E+00
         -3   -1    0    0    0  501 -0.00000000000E+00  0.00000000000E+00  0.34028408180E+02  0.34028408180E+02  0.00000000000E+00 0.  1.
          3   -1    0    0  501    0  0.00000000000E+00 -0.00000000000E+00 -0.64461752436E+03  0.64461752436E+03  0.00000000000E+00 0. -1.
         25    2    1    2    0    0  0.84859005902E+02 -0.41365663617E+02 -0.26674308738E+03  0.30937135430E+03  0.12508633494E+03 0.  0.
          5    1    3    3  502    0  0.56691251523E+02 -0.48900155377E+02 -0.48841705275E+02  0.89488031430E+02  0.41800000000E+01 0.  1.
         -5    1    3    3    0  502  0.28167754379E+02  0.75344917598E+01 -0.21790138211E+03  0.21988332287E+03  0.41800000000E+01 0.  1.
        -11    1    1    2    0    0 -0.33583846106E+02  0.18171506585E+02 -0.25323645520E+02  0.45818832299E+02  0.00000000000E+00 0.  1.
         11    1    1    2    0    0 -0.51275159796E+02  0.23194157032E+02 -0.31852238328E+03  0.32345574594E+03  0.00000000000E+00 0. -1.
</event>
<event>
 7    1  0.2989693E-009  0.1394354E+03  0.7561462E-02  0.1214091E+00
          2   -1    0    0  501    0  0.00000000000E+00  0.00000000000E+00  0.26652110593E+03  0.26652110593E+03  0.00000000000E+00 0.  1.
         -2   -1    0    0    0  501 -0.00000000000E+00 -0.00000000000E+00 -0.12742041067E+03  0.12742041067E+03  0.00000000000E+00 0. -1.
         25    2    1    2    0    0 -0.45054813116E+02 -0.95471691025E+02  0.18253027696E+03  0.24517826499E+03  0.12510115765E+03 0.  0.
          5    1    3    3  502    0 -0.88281518875E+02 -0.72787703848E+02  0.12217198392E+03  0.16743698057E+03  0.41800000000E+01 0. -1.
         -5    1    3    3    0  502  0.43226705759E+02 -0.22683987178E+02  0.60358293041E+02  0.77741284424E+02  0.41800000000E+01 0. -1.
        -11    1    1    2    0    0 -0.89872609025E+01  0.25039593934E+02 -0.53170034594E+02  0.59454223581E+02  0.00000000000E+00 0. -1.
         11    1    1    2    0    0  0.54042074019E+02  0.70432097091E+02  0.97404528914E+01  0.89309028029E+02  0.00000000000E+00 0.  1.
</event>
<event>
 7    1  0.2989693E-009  0.1305977E+03  0.7561462E-02  0.1226572E+00
          1   -1    0    0  501    0  0.00000000000E+00  0.00000000000E+00  0.77140399329E+03  0.77140399329E+03  0.00000000000E+00 0. -1.
         -1   -1    0    0    0  501 -0.00000000000E+00 -0.00000000000E+00 -0.34435120590E+02  0.34435120590E+02  0.00000000000E+00 0.  1.
         25    2    1    2    0    0  0.10663045557E+03 -0.54255172355E+02  0.45627668815E+03  0.48800509650E+03  0.12508749051E+03 0.  0.
          5    1    3    3  502    0  0.80132701428E+02 -0.33574008824E+02  0.44326685059E+03  0.45172052991E+03  0.41800000000E+01 0.  1.
         -5    1    3    3    0  502  0.26497754143E+02 -0.20681163531E+02  0.13009837556E+02  0.36284566594E+02  0.41800000000E+01 0.  1.
        -11    1    1    2    0    0 -0.81493191768E+02  0.10539535353E+01  0.21346110024E+03  0.22849046466E+03  0.00000000000E+00 0. -1.
         11    1    1    2    0    0 -0.25137263803E+02  0.53201218819E+02  0.67231084310E+02  0.89343552721E+02  0.00000000000E+00 0.  1.
</event>
<event>
 6    1  0.2989693E-009  0.1581437E+03  0.7561462E-02  0.1190809E+00
         -1   -1    0    0    0  501 -0.00000000000E+00  0.00000000000E+00  0.86018882401E+03  0.86018882401E+03  0.00000000000E+00 0.  1.
          1   -1    0    0  501    0  0.00000000000E+00 -0.00000000000E+00 -0.63551509791E+02  0.63551509791E+02  0.00000000000E+00 0. -1.
          5    1    1    2  502    0 -0.68934371656E+01  0.73085015553E+02  0.18899520726E+03  0.20279447661E+03  0.41800000000E+01 0.  1.
         -5    1    1    2    0  502 -0.64222378911E+02 -0.45820855338E+01  0.51504192620E+03  0.51906759444E+03  0.41800000000E+01 0.  1.
        -11    1    1    2    0    0 -0.29821677256E+02 -0.71275207745E+02  0.51529698422E+02  0.92869787837E+02  0.00000000000E+00 0.  1.
         11    1    1    2    0    0  0.10093749333E+03  0.27722777257E+01  0.41070482341E+02  0.10900847492E+03  0.00000000000E+00 0. -1.
</event>
<event>
 7    1  0.2989693E-009  0.1261844E+03  0.7561462E-02  0.1233230E+00
          1   -1    0    0  501    0  0.00000000000E+00  0.00000000000E+00  0.69905600010E+03  0.69905600010E+03  0.00000000000E+00 0. -1.
         -1   -1    0    0    0  501 -0.00000000000E+00 -0.00000000000E+00 -0.48462202226E+02  0.48462202226E+02  0.00000000000E+00 0.  1.
         25    2    1    2    0    0 -0.58464222158E+02 -0.30271567483E+02  0.61208443156E+03  0.62819888500E+03  0.12510817192E+03 0.  0.
          5    1    3    3  502    0  0.24157598125E+02 -0.48932885417E+02  0.29108880526E+03  0.29618943562E+03  0.41800000000E+01 0.  1.
         -5    1    3    3    0  502 -0.82621820284E+02  0.18661317934E+02  0.32099562630E+03  0.33200944938E+03  0.41800000000E+01 0.  1.
        -11    1    1    2    0    0 -0.54957448495E+01  0.46517140282E+02  0.13486526615E+02  0.48743552924E+02  0.00000000000E+00 0. -1.
         11    1    1    2    0    0  0.63959967008E+02 -0.16245572800E+02  0.25022839701E+02  0.70575764409E+02  0.00000000000E+00 0.  1.
</event>
<event>
 7    1  0.2989693E-009  0.1339063E+03  0.7561462E-02  0.1221772E+00
         -3   -1    0    0    0  501 -0.00000000000E+00  0.00000000000E+00  0.40046167094E+03  0.40046167094E+03  0.00000000000E+00 0.  1.
          3   -1    0    0  501    0  0.00000000000E+00 -0.00000000000E+00 -0.73037083643E+02  0.73037083643E+02  0.00000000000E+00 0. -1.
         25    2    1    2    0    0  0.10918791161E+03 -0.67208705020E+02  0.22374189472E+03  0.28661353159E+03  0.12509145042E+03 0.  0.
          5    1    3    3  502    0  0.10276737337E+02 -0.25802195652E+02 -0.96792161148E+01  0.29707309797E+02  0.41800000000E+01 0.  1.
         -5    1    3    3    0  502  0.98911174272E+02 -0.41406509368E+02  0.23342111084E+03  0.25690622180E+03  0.41800000000E+01 0.  1.
        -11    1    1    2    0    0 -0.82371867987E+02  0.66037374895E+02  0.11643150880E+03  0.15716983094E+03  0.00000000000E+00 0.  1.
         11    1    1    2    0    0 -0.26816043622E+02  0.11713301255E+01 -0.12748816214E+02  0.29715392050E+02  0.00000000000E+00 0. -1.
</event>
<event>
 7    1  0.2989693E-009  0.1033782E+03  0.7561462E-02  0.1273348E+00
         -3   -1    0    0    0  501 -0.00000000000E+00  0.00000000000E+00  0.40215825470E+02  0.40215825470E+02  0.00000000000E+00 0.  1.
          3   -1    0    0  501    0  0.00000000000E+00 -0.00000000000E+00 -0.63436170392E+03  0.63436170392E+03  0.00000000000E+00 0. -1.
         25    2    1    2    0    0 -0.77017356578E+02  0.33738482379E+02 -0.48949277829E+03  0.51217342436E+03  0.12509387765E+03 0.  0.
          5    1    3    3  502    0 -0.27599818490E+02  0.42804334810E+02 -0.43478521100E+03  0.43777804097E+03  0.41800000000E+01 0.  1.
         -5    1    3    3    0  502 -0.49417538088E+02 -0.90658524315E+01 -0.54707567290E+02  0.74395383390E+02  0.41800000000E+01 0.  1.
        -11    1    1    2    0    0  0.44481477193E+01 -0.32351600153E+02 -0.78895412534E+02  0.85386756406E+02  0.00000000000E+00 0.  1.
         11    1    1    2    0    0  0.72569208859E+02 -0.13868822260E+01 -0.25757687635E+02  0.77017348624E+02  0.00000000000E+00 0. -1.
</event>
<event>
 7    1  0.2989693E-009  0.1010441E+03  0.7561462E-02  0.1278116E+00
          1   -1    0    0  501    0  0.00000000000E+00  0.00000000000E+00  0.42316982332E+03  0.42316982332E+03  0.00000000000E+00 0. -1.
         -1   -1    0    0    0  501 -0.00000000000E+00 -0.00000000000E+00 -0.32832870793E+02  0.32832870793E+02  0.00000000000E+00 0.  1.
         25    2    1    2    0    0 -0.61797923947E+01 -0.54213953891E+01  0.30964991649E+03  0.33405912159E+03  0.12507935312E+03 0.  0.
          5    1    3    3  502    0 -0.39822734744E+02 -0.44407728165E+02  0.24001515284E+03  0.24735125331E+03  0.41800000000E+01 0. -1.
         -5    1    3    3    0  502  0.33642942350E+02  0.38986332776E+02  0.69634763652E+02  0.86707868282E+02  0.41800000000E+01 0. -1.
        -11    1    1    2    0    0  0.47161529930E+02 -0.72889264081E+01  0.50501582299E+02  0.69481998879E+02  0.00000000000E+00 0. -1.
         11    1    1    2    0    0 -0.40981737535E+02  0.12710321797E+02  0.30185453745E+02  0.52461573645E+02  0.00000000000E+00 0.  1.
</event>
<event>
 7    1  0.2989693E-009  0.2342793E+03  0.7561462E-02  0.1123664E+00
          2   -1    0    0  501    0  0.00000000000E+00  0.00000000000E+00  0.80932268328E+03  0.80932268328E+03  0.00000000000E+00 0.  1.
         -2   -1    0    0    0  501 -0.00000000000E+00 -0.00000000000E+00 -0.24059712147E+03  0.24059712147E+03  0.00000000000E+00 0. -1.
         25    2    1    2    0    0 -0.12364940794E+03 -0.17890525059E+03  0.72469382157E+03  0.76689166211E+03  0.12508165981E+03 0.  0.
          5    1    3    3  502    0 -0.10573464518E+03 -0.48108546028E+02  0.39420293086E+03  0.41098378373E+03  0.41800000000E+01 0.  1.
         -5    1    3    3    0  502 -0.17914762757E+02 -0.13079670456E+03  0.33049089071E+03  0.35590787838E+03  0.41800000000E+01 0.  1.
        -11    1    1    2    0    0  0.65341488749E+02  0.64426775945E+02 -0.11716865691E+03  0.14882477540E+03  0.00000000000E+00 0. -1.
         11    1    1    2    0    0  0.58307919191E+02  0.11447847465E+03 -0.38799602842E+02  0.13420336724E+03  0.00000000000E+00 0.  1.
</event>
<event>
 7    1  0.2989693E-009  0.2659299E+03  0.7561462E-02  0.1103632E+00
          1   -1    0    0  501    0  0.00000000000E+00  0.00000000000E+00  0.28618286970E+04  0.28618286970E+04  0.00000000000E+00 0. -1.
         -1   -1    0    0    0  501 -0.00000000000E+00 -0.00000000000E+00 -0.27466315547E+02  0.27466315547E+02  0.00000000000E+00 0.  1.
         25    2    1    2    0    0 -0.34825829990E+02 -0.25387388214E+03  0.16247260570E+04  0.16495593275E+04  0.12508568371E+03 0.  0.
          5    1    3    3  502    0  0.12829405124E+02 -0.81366613242E+02  0.25065602623E+03  0.26387693206E+03  0.41800000000E+01 0.  1.
         -5    1    3    3    0  502 -0.47655235113E+02 -0.17250726890E+03  0.13740700308E+04  0.13856823955E+04  0.41800000000E+01 0.  1.
        -11    1    1    2    0    0 -0.28934345142E+02  0.69748398777E+02  0.28874876916E+03  0.29845918842E+03  0.00000000000E+00 0. -1.
         11    1    1    2    0    0  0.63760175131E+02  0.18412548336E+03  0.92088755526E+03  0.94127649656E+03  0.00000000000E+00 0.  1.
</event>
<event>
 7    1  0.2989693E-009  0.7945502E+02  0.7561462E-02  0.1330605E+00
          1   -1    0    0  501    0  0.00000000000E+00  0.00000000000E+00  0.10462815884E+03  0.10462815884E+03  0.00000000000E+00 0. -1.
         -1   -1    0    0    0  501 -0.00000000000E+00 -0.00000000000E+00 -0.15116751623E+03  0.15116751623E+03  0.00000000000E+00 0.  1.
         25    2    1    2    0    0 -0.29612009491E+01 -0.55712818730E+02  0.11944810760E+02  0.13748509322E+03  0.12508711153E+03 0.  0.
          5    1    3    3  502    0 -0.38858290073E+01 -0.45179597220E+02 -0.53959415892E+02  0.70607270415E+02  0.41800000000E+01 0. -1.
         -5    1    3    3    0  502  0.92462805822E+00 -0.10533221510E+02  0.65904226652E+02  0.66877822804E+02  0.41800000000E+01 0. -1.
        -11    1    1    2    0    0  0.42088823504E+02  0.12943010037E+02 -0.17823552845E+02  0.47504416729E+02  0.00000000000E+00 0.  1.
         11    1    1    2    0    0 -0.39127622555E+02  0.42769808694E+02 -0.40660615298E+02  0.70806165119E+02  0.00000000000E+00 0. -1.
</event>
<event>
 7    1  0.2989693E-009  0.1115168E+03  0.7561462E-02  0.1257786E+00
          1   -1    0    0  501    0  0.00000000000E+00  0.00000000000E+00  0.18827087415E+03  0.18827087415E+03  0.00000000000E+00 0. -1.
         -1   -1    0    0    0  501 -0.00000000000E+00 -0.00000000000E+00 -0.82022148692E+02  0.82022148692E+02  0.00000000000E+00 0.  1.
         25    2    1    2    0    0 -0.41823374683E+02 -0.25031597343E+02  0.21945179235E+02  0.13603468163E+03  0.12509223868E+03 0.  0.
          5    1    3    3  502    0 -0.33903298967E+02  0.44706789257E+02  0.32438321139E+02  0.64944959503E+02  0.41800000000E+01 0.  1.
         -5    1    3    3    0  502 -0.79200757163E+01 -0.69738386600E+02 -0.10493141904E+02  0.71089722126E+02  0.41800000000E+01 0.  1.
        -11    1    1    2    0    0  0.28966169284E+02  0.55933603089E+02  0.77902276831E+02  0.10018169320E+03  0.00000000000E+00 0. -1.
         11    1    1    2    0    0  0.12857205399E+02 -0.30902005746E+02  0.64012693917E+01  0.34076648010E+02  0.00000000000E+00 0.  1.
</event>
<event>
 7    1  0.2989693E-009  0.1538437E+03  0.7561462E-02  0.1195828E+00
          1   -1    0    0  501    0  0.00000000000E+00  0.00000000000E+00  0.28089806281E+03  0.28089806281E+03  0.00000000000E+00 0. -1.
         -1   -1    0    0    0  501 -0.00000000000E+00 -0.00000000000E+00 -0.98383241525E+02  0.98383241525E+02  0.00000000000E+00 0.  1.
         25    2    1    2    0    0 -0.74138250988E+02 -0.97249462458E+02  0.12923239982E+03  0.21749193492E+03  0.12509112832E+03 0.  0.
          5    1    3    3  502    0  0.16556365680E+01 -0.75976418122E+02  0.13249934677E+02  0.77254064049E+02  0.41800000000E+01 0.  1.
         -5    1    3    3    0  502 -0.75793887556E+02 -0.21273044336E+02  0.11598246515E+03  0.14023787088E+03  0.41800000000E+01 0.  1.
        -11    1    1    2    0    0 -0.88589735584E+01  0.61903633567E+02  0.20548465158E+02  0.65823861036E+02  0.00000000000E+00 0.  1.
         11    1    1    2    0    0  0.82997224547E+02  0.35345828890E+02  0.32733956303E+02  0.95965508375E+02  0.00000000000E+00 0. -1.
</event>
<event>
 7    1  0.2989693E-009  0.1065542E+03  0.7561462E-02  0.1267087E+00
         -1   -1    0    0    0  501 -0.00000000000E+00  0.00000000000E+00  0.11613134683E+02  0.11613134683E+02  0.00000000000E+00 0.  1.
          1   -1    0    0  501    0  0.00000000000E+00 -0.00000000000E+00 -0.13505018369E+04  0.13505018369E+04  0.00000000000E+00 0. -1.
         25    2    1    2    0    0  0.33622226176E+02  0.46064103184E+02 -0.88319886900E+03  0.89383264877E+03  0.12507680089E+03 0.  0.
          5    1    3    3  502    0  0.60492653966E+02  0.10717338997E+02 -0.20203460882E+03  0.21121003314E+03  0.41800000000E+01 0. -1.
         -5    1    3    3    0  502 -0.26870427790E+02  0.35346764187E+02 -0.68116426018E+03  0.68262261563E+03  0.41800000000E+01 0. -1.
        -11    1    1    2    0    0  0.15053442747E+02 -0.55368028017E+02 -0.27484431805E+03  0.28076969892E+03  0.00000000000E+00 0. -1.
         11    1    1    2    0    0 -0.48675668923E+02  0.93039248327E+01 -0.18084551519E+03  0.18751262391E+03  0.00000000000E+00 0.  1.
</event>
<event>
 7    1  0.2989693E-009  0.1055912E+03  0.7561462E-02  0.1268959E+00
          1   -1    0    0  501    0  0.00000000000E+00  0.00000000000E+00  0.15084787229E+02  0.15084787229E+02  0.00000000000E+00 0. -1.
         -1   -1    0    0    0  501 -0.00000000000E+00 -0.00000000000E+00 -0.12714952108E+04  0.12714952108E+04  0.00000000000E+00 0.  1.
         25    2    1    2    0    0 -0.10906994344E+02 -0.46499507110E+02 -0.10189119802E+04  0.10276720525E+04  0.12508819878E+03 0.  0.
          5    1    3    3  502    0  0.43305402063E+02 -0.20111369483E+02 -0.17046502227E+03  0.17707518530E+03  0.41800000000E+01 0. -1.
         -5    1    3    3    0  502 -0.54212396407E+02 -0.26388137627E+02 -0.84844695790E+03  0.85059686720E+03  0.41800000000E+01 0. -1.
        -11    1    1    2    0    0  0.51218514301E+02  0.22922463528E+02 -0.12011521707E+03  0.13257617023E+03  0.00000000000E+00 0. -1.
         11    1    1    2    0    0 -0.40311519957E+02  0.23577043582E+02 -0.11738322633E+03  0.12633177530E+03  0.00000000000E+00 0.  1.
</event>
<event>
 7    1  0.2989693E-009  0.1551624E+03  0.7561462E-02  0.1194269E+00
         -2   -1    0    0    0  501 -0.00000000000E+00  0.00000000000E+00  0.40656630540E+02  0.40656630540E+02  0.00000000000E+00 0.  1.
          2   -1    0    0  501    0  0.00000000000E+00 -0.00000000000E+00 -0.76514351554E+03  0.76514351554E+03  0.00000000000E+00 0. -1.
         25    2    1    2    0    0 -0.10928868601E+03 -0.76569660089E+02 -0.29934916287E+03  0.35080585675E+03  0.12509155881E+03 0.  0.
          5    1    3    3  502    0  0.18642867942E+02  0.98830077382E+01 -0.77863271557E+02  0.80779897404E+02  0.41800000000E+01 0.  1.
         -5    1    3    3    0  502 -0.12793155395E+03 -0.86452667827E+02 -0.22148589131E+03  0.27002595935E+03  0.41800000000E+01 0.  1.
        -11    1    1    2    0    0  0.69164481294E+02  0.39083279011E+02 -0.11340719324E+03  0.13846450682E+03  0.00000000000E+00 0.  1.
         11    1    1    2    0    0  0.40124204717E+02  0.37486381078E+02 -0.31173052889E+03  0.31652978250E+03  0.00000000000E+00 0. -1.
</event>
<event>
 7    1  0.2989693E-009  0.2847956E+03  0.7561462E-02  0.1093098E+00
         -1   -1    0    0    0  501 -0.00000000000E+00  0.00000000000E+00  0.15688230203E+03  0.15688230203E+03  0.00000000000E+00 0.  1.
          1   -1    0    0  501    0  0.00000000000E+00 -0.00000000000E+00 -0.68136293624E+03  0.68136293624E+03  0.00000000000E+00 0. -1.
         25    2    1    2    0    0  0.14881828909E+03  0.24134116740E+03 -0.42197772989E+03  0.52355225182E+03  0.12509721662E+03 0.  0.
          5    1    3    3  502    0  0.10754084519E+03  0.14530627133E+03 -0.15995126597E+03  0.24141422028E+03  0.41800000000E+01 0.  1.
         -5    1    3    3    0  502  0.41277443902E+02  0.96034896078E+02 -0.26202646393E+03  0.28213803153E+03  0.41800000000E+01 0.  1.
        -11    1    1    2    0    0 -0.12706733291E+03 -0.19207083130E+03 -0.42718873972E+02  0.23422684202E+03  0.00000000000E+00 0.  1.
         11    1    1    2    0    0 -0.21750956180E+02 -0.49270336102E+02 -0.59784030349E+02  0.80466144428E+02  0.00000000000E+00 0. -1.
</event>
<event>
 7    1  0.2989693E-009  0.1544724E+03  0.7561462E-02  0.1195083E+00
         -2   -1    0    0    0  501 -0.00000000000E+00  0.00000000000E+00  0.37851339494E+02  0.37851339494E+02  0.00000000000E+00 0.  1.
          2   -1    0    0  501    0  0.00000000000E+00 -0.00000000000E+00 -0.74460994591E+03  0.74460994591E+03  0.00000000000E+00 0. -1.
         25    2    1    2    0    0 -0.82364599011E+02  0.98272313749E+02 -0.35587892782E+03  0.39842034236E+03  0.12509029985E+03 0.  0.
          5    1    3    3  502    0  0.23701058190E+02  0.82903301693E+01 -0.13487398374E+03  0.13725499489E+03  0.41800000000E+01 0.  1.
         -5    1    3    3    0  502 -0.10606565720E+03  0.89981983580E+02 -0.22100494408E+03  0.26116534746E+03  0.41800000000E+01 0.  1.
        -11    1    1    2    0    0  0.86388137297E+02 -0.58436387217E+02 -0.17552484836E+03  0.20417319611E+03  0.00000000000E+00 0.  1.
         11    1    1    2    0    0 -0.40235382868E+01 -0.39835926532E+02 -0.17535483024E+03  0.17986774694E+03  0.00000000000E+00 0. -1.
</event>
<event>
 7    1  0.3465839E-009  0.1115514E+03  0.7561462E-02  0.1257724E+00
          3   -1    0    0  501    0  0.00000000000E+00  0.00000000000E+00  0.89895692322E+03  0.89895692322E+03  0.00000000000E+00 0. -1.
         -3   -1    0    0    0  501 -0.00000000000E+00 -0.00000000000E+00 -0.21087680801E+02  0.21087680801E+02  0.00000000000E+00 0.  1.
         25    2    1    2    0    0  0.28312057437E+02  0.55468612350E+02  0.67096250175E+03  0.68535710514E+03  0.12508134655E+03 0.  0.
          5    1    3    3  502    0  0.17390402834E+01 -0.32999079015E+02  0.72398703416E+02  0.79693212592E+02  0.41800000000E+01 0. -1.
         -5    1    3    3    0  502  0.26573017154E+02  0.88467691365E+02  0.59856379833E+03  0.60566389254E+03  0.41800000000E+01 0. -1.
        -11    1    1    2    0    0 -0.50726150298E+02 -0.18304728526E+02  0.16785240569E+03  0.17630268150E+03  0.00000000000E+00 0.  1.
         11    1    1    2    0    0  0.22414092861E+02 -0.37163883824E+02  0.39054334984E+02  0.58384817382E+02  0.00000000000E+00 0. -1.
</event>
<event>
 7    1  0.2989693E-009  0.2810445E+03  0.7561462E-02  0.1095120E+00
         -2   -1    0    0    0  501 -0.00000000000E+00  0.00000000000E+00  0.79858183207E+02  0.79858183207E+02  0.00000000000E+00 0.  1.
          2   -1    0    0  501    0  0.00000000000E+00 -0.00000000000E+00 -0.13071634792E+04  0.13071634792E+04  0.00000000000E+00 0. -1.
         25    2    1    2    0    0 -0.23036517646E+03 -0.14753728301E+03 -0.90798259299E+03  0.95651876000E+03  0.12514145858E+03 0.  0.
          5    1    3    3  502    0 -0.19915128526E+03 -0.15912399633E+03 -0.86613814481E+03  0.90288118760E+03  0.41800000000E+01 0. -1.
         -5    1    3    3    0  502 -0.31213891194E+02  0.11586713326E+02 -0.41844448182E+02  0.53637572399E+02  0.41800000000E+01 0. -1.
        -11    1    1    2    0    0  0.13931526232E+03  0.91268630608E+02 -0.12351796917E+03  0.20735330708E+03  0.00000000000E+00 0.  1.
         11    1    1    2    0    0  0.91049914132E+02  0.56268652397E+02 -0.19580473387E+03  0.22314959537E+03  0.00000000000E+00 0. -1.
</event>
<event>
 7    1  0.2989693E-009  0.1023503E+03  0.7561462E-02  0.1275430E+00
          2   -1    0    0  501    0  0.00000000000E+00  0.00000000000E+00  0.14613523686E+04  0.14613523686E+04  0.00000000000E+00 0. -1.
         -2   -1    0    0    0  501 -0.00000000000E+00 -0.00000000000E+00 -0.12645145821E+02  0.12645145821E+02  0.00000000000E+00 0.  1.
         25    2    1    2    0    0  0.55011798322E+02  0.13645262650E+02  0.11423800461E+04  0.11506048644E+04  0.12508754183E+03 0.  0.
          5    1    3    3  502    0 -0.99676108427E+00 -0.43285130594E+02  0.67761170136E+03  0.67900639635E+03  0.41800000000E+01 0. -1.
         -5    1    3    3    0  502  0.56008559406E+02  0.56930393244E+02  0.46476834477E+03  0.47159846809E+03  0.41800000000E+01 0. -1.
        -11    1    1    2    0    0  0.17043976713E+01 -0.23588205954E+02  0.18954963237E+02  0.30308399213E+02  0.00000000000E+00 0.  1.
         11    1    1    2    0    0 -0.56716195993E+02  0.99429433041E+01  0.28737221343E+03  0.29308425079E+03  0.00000000000E+00 0. -1.
</event>
<event>
 7    1  0.2989693E-009  0.1172582E+03  0.7561462E-02  0.1247690E+00
         -2   -1    0    0    0  501 -0.00000000000E+00  0.00000000000E+00  0.17790202253E+03  0.17790202253E+03  0.00000000000E+00 0.  1.
          2   -1    0    0  501    0  0.00000000000E+00 -0.00000000000E+00 -0.17065011261E+03  0.17065011261E+03  0.00000000000E+00 0. -1.
         25    2    1    2    0    0  0.47717792024E+01 -0.72480305000E+02 -0.11042710317E+03  0.18198180619E+03  0.12508824157E+03 0.  0.
          5    1    3    3  502    0 -0.36883740788E+02 -0.88845988320E+02 -0.92710560366E+02  0.13366652677E+03  0.41800000000E+01 0. -1.
         -5    1    3    3    0  502  0.41655519991E+02  0.16365683320E+02 -0.17716542808E+02  0.48315279419E+02  0.41800000000E+01 0. -1.
        -11    1    1    2    0    0 -0.31645025505E+02  0.42972639524E+02  0.11474921602E+03  0.12655211560E+03  0.00000000000E+00 0.  1.
         11    1    1    2    0    0  0.26873246302E+02  0.29507665476E+02  0.29297970666E+01  0.40018213348E+02  0.00000000000E+00 0. -1.
</event>
<event>
 7    1  0.3842285E-009  0.1140624E+03  0.7561462E-02  0.1253227E+00
          2   -1    0    0  501    0  0.00000000000E+00  0.00000000000E+00  0.10209867792E+04  0.10209867792E+04  0.00000000000E+00 0. -1.
         -2   -1    0    0    0  501 -0.00000000000E+00 -0.00000000000E+00 -0.12875771729E+02  0.12875771729E+02  0.00000000000E+00 0.  1.
         25    2    1    2    0    0 -0.24931360683E+02  0.27063390924E+02  0.59435690104E+03  0.60849102370E+03  0.12508876941E+03 0.  0.
          5    1    3    3  502    0  0.47864660708E+02 -0.86668540677E+01  0.24568123064E+03  0.25048528818E+03  0.41800000000E+01 0.  1.
         -5    1    3    3    0  502 -0.72796021391E+02  0.35730244992E+02  0.34867567039E+03  0.35800573552E+03  0.41800000000E+01 0.  1.
        -11    1    1    2    0    0 -0.33632767187E+02 -0.19959795010E+02  0.14195756254E+03  0.14724641254E+03  0.00000000000E+00 0.  1.
         11    1    1    2    0    0  0.58564127870E+02 -0.71035959144E+01  0.27179654394E+03  0.27812511473E+03  0.00000000000E+00 0. -1.
</event>
<event>
 7    1  0.2989693E-009  0.7514552E+02  0.7561462E-02  0.1343421E+00
          1   -1    0    0  501    0  0.00000000000E+00  0.00000000000E+00  0.11902314693E+03  0.11902314693E+03  0.00000000000E+00 0. -1.
         -1   -1    0    0    0  501 -0.00000000000E+00 -0.00000000000E+00 -0.92117520825E+02  0.92117520825E+02  0.00000000000E+00 0.  1.
         25    2    1    2    0    0 -0.17208618935E+01 -0.19897995642E+02  0.51870023739E+00  0.12667451444E+03  0.12508905612E+03 0.  0.
          5    1    3    3  502    0 -0.32789288362E+02 -0.21563601266E+02  0.52662681331E+02  0.65810004831E+02  0.41800000000E+01 0. -1.
         -5    1    3    3    0  502  0.31068426469E+02  0.16656056236E+01 -0.52143981094E+02  0.60864509607E+02  0.41800000000E+01 0. -1.
        -11    1    1    2    0    0  0.26793646493E+02  0.39414209574E+02  0.21634759034E+02  0.52339681001E+02  0.00000000000E+00 0.  1.
         11    1    1    2    0    0 -0.25072784600E+02 -0.19516213932E+02  0.47521668321E+01  0.32126472315E+02  0.00000000000E+00 0. -1.
</event>
<event>
 7    1  0.2989693E-009  0.1299404E+03  0.7561462E-02  0.1227544E+00
          2   -1    0    0  501    0  0.00000000000E+00  0.00000000000E+00  0.20567711532E+03  0.20567711532E+03  0.00000000000E+00 0.  1.
         -2   -1    0    0    0  501 -0.00000000000E+00 -0.00000000000E+00 -0.13092050630E+03  0.13092050630E+03  0.00000000000E+00 0. -1.
         25    2    1    2    0    0 -0.76400678862E+02 -0.35365200175E+02  0.13238489107E+03  0.20067207834E+03  0.12512298961E+03 0.  0.
          5    1    3    3  502    0 -0.22961524206E+02  0.39073227916E+02  0.81415219513E+01  0.46235327546E+02  0.41800000000E+01 0. -1.
         -5    1    3    3    0  502 -0.53439154655E+02 -0.74438428090E+02  0.12424336912E+03  0.15443675080E+03  0.41800000000E+01 0. -1.
        -11    1    1    2    0    0  0.62442865638E+02 -0.19979080610E+02 -0.36686901981E+02  0.75127916969E+02  0.00000000000E+00 0.  1.
         11    1    1    2    0    0  0.13957813224E+02  0.55344280785E+02 -0.20941380068E+02  0.60797626308E+02  0.00000000000E+00 0. -1.
</event>
<event>
 7    1  0.2989693E-009  0.1309844E+03  0.7561462E-02  0.1226002E+00
         -2   -1    0    0    0  501 -0.00000000000E+00  0.00000000000E+00  0.14606136361E+03  0.14606136361E+03  0.00000000000E+00 0. -1.
          2   -1    0    0  501    0  0.00000000000E+00 -0.00000000000E+00 -0.18908683948E+03  0.18908683948E+03  0.00000000000E+00 0.  1.
         25    2    1    2    0    0 -0.58514182527E+02  0.94761060364E+02 -0.81422935273E+02  0.18622790301E+03  0.12509024483E+03 0.  0.
          5    1    3    3  502    0  0.54482548023E+01  0.16168346681E+02  0.30496173651E+02  0.35193577853E+02  0.41800000000E+01 0. -1.
         -5    1    3    3    0  502 -0.63962437329E+02  0.78592713684E+02 -0.11191910892E+03  0.15103432516E+03  0.41800000000E+01 0. -1.
        -11    1    1    2    0    0  0.16313705185E+02 -0.99217820363E+02  0.34510405214E+02  0.10630748291E+03  0.00000000000E+00 0.  1.
         11    1    1    2    0    0  0.42200477342E+02  0.44567599990E+01  0.38870541886E+01  0.42612817178E+02  0.00000000000E+00 0. -1.
</event>
<event>
 7    1  0.2989693E-009  0.1901630E+03  0.7561462E-02  0.1158314E+00
         -1   -1    0    0    0  501 -0.00000000000E+00  0.00000000000E+00  0.45673597338E+03  0.45673597338E+03  0.00000000000E+00 0.  1.
          1   -1    0    0  501    0  0.00000000000E+00 -0.00000000000E+00 -0.97495292725E+02  0.97495292725E+02  0.00000000000E+00 0. -1.
         25    2    1    2    0    0  0.93176705544E+02 -0.13318791346E+03  0.25045839787E+03  0.32372447162E+03  0.12508879133E+03 0.  0.
          5    1    3    3  502    0  0.61291391919E+02 -0.13160390122E+03  0.11718582554E+03  0.18661782242E+03  0.41800000000E+01 0.  1.
         -5    1    3    3    0  502  0.31885313625E+02 -0.15840122438E+01  0.13327257233E+03  0.13710664920E+03  0.41800000000E+01 0.  1.
        -11    1    1    2    0    0 -0.42459588873E+02  0.14477108277E+03  0.86551909509E+02  0.17393307947E+03  0.00000000000E+00 0.  1.
         11    1    1    2    0    0 -0.50717116672E+02 -0.11583169308E+02  0.22230373279E+02  0.56573715017E+02  0.00000000000E+00 0. -1.
</event>
<event>
 7    1  0.2989693E-009  0.2132564E+03  0.7561462E-02  0.1139013E+00
          2   -1    0    0  501    0  0.00000000000E+00  0.00000000000E+00  0.78407300620E+03  0.78407300620E+03  0.00000000000E+00 0. -1.
         -2   -1    0    0    0  501 -0.00000000000E+00 -0.00000000000E+00 -0.72227457312E+02  0.72227457312E+02  0.00000000000E+00 0.  1.
         25    2    1    2    0    0  0.14812422696E+03  0.14027524364E+03  0.26756141037E+03  0.35896190250E+03  0.12508640427E+03 0.  0.
          5    1    3    3  502    0  0.99135391597E+02  0.47630829480E+02  0.57513868645E+02  0.12418469821E+03  0.41800000000E+01 0. -1.
         -5    1    3    3    0  502  0.48988835360E+02  0.92644414163E+02  0.21004754173E+03  0.23477720428E+03  0.41800000000E+01 0. -1.
        -11    1    1    2    0    0 -0.10287889876E+03 -0.59133358289E+02  0.16670599520E+03  0.20462578212E+03  0.00000000000E+00 0. -1.
         11    1    1    2    0    0 -0.45245328201E+02 -0.81141885354E+02  0.27757814332E+03  0.29271277890E+03  0.00000000000E+00 0.  1.
</event>
<event>
 7    1  0.2989693E-009  0.1139814E+03  0.7561462E-02  0.1253370E+00
          2   -1    0    0  501    0  0.00000000000E+00  0.00000000000E+00  0.81473867976E+02  0.81473867976E+02  0.00000000000E+00 0. -1.
         -2   -1    0    0    0  501 -0.00000000000E+00 -0.00000000000E+00 -0.19943770928E+03  0.19943770928E+03  0.00000000000E+00 0.  1.
         25    2    1    2    0    0  0.38756199706E+02  0.45186147663E+02 -0.97532444196E+02  0.16943179365E+03  0.12510285397E+03 0.  0.
          5    1    3    3  502    0 -0.25335936117E+02 -0.24433986030E+02 -0.55384441096E+02  0.65755897437E+02  0.41800000000E+01 0.  1.
         -5    1    3    3    0  502  0.64092135822E+02  0.69620133693E+02 -0.42148003101E+02  0.10367589621E+03  0.41800000000E+01 0.  1.
        -11    1    1    2    0    0  0.17356334166E+02 -0.37287892166E+02 -0.33826036030E+02  0.53252511221E+02  0.00000000000E+00 0.  1.
         11    1    1    2    0    0 -0.56112533872E+02 -0.78982554971E+01  0.13394638926E+02  0.58227272385E+02  0.00000000000E+00 0. -1.
</event>
<event>
 7    1  0.2989693E-009  0.2523426E+03  0.7561462E-02  0.1111833E+00
          1   -1    0    0  501    0  0.00000000000E+00  0.00000000000E+00  0.65961662707E+03  0.65961662707E+03  0.00000000000E+00 0. -1.
         -1   -1    0    0    0  501 -0.00000000000E+00 -0.00000000000E+00 -0.12259019514E+03  0.12259019514E+03  0.00000000000E+00 0.  1.
         25    2    1    2    0    0 -0.23436023691E+03 -0.37653030612E+02  0.11949330758E+03  0.29371466367E+03  0.12508869548E+03 0.  0.
          5    1    3    3  502    0 -0.12333230544E+03 -0.81426151961E+02  0.53182075461E+02  0.15712059489E+03  0.41800000000E+01 0. -1.
         -5    1    3    3    0  502 -0.11102793147E+03  0.43773121349E+02  0.66311232116E+02  0.13659406878E+03  0.41800000000E+01 0. -1.
        -11    1    1    2    0    0  0.72785594760E+02  0.14087028833E+02  0.22030181869E+03  0.23244155933E+03  0.00000000000E+00 0. -1.
         11    1    1    2    0    0  0.16157464215E+03  0.23566001779E+02  0.19723130566E+03  0.25605059922E+03  0.00000000000E+00 0.  1.
</event>
<event>
 7    1  0.2989693E-009  0.2880984E+03  0.7561462E-02  0.1091346E+00
          2   -1    0    0  501    0  0.00000000000E+00  0.00000000000E+00  0.86568372962E+03  0.86568372962E+03  0.00000000000E+00 0. -1.
         -2   -1    0    0    0  501 -0.00000000000E+00 -0.00000000000E+00 -0.10509325254E+03  0.10509325254E+03  0.00000000000E+00 0.  1.
         25    2    1    2    0    0  0.28804432841E+01  0.27994314438E+03  0.35271266220E+03  0.46736480019E+03  0.12508866190E+03 0.  0.
          5    1    3    3  502    0  0.39912973508E+02  0.13186751559E+03  0.24290012416E+03  0.27928485429E+03  0.41800000000E+01 0.  1.
         -5    1    3    3    0  502 -0.37032530224E+02  0.14807562878E+03  0.10981253805E+03  0.18807994589E+03  0.41800000000E+01 0.  1.
        -11    1    1    2    0    0 -0.29855794974E+02 -0.15334160117E+03  0.28460554968E+03  0.32466187650E+03  0.00000000000E+00 0. -1.
         11    1    1    2    0    0  0.26975351690E+02 -0.12660154321E+03  0.12327226520E+03  0.17875030548E+03  0.00000000000E+00 0.  1.
</event>
<event>
 7    1  0.2989693E-009  0.3152432E+03  0.7561462E-02  0.1077860E+00
         -1   -1    0    0    0  501 -0.00000000000E+00  0.00000000000E+00  0.21054634225E+03  0.21054634225E+03  0.00000000000E+00 0.  1.
          1   -1    0    0  501    0  0.00000000000E+00 -0.00000000000E+00 -0.51573184383E+03  0.51573184383E+03  0.00000000000E+00 0. -1.
         25    2    1    2    0    0  0.14513396503E+02  0.30963236170E+03 -0.12990129207E+03  0.35861537986E+03  0.12509119433E+03 0.  0.
          5    1    3    3  502    0  0.26955109052E+02  0.27867246744E+03 -0.67958038980E+02  0.28813311068E+03  0.41800000000E+01 0. -1.
         -5    1    3    3    0  502 -0.12441712548E+02  0.30959894265E+02 -0.61943253094E+02  0.70482269174E+02  0.41800000000E+01 0. -1.
        -11    1    1    2    0    0 -0.35676523405E+02 -0.10030897010E+03 -0.25718068255E+02  0.10952681334E+03  0.00000000000E+00 0. -1.
         11    1    1    2    0    0  0.21163126902E+02 -0.20932339160E+03 -0.14956614126E+03  0.25813599288E+03  0.00000000000E+00 0.  1.
</event>
<event>
 7    1  0.3323459E-009  0.2456963E+03  0.7561462E-02  0.1116055E+00
         -1   -1    0    0    0  501 -0.00000000000E+00  0.00000000000E+00  0.44967620922E+02  0.44967620922E+02  0.00000000000E+00 0.  1.
          1   -1    0    0  501    0  0.00000000000E+00 -0.00000000000E+00 -0.16005487675E+04  0.16005487675E+04  0.00000000000E+00 0. -1.
         25    2    1    2    0    0  0.94825740531E+02 -0.21138353403E+03 -0.10406466140E+04  0.10734373818E+04  0.12509003885E+03 0.  0.
          5    1    3    3  502    0  0.11930727014E+03 -0.17020371239E+03 -0.92715808918E+03  0.95018057397E+03  0.41800000000E+01 0.  1.
         -5    1    3    3    0  502 -0.24481529611E+02 -0.41179821641E+02 -0.11348852483E+03  0.12325680781E+03  0.41800000000E+01 0.  1.
        -11    1    1    2    0    0 -0.15097850136E+02  0.82395989888E+02 -0.28163838817E+03  0.29383196885E+03  0.00000000000E+00 0.  1.
         11    1    1    2    0    0 -0.79727890396E+02  0.12898754414E+03 -0.23329614441E+03  0.27824703781E+03  0.00000000000E+00 0. -1.
</event>
<event>
 7    1  0.2989693E-009  0.1097968E+03  0.7561462E-02  0.1260947E+00
          2   -1    0    0  501    0  0.00000000000E+00  0.00000000000E+00  0.22716072013E+03  0.22716072013E+03  0.00000000000E+00 0. -1.
         -2   -1    0    0    0  501 -0.00000000000E+00 -0.00000000000E+00 -0.62108254770E+02  0.62108254770E+02  0.00000000000E+00 0.  1.
         25    2    1    2    0    0 -0.38359336695E+02 -0.19512229482E+02  0.72069370348E+02  0.15064416453E+03  0.12508998503E+03 0.  0.
          5    1    3    3  502    0 -0.71223567524E+02 -0.44481601194E+02  0.24599611045E+02  0.87601499298E+02  0.41800000000E+01 0. -1.
         -5    1    3    3    0  502  0.32864230829E+02  0.24969371713E+02  0.47469759303E+02  0.63042665236E+02  0.41800000000E+01 0. -1.
        -11    1    1    2    0    0 -0.15753489634E+02  0.34462069903E+02  0.11358541176E+02  0.39557845686E+02  0.00000000000E+00 0.  1.
         11    1    1    2    0    0  0.54112826329E+02 -0.14949840421E+02  0.81624553833E+02  0.99066964678E+02  0.00000000000E+00 0. -1.
</event>
<event>
 7    1  0.2989693E-009  0.1100191E+03  0.7561462E-02  0.1260534E+00
          2   -1    0    0  501    0  0.00000000000E+00  0.00000000000E+00  0.72243955782E+03  0.72243955782E+03  0.00000000000E+00 0. -1.
         -2   -1    0    0    0  501 -0.00000000000E+00 -0.00000000000E+00 -0.17478545159E+02  0.17478545159E+02  0.00000000000E+00 0.  1.
         25    2    1    2    0    0  0.19889138339E+02  0.15603211969E+02  0.34435987997E+03  0.36724424742E+03  0.12508226205E+03 0.  0.
          5    1    3    3  502    0  0.59353587945E+02 -0.29596986426E+02  0.20360734122E+03  0.21417808433E+03  0.41800000000E+01 0.  1.
         -5    1    3    3    0  502 -0.39464449606E+02  0.45200198395E+02  0.14075253875E+03  0.15306616309E+03  0.41800000000E+01 0.  1.
        -11    1    1    2    0    0 -0.55690098835E+00  0.37199153541E+02  0.16558818452E+03  0.16971603936E+03  0.00000000000E+00 0. -1.
         11    1    1    2    0    0 -0.19332237350E+02 -0.52802365510E+02  0.19501294816E+03  0.20295781620E+03  0.00000000000E+00 0.  1.
</event>
<event>
 7    1  0.2989693E-009  0.8023290E+02  0.7561462E-02  0.1328392E+00
         -1   -1    0    0    0  501 -0.00000000000E+00  0.00000000000E+00  0.40058552490E+02  0.40058552490E+02  0.00000000000E+00 0.  1.
          1   -1    0    0  501    0  0.00000000000E+00 -0.00000000000E+00 -0.25605417108E+03  0.25605417108E+03  0.00000000000E+00 0. -1.
         25    2    1    2    0    0  0.18607745470E+02  0.34700892942E+02 -0.18513346215E+03  0.22687463455E+03  0.12508917152E+03 0.  0.
          5    1    3    3  502    0 -0.37394419406E+02  0.34129034725E+02 -0.23901749419E+02  0.56141781583E+02  0.41800000000E+01 0.  1.
         -5    1    3    3    0  502  0.56002164876E+02  0.57185821677E+00 -0.16123171273E+03  0.17073285297E+03  0.41800000000E+01 0.  1.
        -11    1    1    2    0    0  0.10970317448E+02 -0.11682233562E+02  0.55731906820E+01  0.16967112314E+02  0.00000000000E+00 0.  1.
         11    1    1    2    0    0 -0.29578062918E+02 -0.23018659380E+02 -0.36435347120E+02  0.52270976702E+02  0.00000000000E+00 0. -1.
</event>
<event>
 7    1  0.2989693E-009  0.1299140E+03  0.7561462E-02  0.1227583E+00
         -2   -1    0    0    0  501 -0.00000000000E+00  0.00000000000E+00  0.10012268501E+03  0.10012268501E+03  0.00000000000E+00 0. -1.
          2   -1    0    0  501    0  0.00000000000E+00 -0.00000000000E+00 -0.29476337490E+03  0.29476337490E+03  0.00000000000E+00 0.  1.
         25    2    1    2    0    0  0.67238216462E+02  0.70089865496E+02  0.13673650956E+01  0.15837608788E+03  0.12509016159E+03 0.  0.
          5    1    3    3  502    0  0.27041575348E+02 -0.30299815646E+02  0.24636347343E+02  0.47683829921E+02  0.41800000000E+01 0. -1.
         -5    1    3    3    0  502  0.40196641113E+02  0.10038968114E+03 -0.23268982248E+02  0.11069225796E+03  0.41800000000E+01 0. -1.
        -11    1    1    2    0    0 -0.21040971429E+02 -0.59881905810E+02 -0.17224248849E+03  0.18356481134E+03  0.00000000000E+00 0.  1.
         11    1    1    2    0    0 -0.46197245032E+02 -0.10207959685E+02 -0.23765566507E+02  0.52945160694E+02  0.00000000000E+00 0. -1.
</event>
<event>
 7    1  0.2989693E-009  0.5884923E+02  0.7561462E-02  0.1402725E+00
         -1   -1    0    0    0  501 -0.00000000000E+00  0.00000000000E+00  0.28684627052E+02  0.28684627052E+02  0.00000000000E+00 0.  1.
          1   -1    0    0  501    0  0.00000000000E+00 -0.00000000000E+00 -0.42598242634E+03  0.42598242634E+03  0.00000000000E+00 0. -1.
         25    2    1    2    0    0  0.61862779674E+01  0.54298998196E+00 -0.26681674001E+03  0.29475102000E+03  0.12509366958E+03 0.  0.
          5    1    3    3  502    0 -0.10003497037E+02  0.59013389266E+01  0.10907407145E+02  0.16472391591E+02  0.41800000000E+01 0.  1.
         -5    1    3    3    0  502  0.16189775004E+02 -0.53583489446E+01 -0.27772414715E+03  0.27827862841E+03  0.41800000000E+01 0.  1.
        -11    1    1    2    0    0 -0.23589857833E+02 -0.39003034480E+02 -0.42454130976E+02  0.62290218559E+02  0.00000000000E+00 0.  1.
         11    1    1    2    0    0  0.17403579865E+02  0.38460044499E+02 -0.88026928302E+02  0.97625814830E+02  0.00000000000E+00 0. -1.
</event>
<event>
 7    1  0.2989693E-009  0.1190692E+03  0.7561462E-02  0.1244640E+00
         -2   -1    0    0    0  501 -0.00000000000E+00  0.00000000000E+00  0.98830963698E+02  0.98830963698E+02  0.00000000000E+00 0.  1.
          2   -1    0    0  501    0  0.00000000000E+00 -0.00000000000E+00 -0.19445695165E+03  0.19445695165E+03  0.00000000000E+00 0. -1.
         25    2    1    2    0    0 -0.61721095631E+02  0.19498505333E+02 -0.11244688469E+03  0.18022683440E+03  0.12509086540E+03 0.  0.
          5    1    3    3  502    0 -0.38173492519E+02 -0.51488428173E+02 -0.65956691232E+02  0.92065364199E+02  0.41800000000E+01 0.  1.
         -5    1    3    3    0  502 -0.23547603112E+02  0.70986933506E+02 -0.46490193453E+02  0.88161470202E+02  0.41800000000E+01 0.  1.
        -11    1    1    2    0    0  0.16884404592E+02 -0.44547459442E+02  0.34416563062E+02  0.58771243599E+02  0.00000000000E+00 0.  1.
         11    1    1    2    0    0  0.44836691039E+02  0.25048954110E+02 -0.17595666324E+02  0.54289837343E+02  0.00000000000E+00 0. -1.
</event>
<event>
 7    1  0.3175506E-009  0.1203184E+03  0.7561462E-02  0.1242573E+00
          1   -1    0    0  501    0  0.00000000000E+00  0.00000000000E+00  0.11795193575E+03  0.11795193575E+03  0.00000000000E+00 0. -1.
         -1   -1    0    0    0  501 -0.00000000000E+00 -0.00000000000E+00 -0.17572020723E+03  0.17572020723E+03  0.00000000000E+00 0.  1.
         25    2    1    2    0    0 -0.65432887782E+02 -0.67632910616E+02 -0.22339122605E+02  0.15812405957E+03  0.12509399831E+03 0.  0.
          5    1    3    3  502    0 -0.25819953497E+01 -0.78531739701E+02  0.20326158986E+02  0.81268234751E+02  0.41800000000E+01 0. -1.
         -5    1    3    3    0  502 -0.62850892433E+02  0.10898829084E+02 -0.42665281591E+02  0.76855824817E+02  0.41800000000E+01 0. -1.
        -11    1    1    2    0    0  0.43450060186E+02  0.25179924756E+02 -0.62839309190E+02  0.80440755344E+02  0.00000000000E+00 0.  1.
         11    1    1    2    0    0  0.21982827596E+02  0.42452985860E+02  0.27410160315E+02  0.55107328062E+02  0.00000000000E+00 0. -1.
</event>
<event>
 7    1  0.2989693E-009  0.1101326E+03  0.7561462E-02  0.1260325E+00
         -1   -1    0    0    0  501 -0.00000000000E+00  0.00000000000E+00  0.31816778724E+03  0.31816778724E+03  0.00000000000E+00 0.  1.
          1   -1    0    0  501    0  0.00000000000E+00 -0.00000000000E+00 -0.40103908503E+02  0.40103908503E+02  0.00000000000E+00 0. -1.
         25    2    1    2    0    0  0.28779252671E+02  0.27935523894E+01  0.18015722563E+03  0.22122362753E+03  0.12508884088E+03 0.  0.
          5    1    3    3  502    0  0.76527127871E+02  0.14379351636E+02  0.95950414633E+02  0.12364109965E+03  0.41800000000E+01 0.  1.
         -5    1    3    3    0  502 -0.47747875200E+02 -0.11585799246E+02  0.84206810997E+02  0.97582527886E+02  0.41800000000E+01 0.  1.
        -11    1    1    2    0    0  0.15545932295E+02  0.32689335417E+02  0.22371256023E+02  0.42552811388E+02  0.00000000000E+00 0. -1.
         11    1    1    2    0    0 -0.44325184966E+02 -0.35482887806E+02  0.75535397083E+02  0.94495256822E+02  0.00000000000E+00 0.  1.
</event>
<event>
 7    1  0.2989693E-009  0.1152022E+03  0.7561462E-02  0.1251228E+00
          1   -1    0    0  501    0  0.00000000000E+00  0.00000000000E+00  0.37688615389E+03  0.37688615389E+03  0.00000000000E+00 0. -1.
         -1   -1    0    0    0  501 -0.00000000000E+00 -0.00000000000E+00 -0.46953962999E+02  0.46953962999E+02  0.00000000000E+00 0.  1.
         25    2    1    2    0    0  0.53577558860E+02 -0.83343668061E+01  0.26961794485E+03  0.30212566847E+03  0.12508423913E+03 0.  0.
          5    1    3    3  502    0  0.27906296550E+02  0.51924848219E+02  0.18980575696E+03  0.19879298032E+03  0.41800000000E+01 0.  1.
         -5    1    3    3    0  502  0.25671262310E+02 -0.60259215025E+02  0.79812187898E+02  0.10333268815E+03  0.41800000000E+01 0.  1.
        -11    1    1    2    0    0 -0.17593263181E+02  0.48592183068E+02  0.31260761408E+02  0.60398330842E+02  0.00000000000E+00 0.  1.
         11    1    1    2    0    0 -0.35984295678E+02 -0.40257816262E+02  0.29053484630E+02  0.61316117577E+02  0.00000000000E+00 0. -1.
</event>
<event>
 7    1  0.2989693E-009  0.1327132E+03  0.7561462E-02  0.1223485E+00
         -2   -1    0    0    0  501 -0.00000000000E+00  0.00000000000E+00  0.18016462560E+02  0.18016462560E+02  0.00000000000E+00 0.  1.
          2   -1    0    0  501    0  0.00000000000E+00 -0.00000000000E+00 -0.13883306270E+04  0.13883306270E+04  0.00000000000E+00 0. -1.
         25    2    1    2    0    0 -0.16256677294E+02  0.90937065738E+02 -0.10338401161E+04  0.10454691069E+04  0.12508572381E+03 0.  0.
          5    1    3    3  502    0 -0.51496691936E+02  0.93740636568E+02 -0.54981799075E+03  0.56013972505E+03  0.41800000000E+01 0.  1.
         -5    1    3    3    0  502  0.35240014642E+02 -0.28035708293E+01 -0.48402212535E+03  0.48532938184E+03  0.41800000000E+01 0.  1.
        -11    1    1    2    0    0 -0.27304271251E+02 -0.68609623983E+02 -0.13865140433E+03  0.15708919649E+03  0.00000000000E+00 0.  1.
         11    1    1    2    0    0  0.43560948545E+02 -0.22327441755E+02 -0.19782264405E+03  0.20378878623E+03  0.00000000000E+00 0. -1.
</event>
<event>
 7    1  0.2989693E-009  0.6038978E+02  0.7561462E-02  0.1396203E+00
          1   -1    0    0  501    0  0.00000000000E+00  0.00000000000E+00  0.31557777664E+03  0.31557777664E+03  0.00000000000E+00 0. -1.
         -1   -1    0    0    0  501 -0.00000000000E+00 -0.00000000000E+00 -0.49450424969E+02  0.49450424969E+02  0.00000000000E+00 0.  1.
         25    2    1    2    0    0 -0.47354451597E+02 -0.17430633351E+02  0.89325092620E+02  0.16177996984E+03  0.12509002920E+03 0.  0.
          5    1    3    3  502    0 -0.67021841966E+01 -0.19716224846E+02  0.11267375990E+03  0.11465817618E+03  0.41800000000E+01 0. -1.
         -5    1    3    3    0  502 -0.40652267400E+02  0.22855914951E+01 -0.23348667283E+02  0.47121793654E+02  0.41800000000E+01 0. -1.
        -11    1    1    2    0    0  0.18489240720E+02  0.22689792783E+02  0.59153832106E+01  0.29860851921E+02  0.00000000000E+00 0.  1.
         11    1    1    2    0    0  0.28865210877E+02 -0.52591594318E+01  0.17088687584E+03  0.17338737985E+03  0.00000000000E+00 0. -1.
</event>
<event>
 7    1  0.2989693E-009  0.1257308E+03  0.7561462E-02  0.1233932E+00
         -1   -1    0    0    0  501 -0.00000000000E+00  0.00000000000E+00  0.59922133520E+02  0.59922133520E+02  0.00000000000E+00 0.  1.
          1   -1    0    0  501    0  0.00000000000E+00 -0.00000000000E+00 -0.41620301932E+03  0.41620301932E+03  0.00000000000E+00 0. -1.
         25    2    1    2    0    0  0.84798159425E+02  0.50536400693E+02 -0.27481623208E+03  0.31767243696E+03  0.12508860919E+03 0.  0.
          5    1    3    3  502    0  0.50400873882E+02 -0.44896973838E+01 -0.19801443953E+02  0.54497477495E+02  0.41800000000E+01 0.  1.
         -5    1    3    3    0  502  0.34397285543E+02  0.55026098077E+02 -0.25501478813E+03  0.26317495946E+03  0.41800000000E+01 0.  1.
        -11    1    1    2    0    0 -0.62759353990E+02  0.16668816212E+02 -0.34245277699E+02  0.73412022121E+02  0.00000000000E+00 0.  1.
         11    1    1    2    0    0 -0.22038805435E+02 -0.67205216905E+02 -0.47219376019E+02  0.85040693764E+02  0.00000000000E+00 0. -1.
</event>
<event>
 7    1  0.2989693E-009  0.1324967E+03  0.7561462E-02  0.1223797E+00
         -1   -1    0    0    0  501 -0.00000000000E+00  0.00000000000E+00  0.30421156787E+03  0.30421156787E+03  0.00000000000E+00 0.  1.
          1   -1    0    0  501    0  0.00000000000E+00 -0.00000000000E+00 -0.78769377392E+02  0.78769377392E+02  0.00000000000E+00 0. -1.
         25    2    1    2    0    0  0.12627702002E+01 -0.10202536093E+03  0.16945548732E+03  0.23403813241E+03  0.12509163192E+03 0.  0.
          5    1    3    3  502    0 -0.21818548571E+02 -0.10130564902E+03  0.55377623161E+02  0.11757141290E+03  0.41800000000E+01 0.  1.
         -5    1    3    3    0  502  0.23081318771E+02 -0.71971191166E+00  0.11407786416E+03  0.11646671951E+03  0.41800000000E+01 0.  1.
        -11    1    1    2    0    0  0.44740486408E+02  0.36442927535E+02  0.27478722057E+02  0.63913052323E+02  0.00000000000E+00 0.  1.
         11    1    1    2    0    0 -0.46003256609E+02  0.65582433396E+02  0.28507981098E+02  0.85029760526E+02  0.00000000000E+00 0. -1.
</event>
<event>
 7    1  0.2989693E-009  0.1717364E+03  0.7561462E-02  0.1176049E+00
          2   -1    0    0  501    0  0.00000000000E+00  0.00000000000E+00  0.11684585845E+04  0.11684585845E+04  0.00000000000E+00 0. -1.
         -2   -1    0    0    0  501 -0.00000000000E+00 -0.00000000000E+00 -0.31531970145E+02  0.31531970145E+02  0.00000000000E+00 0.  1.
         25    2    1    2    0    0  0.10867401377E+03  0.99659276182E+02  0.77545643675E+03  0.79920033348E+03  0.12508587105E+03 0.  0.
          5    1    3    3  502    0  0.86658375995E+02 -0.44365689185E+01  0.35202730615E+03  0.36258799477E+03  0.41800000000E+01 0. -1.
         -5    1    3    3    0  502  0.22015637774E+02  0.10409584510E+03  0.42342913060E+03  0.43661233871E+03  0.41800000000E+01 0. -1.
        -11    1    1    2    0    0 -0.66599431376E+02 -0.78750076856E+02  0.32598680159E+03  0.34191293289E+03  0.00000000000E+00 0. -1.
         11    1    1    2    0    0 -0.42074582394E+02 -0.20909199326E+02  0.35483375979E+02  0.58877288244E+02  0.00000000000E+00 0.  1.
</event>
<event>
 7    1  0.2989693E-009  0.9720842E+02  0.7561462E-02  0.1286278E+00
          2   -1    0    0  501    0  0.00000000000E+00  0.00000000000E+00  0.24419835076E+03  0.24419835076E+03  0.00000000000E+00 0. -1.
         -2   -1    0    0    0  501 -0.00000000000E+00 -0.00000000000E+00 -0.18293442874E+03  0.18293442874E+03  0.00000000000E+00 0.  1.
         25    2    1    2    0    0  0.79250747884E+02 -0.11381745464E+02 -0.13223715159E+03  0.19885794965E+03  0.12509034619E+03 0.  0.
          5    1    3    3  502    0  0.53171553771E+01 -0.95094234032E+01 -0.12374889170E+03  0.12429787557E+03  0.41800000000E+01 0.  1.
         -5    1    3    3    0  502  0.73933592507E+02 -0.18723220607E+01 -0.84882598888E+01  0.74560074080E+02  0.41800000000E+01 0.  1.
        -11    1    1    2    0    0 -0.59184418328E+02 -0.27237252538E+02  0.62690360038E+02  0.90414293894E+02  0.00000000000E+00 0.  1.
         11    1    1    2    0    0 -0.20066329556E+02  0.38618998002E+02  0.13081071357E+03  0.13786053596E+03  0.00000000000E+00 0. -1.
</event>
<event>
 7    1  0.2989693E-009  0.8208752E+02  0.7561462E-02  0.1323230E+00
         -1   -1    0    0    0  501 -0.00000000000E+00  0.00000000000E+00  0.23871091215E+02  0.23871091215E+02  0.00000000000E+00 0.  1.
          1   -1    0    0  501    0  0.00000000000E+00 -0.00000000000E+00 -0.48183950133E+03  0.48183950133E+03  0.00000000000E+00 0. -1.
         25    2    1    2    0    0  0.11836150210E+01 -0.27276527166E+02 -0.41592195357E+03  0.43519136382E+03  0.12512010951E+03 0.  0.
          5    1    3    3  502    0  0.22644749551E+02  0.37857822828E+02 -0.27346319587E+03  0.27702994662E+03  0.41800000000E+01 0.  1.
         -5    1    3    3    0  502 -0.21461134530E+02 -0.65134349994E+02 -0.14245875770E+03  0.15816141720E+03  0.41800000000E+01 0.  1.
        -11    1    1    2    0    0  0.20407465626E+02  0.71016406499E+01 -0.33310461520E+02  0.39704971979E+02  0.00000000000E+00 0. -1.
         11    1    1    2    0    0 -0.21591080647E+02  0.20174886516E+02 -0.87359950222E+01  0.30814256740E+02  0.00000000000E+00 0.  1.
</event>
<event>
 7    1  0.2989693E-009  0.1148631E+03  0.7561462E-02  0.1251820E+00
          1   -1    0    0  501    0  0.00000000000E+00  0.00000000000E+00  0.48912037599E+03  0.48912037599E+03  0.00000000000E+00 0. -1.
         -1   -1    0    0    0  501 -0.00000000000E+00 -0.00000000000E+00 -0.41961815758E+02  0.41961815758E+02  0.00000000000E+00 0.  1.
         25    2    1    2    0    0  0.41389356884E+02 -0.79062511044E+02  0.19377616605E+03  0.24730884361E+03  0.12509397300E+03 0.  0.
          5    1    3    3  502    0  0.27086894396E+02 -0.86399606986E+02  0.20706656659E+03  0.22603678314E+03  0.41800000000E+01 0. -1.
         -5    1    3    3    0  502  0.14302462488E+02  0.73370959419E+01 -0.13290400535E+02  0.21272060466E+02  0.41800000000E+01 0. -1.
        -11    1    1    2    0    0 -0.61656253227E+02  0.28349014686E+02  0.99083617712E+02  0.12009464390E+03  0.00000000000E+00 0.  1.
         11    1    1    2    0    0  0.20266896343E+02  0.50713496359E+02  0.15429877646E+03  0.16367870423E+03  0.00000000000E+00 0. -1.
</event>
<event>
 7    1  0.2989693E-009  0.9143722E+02  0.7561462E-02  0.1299408E+00
         -2   -1    0    0    0  501 -0.00000000000E+00  0.00000000000E+00  0.27312423288E+02  0.27312423288E+02  0.00000000000E+00 0.  1.
          2   -1    0    0  501    0  0.00000000000E+00 -0.00000000000E+00 -0.57784147079E+03  0.57784147079E+03  0.00000000000E+00 0. -1.
         25    2    1    2    0    0  0.35518219142E+01  0.11045970034E+02 -0.43609549117E+03  0.45382966191E+03  0.12508979062E+03 0.  0.
          5    1    3    3  502    0 -0.25646018018E+02 -0.39002208929E+02 -0.77570222044E+02  0.90628374638E+02  0.41800000000E+01 0. -1.
         -5    1    3    3    0  502  0.29197839932E+02  0.50048178963E+02 -0.35852526913E+03  0.36320128727E+03  0.41800000000E+01 0. -1.
        -11    1    1    2    0    0  0.15667160580E+02 -0.40116212674E+02 -0.14426212863E+02  0.45419005466E+02  0.00000000000E+00 0.  1.
         11    1    1    2    0    0 -0.19218982494E+02  0.29070242640E+02 -0.10000734347E+03  0.10590522670E+03  0.00000000000E+00 0. -1.
</event>
<event>
 7    1  0.2989693E-009  0.1306793E+03  0.7561462E-02  0.1226451E+00
          2   -1    0    0  501    0  0.00000000000E+00  0.00000000000E+00  0.23218463564E+03  0.23218463564E+03  0.00000000000E+00 0. -1.
         -2   -1    0    0    0  501 -0.00000000000E+00 -0.00000000000E+00 -0.10595118609E+03  0.10595118609E+03  0.00000000000E+00 0.  1.
         25    2    1    2    0    0  0.22771234533E+02  0.10862011125E+03  0.86653102883E+02  0.18834416314E+03  0.12509158988E+03 0.  0.
          5    1    3    3  502    0  0.26085659989E+02  0.33340333756E+01 -0.23758658843E+02  0.35686463899E+02  0.41800000000E+01 0. -1.
         -5    1    3    3    0  502 -0.33144254561E+01  0.10528607788E+03  0.11041176173E+03  0.15265769924E+03  0.41800000000E+01 0. -1.
        -11    1    1    2    0    0  0.23128646065E+02 -0.26022537576E+02  0.42887130315E+02  0.55239593385E+02  0.00000000000E+00 0. -1.
         11    1    1    2    0    0 -0.45899880597E+02 -0.82597573677E+02 -0.33067836486E+01  0.94552065204E+02  0.00000000000E+00 0.  1.
</event>
<event>
 7    1  0.2989693E-009  0.7331927E+02  0.7561462E-02  0.1349156E+00
         -2   -1    0    0    0  501 -0.00000000000E+00  0.00000000000E+00  0.51167136660E+02  0.51167136660E+02  0.00000000000E+00 0.  1.
          2   -1    0    0  501    0  0.00000000000E+00 -0.00000000000E+00 -0.30587704216E+03  0.30587704216E+03  0.00000000000E+00 0. -1.
         25    2    1    2    0    0 -0.30651365563E+02 -0.35366419110E+01 -0.21391475127E+03  0.24968762962E+03  0.12502950664E+03 0.  0.
          5    1    3    3  502    0 -0.10084308439E+01  0.33558071161E+02 -0.35825103339E+01  0.34021579227E+02  0.41800000000E+01 0.  1.
         -5    1    3    3    0  502 -0.29642934719E+02 -0.37094713072E+02 -0.21033224094E+03  0.21566605040E+03  0.41800000000E+01 0.  1.
        -11    1    1    2    0    0  0.44901319239E+02  0.14472416374E+02  0.14389757695E+02  0.49321845379E+02  0.00000000000E+00 0.  1.
         11    1    1    2    0    0 -0.14249953675E+02 -0.10935774463E+02 -0.55184911922E+02  0.58034703813E+02  0.00000000000E+00 0. -1.
</event>
<event>
 7    1  0.2989693E-009  0.1643553E+03  0.7561462E-02  0.1183866E+00
         -1   -1    0    0    0  501 -0.00000000000E+00  0.00000000000E+00  0.26628495908E+03  0.26628495908E+03  0.00000000000E+00 0.  1.
          1   -1    0    0  501    0  0.00000000000E+00 -0.00000000000E+00 -0.10791073579E+03  0.10791073579E+03  0.00000000000E+00 0. -1.
         25    2    1    2    0    0 -0.11650906498E+03 -0.49387869989E+02  0.49136141205E+02  0.18459805602E+03  0.12509419647E+03 0.  0.
          5    1    3    3  502    0 -0.23949634034E+02 -0.74463571282E+02  0.40610386860E+02  0.88233124955E+02  0.41800000000E+01 0. -1.
         -5    1    3    3    0  502 -0.92559430947E+02  0.25075701292E+02  0.85257543450E+01  0.96364931067E+02  0.41800000000E+01 0. -1.
        -11    1    1    2    0    0 -0.14170914662E+02 -0.12895026754E+01  0.15146845119E+02  0.20782313552E+02  0.00000000000E+00 0. -1.
         11    1    1    2    0    0  0.13067997964E+03  0.50677372665E+02  0.94091236969E+02  0.16881532529E+03  0.00000000000E+00 0.  1.
</event>
<event>
 7    1  0.2989693E-009  0.8810089E+02  0.7561462E-02  0.1307517E+00
         -1   -1    0    0    0  501 -0.00000000000E+00  0.00000000000E+00  0.29339472471E+02  0.29339472471E+02  0.00000000000E+00 0.  1.
          1   -1    0    0  501    0  0.00000000000E+00 -0.00000000000E+00 -0.45377586294E+03  0.45377586294E+03  0.00000000000E+00 0. -1.
         25    2    1    2    0    0 -0.14795036478E+02  0.37608710174E+02 -0.23356638471E+03  0.26803162729E+03  0.12511750069E+03 0.  0.
          5    1    3    3  502    0 -0.19507072767E+02 -0.23737907481E+02 -0.19003002063E+03  0.19254322964E+03  0.41800000000E+01 0. -1.
         -5    1    3    3    0  502  0.47120362894E+01  0.61346617654E+02 -0.43536364080E+02  0.75488397658E+02  0.41800000000E+01 0. -1.
        -11    1    1    2    0    0  0.41028705376E+02 -0.39849474097E+02 -0.65405013999E+02  0.86885851016E+02  0.00000000000E+00 0.  1.
         11    1    1    2    0    0 -0.26233668899E+02  0.22407639232E+01 -0.12546499176E+03  0.12819785710E+03  0.00000000000E+00 0. -1.
</event>
<event>
 7    1  0.2989693E-009  0.7845675E+02  0.7561462E-02  0.1333489E+00
         -1   -1    0    0    0  501 -0.00000000000E+00  0.00000000000E+00  0.11423731168E+03  0.11423731168E+03  0.00000000000E+00 0.  1.
          1   -1    0    0  501    0  0.00000000000E+00 -0.00000000000E+00 -0.10722703063E+03  0.10722703063E+03  0.00000000000E+00 0. -1.
         25    2    1    2    0    0  0.69939598119E+00 -0.11235291341E+02  0.35207434564E+01  0.12564280378E+03  0.12508795938E+03 0.  0.
          5    1    3    3  502    0 -0.17595139456E+02 -0.64933945467E+02 -0.70940246892E+01  0.67777605392E+02  0.41800000000E+01 0. -1.
         -5    1    3    3    0  502  0.18294535437E+02  0.53698654126E+02  0.10614768146E+02  0.57865198389E+02  0.41800000000E+01 0. -1.
        -11    1    1    2    0    0  0.26454234429E+01  0.21585823045E+02 -0.42940952677E+02  0.48133890747E+02  0.00000000000E+00 0. -1.
         11    1    1    2    0    0 -0.33448194240E+01 -0.10350531704E+02  0.46430490275E+02  0.47687647779E+02  0.00000000000E+00 0.  1.
</event>
<event>
 7    1  0.2989693E-009  0.1348260E+03  0.7561462E-02  0.1220466E+00
          2   -1    0    0  501    0  0.00000000000E+00  0.00000000000E+00  0.15516430555E+03  0.15516430555E+03  0.00000000000E+00 0. -1.
         -2   -1    0    0    0  501 -0.00000000000E+00 -0.00000000000E+00 -0.12510062585E+03  0.12510062585E+03  0.00000000000E+00 0.  1.
         25    2    1    2    0    0 -0.27903875859E+02  0.80903438087E+02  0.58492194676E+01  0.15167564733E+03  0.12508915238E+03 0.  0.
          5    1    3    3  502    0 -0.67979013179E+02  0.17150922314E+02  0.23789349805E+02  0.74153259761E+02  0.41800000000E+01 0.  1.
         -5    1    3    3    0  502  0.40075137321E+02  0.63752515772E+02 -0.17940130337E+02  0.77522387574E+02  0.41800000000E+01 0.  1.
        -11    1    1    2    0    0  0.27531375063E+02 -0.10060047084E+03  0.11024132852E+02  0.10488070772E+03  0.00000000000E+00 0.  1.
         11    1    1    2    0    0  0.37250079600E+00  0.19697032754E+02  0.13190327379E+02  0.23708576350E+02  0.00000000000E+00 0. -1.
</event>
<event>
 7    1  0.2989693E-009  0.1032453E+03  0.7561462E-02  0.1273616E+00
          1   -1    0    0  501    0  0.00000000000E+00  0.00000000000E+00  0.21071758822E+04  0.21071758822E+04  0.00000000000E+00 0. -1.
         -1   -1    0    0    0  501 -0.00000000000E+00 -0.00000000000E+00 -0.12405642345E+02  0.12405642345E+02  0.00000000000E+00 0.  1.
         25    2    1    2    0    0 -0.69261119994E+02 -0.55919505929E+02  0.16544674164E+04  0.16615763172E+04  0.12509729141E+03 0.  0.
          5    1    3    3  502    0 -0.24765264014E+02 -0.45631925688E+02  0.20938590335E+03  0.21576728173E+03  0.41800000000E+01 0.  1.
         -5    1    3    3    0  502 -0.44495855980E+02 -0.10287580241E+02  0.14450815130E+04  0.14458090355E+04  0.41800000000E+01 0.  1.
        -11    1    1    2    0    0 -0.43556031705E+00  0.36073103772E+02  0.53854625171E+02  0.64821132209E+02  0.00000000000E+00 0.  1.
         11    1    1    2    0    0  0.69696680311E+02  0.19846402157E+02  0.38644819837E+03  0.39318407515E+03  0.00000000000E+00 0. -1.
</event>
<event>
 7    1  0.2989693E-009  0.2851874E+03  0.7561462E-02  0.1092889E+00
         -2   -1    0    0    0  501 -0.00000000000E+00  0.00000000000E+00  0.87969786595E+02  0.87969786595E+02  0.00000000000E+00 0.  1.
          2   -1    0    0  501    0  0.00000000000E+00 -0.00000000000E+00 -0.10749573883E+04  0.10749573883E+04  0.00000000000E+00 0. -1.
         25    2    1    2    0    0  0.15667504494E+03  0.23807151073E+03 -0.58238477376E+03  0.66033682209E+03  0.12509028725E+03 0.  0.
          5    1    3    3  502    0  0.77174867813E+02  0.11365779264E+03 -0.15013992042E+03  0.20355225902E+03  0.41800000000E+01 0. -1.
         -5    1    3    3    0  502  0.79500177128E+02  0.12441371809E+03 -0.43224485335E+03  0.45678456307E+03  0.41800000000E+01 0. -1.
        -11    1    1    2    0    0 -0.10015203851E+03 -0.16186716747E+03 -0.19493178314E+03  0.27245148339E+03  0.00000000000E+00 0.  1.
         11    1    1    2    0    0 -0.56523006427E+02 -0.76204343260E+02 -0.20967104476E+03  0.23013886937E+03  0.00000000000E+00 0. -1.
</event>
<event>
 7    1  0.2989693E-009  0.2071938E+03  0.7561462E-02  0.1143808E+00
         -2   -1    0    0    0  501 -0.00000000000E+00  0.00000000000E+00  0.19212501472E+03  0.19212501472E+03  0.00000000000E+00 0. -1.
          2   -1    0    0  501    0  0.00000000000E+00 -0.00000000000E+00 -0.38534391304E+03  0.38534391304E+03  0.00000000000E+00 0.  1.
         25    2    1    2    0    0 -0.18228737280E+03  0.71531861995E+01 -0.27924370858E+03  0.35623642971E+03  0.12508993050E+03 0.  0.
          5    1    3    3  502    0 -0.32528759844E+02 -0.49577395967E+02 -0.57709430517E+02  0.82848591892E+02  0.41800000000E+01 0. -1.
         -5    1    3    3    0  502 -0.14975861296E+03  0.56730582167E+02 -0.22153427806E+03  0.27338783782E+03  0.41800000000E+01 0. -1.
        -11    1    1    2    0    0  0.12036518020E+03  0.27947786521E+02  0.85120515876E+02  0.15004785103E+03  0.00000000000E+00 0. -1.
         11    1    1    2    0    0  0.61922192604E+02 -0.35100972720E+02  0.90429438890E+00  0.71184647019E+02  0.00000000000E+00 0.  1.
</event>
<event>
 7    1  0.2989693E-009  0.9682974E+02  0.7561462E-02  0.1287107E+00
         -2   -1    0    0    0  501 -0.00000000000E+00  0.00000000000E+00  0.21557935572E+02  0.21557935572E+02  0.00000000000E+00 0.  1.
          2   -1    0    0  501    0  0.00000000000E+00 -0.00000000000E+00 -0.86949636172E+03  0.86949636172E+03  0.00000000000E+00 0. -1.
         25    2    1    2    0    0 -0.34571305478E+02 -0.59853554165E+02 -0.61782775320E+03  0.63414200990E+03  0.12508930006E+03 0.  0.
          5    1    3    3  502    0 -0.29396843972E+02 -0.10489168280E+02 -0.54500285050E+03  0.54591187616E+03  0.41800000000E+01 0.  1.
         -5    1    3    3    0  502 -0.51744615065E+01 -0.49364385885E+02 -0.72824902706E+02  0.88230133741E+02  0.41800000000E+01 0.  1.
        -11    1    1    2    0    0  0.49004024095E+02 -0.18007550735E+01 -0.77813311629E+02  0.91975804226E+02  0.00000000000E+00 0.  1.
         11    1    1    2    0    0 -0.14432718617E+02  0.61654309238E+02 -0.15229736132E+03  0.16493648317E+03  0.00000000000E+00 0. -1.
</event>
<event>
 7    1  0.2989693E-009  0.3646939E+03  0.7561462E-02  0.1056741E+00
          1   -1    0    0  501    0  0.00000000000E+00  0.00000000000E+00  0.11347544369E+04  0.11347544369E+04  0.00000000000E+00 0. -1.
         -1   -1    0    0    0  501 -0.00000000000E+00 -0.00000000000E+00 -0.12895024577E+03  0.12895024577E+03  0.00000000000E+00 0.  1.
         25    2    1    2    0    0 -0.34483945871E+03  0.10411129335E+03  0.62073067295E+03  0.72849761267E+03  0.12509512237E+03 0.  0.
          5    1    3    3  502    0 -0.21163125866E+03  0.10270154245E+03  0.30055335530E+03  0.38168729118E+03  0.41800000000E+01 0.  1.
         -5    1    3    3    0  502 -0.13320820005E+03  0.14097509003E+01  0.32017731765E+03  0.34681032150E+03  0.41800000000E+01 0.  1.
        -11    1    1    2    0    0  0.22679548762E+03 -0.57915977580E+02  0.30800632874E+03  0.38685701778E+03  0.00000000000E+00 0. -1.
         11    1    1    2    0    0  0.11804397109E+03 -0.46195315774E+02  0.77067189487E+02  0.14835005226E+03  0.00000000000E+00 0.  1.
</event>
<event>
 7    1  0.2989693E-009  0.9370967E+02  0.7561462E-02  0.1294109E+00
          2   -1    0    0  501    0  0.00000000000E+00  0.00000000000E+00  0.45638213905E+03  0.45638213905E+03  0.00000000000E+00 0.  1.
         -2   -1    0    0    0  501 -0.00000000000E+00 -0.00000000000E+00 -0.26998504897E+02  0.26998504897E+02  0.00000000000E+00 0. -1.
         25    2    1    2    0    0 -0.83963723148E+01 -0.16135419253E+02  0.20720141205E+03  0.24271758277E+03  0.12509416056E+03 0.  0.
          5    1    3    3  502    0 -0.90586544968E+01 -0.59318858503E+02  0.45850240584E+02  0.75634007939E+02  0.41800000000E+01 0. -1.
         -5    1    3    3    0  502  0.66228218199E+00  0.43183439250E+02  0.16135117147E+03  0.16708357483E+03  0.41800000000E+01 0. -1.
        -11    1    1    2    0    0 -0.16997344566E+02  0.43405269061E+02  0.17171758023E+03  0.17793216253E+03  0.00000000000E+00 0.  1.
         11    1    1    2    0    0  0.25393716881E+02 -0.27269849808E+02  0.50464641875E+02  0.62730898648E+02  0.00000000000E+00 0. -1.
</event>
<event>
 7    1  0.2989693E-009  0.1056843E+03  0.7561462E-02  0.1268777E+00
         -4   -1    0    0    0  501 -0.00000000000E+00  0.00000000000E+00  0.17209563876E+03  0.17209563876E+03  0.00000000000E+00 0.  1.
          4   -1    0    0  501    0  0.00000000000E+00 -0.00000000000E+00 -0.70933156148E+02  0.70933156148E+02  0.00000000000E+00 0. -1.
         25    2    1    2    0    0  0.80285005162E+01 -0.17672038253E+02  0.66128564058E+02  0.14281882598E+03  0.12508985696E+03 0.  0.
          5    1    3    3  502    0 -0.53868005918E+02 -0.57016724402E+01  0.57403609481E+02  0.79037446263E+02  0.41800000000E+01 0. -1.
         -5    1    3    3    0  502  0.61896506435E+02 -0.11970365813E+02  0.87249545763E+01  0.63781379719E+02  0.41800000000E+01 0. -1.
        -11    1    1    2    0    0  0.26047751403E+02 -0.27102365504E+02  0.12801426496E+02  0.39710201327E+02  0.00000000000E+00 0.  1.
         11    1    1    2    0    0 -0.34076251920E+02  0.44774403758E+02  0.22232492064E+02  0.60499767604E+02  0.00000000000E+00 0. -1.
</event>
<event>
 7    1  0.2989693E-009  0.8523935E+02  0.7561462E-02  0.1314808E+00
          2   -1    0    0  501    0  0.00000000000E+00  0.00000000000E+00  0.11543645650E+04  0.11543645650E+04  0.00000000000E+00 0. -1.
         -2   -1    0    0    0  501 -0.00000000000E+00 -0.00000000000E+00 -0.11396040191E+02  0.11396040191E+02  0.00000000000E+00 0.  1.
         25    2    1    2    0    0  0.61369348245E+01  0.20395680218E+02  0.75062983759E+03  0.76127924085E+03  0.12508910316E+03 0.  0.
          5    1    3    3  502    0 -0.11220046158E+02  0.42854664620E+02  0.71080335865E+03  0.71219470567E+03  0.41800000000E+01 0.  1.
         -5    1    3    3    0  502  0.17356980983E+02 -0.22458984402E+02  0.39826478942E+02  0.49084535183E+02  0.41800000000E+01 0.  1.
        -11    1    1    2    0    0 -0.48953271736E+02  0.19571281894E+01  0.22730998283E+03  0.23252974317E+03  0.00000000000E+00 0. -1.
         11    1    1    2    0    0  0.42816336911E+02 -0.22352808407E+02  0.16502870435E+03  0.17195162113E+03  0.00000000000E+00 0.  1.
</event>
<event>
 7    1  0.2989693E-009  0.4885375E+02  0.7561462E-02  0.1451624E+00
         -2   -1    0    0    0  501 -0.00000000000E+00  0.00000000000E+00  0.31185945096E+03  0.31185945096E+03  0.00000000000E+00 0.  1.
          2   -1    0    0  501    0  0.00000000000E+00 -0.00000000000E+00 -0.39439615290E+02  0.39439615290E+02  0.00000000000E+00 0. -1.
         25    2    1    2    0    0 -0.20890176834E+02  0.12129459560E+02  0.11628405785E+03  0.17249023603E+03  0.12508947253E+03 0.  0.
          5    1    3    3  502    0 -0.36306870843E+02 -0.12622250390E+01 -0.15026593236E+02  0.39535464924E+02  0.41800000000E+01 0. -1.
         -5    1    3    3    0  502  0.15416694009E+02  0.13391684599E+02  0.13131065108E+03  0.13295477110E+03  0.41800000000E+01 0. -1.
        -11    1    1    2    0    0  0.20608596720E+02 -0.22159067180E+02  0.16355451622E+03  0.16633044909E+03  0.00000000000E+00 0.  1.
         11    1    1    2    0    0  0.28158011357E+00  0.10029607620E+02 -0.74187383991E+01  0.12478381137E+02  0.00000000000E+00 0. -1.
</event>
<event>
 7    1  0.2989693E-009  0.9133078E+02  0.7561462E-02  0.1299661E+00
         -1   -1    0    0    0  501 -0.00000000000E+00  0.00000000000E+00  0.17790537287E+03  0.17790537287E+03  0.00000000000E+00 0.  1.
          1   -1    0    0  501    0  0.00000000000E+00 -0.00000000000E+00 -0.66784907084E+02  0.66784907084E+02  0.00000000000E+00 0. -1.
         25    2    1    2    0    0 -0.13729348343E+02 -0.31323884328E+02  0.80947435802E+02  0.15287109856E+03  0.12508958660E+03 0.  0.
          5    1    3    3  502    0 -0.52118993555E+02 -0.18283585601E+02 -0.71030109300E+01  0.55844463969E+02  0.41800000000E+01 0.  1.
         -5    1    3    3    0  502  0.38389645212E+02 -0.13040298727E+02  0.88050446733E+02  0.97026634592E+02  0.41800000000E+01 0.  1.
        -11    1    1    2    0    0 -0.25580553815E+02 -0.11790452615E+02  0.12829565809E+02  0.30951207815E+02  0.00000000000E+00 0.  1.
         11    1    1    2    0    0  0.39309902159E+02  0.43114336943E+02  0.17343464172E+02  0.60867973576E+02  0.00000000000E+00 0. -1.
</event>
<event>
 7    1  0.2989693E-009  0.8330315E+02  0.7561462E-02  0.1319931E+00
          2   -1    0    0  501    0  0.00000000000E+00  0.00000000000E+00  0.35901899125E+02  0.35901899125E+02  0.00000000000E+00 0.  1.
         -2   -1    0    0    0  501 -0.00000000000E+00 -0.00000000000E+00 -0.46375484012E+03  0.46375484012E+03  0.00000000000E+00 0. -1.
         25    2    1    2    0    0 -0.52610819588E+02  0.46080550179E+02 -0.23873296498E+03  0.27844470845E+03  0.12508681646E+03 0.  0.
          5    1    3    3  502    0 -0.58917855821E+02  0.54099227911E+02 -0.61795791227E+02  0.10116438310E+03  0.41800000000E+01 0.  1.
         -5    1    3    3    0  502  0.63070362326E+01 -0.80186777320E+01 -0.17693717376E+03  0.17728032535E+03  0.41800000000E+01 0.  1.
        -11    1    1    2    0    0  0.47518970592E+02 -0.24796175442E+02 -0.19181386032E+03  0.19916189368E+03  0.00000000000E+00 0. -1.
         11    1    1    2    0    0  0.50918489961E+01 -0.21284374737E+02  0.26938843086E+01  0.22050137116E+02  0.00000000000E+00 0.  1.
</event>
<event>
 6    1  0.2989693E-009  0.4523583E+03  0.7561462E-02  0.1027021E+00
          1   -1    0    0  501    0  0.00000000000E+00  0.00000000000E+00  0.10139261835E+04  0.10139261835E+04  0.00000000000E+00 0. -1.
         -1   -1    0    0    0  501 -0.00000000000E+00 -0.00000000000E+00 -0.26734099928E+03  0.26734099928E+03  0.00000000000E+00 0.  1.
          5    1    1    2  502    0 -0.26514090985E+03 -0.32996382620E+02  0.31301171701E+03  0.41156077404E+03  0.41800000000E+01 0. -1.
         -5    1    1    2    0  502 -0.16450999043E+03 -0.84930371595E+02  0.36583959766E+03  0.41003998413E+03  0.41800000000E+01 0. -1.
        -11    1    1    2    0    0  0.27994955873E+03  0.37727447295E+02  0.19663834301E+02  0.28316387851E+03  0.00000000000E+00 0.  1.
         11    1    1    2    0    0  0.14970134156E+03  0.80199306920E+02  0.48070035265E+02  0.17650254611E+03  0.00000000000E+00 0. -1.
</event>
<event>
 7    1  0.2989693E-009  0.1067284E+03  0.7561462E-02  0.1266751E+00
         -3   -1    0    0    0  501 -0.00000000000E+00  0.00000000000E+00  0.13265563190E+03  0.13265563190E+03  0.00000000000E+00 0.  1.
          3   -1    0    0  501    0  0.00000000000E+00 -0.00000000000E+00 -0.15693419104E+03  0.15693419104E+03  0.00000000000E+00 0. -1.
         25    2    1    2    0    0  0.31443140584E+02 -0.36621908250E+02  0.65730598825E+02  0.14932414736E+03  0.12508938448E+03 0.  0.
          5    1    3    3  502    0  0.55664235443E+02  0.12997641898E+02 -0.71883212597E+01  0.57763225021E+02  0.41800000000E+01 0. -1.
         -5    1    3    3    0  502 -0.24221094858E+02 -0.49619550148E+02  0.72918920085E+02  0.91560922338E+02  0.41800000000E+01 0. -1.
        -11    1    1    2    0    0 -0.58934809629E+02  0.42494226239E+02 -0.84809730762E+02  0.11167704098E+03  0.00000000000E+00 0. -1.
         11    1    1    2    0    0  0.27491669045E+02 -0.58723179883E+01 -0.51994272017E+01  0.28588634606E+02  0.00000000000E+00 0.  1.
</event>
<event>
 7    1  0.2989693E-009  0.8047591E+02  0.7561462E-02  0.1327706E+00
         -2   -1    0    0    0  501 -0.00000000000E+00  0.00000000000E+00  0.38788829446E+02  0.38788829446E+02  0.00000000000E+00 0.  1.
          2   -1    0    0  501    0  0.00000000000E+00 -0.00000000000E+00 -0.30726210349E+03  0.30726210349E+03  0.00000000000E+00 0. -1.
         25    2    1    2    0    0 -0.24578887559E+02 -0.43824097358E+02 -0.18402824255E+03  0.22812175534E+03  0.12509383670E+03 0.  0.
          5    1    3    3  502    0 -0.28527558778E+02 -0.70932466258E+02 -0.50439094707E+02  0.91688663716E+02  0.41800000000E+01 0. -1.
         -5    1    3    3    0  502  0.39486712184E+01  0.27108368900E+02 -0.13358914784E+03  0.13643309162E+03  0.41800000000E+01 0. -1.
        -11    1    1    2    0    0  0.10055052762E+02  0.40557482057E+02 -0.11302315091E+02  0.43286900597E+02  0.00000000000E+00 0.  1.
         11    1    1    2    0    0  0.14523834797E+02  0.32666153006E+01 -0.73142716405E+02  0.74642277001E+02  0.00000000000E+00 0. -1.
</event>
<event>
 7    1  0.2989693E-009  0.5545530E+02  0.7561462E-02  0.1417958E+00
          1   -1    0    0  501    0  0.00000000000E+00  0.00000000000E+00  0.81637684099E+02  0.81637684099E+02  0.00000000000E+00 0. -1.
         -1   -1    0    0    0  501 -0.00000000000E+00 -0.00000000000E+00 -0.16732517968E+03  0.16732517968E+03  0.00000000000E+00 0.  1.
         25    2    1    2    0    0  0.17160462076E+02  0.32691459860E+02 -0.22706963853E+02  0.13238245467E+03  0.12508515136E+03 0.  0.
          5    1    3    3  502    0 -0.13839623322E+02  0.37758836448E+02 -0.66800349842E+02  0.78083442820E+02  0.41800000000E+01 0.  1.
         -5    1    3    3    0  502  0.31000085398E+02 -0.50673765881E+01  0.44093385990E+02  0.54299011853E+02  0.41800000000E+01 0.  1.
        -11    1    1    2    0    0 -0.12204071673E+02 -0.10647344419E+02  0.22747946357E+02  0.27924440407E+02  0.00000000000E+00 0. -1.
         11    1    1    2    0    0 -0.49563904028E+01 -0.22044115441E+02 -0.85728478084E+02  0.88655968699E+02  0.00000000000E+00 0.  1.
</event>
<event>
 7    1  0.2989693E-009  0.2042478E+03  0.7561462E-02  0.1146204E+00
         -1   -1    0    0    0  501 -0.00000000000E+00  0.00000000000E+00  0.68539388821E+02  0.68539388821E+02  0.00000000000E+00 0.  1.
          1   -1    0    0  501    0  0.00000000000E+00 -0.00000000000E+00 -0.69127378197E+03  0.69127378197E+03  0.00000000000E+00 0. -1.
         25    2    1    2    0    0  0.13671284186E+03  0.12293369836E+03 -0.24592452405E+03  0.33155724710E+03  0.12509293046E+03 0.  0.
          5    1    3    3  502    0  0.51072600855E+02  0.12090010484E+03 -0.18275712526E+03  0.22503974125E+03  0.41800000000E+01 0. -1.
         -5    1    3    3    0  502  0.85640241007E+02  0.20335935185E+01 -0.63167398791E+02  0.10651750585E+03  0.41800000000E+01 0. -1.
        -11    1    1    2    0    0 -0.52971675713E+01 -0.29995021090E+02 -0.13057334667E+03  0.13407893248E+03  0.00000000000E+00 0. -1.
         11    1    1    2    0    0 -0.13141567429E+03 -0.92938677265E+02 -0.24623652242E+03  0.29417699121E+03  0.00000000000E+00 0.  1.
</event>
<event>
 7    1  0.2989693E-009  0.1065062E+03  0.7561462E-02  0.1267180E+00
          2   -1    0    0  501    0  0.00000000000E+00  0.00000000000E+00  0.13201825321E+04  0.13201825321E+04  0.00000000000E+00 0. -1.
         -2   -1    0    0    0  501 -0.00000000000E+00 -0.00000000000E+00 -0.11528293361E+02  0.11528293361E+02  0.00000000000E+00 0.  1.
         25    2    1    2    0    0  0.10708236598E+02  0.31880136231E+02  0.99731821064E+03  0.10056960990E+04  0.12510004344E+03 0.  0.
          5    1    3    3  502    0 -0.56405460583E+02  0.45686239407E+01  0.46680222865E+03  0.47023849415E+03  0.41800000000E+01 0. -1.
         -5    1    3    3    0  502  0.67113697181E+02  0.27311512290E+02  0.53051598199E+03  0.53545760485E+03  0.41800000000E+01 0. -1.
        -11    1    1    2    0    0  0.15139212088E+02 -0.49922654278E+02  0.26425891037E+03  0.26935894056E+03  0.00000000000E+00 0.  1.
         11    1    1    2    0    0 -0.25847448685E+02  0.18042518048E+02  0.47077117744E+02  0.56655785902E+02  0.00000000000E+00 0. -1.
</event>
<event>
 7    1  0.2989693E-009  0.1774818E+03  0.7561462E-02  0.1170263E+00
          1   -1    0    0  501    0  0.00000000000E+00  0.00000000000E+00  0.62797141062E+03  0.62797141062E+03  0.00000000000E+00 0. -1.
         -1   -1    0    0    0  501 -0.00000000000E+00 -0.00000000000E+00 -0.65044437511E+02  0.65044437511E+02  0.00000000000E+00 0.  1.
         25    2    1    2    0    0  0.12255912727E+03 -0.76376411201E+02  0.44849397896E+03  0.48749442052E+03  0.12509942050E+03 0.  0.
          5    1    3    3  502    0  0.64744704133E+02 -0.10252815440E+03  0.34825525653E+03  0.36878597487E+03  0.41800000000E+01 0. -1.
         -5    1    3    3    0  502  0.57814423133E+02  0.26151743200E+02  0.10023872244E+03  0.11870844566E+03  0.41800000000E+01 0. -1.
        -11    1    1    2    0    0  0.79019858341E+01  0.30877800876E+02  0.14581970040E+02  0.35050161445E+02  0.00000000000E+00 0.  1.
         11    1    1    2    0    0 -0.13046111310E+03  0.45498610325E+02  0.99851024105E+02  0.17047126616E+03  0.00000000000E+00 0. -1.
</event>
<event>
 7    1  0.2989693E-009  0.1382248E+03  0.7561462E-02  0.1215738E+00
         -1   -1    0    0    0  501 -0.00000000000E+00  0.00000000000E+00  0.18356308575E+02  0.18356308575E+02  0.00000000000E+00 0.  1.
          1   -1    0    0  501    0  0.00000000000E+00 -0.00000000000E+00 -0.14898592233E+04  0.14898592233E+04  0.00000000000E+00 0. -1.
         25    2    1    2    0    0  0.10972140522E+03 -0.51333161788E+02 -0.10079722716E+04  0.10229029992E+04  0.12509422570E+03 0.  0.
          5    1    3    3  502    0  0.12152490063E+03 -0.57344704033E+02 -0.60785435375E+03  0.62254405814E+03  0.41800000000E+01 0.  1.
         -5    1    3    3    0  502 -0.11803495411E+02  0.60115422454E+01 -0.40011791780E+03  0.40035894106E+03  0.41800000000E+01 0.  1.
        -11    1    1    2    0    0 -0.36322523366E+02 -0.35134686869E+01 -0.50891501075E+02  0.62622799742E+02  0.00000000000E+00 0.  1.
         11    1    1    2    0    0 -0.73398881850E+02  0.54846630475E+02 -0.41263914209E+03  0.42268973292E+03  0.00000000000E+00 0. -1.
</event>
<event>
 7    1  0.2989693E-009  0.1125087E+03  0.7561462E-02  0.1255993E+00
          1   -1    0    0  501    0  0.00000000000E+00  0.00000000000E+00  0.67576604638E+02  0.67576604638E+02  0.00000000000E+00 0. -1.
         -1   -1    0    0    0  501 -0.00000000000E+00 -0.00000000000E+00 -0.30172758860E+03  0.30172758860E+03  0.00000000000E+00 0.  1.
         25    2    1    2    0    0  0.43823483397E+02  0.62163381180E+02 -0.19109727176E+03  0.24072958373E+03  0.12509109300E+03 0.  0.
          5    1    3    3  502    0  0.42035478559E+02 -0.27222249806E+02 -0.36561716059E+02  0.62147114361E+02  0.41800000000E+01 0. -1.
         -5    1    3    3    0  502  0.17880048387E+01  0.89385630986E+02 -0.15453555571E+03  0.17858246937E+03  0.41800000000E+01 0. -1.
        -11    1    1    2    0    0 -0.25608081412E+02 -0.61962041952E+02  0.14165704058E+02  0.68525437962E+02  0.00000000000E+00 0. -1.
         11    1    1    2    0    0 -0.18215401986E+02 -0.20133922745E+00 -0.57219416260E+02  0.60049171552E+02  0.00000000000E+00 0.  1.
</event>
<event>
 7    1  0.2989693E-009  0.9976427E+02  0.7561462E-02  0.1280792E+00
          2   -1    0    0  501    0  0.00000000000E+00  0.00000000000E+00  0.92501557887E+03  0.92501557887E+03  0.00000000000E+00 0. -1.
         -2   -1    0    0    0  501 -0.00000000000E+00 -0.00000000000E+00 -0.18534122805E+02  0.18534122805E+02  0.00000000000E+00 0.  1.
         25    2    1    2    0    0  0.35969895366E+02 -0.51806052489E+02  0.62776302290E+03  0.64320445399E+03  0.12509139164E+03 0.  0.
          5    1    3    3  502    0  0.51464730075E+02 -0.49330466973E+02  0.62182836623E+03  0.62591541191E+03  0.41800000000E+01 0.  1.
         -5    1    3    3    0  502 -0.15494834709E+02 -0.24755855160E+01  0.59346566706E+01  0.17289042082E+02  0.41800000000E+01 0.  1.
        -11    1    1    2    0    0 -0.60111321118E+02  0.61376343090E+02  0.21686890916E+03  0.23326497846E+03  0.00000000000E+00 0. -1.
         11    1    1    2    0    0  0.24141425752E+02 -0.95702906009E+01  0.61849524003E+02  0.67080269222E+02  0.00000000000E+00 0.  1.
</event>
<event>
 7    1  0.2989693E-009  0.1014415E+03  0.7561462E-02  0.1277294E+00
          1   -1    0    0  501    0  0.00000000000E+00  0.00000000000E+00  0.68336207891E+02  0.68336207891E+02  0.00000000000E+00 0. -1.
         -1   -1    0    0    0  501 -0.00000000000E+00 -0.00000000000E+00 -0.22734810900E+03  0.22734810900E+03  0.00000000000E+00 0.  1.
         25    2    1    2    0    0 -0.32581423780E+02  0.19261935386E+02 -0.14869798103E+03  0.19796386638E+03  0.12508409772E+03 0.  0.
          5    1    3    3  502    0  0.35090155153E+02  0.41829463780E+02 -0.39720512114E+02  0.67647723623E+02  0.41800000000E+01 0. -1.
         -5    1    3    3    0  502 -0.67671578933E+02 -0.22567528394E+02 -0.10897746891E+03  0.13031614276E+03  0.41800000000E+01 0. -1.
        -11    1    1    2    0    0  0.22284558978E+02  0.23674509550E+02 -0.34475393351E+02  0.47388149553E+02  0.00000000000E+00 0.  1.
         11    1    1    2    0    0  0.10296864802E+02 -0.42936444936E+02  0.24161473273E+02  0.50332300953E+02  0.00000000000E+00 0. -1.
</event>
<event>
 7    1  0.2989693E-009  0.8640214E+02  0.7561462E-02  0.1311806E+00
          1   -1    0    0  501    0  0.00000000000E+00  0.00000000000E+00  0.58679260609E+03  0.58679260609E+03  0.00000000000E+00 0. -1.
         -1   -1    0    0    0  501 -0.00000000000E+00 -0.00000000000E+00 -0.29776703383E+02  0.29776703383E+02  0.00000000000E+00 0.  1.
         25    2    1    2    0    0 -0.29814530072E+02 -0.64574789469E+02  0.36946371430E+03  0.39649751016E+03  0.12509208504E+03 0.  0.
          5    1    3    3  502    0 -0.84584273677E+01 -0.23662846828E+02  0.34134477337E+03  0.34229402861E+03  0.41800000000E+01 0. -1.
         -5    1    3    3    0  502 -0.21356102705E+02 -0.40911942641E+02  0.28118940933E+02  0.54203481554E+02  0.41800000000E+01 0. -1.
        -11    1    1    2    0    0  0.48442042342E+02  0.19502321571E+02  0.14905704395E+03  0.15793978081E+03  0.00000000000E+00 0. -1.
         11    1    1    2    0    0 -0.18627512270E+02  0.45072467897E+02  0.38495144450E+02  0.62132018493E+02  0.00000000000E+00 0.  1.
</event>
<event>
 7    1  0.2989693E-009  0.1069643E+03  0.7561462E-02  0.1266297E+00
          2   -1    0    0  501    0  0.00000000000E+00  0.00000000000E+00  0.60580059692E+02  0.60580059692E+02  0.00000000000E+00 0.  1.
         -2   -1    0    0    0  501 -0.00000000000E+00 -0.00000000000E+00 -0.22036996086E+03  0.22036996086E+03  0.00000000000E+00 0. -1.
         25    2    1    2    0    0 -0.73582445111E+01 -0.84065059361E+01 -0.43244203829E+02  0.13282275863E+03  0.12508801278E+03 0.  0.
          5    1    3    3  502    0  0.21223696102E+02 -0.60032479266E+02 -0.35885186931E+02  0.73209035536E+02  0.41800000000E+01 0. -1.
         -5    1    3    3    0  502 -0.28581940613E+02  0.51625973330E+02 -0.73590168983E+01  0.59613723094E+02  0.41800000000E+01 0. -1.
        -11    1    1    2    0    0  0.47609200969E+01  0.49528161705E+02 -0.56258149321E+02  0.75104490725E+02  0.00000000000E+00 0.  1.
         11    1    1    2    0    0  0.25973244142E+01 -0.41121655769E+02 -0.60287548019E+02  0.73022771198E+02  0.00000000000E+00 0. -1.
</event>
<event>
 7    1  0.2989693E-009  0.1195419E+03  0.7561462E-02  0.1243855E+00
          1   -1    0    0  501    0  0.00000000000E+00  0.00000000000E+00  0.12302851081E+03  0.12302851081E+03  0.00000000000E+00 0. -1.
         -1   -1    0    0    0  501 -0.00000000000E+00 -0.00000000000E+00 -0.25387890955E+03  0.25387890955E+03  0.00000000000E+00 0.  1.
         25    2    1    2    0    0 -0.75153604881E+02 -0.35650347243E+02  0.50072168285E+02  0.15835189850E+03  0.12509632343E+03 0.  0.
          5    1    3    3  502    0 -0.80965100044E+02 -0.54070280441E+02  0.77525449438E+02  0.12452554101E+03  0.41800000000E+01 0.  1.
         -5    1    3    3    0  502  0.58114951629E+01  0.18419933199E+02 -0.27453281153E+02  0.33826357492E+02  0.41800000000E+01 0.  1.
        -11    1    1    2    0    0  0.88517871839E+02  0.52611504286E+01 -0.14182942592E+03  0.16726828569E+03  0.00000000000E+00 0.  1.
         11    1    1    2    0    0 -0.13364266958E+02  0.30389196814E+02 -0.39093141094E+02  0.51287236180E+02  0.00000000000E+00 0. -1.
</event>
<event>
 7    1  0.2989693E-009  0.1391777E+03  0.7561462E-02  0.1214440E+00
         -1   -1    0    0    0  501 -0.00000000000E+00  0.00000000000E+00  0.20808942619E+03  0.20808942619E+03  0.00000000000E+00 0.  1.
          1   -1    0    0  501    0  0.00000000000E+00 -0.00000000000E+00 -0.12653390892E+03  0.12653390892E+03  0.00000000000E+00 0. -1.
         25    2    1    2    0    0 -0.38815800530E+02  0.10380883483E+03 -0.50620184312E+01  0.16719266750E+03  0.12507926876E+03 0.  0.
          5    1    3    3  502    0 -0.66874589936E+02  0.31731948239E+02  0.32687306973E+02  0.81025056343E+02  0.41800000000E+01 0.  1.
         -5    1    3    3    0  502  0.28058789406E+02  0.72076886591E+02 -0.37749325404E+02  0.86167611154E+02  0.41800000000E+01 0.  1.
        -11    1    1    2    0    0  0.55195427894E+02 -0.88715673472E+02  0.33323924356E+02  0.10966991344E+03  0.00000000000E+00 0.  1.
         11    1    1    2    0    0 -0.16379627364E+02 -0.15093161359E+02  0.53293611342E+02  0.57760754170E+02  0.00000000000E+00 0. -1.
</event>
<event>
 7    1  0.2989693E-009  0.1002674E+03  0.7561462E-02  0.1279735E+00
          1   -1    0    0  501    0  0.00000000000E+00  0.00000000000E+00  0.10914000206E+03  0.10914000206E+03  0.00000000000E+00 0. -1.
         -1   -1    0    0    0  501 -0.00000000000E+00 -0.00000000000E+00 -0.17123612497E+03  0.17123612497E+03  0.00000000000E+00 0.  1.
         25    2    1    2    0    0  0.71529505647E+02  0.40302293674E+02 -0.33224923771E+02  0.15327261107E+03  0.12509137736E+03 0.  0.
          5    1    3    3  502    0  0.24952898420E+02 -0.21429473957E+02 -0.62280914978E+02  0.70556744994E+02  0.41800000000E+01 0.  1.
         -5    1    3    3    0  502  0.46576607227E+02  0.61731767631E+02  0.29055991207E+02  0.82715866075E+02  0.41800000000E+01 0.  1.
        -11    1    1    2    0    0 -0.29823672371E+02  0.28031624853E+01  0.30471246654E+02  0.42729451509E+02  0.00000000000E+00 0. -1.
         11    1    1    2    0    0 -0.41705833276E+02 -0.43105456159E+02 -0.59342445786E+02  0.84374064450E+02  0.00000000000E+00 0.  1.
</event>
<event>
 7    1  0.2989693E-009  0.1038912E+03  0.7561462E-02  0.1272320E+00
         -4   -1    0    0    0  501 -0.00000000000E+00  0.00000000000E+00  0.11142588605E+03  0.11142588605E+03  0.00000000000E+00 0.  1.
          4   -1    0    0  501    0  0.00000000000E+00 -0.00000000000E+00 -0.13196087892E+03  0.13196087892E+03  0.00000000000E+00 0. -1.
         25    2    1    2    0    0 -0.16581723468E+02  0.51119375339E+02 -0.12022575083E+01  0.13615342206E+03  0.12509262499E+03 0.  0.
          5    1    3    3  502    0  0.23317659839E+02  0.76535537182E+02 -0.23774466406E+02  0.83570924161E+02  0.41800000000E+01 0.  1.
         -5    1    3    3    0  502 -0.39899383307E+02 -0.25416161843E+02  0.22572208897E+02  0.52582497902E+02  0.41800000000E+01 0.  1.
        -11    1    1    2    0    0  0.32609442115E+02 -0.54763003075E+02  0.18179060345E+02  0.66278506742E+02  0.00000000000E+00 0.  1.
         11    1    1    2    0    0 -0.16027718647E+02  0.36436277361E+01 -0.37511795710E+02  0.40954836168E+02  0.00000000000E+00 0. -1.
</event>
<event>
 7    1  0.2989693E-009  0.1025840E+03  0.7561462E-02  0.1274954E+00
          1   -1    0    0  501    0  0.00000000000E+00  0.00000000000E+00  0.28473744652E+03  0.28473744652E+03  0.00000000000E+00 0. -1.
         -1   -1    0    0    0  501 -0.00000000000E+00 -0.00000000000E+00 -0.57166801478E+02  0.57166801478E+02  0.00000000000E+00 0.  1.
         25    2    1    2    0    0 -0.35062184517E+02 -0.52701011876E+02  0.96413605951E+02  0.17014548137E+03  0.12508856056E+03 0.  0.
          5    1    3    3  502    0 -0.91588651393E+00  0.40486592870E+02  0.31591050103E+02  0.51531251653E+02  0.41800000000E+01 0. -1.
         -5    1    3    3    0  502 -0.34146298003E+02 -0.93187604745E+02  0.64822555848E+02  0.11861422972E+03  0.41800000000E+01 0. -1.
        -11    1    1    2    0    0  0.59775094693E+01  0.22139053334E+02  0.12734965059E+03  0.12939784313E+03  0.00000000000E+00 0. -1.
         11    1    1    2    0    0  0.29084675048E+02  0.30561958541E+02  0.38073885085E+01  0.42360923500E+02  0.00000000000E+00 0.  1.
</event>
<event>
 7    1  0.2989693E-009  0.1742432E+03  0.7561462E-02  0.1173494E+00
         -4   -1    0    0    0  501 -0.00000000000E+00  0.00000000000E+00  0.33514939048E+02  0.33514939048E+02  0.00000000000E+00 0.  1.
          4   -1    0    0  501    0  0.00000000000E+00 -0.00000000000E+00 -0.10121907825E+04  0.10121907825E+04  0.00000000000E+00 0. -1.
         25    2    1    2    0    0 -0.14559535895E+03  0.27064165039E+02 -0.55378313226E+03  0.58673149625E+03  0.12509042145E+03 0.  0.
          5    1    3    3  502    0 -0.11730624829E+03  0.70391379365E+02 -0.45497057759E+03  0.47511198790E+03  0.41800000000E+01 0.  1.
         -5    1    3    3    0  502 -0.28289110661E+02 -0.43327214326E+02 -0.98812554672E+02  0.11161950835E+03  0.41800000000E+01 0.  1.
        -11    1    1    2    0    0  0.52596086452E+02  0.18998527236E+02 -0.72170477942E+02  0.91300987035E+02  0.00000000000E+00 0.  1.
         11    1    1    2    0    0  0.92999272502E+02 -0.46062692275E+02 -0.35272223329E+03  0.36767323830E+03  0.00000000000E+00 0. -1.
</event>
<event>
 7    1  0.2989693E-009  0.1386840E+03  0.7561462E-02  0.1215111E+00
          2   -1    0    0  501    0  0.00000000000E+00  0.00000000000E+00  0.14787902843E+03  0.14787902843E+03  0.00000000000E+00 0. -1.
         -2   -1    0    0    0  501 -0.00000000000E+00 -0.00000000000E+00 -0.14255987910E+03  0.14255987910E+03  0.00000000000E+00 0.  1.
         25    2    1    2    0    0 -0.91303233316E+02 -0.14998330231E+02 -0.23567790277E+02  0.15736805215E+03  0.12509209718E+03 0.  0.
          5    1    3    3  502    0 -0.10773331695E+02  0.50256656396E+02 -0.12373123362E+02  0.53031714753E+02  0.41800000000E+01 0.  1.
         -5    1    3    3    0  502 -0.80529901621E+02 -0.65254986627E+02 -0.11194666915E+02  0.10433633740E+03  0.41800000000E+01 0.  1.
        -11    1    1    2    0    0  0.72640250312E+02 -0.25892890518E+02 -0.42401203398E+01  0.77233583144E+02  0.00000000000E+00 0.  1.
         11    1    1    2    0    0  0.18662983004E+02  0.40891220749E+02  0.33127059956E+02  0.55837272232E+02  0.00000000000E+00 0. -1.
</event>
<event>
 7    1  0.2989693E-009  0.1113903E+03  0.7561462E-02  0.1258017E+00
         -3   -1    0    0    0  501 -0.00000000000E+00  0.00000000000E+00  0.13885402673E+03  0.13885402673E+03  0.00000000000E+00 0.  1.
          3   -1    0    0  501    0  0.00000000000E+00 -0.00000000000E+00 -0.10124008418E+03  0.10124008418E+03  0.00000000000E+00 0. -1.
         25    2    1    2    0    0 -0.29351190299E+02 -0.32914732532E+02  0.83885198565E+01  0.13289592514E+03  0.12508432222E+03 0.  0.
          5    1    3    3  502    0 -0.78633403773E+02 -0.19268330757E+02  0.11115801544E+01  0.81075204406E+02  0.41800000000E+01 0.  1.
         -5    1    3    3    0  502  0.49282213474E+02 -0.13646401775E+02  0.72769397021E+01  0.51820720737E+02  0.41800000000E+01 0.  1.
        -11    1    1    2    0    0  0.62409007929E+01 -0.26200616058E+02 -0.14049155747E+02  0.30377621727E+02  0.00000000000E+00 0.  1.
         11    1    1    2    0    0  0.23110289506E+02  0.59115348591E+02  0.43274578442E+02  0.76820564040E+02  0.00000000000E+00 0. -1.
</event>
<event>
 7    1  0.2989693E-009  0.2081719E+03  0.7561462E-02  0.1143022E+00
          1   -1    0    0  501    0  0.00000000000E+00  0.00000000000E+00  0.58388781420E+03  0.58388781420E+03  0.00000000000E+00 0. -1.
         -1   -1    0    0    0  501 -0.00000000000E+00 -0.00000000000E+00 -0.10942908887E+03  0.10942908887E+03  0.00000000000E+00 0.  1.
         25    2    1    2    0    0 -0.40447223231E+02 -0.18188920829E+03  0.42355996149E+03  0.47934338010E+03  0.12508946044E+03 0.  0.
          5    1    3    3  502    0 -0.72167679840E+02 -0.16613460879E+03  0.29743051012E+03  0.34826895210E+03  0.41800000000E+01 0.  1.
         -5    1    3    3    0  502  0.31720456609E+02 -0.15754599506E+02  0.12612945137E+03  0.13107442800E+03  0.41800000000E+01 0.  1.
        -11    1    1    2    0    0  0.57626892932E+02  0.96478265678E+02 -0.13482157945E+01  0.11238653043E+03  0.00000000000E+00 0.  1.
         11    1    1    2    0    0 -0.17179669701E+02  0.85410942615E+02  0.52246979638E+02  0.10158699253E+03  0.00000000000E+00 0. -1.
</event>
<event>
 7    1  0.2989693E-009  0.3855311E+03  0.7561462E-02  0.1048908E+00
         -2   -1    0    0    0  501 -0.00000000000E+00  0.00000000000E+00  0.57025350585E+03  0.57025350585E+03  0.00000000000E+00 0.  1.
          2   -1    0    0  501    0  0.00000000000E+00 -0.00000000000E+00 -0.26658573307E+03  0.26658573307E+03  0.00000000000E+00 0. -1.
         25    2    1    2    0    0 -0.24616418540E+03  0.27752530293E+03  0.20729098359E+03  0.44298394808E+03  0.12509247158E+03 0.  0.
          5    1    3    3  502    0  0.13688658177E+02  0.26551410669E+02  0.14304447717E+02  0.33383325114E+02  0.41800000000E+01 0.  1.
         -5    1    3    3    0  502 -0.25985284357E+03  0.25097389226E+03  0.19298653587E+03  0.40960062297E+03  0.41800000000E+01 0.  1.
        -11    1    1    2    0    0  0.24311364917E+03 -0.23884155252E+03  0.99194130590E+02  0.35494930506E+03  0.00000000000E+00 0.  1.
         11    1    1    2    0    0  0.30505362300E+01 -0.38683750406E+02 -0.28173414009E+01  0.38905985778E+02  0.00000000000E+00 0. -1.
</event>
<event>
 7    1  0.2989693E-009  0.7326340E+02  0.7561462E-02  0.1349335E+00
         -1   -1    0    0    0  501 -0.00000000000E+00  0.00000000000E+00  0.58658488898E+03  0.58658488898E+03  0.00000000000E+00 0.  1.
          1   -1    0    0  501    0  0.00000000000E+00 -0.00000000000E+00 -0.21487682239E+02  0.21487682239E+02  0.00000000000E+00 0. -1.
         25    2    1    2    0    0  0.78460981953E+01 -0.93765302034E+01  0.40111861313E+03  0.42035078102E+03  0.12509658958E+03 0.  0.
          5    1    3    3  502    0  0.27534859520E+02 -0.19864799643E+02  0.39549024488E+03  0.39696698219E+03  0.41800000000E+01 0. -1.
         -5    1    3    3    0  502 -0.19688761325E+02  0.10488269439E+02  0.56283682495E+01  0.23383798825E+02  0.41800000000E+01 0. -1.
        -11    1    1    2    0    0 -0.27773819439E+02  0.42615197009E+02  0.74479116441E+02  0.90191900125E+02  0.00000000000E+00 0. -1.
         11    1    1    2    0    0  0.19927721244E+02 -0.33238666805E+02  0.89499477171E+02  0.97529890079E+02  0.00000000000E+00 0.  1.
</event>
<event>
 7    1  0.3486856E-009  0.1465092E+03  0.7561462E-02  0.1204829E+00
          3   -1    0    0  501    0  0.00000000000E+00  0.00000000000E+00  0.23871043713E+03  0.23871043713E+03  0.00000000000E+00 0. -1.
         -3   -1    0    0    0  501 -0.00000000000E+00 -0.00000000000E+00 -0.11673345178E+03  0.11673345178E+03  0.00000000000E+00 0.  1.
         25    2    1    2    0    0 -0.10035630272E+03 -0.66210752562E+02  0.23504092944E+02  0.17508646225E+03  0.12509026992E+03 0.  0.
          5    1    3    3  502    0 -0.30472542913E+02  0.35201313760E+02  0.22437442312E+02  0.51851900443E+02  0.41800000000E+01 0. -1.
         -5    1    3    3    0  502 -0.69883759803E+02 -0.10141206632E+03  0.10666506314E+01  0.12323456181E+03  0.41800000000E+01 0. -1.
        -11    1    1    2    0    0  0.48013789801E+02  0.16264940500E+02 -0.83128123540E+01  0.51370956286E+02  0.00000000000E+00 0.  1.
         11    1    1    2    0    0  0.52342512915E+02  0.49945812062E+02  0.10678570476E+03  0.12898647038E+03  0.00000000000E+00 0. -1.
</event>
<event>
 7    1  0.2989693E-009  0.1344930E+03  0.7561462E-02  0.1220937E+00
          2   -1    0    0  501    0  0.00000000000E+00  0.00000000000E+00  0.87820118063E+03  0.87820118063E+03  0.00000000000E+00 0. -1.
         -2   -1    0    0    0  501 -0.00000000000E+00 -0.00000000000E+00 -0.31949787466E+02  0.31949787466E+02  0.00000000000E+00 0.  1.
         25    2    1    2    0    0 -0.41468683031E+02  0.11726402262E+03  0.38291540100E+03  0.42159493454E+03  0.12509029472E+03 0.  0.
          5    1    3    3  502    0  0.84795346783E+01  0.14870949110E+02  0.23094818072E+03  0.23161947719E+03  0.41800000000E+01 0. -1.
         -5    1    3    3    0  502 -0.49948217710E+02  0.10239307351E+03  0.15196722029E+03  0.18997545736E+03  0.41800000000E+01 0. -1.
        -11    1    1    2    0    0 -0.43026751679E+00 -0.83634954278E+02  0.16042646666E+03  0.18091888213E+03  0.00000000000E+00 0.  1.
         11    1    1    2    0    0  0.41898950548E+02 -0.33629068346E+02  0.30290952550E+03  0.30763715142E+03  0.00000000000E+00 0. -1.
</event>
<event>
 7    1  0.2989693E-009  0.1590834E+03  0.7561462E-02  0.1189735E+00
          2   -1    0    0  501    0  0.00000000000E+00  0.00000000000E+00  0.77146084468E+03  0.77146084468E+03  0.00000000000E+00 0. -1.
         -2   -1    0    0    0  501 -0.00000000000E+00 -0.00000000000E+00 -0.34189733463E+02  0.34189733463E+02  0.00000000000E+00 0.  1.
         25    2    1    2    0    0  0.84557441355E+02  0.85196806053E+02  0.36926005176E+03  0.40794623163E+03  0.12513466916E+03 0.  0.
          5    1    3    3  502    0  0.15433969855E+02 -0.29910552931E+02  0.12111128015E+03  0.12577067695E+03  0.41800000000E+01 0. -1.
         -5    1    3    3    0  502  0.69123471500E+02  0.11510735898E+03  0.24814877161E+03  0.28217555468E+03  0.41800000000E+01 0. -1.
        -11    1    1    2    0    0  0.19398747275E+02 -0.13688370520E+02  0.44083478037E+02  0.50070309757E+02  0.00000000000E+00 0. -1.
         11    1    1    2    0    0 -0.10395618863E+03 -0.71508435533E+02  0.32392758143E+03  0.34763403676E+03  0.00000000000E+00 0.  1.
</event>
<event>
 7    1  0.2989693E-009  0.1084588E+03  0.7561462E-02  0.1263451E+00
         -2   -1    0    0    0  501 -0.00000000000E+00  0.00000000000E+00  0.12724858827E+03  0.12724858827E+03  0.00000000000E+00 0.  1.
          2   -1    0    0  501    0  0.00000000000E+00 -0.00000000000E+00 -0.11550476345E+03  0.11550476345E+03  0.00000000000E+00 0. -1.
         25    2    1    2    0    0  0.22277689964E+02 -0.42862601595E+02 -0.50432960275E+01  0.13418883342E+03  0.12509080739E+03 0.  0.
          5    1    3    3  502    0 -0.31739339745E+02  0.22039748457E+02 -0.26405777031E+02  0.46988016133E+02  0.41800000000E+01 0. -1.
         -5    1    3    3    0  502  0.54017029708E+02 -0.64902350052E+02  0.21362481003E+02  0.87200817286E+02  0.41800000000E+01 0. -1.
        -11    1    1    2    0    0 -0.59149088553E+01  0.65394155271E+02  0.35857546372E+02  0.74814071686E+02  0.00000000000E+00 0.  1.
         11    1    1    2    0    0 -0.16362781108E+02 -0.22531553676E+02 -0.19070425522E+02  0.33750446608E+02  0.00000000000E+00 0. -1.
</event>
<event>
 7    1  0.2989693E-009  0.2508428E+03  0.7561462E-02  0.1112773E+00
         -2   -1    0    0    0  501 -0.00000000000E+00  0.00000000000E+00  0.12478582176E+03  0.12478582176E+03  0.00000000000E+00 0.  1.
          2   -1    0    0  501    0  0.00000000000E+00 -0.00000000000E+00 -0.77252322918E+03  0.77252322918E+03  0.00000000000E+00 0. -1.
         25    2    1    2    0    0 -0.22043620651E+03 -0.78881146542E+02 -0.57680954201E+03  0.63495766879E+03  0.12509051518E+03 0.  0.
          5    1    3    3  502    0 -0.18643172320E+03 -0.10465542854E+03 -0.40625505482E+03  0.45909714452E+03  0.41800000000E+01 0. -1.
         -5    1    3    3    0  502 -0.34004483305E+02  0.25774282003E+02 -0.17055448719E+03  0.17586052427E+03  0.41800000000E+01 0. -1.
        -11    1    1    2    0    0  0.14366029415E+03  0.86709577812E+02 -0.77629591244E+02  0.18488695042E+03  0.00000000000E+00 0.  1.
         11    1    1    2    0    0  0.76775912361E+02 -0.78284312706E+01  0.67017258325E+01  0.77464431736E+02  0.00000000000E+00 0. -1.
</event>
<event>
 7    1  0.2989693E-009  0.1557145E+03  0.7561462E-02  0.1193622E+00
         -1   -1    0    0    0  501 -0.00000000000E+00  0.00000000000E+00  0.88774091338E+02  0.88774091338E+02  0.00000000000E+00 0.  1.
          1   -1    0    0  501    0  0.00000000000E+00 -0.00000000000E+00 -0.40015747498E+03  0.40015747498E+03  0.00000000000E+00 0. -1.
         25    2    1    2    0    0  0.77274125852E+02 -0.86850921577E+02 -0.33251058365E+02  0.17398512221E+03  0.12510322444E+03 0.  0.
          5    1    3    3  502    0  0.10590758226E+03 -0.50196904569E+02 -0.45357816130E+02  0.12574159651E+03  0.41800000000E+01 0.  1.
         -5    1    3    3    0  502 -0.28633456409E+02 -0.36654017007E+02  0.12106757765E+02  0.48243525703E+02  0.41800000000E+01 0.  1.
        -11    1    1    2    0    0 -0.40053284509E+02  0.10020194915E+03 -0.21229543619E+03  0.23814711513E+03  0.00000000000E+00 0. -1.
         11    1    1    2    0    0 -0.37220841343E+02 -0.13351027575E+02 -0.65836889088E+02  0.76799328984E+02  0.00000000000E+00 0.  1.
</event>
<event>
 7    1  0.2989693E-009  0.9258441E+02  0.7561462E-02  0.1296711E+00
          1   -1    0    0  501    0  0.00000000000E+00  0.00000000000E+00  0.60377684153E+02  0.60377684153E+02  0.00000000000E+00 0. -1.
         -1   -1    0    0    0  501 -0.00000000000E+00 -0.00000000000E+00 -0.68248019149E+03  0.68248019149E+03  0.00000000000E+00 0.  1.
         25    2    1    2    0    0 -0.30441850375E+02 -0.11846463318E+02 -0.63795042612E+03  0.65091864472E+03  0.12508913188E+03 0.  0.
          5    1    3    3  502    0 -0.48456562572E+02 -0.38918666004E+02 -0.58722884415E+03  0.59052340243E+03  0.41800000000E+01 0. -1.
         -5    1    3    3    0  502  0.18014712196E+02  0.27072202686E+02 -0.50721581969E+02  0.60395242289E+02  0.41800000000E+01 0. -1.
        -11    1    1    2    0    0  0.11831589395E+02  0.47996270572E+02  0.40273166872E+01  0.49596852482E+02  0.00000000000E+00 0.  1.
         11    1    1    2    0    0  0.18610260980E+02 -0.36149807253E+02  0.11820602092E+02  0.42342378441E+02  0.00000000000E+00 0. -1.
</event>
<event>
 7    1  0.2989693E-009  0.1429901E+03  0.7561462E-02  0.1209361E+00
          1   -1    0    0  501    0  0.00000000000E+00  0.00000000000E+00  0.15918777053E+03  0.15918777053E+03  0.00000000000E+00 0. -1.
         -1   -1    0    0    0  501 -0.00000000000E+00 -0.00000000000E+00 -0.13530844946E+03  0.13530844946E+03  0.00000000000E+00 0.  1.
         25    2    1    2    0    0  0.73625683333E+02 -0.40882844813E+02  0.27448714361E+02  0.15327510753E+03  0.12509068079E+03 0.  0.
          5    1    3    3  502    0  0.10131170984E+03 -0.48195669389E+01  0.31643714971E+01  0.10156168777E+03  0.41800000000E+01 0.  1.
         -5    1    3    3    0  502 -0.27686026505E+02 -0.36063277874E+02  0.24284342864E+02  0.51713419757E+02  0.41800000000E+01 0.  1.
        -11    1    1    2    0    0 -0.16481721926E+02  0.71918513306E+02 -0.14739293518E+02  0.75240723595E+02  0.00000000000E+00 0. -1.
         11    1    1    2    0    0 -0.57143961407E+02 -0.31035668493E+02  0.11169900231E+02  0.65980388869E+02  0.00000000000E+00 0.  1.
</event>
<event>
 7    1  0.2989693E-009  0.1388336E+03  0.7561462E-02  0.1214907E+00
          1   -1    0    0  501    0  0.00000000000E+00  0.00000000000E+00  0.41043312832E+03  0.41043312832E+03  0.00000000000E+00 0. -1.
         -1   -1    0    0    0  501 -0.00000000000E+00 -0.00000000000E+00 -0.48521259250E+02  0.48521259250E+02  0.00000000000E+00 0.  1.
         25    2    1    2    0    0 -0.77869314613E+02  0.38240175484E+02  0.16450712913E+03  0.22412872458E+03  0.12508056791E+03 0.  0.
          5    1    3    3  502    0  0.16329827755E+01  0.66282968579E+02  0.57684530238E+02  0.87983384711E+02  0.41800000000E+01 0.  1.
         -5    1    3    3    0  502 -0.79502297388E+02 -0.28042793095E+02  0.10682259889E+03  0.13614533987E+03  0.41800000000E+01 0.  1.
        -11    1    1    2    0    0  0.63032723869E+02  0.20467478969E+02  0.11186145309E+03  0.13001933188E+03  0.00000000000E+00 0. -1.
         11    1    1    2    0    0  0.14836590743E+02 -0.58707654453E+02  0.85543286846E+02  0.10480633111E+03  0.00000000000E+00 0.  1.
</event>
<event>
 7    1  0.2989693E-009  0.8212442E+02  0.7561462E-02  0.1323128E+00
         -4   -1    0    0    0  501 -0.00000000000E+00  0.00000000000E+00  0.29446891353E+03  0.29446891353E+03  0.00000000000E+00 0.  1.
          4   -1    0    0  501    0  0.00000000000E+00 -0.00000000000E+00 -0.40346646141E+02  0.40346646141E+02  0.00000000000E+00 0. -1.
         25    2    1    2    0    0  0.10200659236E+02  0.93610525833E+01  0.14129669878E+03  0.18922134173E+03  0.12509307066E+03 0.  0.
          5    1    3    3  502    0 -0.41584052892E+01 -0.29817543223E+02  0.14402451201E+03  0.14719684330E+03  0.41800000000E+01 0. -1.
         -5    1    3    3    0  502  0.14359064525E+02  0.39178595807E+02 -0.27278132309E+01  0.42024498432E+02  0.41800000000E+01 0. -1.
        -11    1    1    2    0    0 -0.59596855199E+01  0.40973751449E+02  0.54279221484E+02  0.68268587537E+02  0.00000000000E+00 0.  1.
         11    1    1    2    0    0 -0.42409737159E+01 -0.50334804032E+02  0.58546347121E+02  0.77325630397E+02  0.00000000000E+00 0. -1.
</event>
<event>
 7    1  0.2989693E-009  0.1574248E+03  0.7561462E-02  0.1191635E+00
         -2   -1    0    0    0  501 -0.00000000000E+00  0.00000000000E+00  0.16936212962E+02  0.16936212962E+02  0.00000000000E+00 0.  1.
          2   -1    0    0  501    0  0.00000000000E+00 -0.00000000000E+00 -0.14924486497E+04  0.14924486497E+04  0.00000000000E+00 0. -1.
         25    2    1    2    0    0 -0.44842782669E+02 -0.10557914134E+03 -0.86974945661E+03  0.88615444658E+03  0.12509098958E+03 0.  0.
          5    1    3    3  502    0 -0.52576645763E+02  0.10010461241E+02 -0.26036727177E+03  0.26584413032E+03  0.41800000000E+01 0.  1.
         -5    1    3    3    0  502  0.77338630944E+01 -0.11558960258E+03 -0.60938218483E+03  0.62031031626E+03  0.41800000000E+01 0.  1.
        -11    1    1    2    0    0  0.21361109864E+02  0.11713793811E+03 -0.46152227673E+03  0.47663445687E+03  0.00000000000E+00 0.  1.
         11    1    1    2    0    0  0.23481672805E+02 -0.11558796774E+02 -0.14424070342E+03  0.14659595924E+03  0.00000000000E+00 0. -1.
</event>
<event>
 7    1  0.2989693E-009  0.2192012E+03  0.7561462E-02  0.1134480E+00
         -2   -1    0    0    0  501 -0.00000000000E+00  0.00000000000E+00  0.10593616704E+03  0.10593616704E+03  0.00000000000E+00 0.  1.
          2   -1    0    0  501    0  0.00000000000E+00 -0.00000000000E+00 -0.49092789848E+03  0.49092789848E+03  0.00000000000E+00 0. -1.
         25    2    1    2    0    0 -0.22655805449E+02 -0.19590700661E+03 -0.15196073354E+03  0.27862420779E+03  0.12508614579E+03 0.  0.
          5    1    3    3  502    0 -0.23861433084E+02 -0.21304153123E+03 -0.14792688380E+03  0.26049164549E+03  0.41800000000E+01 0.  1.
         -5    1    3    3    0  502  0.12056276350E+01  0.17134524619E+02 -0.40338497372E+01  0.18132562301E+02  0.41800000000E+01 0.  1.
        -11    1    1    2    0    0 -0.41072664590E+01  0.16648810516E+03 -0.22093107114E+03  0.27666893029E+03  0.00000000000E+00 0. -1.
         11    1    1    2    0    0  0.26763071908E+02  0.29418901453E+02 -0.12099926765E+02  0.41570927442E+02  0.00000000000E+00 0.  1.
</event>
<event>
 7    1  0.2989693E-009  0.1406246E+03  0.7561462E-02  0.1212491E+00
         -1   -1    0    0    0  501 -0.00000000000E+00  0.00000000000E+00  0.68360932150E+02  0.68360932150E+02  0.00000000000E+00 0.  1.
          1   -1    0    0  501    0  0.00000000000E+00 -0.00000000000E+00 -0.47190110603E+03  0.47190110603E+03  0.00000000000E+00 0. -1.
         25    2    1    2    0    0  0.10973740011E+02 -0.11974219252E+03 -0.11208885857E+03  0.20656691107E+03  0.12508941160E+03 0.  0.
          5    1    3    3  502    0  0.45774027560E+02 -0.11537797359E+03 -0.11733593095E+03  0.17085822041E+03  0.41800000000E+01 0. -1.
         -5    1    3    3    0  502 -0.34800287549E+02 -0.43642189269E+01  0.52470723767E+01  0.35708690663E+02  0.41800000000E+01 0. -1.
        -11    1    1    2    0    0  0.47337146055E+01  0.50921114092E+02 -0.24239820666E+03  0.24773424976E+03  0.00000000000E+00 0. -1.
         11    1    1    2    0    0 -0.15707454617E+02  0.68821078428E+02 -0.49053108657E+02  0.85960877354E+02  0.00000000000E+00 0.  1.
</event>
<event>
 7    1  0.2989693E-009  0.9484054E+02  0.7561462E-02  0.1291536E+00
          2   -1    0    0  501    0  0.00000000000E+00  0.00000000000E+00  0.43898642244E+03  0.43898642244E+03  0.00000000000E+00 0. -1.
         -2   -1    0    0    0  501 -0.00000000000E+00 -0.00000000000E+00 -0.50394676606E+02  0.50394676606E+02  0.00000000000E+00 0.  1.
         25    2    1    2    0    0 -0.16818426254E+02 -0.82814097965E+02  0.11782881559E+03  0.19150092447E+03  0.12509172636E+03 0.  0.
          5    1    3    3  502    0  0.75955325982E+01 -0.20630970298E+02 -0.25128956665E+02  0.33649159186E+02  0.41800000000E+01 0. -1.
         -5    1    3    3    0  502 -0.24413958853E+02 -0.62183127667E+02  0.14295777226E+03  0.15785176528E+03  0.41800000000E+01 0. -1.
        -11    1    1    2    0    0 -0.19153276235E+02  0.40704711953E+02  0.38828811189E+02  0.59425568100E+02  0.00000000000E+00 0.  1.
         11    1    1    2    0    0  0.35971702489E+02  0.42109386012E+02  0.23193411905E+03  0.23845460648E+03  0.00000000000E+00 0. -1.
</event>
<event>
 7    1  0.2989693E-009  0.9965214E+02  0.7561462E-02  0.1281029E+00
         -4   -1    0    0    0  501 -0.00000000000E+00  0.00000000000E+00  0.53012647739E+03  0.53012647739E+03  0.00000000000E+00 0.  1.
          4   -1    0    0  501    0  0.00000000000E+00 -0.00000000000E+00 -0.27976150804E+02  0.27976150804E+02  0.00000000000E+00 0. -1.
         25    2    1    2    0    0 -0.32670754987E+02  0.46676129177E+02  0.28286747250E+03  0.31449598150E+03  0.12509067156E+03 0.  0.
          5    1    3    3  502    0 -0.56304514433E+01  0.73748484040E+02  0.25858065128E+03  0.26898320858E+03  0.41800000000E+01 0. -1.
         -5    1    3    3    0  502 -0.27040303544E+02 -0.27072354863E+02  0.24286821223E+02  0.45512772918E+02  0.41800000000E+01 0. -1.
        -11    1    1    2    0    0  0.29886439694E+02  0.88242219502E+01  0.20737907419E+02  0.37431630672E+02  0.00000000000E+00 0. -1.
         11    1    1    2    0    0  0.27843152930E+01 -0.55500351127E+02  0.19854494666E+03  0.20617501602E+03  0.00000000000E+00 0.  1.
</event>
<event>
 7    1  0.2989693E-009  0.1541391E+03  0.7561462E-02  0.1195477E+00
         -1   -1    0    0    0  501 -0.00000000000E+00  0.00000000000E+00  0.13287378444E+03  0.13287378444E+03  0.00000000000E+00 0.  1.
          1   -1    0    0  501    0  0.00000000000E+00 -0.00000000000E+00 -0.23583421092E+03  0.23583421092E+03  0.00000000000E+00 0. -1.
         25    2    1    2    0    0  0.87307765880E+02 -0.10424708118E+03 -0.81463583619E+02  0.20192603042E+03  0.12509079257E+03 0.  0.
          5    1    3    3  502    0  0.20656575310E+02  0.16908052750E+02  0.17178690832E+02  0.32018060060E+02  0.41800000000E+01 0. -1.
         -5    1    3    3    0  502  0.66651190571E+02 -0.12115513393E+03 -0.98642274452E+02  0.16990797036E+03  0.41800000000E+01 0. -1.
        -11    1    1    2    0    0 -0.89458550128E+01  0.41714354085E+02 -0.46857335664E+02  0.63369752754E+02  0.00000000000E+00 0. -1.
         11    1    1    2    0    0 -0.78361910867E+02  0.62532727099E+02  0.25360492804E+02  0.10341221218E+03  0.00000000000E+00 0.  1.
</event>
<event>
 7    1  0.2989693E-009  0.1312218E+03  0.7561462E-02  0.1225654E+00
          2   -1    0    0  501    0  0.00000000000E+00  0.00000000000E+00  0.17278320537E+03  0.17278320537E+03  0.00000000000E+00 0. -1.
         -2   -1    0    0    0  501 -0.00000000000E+00 -0.00000000000E+00 -0.10080036127E+03  0.10080036127E+03  0.00000000000E+00 0.  1.
         25    2    1    2    0    0  0.74060592418E+02 -0.93459085270E+01  0.46408425197E+02  0.15288362856E+03  0.12508934646E+03 0.  0.
          5    1    3    3  502    0  0.35545662615E+02 -0.66921092058E+02  0.29771717059E+02  0.81521495507E+02  0.41800000000E+01 0.  1.
         -5    1    3    3    0  502  0.38514929803E+02  0.57575183531E+02  0.16636708138E+02  0.71362133054E+02  0.41800000000E+01 0.  1.
        -11    1    1    2    0    0  0.68026450617E+01 -0.27475573669E+02  0.12298464986E+02  0.30861551635E+02  0.00000000000E+00 0. -1.
         11    1    1    2    0    0 -0.80863237480E+02  0.36821482196E+02  0.13275953914E+02  0.89838386446E+02  0.00000000000E+00 0.  1.
</event>
<event>
 7    1  0.2989693E-009  0.1803491E+03  0.7561462E-02  0.1167466E+00
          2   -1    0    0  501    0  0.00000000000E+00  0.00000000000E+00  0.13970742304E+04  0.13970742304E+04  0.00000000000E+00 0. -1.
         -2   -1    0    0    0  501 -0.00000000000E+00 -0.00000000000E+00 -0.47231781182E+02  0.47231781182E+02  0.00000000000E+00 0.  1.
         25    2    1    2    0    0 -0.14626786410E+03  0.39894067885E+02  0.11889897023E+04  0.12051264387E+04  0.12508955379E+03 0.  0.
          5    1    3    3  502    0 -0.26174344974E+00  0.42528562245E+02  0.43649572228E+03  0.43858264339E+03  0.41800000000E+01 0.  1.
         -5    1    3    3    0  502 -0.14600612065E+03 -0.26344943599E+01  0.75249398003E+03  0.76654379536E+03  0.41800000000E+01 0.  1.
        -11    1    1    2    0    0  0.28560505261E+02  0.24566205348E+02  0.61817030954E+02  0.72391617070E+02  0.00000000000E+00 0.  1.
         11    1    1    2    0    0  0.11770735884E+03 -0.64460273233E+02  0.99035715946E+02  0.16678795575E+03  0.00000000000E+00 0. -1.
</event>
<event>
 7    1  0.2989693E-009  0.1296942E+03  0.7561462E-02  0.1227910E+00
          1   -1    0    0  501    0  0.00000000000E+00  0.00000000000E+00  0.52349199739E+03  0.52349199739E+03  0.00000000000E+00 0. -1.
         -1   -1    0    0    0  501 -0.00000000000E+00 -0.00000000000E+00 -0.60482068596E+02  0.60482068596E+02  0.00000000000E+00 0.  1.
         25    2    1    2    0    0  0.10621967245E+03  0.63220762840E+02  0.35575722836E+03  0.39685046842E+03  0.12509038767E+03 0.  0.
          5    1    3    3  502    0  0.76452512418E+02  0.57200990401E+02  0.35340938244E+03  0.36610463526E+03  0.41800000000E+01 0.  1.
         -5    1    3    3    0  502  0.29767160036E+02  0.60197724389E+01  0.23478459194E+01  0.30745833169E+02  0.41800000000E+01 0.  1.
        -11    1    1    2    0    0 -0.48073051391E+02 -0.11221957220E+01  0.87416756890E+02  0.99769569401E+02  0.00000000000E+00 0. -1.
         11    1    1    2    0    0 -0.58146621063E+02 -0.62098567118E+02  0.19835943541E+02  0.87354028158E+02  0.00000000000E+00 0.  1.
</event>
<event>
 7    1  0.2989693E-009  0.1025987E+03  0.7561462E-02  0.1274924E+00
          1   -1    0    0  501    0  0.00000000000E+00  0.00000000000E+00  0.19054362526E+03  0.19054362526E+03  0.00000000000E+00 0. -1.
         -1   -1    0    0    0  501 -0.00000000000E+00 -0.00000000000E+00 -0.76304168510E+02  0.76304168510E+02  0.00000000000E+00 0.  1.
         25    2    1    2    0    0 -0.14591802568E+02 -0.48741641661E+02  0.58411428794E+02  0.14714440475E+03  0.12510360707E+03 0.  0.
          5    1    3    3  502    0  0.41225830270E+02 -0.45017849099E+01  0.63123364611E+02  0.75643021546E+02  0.41800000000E+01 0. -1.
         -5    1    3    3    0  502 -0.55817632837E+02 -0.44239856751E+02 -0.47119358170E+01  0.71501383204E+02  0.41800000000E+01 0. -1.
        -11    1    1    2    0    0 -0.19216997868E+01  0.67300773079E+02  0.10677191397E+02  0.68169563613E+02  0.00000000000E+00 0.  1.
         11    1    1    2    0    0  0.16513502355E+02 -0.18559131418E+02  0.45150836561E+02  0.51533825408E+02  0.00000000000E+00 0. -1.
</event>
<event>
 7    1  0.2989693E-009  0.7630094E+02  0.7561462E-02  0.1339889E+00
         -2   -1    0    0    0  501 -0.00000000000E+00  0.00000000000E+00  0.45824705782E+02  0.45824705782E+02  0.00000000000E+00 0.  1.
          2   -1    0    0  501    0  0.00000000000E+00 -0.00000000000E+00 -0.26442759267E+03  0.26442759267E+03  0.00000000000E+00 0. -1.
         25    2    1    2    0    0  0.87884786490E+00  0.71816455193E+01 -0.99543127927E+02  0.16002800346E+03  0.12509108349E+03 0.  0.
          5    1    3    3  502    0  0.30466796176E+02  0.58043282059E+01 -0.11985292026E+03  0.12387134774E+03  0.41800000000E+01 0.  1.
         -5    1    3    3    0  502 -0.29587948311E+02  0.13773173133E+01  0.20309792335E+02  0.36156655721E+02  0.41800000000E+01 0.  1.
        -11    1    1    2    0    0  0.19229377149E+02  0.37640109471E+02 -0.49952116462E+02  0.65435164290E+02  0.00000000000E+00 0.  1.
         11    1    1    2    0    0 -0.20108225014E+02 -0.44821754990E+02 -0.69107642499E+02  0.84789130703E+02  0.00000000000E+00 0. -1.
</event>
<event>
 7    1  0.2989693E-009  0.1218520E+03  0.7561462E-02  0.1240073E+00
          2   -1    0    0  501    0  0.00000000000E+00  0.00000000000E+00  0.15470661803E+04  0.15470661803E+04  0.00000000000E+00 0. -1.
         -2   -1    0    0    0  501 -0.00000000000E+00 -0.00000000000E+00 -0.11062297279E+02  0.11062297279E+02  0.00000000000E+00 0.  1.
         25    2    1    2    0    0 -0.25076704328E+02  0.67245648493E+02  0.96050745530E+03  0.97127397490E+03  0.12509094408E+03 0.  0.
          5    1    3    3  502    0  0.24651954646E+02 -0.18851024080E+02  0.45428295645E+03  0.45536090840E+03  0.41800000000E+01 0. -1.
         -5    1    3    3    0  502 -0.49728658974E+02  0.86096672573E+02  0.50622449885E+03  0.51591306650E+03  0.41800000000E+01 0. -1.
        -11    1    1    2    0    0 -0.32739666416E+02 -0.21749012835E+02  0.15110887249E+03  0.15613710853E+03  0.00000000000E+00 0.  1.
         11    1    1    2    0    0  0.57816370744E+02 -0.45496635658E+02  0.42438755522E+03  0.43071739413E+03  0.00000000000E+00 0. -1.
</event>
<event>
 7    1  0.2989693E-009  0.2104906E+03  0.7561462E-02  0.1141178E+00
         -2   -1    0    0    0  501 -0.00000000000E+00  0.00000000000E+00  0.68075226543E+02  0.68075226543E+02  0.00000000000E+00 0.  1.
          2   -1    0    0  501    0  0.00000000000E+00 -0.00000000000E+00 -0.90196695118E+03  0.90196695118E+03  0.00000000000E+00 0. -1.
         25    2    1    2    0    0  0.16835656539E+03  0.95530887944E+02 -0.64340887883E+03  0.68344065487E+03  0.12508421047E+03 0.  0.
          5    1    3    3  502    0 -0.12431414688E+02  0.31999778939E+02 -0.15404088661E+03  0.15787524528E+03  0.41800000000E+01 0. -1.
         -5    1    3    3    0  502  0.18078798008E+03  0.63531109006E+02 -0.48936799221E+03  0.52556540959E+03  0.41800000000E+01 0. -1.
        -11    1    1    2    0    0 -0.14217602915E+03 -0.89030203118E+02 -0.19710427829E+03  0.25882522453E+03  0.00000000000E+00 0. -1.
         11    1    1    2    0    0 -0.26180536234E+02 -0.65006848266E+01  0.66214324804E+01  0.27776298328E+02  0.00000000000E+00 0.  1.
</event>
<event>
 7    1  0.2989693E-009  0.1679379E+03  0.7561462E-02  0.1180015E+00
         -2   -1    0    0    0  501 -0.00000000000E+00  0.00000000000E+00  0.16044455252E+03  0.16044455252E+03  0.00000000000E+00 0.  1.
          2   -1    0    0  501    0  0.00000000000E+00 -0.00000000000E+00 -0.20928496276E+03  0.20928496276E+03  0.00000000000E+00 0. -1.
         25    2    1    2    0    0 -0.14070255866E+02 -0.14611449855E+03 -0.42865780149E+02  0.19756559940E+03  0.12508905697E+03 0.  0.
          5    1    3    3  502    0  0.35398001858E+02 -0.12143004458E+02 -0.39613050854E+02  0.54654709686E+02  0.41800000000E+01 0.  1.
         -5    1    3    3    0  502 -0.49468257725E+02 -0.13397149409E+03 -0.32527292948E+01  0.14291088972E+03  0.41800000000E+01 0.  1.
        -11    1    1    2    0    0  0.28851363366E+02  0.47096274805E+02  0.33444376366E+02  0.64567689900E+02  0.00000000000E+00 0.  1.
         11    1    1    2    0    0 -0.14781107499E+02  0.99018223746E+02 -0.39419006459E+02  0.10759622597E+03  0.00000000000E+00 0. -1.
</event>
<event>
 7    1  0.2989693E-009  0.1010977E+03  0.7561462E-02  0.1278005E+00
         -4   -1    0    0    0  501 -0.00000000000E+00  0.00000000000E+00  0.28495862541E+03  0.28495862541E+03  0.00000000000E+00 0.  1.
          4   -1    0    0  501    0  0.00000000000E+00 -0.00000000000E+00 -0.58414192897E+02  0.58414192897E+02  0.00000000000E+00 0. -1.
         25    2    1    2    0    0  0.20394581700E+02  0.46136708351E+02  0.60092792659E+02  0.14766087982E+03  0.12509219352E+03 0.  0.
          5    1    3    3  502    0 -0.49779946137E+02  0.30976887694E+02  0.45373111457E+02  0.74254981327E+02  0.41800000000E+01 0. -1.
         -5    1    3    3    0  502  0.70174527837E+02  0.15159820658E+02  0.14719681202E+02  0.73405898497E+02  0.41800000000E+01 0. -1.
        -11    1    1    2    0    0  0.17069237298E+02 -0.12563010692E+02 -0.64803861192E+00  0.21203963158E+02  0.00000000000E+00 0. -1.
         11    1    1    2    0    0 -0.37463818998E+02 -0.33573697659E+02  0.16709967846E+03  0.17450797532E+03  0.00000000000E+00 0.  1.
</event>
<event>
 7    1  0.2989693E-009  0.1112003E+03  0.7561462E-02  0.1258363E+00
          1   -1    0    0  501    0  0.00000000000E+00  0.00000000000E+00  0.68852850447E+03  0.68852850447E+03  0.00000000000E+00 0. -1.
         -1   -1    0    0    0  501 -0.00000000000E+00 -0.00000000000E+00 -0.25367826670E+02  0.25367826670E+02  0.00000000000E+00 0.  1.
         25    2    1    2    0    0  0.52869210984E+02  0.59892892878E+01  0.22260430829E+03  0.26083061320E+03  0.12509558609E+03 0.  0.
          5    1    3    3  502    0  0.16528842381E+02  0.53983207789E+02  0.42223648637E+02  0.70623638096E+02  0.41800000000E+01 0.  1.
         -5    1    3    3    0  502  0.36340368603E+02 -0.47993918501E+02  0.18038065965E+03  0.19020697510E+03  0.41800000000E+01 0.  1.
        -11    1    1    2    0    0 -0.26786290018E+02  0.42585614420E+02  0.22685241233E+03  0.23236406105E+03  0.00000000000E+00 0.  1.
         11    1    1    2    0    0 -0.26082920967E+02 -0.48574903707E+02  0.21370395719E+03  0.22070165689E+03  0.00000000000E+00 0. -1.
</event>
<event>
 7    1  0.2989693E-009  0.1015594E+03  0.7561462E-02  0.1277051E+00
          1   -1    0    0  501    0  0.00000000000E+00  0.00000000000E+00  0.38017692744E+03  0.38017692744E+03  0.00000000000E+00 0. -1.
         -1   -1    0    0    0  501 -0.00000000000E+00 -0.00000000000E+00 -0.41739433248E+02  0.41739433248E+02  0.00000000000E+00 0.  1.
         25    2    1    2    0    0  0.62389228288E+02 -0.17701120582E+02  0.19249454929E+03  0.23855263472E+03  0.12508981792E+03 0.  0.
          5    1    3    3  502    0  0.76978316589E+02  0.11773396686E+02  0.18991148130E+03  0.20530006631E+03  0.41800000000E+01 0.  1.
         -5    1    3    3    0  502 -0.14589088301E+02 -0.29474517268E+02  0.25830679864E+01  0.33252568410E+02  0.41800000000E+01 0.  1.
        -11    1    1    2    0    0  0.12460574477E+02 -0.54964876113E+01 -0.39868283268E+01  0.14190563501E+02  0.00000000000E+00 0.  1.
         11    1    1    2    0    0 -0.74849802765E+02  0.23197608193E+02  0.14992977323E+03  0.16917316247E+03  0.00000000000E+00 0. -1.
</event>
<event>
 7    1  0.2989693E-009  0.1007094E+03  0.7561462E-02  0.1278811E+00
         -3   -1    0    0    0  501 -0.00000000000E+00  0.00000000000E+00  0.18208991651E+02  0.18208991651E+02  0.00000000000E+00 0.  1.
          3   -1    0    0  501    0  0.00000000000E+00 -0.00000000000E+00 -0.88308290273E+03  0.88308290273E+03  0.00000000000E+00 0. -1.
         25    2    1    2    0    0  0.34244360984E+01 -0.18101372376E+02 -0.69820790691E+03  0.70956397882E+03  0.12508945727E+03 0.  0.
          5    1    3    3  502    0 -0.31917338560E+01 -0.71883682510E+02 -0.39277538310E+03  0.39933372628E+03  0.41800000000E+01 0.  1.
         -5    1    3    3    0  502  0.66161699544E+01  0.53782310134E+02 -0.30543252381E+03  0.31023025254E+03  0.41800000000E+01 0.  1.
        -11    1    1    2    0    0  0.80995514120E+01  0.45004099625E+02 -0.37062199292E+02  0.58860668808E+02  0.00000000000E+00 0.  1.
         11    1    1    2    0    0 -0.11523987510E+02 -0.26902727249E+02 -0.12960380488E+03  0.13286724676E+03  0.00000000000E+00 0. -1.
</event>
<event>
 7    1  0.2989693E-009  0.9458157E+02  0.7561462E-02  0.1292121E+00
         -2   -1    0    0    0  501 -0.00000000000E+00  0.00000000000E+00  0.31180272940E+02  0.31180272940E+02  0.00000000000E+00 0.  1.
          2   -1    0    0  501    0  0.00000000000E+00 -0.00000000000E+00 -0.57511578565E+03  0.57511578565E+03  0.00000000000E+00 0. -1.
         25    2    1    2    0    0  0.32798925200E+02 -0.48989851969E+02 -0.37122460102E+03  0.39614651717E+03  0.12509429874E+03 0.  0.
          5    1    3    3  502    0  0.11639472969E+02  0.11061652829E+02  0.27053700892E+01  0.16811571063E+02  0.41800000000E+01 0. -1.
         -5    1    3    3    0  502  0.21159452231E+02 -0.60051504798E+02 -0.37392997111E+03  0.37933494611E+03  0.41800000000E+01 0. -1.
        -11    1    1    2    0    0 -0.55071258422E+02  0.62034141893E+02 -0.85202774783E+02  0.11891421738E+03  0.00000000000E+00 0.  1.
         11    1    1    2    0    0  0.22272333222E+02 -0.13044289924E+02 -0.87508136903E+02  0.91235324030E+02  0.00000000000E+00 0. -1.
</event>
<event>
 7    1  0.2989693E-009  0.1622833E+03  0.7561462E-02  0.1186143E+00
          1   -1    0    0  501    0  0.00000000000E+00  0.00000000000E+00  0.25484081827E+03  0.25484081827E+03  0.00000000000E+00 0. -1.
         -1   -1    0    0    0  501 -0.00000000000E+00 -0.00000000000E+00 -0.13032946498E+03  0.13032946498E+03  0.00000000000E+00 0.  1.
         25    2    1    2    0    0 -0.10168139373E+03 -0.10299755717E+03  0.88180685230E+02  0.21064681869E+03  0.12509454970E+03 0.  0.
          5    1    3    3  502    0 -0.15938459141E+02 -0.62566317580E+02  0.95635316163E+02  0.11546499328E+03  0.41800000000E+01 0.  1.
         -5    1    3    3    0  502 -0.85742934592E+02 -0.40431239587E+02 -0.74546309330E+01  0.95181825415E+02  0.41800000000E+01 0.  1.
        -11    1    1    2    0    0  0.75282651580E+02  0.20016080000E+02 -0.51516033188E+01  0.78068304095E+02  0.00000000000E+00 0.  1.
         11    1    1    2    0    0  0.26398742153E+02  0.82981477168E+02  0.41482271376E+02  0.96455160457E+02  0.00000000000E+00 0. -1.
</event>
<event>
 7    1  0.2989693E-009  0.1314738E+03  0.7561462E-02  0.1225285E+00
         -2   -1    0    0    0  501 -0.00000000000E+00  0.00000000000E+00  0.66189879370E+02  0.66189879370E+02  0.00000000000E+00 0.  1.
          2   -1    0    0  501    0  0.00000000000E+00 -0.00000000000E+00 -0.45948559018E+03  0.45948559018E+03  0.00000000000E+00 0. -1.
         25    2    1    2    0    0 -0.55093643885E+02 -0.87437743536E+02 -0.73918617008E+02  0.17830403511E+03  0.12509076067E+03 0.  0.
          5    1    3    3  502    0  0.18388709287E+02  0.20064869172E+02 -0.30227610546E+02  0.40889172692E+02  0.41800000000E+01 0.  1.
         -5    1    3    3    0  502 -0.73482353172E+02 -0.10750261271E+03 -0.43691006462E+02  0.13741486242E+03  0.41800000000E+01 0.  1.
        -11    1    1    2    0    0  0.49489354365E+02  0.63309656043E+02 -0.31101395909E+03  0.32122732059E+03  0.00000000000E+00 0. -1.
         11    1    1    2    0    0  0.56042895204E+01  0.24128087493E+02 -0.83631347148E+01  0.26144113857E+02  0.00000000000E+00 0.  1.
</event>
<event>
 7    1  0.2989693E-009  0.1210022E+03  0.7561462E-02  0.1241453E+00
          2   -1    0    0  501    0  0.00000000000E+00  0.00000000000E+00  0.77102810145E+03  0.77102810145E+03  0.00000000000E+00 0. -1.
         -2   -1    0    0    0  501 -0.00000000000E+00 -0.00000000000E+00 -0.28743275404E+02  0.28743275404E+02  0.00000000000E+00 0.  1.
         25    2    1    2    0    0 -0.82990982350E+02 -0.58887623699E+02  0.42082346286E+03  0.45066082394E+03  0.12509011140E+03 0.  0.
          5    1    3    3  502    0 -0.30074152039E+02 -0.51288433294E+02  0.37622050539E+03  0.38091245594E+03  0.41800000000E+01 0. -1.
         -5    1    3    3    0  502 -0.52916830311E+02 -0.75991904047E+01  0.44602957465E+02  0.69748368007E+02  0.41800000000E+01 0. -1.
        -11    1    1    2    0    0  0.40876685669E+02 -0.15156606888E+02  0.60306990395E+02  0.74414778466E+02  0.00000000000E+00 0.  1.
         11    1    1    2    0    0  0.42114296681E+02  0.74044230586E+02  0.26115437279E+03  0.27469577445E+03  0.00000000000E+00 0. -1.
</event>
<event>
 7    1  0.2989693E-009  0.1067727E+03  0.7561462E-02  0.1266666E+00
         -2   -1    0    0    0  501 -0.00000000000E+00  0.00000000000E+00  0.42311968634E+02  0.42311968634E+02  0.00000000000E+00 0.  1.
          2   -1    0    0  501    0  0.00000000000E+00 -0.00000000000E+00 -0.34047170966E+03  0.34047170966E+03  0.00000000000E+00 0. -1.
         25    2    1    2    0    0  0.66375074112E+01  0.35273272850E+02 -0.10910704744E+03  0.16983481865E+03  0.12510498609E+03 0.  0.
          5    1    3    3  502    0 -0.13016947944E+02  0.79977219945E+02 -0.67542163954E+02  0.10557089066E+03  0.41800000000E+01 0. -1.
         -5    1    3    3    0  502  0.19654455356E+02 -0.44703947096E+02 -0.41564883490E+02  0.64263927991E+02  0.41800000000E+01 0. -1.
        -11    1    1    2    0    0  0.28062973695E+02 -0.39483849758E+02 -0.50186775431E+02  0.69751109758E+02  0.00000000000E+00 0.  1.
         11    1    1    2    0    0 -0.34700481106E+02  0.42105769082E+01 -0.13886591815E+03  0.14319774988E+03  0.00000000000E+00 0. -1.
</event>
<event>
 6    1  0.2989693E-009  0.1114844E+03  0.7561462E-02  0.1257845E+00
         -2   -1    0    0    0  501 -0.00000000000E+00  0.00000000000E+00  0.12575288848E+03  0.12575288848E+03  0.00000000000E+00 0.  1.
          2   -1    0    0  501    0  0.00000000000E+00 -0.00000000000E+00 -0.13104046946E+03  0.13104046946E+03  0.00000000000E+00 0. -1.
          5    1    1    2  502    0 -0.66338842693E+02  0.36427409603E+02 -0.48024154800E+02  0.89730652870E+02  0.41800000000E+01 0.  1.
         -5    1    1    2    0  502  0.48408434138E+02 -0.75346668976E+01 -0.29505558479E+01  0.49257749449E+02  0.41800000000E+01 0.  1.
        -11    1    1    2    0    0  0.54990702520E+02 -0.26004505531E+02  0.52090063544E+02  0.80084869929E+02  0.00000000000E+00 0.  1.
         11    1    1    2    0    0 -0.37060293965E+02 -0.28882371744E+01 -0.64029338783E+01  0.37720085697E+02  0.00000000000E+00 0. -1.
</event>
<event>
 7    1  0.2989693E-009  0.3659741E+03  0.7561462E-02  0.1056243E+00
          1   -1    0    0  501    0  0.00000000000E+00  0.00000000000E+00  0.98838331282E+03  0.98838331282E+03  0.00000000000E+00 0. -1.
         -1   -1    0    0    0  501 -0.00000000000E+00 -0.00000000000E+00 -0.14585896787E+03  0.14585896787E+03  0.00000000000E+00 0.  1.
         25    2    1    2    0    0  0.29096695418E+03  0.21696371633E+03  0.44663887274E+03  0.58895531754E+03  0.12508821204E+03 0.  0.
          5    1    3    3  502    0  0.15614158848E+03  0.13815040499E+03  0.34321450710E+03  0.40159606614E+03  0.41800000000E+01 0. -1.
         -5    1    3    3    0  502  0.13482536569E+03  0.78813311333E+02  0.10342436564E+03  0.18735925140E+03  0.41800000000E+01 0. -1.
        -11    1    1    2    0    0 -0.17828574562E+03 -0.16571232830E+03  0.31216475555E+03  0.39584494117E+03  0.00000000000E+00 0.  1.
         11    1    1    2    0    0 -0.11268120856E+03 -0.51251388030E+02  0.83720716660E+02  0.14944202199E+03  0.00000000000E+00 0. -1.
</event>
<event>
 7    1  0.2989693E-009  0.1063791E+03  0.7561462E-02  0.1267426E+00
          2   -1    0    0  501    0  0.00000000000E+00  0.00000000000E+00  0.38111875289E+03  0.38111875289E+03  0.00000000000E+00 0. -1.
         -2   -1    0    0    0  501 -0.00000000000E+00 -0.00000000000E+00 -0.69519496142E+02  0.69519496142E+02  0.00000000000E+00 0.  1.
         25    2    1    2    0    0  0.53768248614E+02 -0.72509527399E+00  0.31699745149E+03  0.34500310251E+03  0.12509279025E+03 0.  0.
          5    1    3    3  502    0  0.71476677578E+02  0.38823396478E+02  0.13326095440E+03  0.15617978717E+03  0.41800000000E+01 0. -1.
         -5    1    3    3    0  502 -0.17708428964E+02 -0.39548491752E+02  0.18373649709E+03  0.18882331535E+03  0.41800000000E+01 0. -1.
        -11    1    1    2    0    0 -0.30581541227E+02  0.34948353157E+02  0.26456874740E+02  0.53447023053E+02  0.00000000000E+00 0. -1.
         11    1    1    2    0    0 -0.23186707386E+02 -0.34223257883E+02 -0.31855069480E+02  0.52188123468E+02  0.00000000000E+00 0.  1.
</event>
<event>
 7    1  0.2989693E-009  0.1250931E+03  0.7561462E-02  0.1234924E+00
         -2   -1    0    0    0  501 -0.00000000000E+00  0.00000000000E+00  0.33367723640E+02  0.33367723640E+02  0.00000000000E+00 0.  1.
          2   -1    0    0  501    0  0.00000000000E+00 -0.00000000000E+00 -0.69067338013E+03  0.69067338013E+03  0.00000000000E+00 0. -1.
         25    2    1    2    0    0  0.99252014253E+00  0.88074267155E+02 -0.48966860015E+03  0.51301074783E+03  0.12508648126E+03 0.  0.
          5    1    3    3  502    0  0.49607808490E+02  0.57227341836E+02 -0.14600215283E+03  0.16452964580E+03  0.41800000000E+01 0.  1.
         -5    1    3    3    0  502 -0.48615288347E+02  0.30846925320E+02 -0.34366644732E+03  0.34848110204E+03  0.41800000000E+01 0.  1.
        -11    1    1    2    0    0  0.33414361531E+02 -0.16660203185E+02 -0.10028683379E+03  0.10701182625E+03  0.00000000000E+00 0.  1.
         11    1    1    2    0    0 -0.34406881674E+02 -0.71414063971E+02 -0.67350222559E+02  0.10401852969E+03  0.00000000000E+00 0. -1.
</event>
<event>
 7    1  0.2989693E-009  0.1076489E+03  0.7561462E-02  0.1264987E+00
         -2   -1    0    0    0  501 -0.00000000000E+00  0.00000000000E+00  0.80036936955E+02  0.80036936955E+02  0.00000000000E+00 0.  1.
          2   -1    0    0  501    0  0.00000000000E+00 -0.00000000000E+00 -0.15805620277E+03  0.15805620277E+03  0.00000000000E+00 0. -1.
         25    2    1    2    0    0 -0.34019467254E+01  0.13454166720E+02 -0.73971655639E+02  0.14598194617E+03  0.12508531059E+03 0.  0.
          5    1    3    3  502    0  0.52021847105E+02 -0.25372720351E+02 -0.35499432656E+02  0.68027418246E+02  0.41800000000E+01 0. -1.
         -5    1    3    3    0  502 -0.55423793831E+02  0.38826887071E+02 -0.38472222983E+02  0.77954527922E+02  0.41800000000E+01 0. -1.
        -11    1    1    2    0    0 -0.20172163185E+00 -0.51375384392E+02  0.83553212428E+01  0.52050765663E+02  0.00000000000E+00 0.  1.
         11    1    1    2    0    0  0.36036683572E+01  0.37921217672E+02 -0.12402931419E+02  0.40060427895E+02  0.00000000000E+00 0. -1.
</event>
<event>
 7    1  0.2989693E-009  0.1128606E+03  0.7561462E-02  0.1255362E+00
         -1   -1    0    0    0  501 -0.00000000000E+00  0.00000000000E+00  0.47029863421E+02  0.47029863421E+02  0.00000000000E+00 0.  1.
          1   -1    0    0  501    0  0.00000000000E+00 -0.00000000000E+00 -0.32310166360E+03  0.32310166360E+03  0.00000000000E+00 0. -1.
         25    2    1    2    0    0  0.22538974320E+02  0.47829889046E+02 -0.17603030705E+03  0.22232528539E+03  0.12508461085E+03 0.  0.
          5    1    3    3  502    0  0.26681254116E+02 -0.33255715339E+02 -0.22006722436E+02  0.48162227485E+02  0.41800000000E+01 0. -1.
         -5    1    3    3    0  502 -0.41422797961E+01  0.81085604385E+02 -0.15402358462E+03  0.17416305790E+03  0.41800000000E+01 0. -1.
        -11    1    1    2    0    0  0.19660685293E+02 -0.55331436842E+02 -0.30633577319E+02  0.66230857676E+02  0.00000000000E+00 0.  1.
         11    1    1    2    0    0 -0.42199659612E+02  0.75015477959E+01 -0.69407915802E+02  0.81575383951E+02  0.00000000000E+00 0. -1.
</event>
<event>
 7    1  0.2989693E-009  0.1079661E+03  0.7561462E-02  0.1264383E+00
         -1   -1    0    0    0  501 -0.00000000000E+00  0.00000000000E+00  0.65108302078E+02  0.65108302078E+02  0.00000000000E+00 0.  1.
          1   -1    0    0  501    0  0.00000000000E+00 -0.00000000000E+00 -0.26624001384E+03  0.26624001384E+03  0.00000000000E+00 0. -1.
         25    2    1    2    0    0  0.36329470656E+02 -0.44934460626E+02 -0.52404973291E+02  0.14742518117E+03  0.12509582977E+03 0.  0.
          5    1    3    3  502    0  0.73255093742E+02 -0.53458407473E+02 -0.11502800898E+02  0.91508999105E+02  0.41800000000E+01 0.  1.
         -5    1    3    3    0  502 -0.36925623086E+02  0.85239468467E+01 -0.40902172393E+02  0.55916182064E+02  0.41800000000E+01 0.  1.
        -11    1    1    2    0    0 -0.30647613103E+01  0.52760660397E+02 -0.13851846806E+03  0.14825803871E+03  0.00000000000E+00 0. -1.
         11    1    1    2    0    0 -0.33264709346E+02 -0.78261997710E+01 -0.10208270406E+02  0.35665096038E+02  0.00000000000E+00 0.  1.
</event>
<event>
 7    1  0.2989693E-009  0.1011116E+03  0.7561462E-02  0.1277976E+00
          2   -1    0    0  501    0  0.00000000000E+00  0.00000000000E+00  0.23309497964E+03  0.23309497964E+03  0.00000000000E+00 0.  1.
         -2   -1    0    0    0  501 -0.00000000000E+00 -0.00000000000E+00 -0.56940662568E+02  0.56940662568E+02  0.00000000000E+00 0. -1.
         25    2    1    2    0    0  0.21192475956E+02  0.31868419555E+02  0.82374235061E+02  0.15458931889E+03  0.12509047011E+03 0.  0.
          5    1    3    3  502    0 -0.26002023151E+02 -0.22093081742E+02 -0.11635224303E+02  0.36291325594E+02  0.41800000000E+01 0. -1.
         -5    1    3    3    0  502  0.47194499107E+02  0.53961501297E+02  0.94009459364E+02  0.11829799330E+03  0.41800000000E+01 0. -1.
        -11    1    1    2    0    0 -0.52671732756E+02 -0.21019297482E+01  0.38830110366E+02  0.65471421332E+02  0.00000000000E+00 0. -1.
         11    1    1    2    0    0  0.31479256800E+02 -0.29766489807E+02  0.54949971640E+02  0.69974901981E+02  0.00000000000E+00 0.  1.
</event>
<event>
 7    1  0.2989693E-009  0.1264075E+03  0.7561462E-02  0.1232886E+00
          1   -1    0    0  501    0  0.00000000000E+00  0.00000000000E+00  0.49062557922E+03  0.49062557922E+03  0.00000000000E+00 0. -1.
         -1   -1    0    0    0  501 -0.00000000000E+00 -0.00000000000E+00 -0.33311516868E+02  0.33311516868E+02  0.00000000000E+00 0.  1.
         25    2    1    2    0    0 -0.12259786938E+02  0.63326430531E+02  0.29002023477E+03  0.32236605502E+03  0.12509035804E+03 0.  0.
          5    1    3    3  502    0  0.10755497929E+02 -0.36274910718E+02  0.89295747739E+02  0.97070865081E+02  0.41800000000E+01 0. -1.
         -5    1    3    3    0  502 -0.23015284867E+02  0.99601341249E+02  0.20072448703E+03  0.22529518994E+03  0.41800000000E+01 0. -1.
        -11    1    1    2    0    0 -0.22150723650E+02  0.15090806627E+02  0.40795375369E+02  0.48812392426E+02  0.00000000000E+00 0. -1.
         11    1    1    2    0    0  0.34410510588E+02 -0.78417237158E+02  0.12649845222E+03  0.15275864865E+03  0.00000000000E+00 0.  1.
</event>
<event>
 7    1  0.2989693E-009  0.1302714E+03  0.7561462E-02  0.1227054E+00
          2   -1    0    0  501    0  0.00000000000E+00  0.00000000000E+00  0.43645242075E+03  0.43645242075E+03  0.00000000000E+00 0. -1.
         -2   -1    0    0    0  501 -0.00000000000E+00 -0.00000000000E+00 -0.62580968328E+02  0.62580968328E+02  0.00000000000E+00 0.  1.
         25    2    1    2    0    0 -0.62846916734E+02 -0.10451432321E+03  0.21885840254E+03  0.28003590828E+03  0.12509248926E+03 0.  0.
          5    1    3    3  502    0  0.25762680424E+01 -0.36674071955E+02  0.16964126177E+03  0.17362964840E+03  0.41800000000E+01 0. -1.
         -5    1    3    3    0  502 -0.65423184776E+02 -0.67840251251E+02  0.49217140770E+02  0.10640625988E+03  0.41800000000E+01 0. -1.
        -11    1    1    2    0    0  0.39477085032E+02  0.96883627894E+02  0.16253022054E+03  0.19328980880E+03  0.00000000000E+00 0.  1.
         11    1    1    2    0    0  0.23369831702E+02  0.76306953126E+01 -0.75171706556E+01  0.25707671995E+02  0.00000000000E+00 0. -1.
</event>
<event>
 7    1  0.2989693E-009  0.1470319E+03  0.7561462E-02  0.1204168E+00
          2   -1    0    0  501    0  0.00000000000E+00  0.00000000000E+00  0.47236717936E+03  0.47236717936E+03  0.00000000000E+00 0. -1.
         -2   -1    0    0    0  501 -0.00000000000E+00 -0.00000000000E+00 -0.66364494913E+02  0.66364494913E+02  0.00000000000E+00 0.  1.
         25    2    1    2    0    0 -0.32956853319E+02  0.12751123798E+03  0.28698488738E+03  0.33963614353E+03  0.12508842639E+03 0.  0.
          5    1    3    3  502    0 -0.43671328484E+02  0.94602026037E+02  0.84628472082E+02  0.13429884195E+03  0.41800000000E+01 0.  1.
         -5    1    3    3    0  502  0.10714475164E+02  0.32909211938E+02  0.20235641529E+03  0.20533730158E+03  0.41800000000E+01 0.  1.
        -11    1    1    2    0    0 -0.27450340900E+02 -0.43842057678E+02  0.63536688150E+02  0.81930201867E+02  0.00000000000E+00 0. -1.
         11    1    1    2    0    0  0.60407194219E+02 -0.83669180297E+02  0.55481108925E+02  0.11716532888E+03  0.00000000000E+00 0.  1.
</event>
<event>
 7    1  0.2989693E-009  0.1092865E+03  0.7561462E-02  0.1261897E+00
          2   -1    0    0  501    0  0.00000000000E+00  0.00000000000E+00  0.39704142011E+03  0.39704142011E+03  0.00000000000E+00 0. -1.
         -2   -1    0    0    0  501 -0.00000000000E+00 -0.00000000000E+00 -0.33526097383E+02  0.33526097383E+02  0.00000000000E+00 0.  1.
         25    2    1    2    0    0  0.22572650272E+02  0.32196579707E+02  0.19121616480E+03  0.23185728389E+03  0.12509210258E+03 0.  0.
          5    1    3    3  502    0  0.53651096835E+02 -0.21390445118E+02  0.13953537193E+03  0.15107476213E+03  0.41800000000E+01 0. -1.
         -5    1    3    3    0  502 -0.31078446563E+02  0.53587024826E+02  0.51680792869E+02  0.80782521761E+02  0.41800000000E+01 0. -1.
        -11    1    1    2    0    0  0.29356665674E+02 -0.36065099699E+02  0.90370741995E+02  0.10163353898E+03  0.00000000000E+00 0. -1.
         11    1    1    2    0    0 -0.51929315947E+02  0.38685199921E+01  0.81928415930E+02  0.97076694621E+02  0.00000000000E+00 0.  1.
</event>
<event>
 7    1  0.2989693E-009  0.1147885E+03  0.7561462E-02  0.1251951E+00
         -2   -1    0    0    0  501 -0.00000000000E+00  0.00000000000E+00  0.20169160281E+02  0.20169160281E+02  0.00000000000E+00 0.  1.
          2   -1    0    0  501    0  0.00000000000E+00 -0.00000000000E+00 -0.70350128573E+03  0.70350128573E+03  0.00000000000E+00 0. -1.
         25    2    1    2    0    0 -0.29834489160E+02  0.25376440809E+02 -0.47467719827E+03  0.49244167831E+03  0.12508518491E+03 0.  0.
          5    1    3    3  502    0  0.39648030195E+02 -0.22396616801E+02 -0.13992237435E+03  0.14720502025E+03  0.41800000000E+01 0. -1.
         -5    1    3    3    0  502 -0.69482519355E+02  0.47773057610E+02 -0.33475482392E+03  0.34523665806E+03  0.41800000000E+01 0. -1.
        -11    1    1    2    0    0  0.53529243327E+02  0.12292548332E+02 -0.10749874358E+03  0.12071647157E+03  0.00000000000E+00 0.  1.
         11    1    1    2    0    0 -0.23694754167E+02 -0.37668989140E+02 -0.10115618360E+03  0.11051229614E+03  0.00000000000E+00 0. -1.
</event>
<event>
 7    1  0.2989693E-009  0.1770522E+03  0.7561462E-02  0.1170687E+00
         -2   -1    0    0    0  501 -0.00000000000E+00  0.00000000000E+00  0.83324450629E+02  0.83324450629E+02  0.00000000000E+00 0. -1.
          2   -1    0    0  501    0  0.00000000000E+00 -0.00000000000E+00 -0.54167116475E+03  0.54167116475E+03  0.00000000000E+00 0.  1.
         25    2    1    2    0    0  0.64623198331E+02 -0.13032058612E+03 -0.76601353558E+02  0.20658723661E+03  0.12510358122E+03 0.  0.
          5    1    3    3  502    0 -0.34192449476E+02 -0.63971243150E+02 -0.32380294158E+02  0.79544952078E+02  0.41800000000E+01 0. -1.
         -5    1    3    3    0  502  0.98815647807E+02 -0.66349342966E+02 -0.44221059400E+02  0.12704228453E+03  0.41800000000E+01 0. -1.
        -11    1    1    2    0    0 -0.51765891358E+01  0.90841569343E+02 -0.14538601943E+03  0.17151117294E+03  0.00000000000E+00 0. -1.
         11    1    1    2    0    0 -0.59446609195E+02  0.39479016773E+02 -0.23635934113E+03  0.24689720584E+03  0.00000000000E+00 0.  1.
</event>
<event>
 7    1  0.2989693E-009  0.1488141E+03  0.7561462E-02  0.1201938E+00
          2   -1    0    0  501    0  0.00000000000E+00  0.00000000000E+00  0.30503729431E+03  0.30503729431E+03  0.00000000000E+00 0.  1.
         -2   -1    0    0    0  501 -0.00000000000E+00 -0.00000000000E+00 -0.84306498944E+02  0.84306498944E+02  0.00000000000E+00 0. -1.
         25    2    1    2    0    0  0.10279333429E+03 -0.54709156212E+02  0.14358247209E+03  0.22321382757E+03  0.12509566411E+03 0.  0.
          5    1    3    3  502    0  0.68112357186E+02 -0.90565076940E+02  0.12750827498E+03  0.17063750745E+03  0.41800000000E+01 0. -1.
         -5    1    3    3    0  502  0.34680977100E+02  0.35855920727E+02  0.16074197117E+02  0.52576320114E+02  0.41800000000E+01 0. -1.
        -11    1    1    2    0    0  0.22105098210E+01  0.24929989524E+02 -0.95022823388E+01  0.26770956296E+02  0.00000000000E+00 0. -1.
         11    1    1    2    0    0 -0.10500384411E+03  0.29779166688E+02  0.86650605612E+02  0.13935900939E+03  0.00000000000E+00 0.  1.
</event>
<event>
 7    1  0.2989693E-009  0.9682951E+02  0.7561462E-02  0.1287108E+00
         -2   -1    0    0    0  501 -0.00000000000E+00  0.00000000000E+00  0.74223884443E+02  0.74223884443E+02  0.00000000000E+00 0.  1.
          2   -1    0    0  501    0  0.00000000000E+00 -0.00000000000E+00 -0.18333347732E+03  0.18333347732E+03  0.00000000000E+00 0. -1.
         25    2    1    2    0    0  0.54147933210E+02 -0.10934484918E+02 -0.58627258884E+02  0.14878028129E+03  0.12508738939E+03 0.  0.
          5    1    3    3  502    0  0.85981391025E+02 -0.15108985550E+02 -0.67894354746E+01  0.87662134819E+02  0.41800000000E+01 0.  1.
         -5    1    3    3    0  502 -0.31833457815E+02  0.41745006319E+01 -0.51837823410E+02  0.61118146469E+02  0.41800000000E+01 0.  1.
        -11    1    1    2    0    0 -0.50082166274E+02  0.27286652024E+02 -0.15820631076E+01  0.57055128438E+02  0.00000000000E+00 0.  1.
         11    1    1    2    0    0 -0.40657669356E+01 -0.16352167106E+02 -0.48900270886E+02  0.51721952038E+02  0.00000000000E+00 0. -1.
</event>
<event>
 7    1  0.2989693E-009  0.8256115E+02  0.7561462E-02  0.1321936E+00
          1   -1    0    0  501    0  0.00000000000E+00  0.00000000000E+00  0.69182755317E+03  0.69182755317E+03  0.00000000000E+00 0. -1.
         -1   -1    0    0    0  501 -0.00000000000E+00 -0.00000000000E+00 -0.22679075518E+02  0.22679075518E+02  0.00000000000E+00 0.  1.
         25    2    1    2    0    0 -0.30831504626E+02  0.33283241359E+01  0.53074173939E+03  0.54616496416E+03  0.12509082589E+03 0.  0.
          5    1    3    3  502    0 -0.32436289793E+01  0.36722775796E+02  0.46989800246E+03  0.47136046558E+03  0.41800000000E+01 0.  1.
         -5    1    3    3    0  502 -0.27587875647E+02 -0.33394451660E+02  0.60843736929E+02  0.74804498580E+02  0.41800000000E+01 0.  1.
        -11    1    1    2    0    0  0.13811867281E+02  0.37664699145E+02  0.10613547636E+03  0.11346425244E+03  0.00000000000E+00 0.  1.
         11    1    1    2    0    0  0.17019637346E+02 -0.40993023281E+02  0.32271261901E+02  0.54877412091E+02  0.00000000000E+00 0. -1.
</event>
<event>
 7    1  0.2989693E-009  0.1478320E+03  0.7561462E-02  0.1203163E+00
          2   -1    0    0  501    0  0.00000000000E+00  0.00000000000E+00  0.27833844502E+04  0.27833844502E+04  0.00000000000E+00 0. -1.
         -2   -1    0    0    0  501 -0.00000000000E+00 -0.00000000000E+00 -0.14159285034E+02  0.14159285034E+02  0.00000000000E+00 0.  1.
         25    2    1    2    0    0  0.11531806099E+03  0.79268802064E+02  0.20759535714E+04  0.20844213413E+04  0.12508916439E+03 0.  0.
          5    1    3    3  502    0  0.41110339791E+02  0.42258631220E+02  0.16129012043E+04  0.16139837729E+04  0.41800000000E+01 0. -1.
         -5    1    3    3    0  502  0.74207721203E+02  0.37010170844E+02  0.46305236712E+03  0.47043756836E+03  0.41800000000E+01 0. -1.
        -11    1    1    2    0    0 -0.10735817271E+03 -0.41774265696E+02  0.61808826195E+03  0.62873203042E+03  0.00000000000E+00 0. -1.
         11    1    1    2    0    0 -0.79598882891E+01 -0.37494536368E+02  0.75183331772E+02  0.84390363522E+02  0.00000000000E+00 0.  1.
</event>
<event>
 7    1  0.2989693E-009  0.1509800E+03  0.7561462E-02  0.1199274E+00
          1   -1    0    0  501    0  0.00000000000E+00  0.00000000000E+00  0.15729137957E+04  0.15729137957E+04  0.00000000000E+00 0. -1.
         -1   -1    0    0    0  501 -0.00000000000E+00 -0.00000000000E+00 -0.22011966323E+02  0.22011966323E+02  0.00000000000E+00 0.  1.
         25    2    1    2    0    0 -0.14379656158E+03  0.23473287685E+01  0.99975434514E+03  0.10177620572E+04  0.12509153969E+03 0.  0.
          5    1    3    3  502    0 -0.88452651824E+02 -0.15197099648E+02  0.88037488216E+03  0.88494758545E+03  0.41800000000E+01 0.  1.
         -5    1    3    3    0  502 -0.55343909761E+02  0.17544428416E+02  0.11937946298E+03  0.13281447172E+03  0.41800000000E+01 0.  1.
        -11    1    1    2    0    0  0.50564181609E+02  0.25463349723E+02  0.93624200716E+02  0.10941028106E+03  0.00000000000E+00 0.  1.
         11    1    1    2    0    0  0.93232379976E+02 -0.27810678492E+02  0.45752328349E+03  0.46775342378E+03  0.00000000000E+00 0. -1.
</event>
<event>
 7    1  0.2989693E-009  0.1064580E+03  0.7561462E-02  0.1267273E+00
         -4   -1    0    0    0  501 -0.00000000000E+00  0.00000000000E+00  0.10914596002E+03  0.10914596002E+03  0.00000000000E+00 0.  1.
          4   -1    0    0  501    0  0.00000000000E+00 -0.00000000000E+00 -0.11551233496E+03  0.11551233496E+03  0.00000000000E+00 0. -1.
         25    2    1    2    0    0  0.22331168809E+02 -0.12510694249E+02 -0.67721594853E+00  0.12768083164E+03  0.12508692009E+03 0.  0.
          5    1    3    3  502    0  0.48935358212E+02 -0.53280703167E+02  0.19147537277E+02  0.74950671758E+02  0.41800000000E+01 0. -1.
         -5    1    3    3    0  502 -0.26604189403E+02  0.40770008918E+02 -0.19824753225E+02  0.52730159884E+02  0.41800000000E+01 0. -1.
        -11    1    1    2    0    0 -0.54807623613E+02 -0.43842218277E+01  0.12065585422E+02  0.56290988255E+02  0.00000000000E+00 0.  1.
         11    1    1    2    0    0  0.32476454804E+02  0.16894916076E+02 -0.17754744405E+02  0.40686475084E+02  0.00000000000E+00 0. -1.
</event>
<event>
 7    1  0.2989693E-009  0.1246371E+03  0.7561462E-02  0.1235638E+00
         -2   -1    0    0    0  501 -0.00000000000E+00  0.00000000000E+00  0.12018551723E+03  0.12018551723E+03  0.00000000000E+00 0.  1.
          2   -1    0    0  501    0  0.00000000000E+00 -0.00000000000E+00 -0.17014091595E+03  0.17014091595E+03  0.00000000000E+00 0. -1.
         25    2    1    2    0    0 -0.52250950377E+02  0.72400453584E+02 -0.56255679007E+02  0.16366022047E+03  0.12509188163E+03 0.  0.
          5    1    3    3  502    0  0.29125234670E+02  0.63989285783E+02 -0.15285894732E+02  0.72069681332E+02  0.41800000000E+01 0. -1.
         -5    1    3    3    0  502 -0.81376185047E+02  0.84111678012E+01 -0.40969784276E+02  0.91590539141E+02  0.41800000000E+01 0. -1.
        -11    1    1    2    0    0  0.53299463399E+02 -0.45706880817E+02  0.42198635864E+02  0.81918719604E+02  0.00000000000E+00 0. -1.
         11    1    1    2    0    0 -0.10485130224E+01 -0.26693572766E+02 -0.35898355573E+02  0.44747493108E+02  0.00000000000E+00 0.  1.
</event>
<event>
 7    1  0.2989693E-009  0.1449535E+03  0.7561462E-02  0.1206815E+00
          1   -1    0    0  501    0  0.00000000000E+00  0.00000000000E+00  0.33284617916E+03  0.33284617916E+03  0.00000000000E+00 0. -1.
         -1   -1    0    0    0  501 -0.00000000000E+00 -0.00000000000E+00 -0.83558393627E+02  0.83558393627E+02  0.00000000000E+00 0.  1.
         25    2    1    2    0    0  0.13728480530E+02  0.10115802405E+03  0.22674919077E+03  0.27836026622E+03  0.12509126782E+03 0.  0.
          5    1    3    3  502    0 -0.44371436084E+02  0.10188825942E+02  0.32486392650E+02  0.56084531036E+02  0.41800000000E+01 0. -1.
         -5    1    3    3    0  502  0.58099916614E+02  0.90969198110E+02  0.19426279812E+03  0.22227573518E+03  0.41800000000E+01 0. -1.
        -11    1    1    2    0    0 -0.38600082456E+02 -0.10419230776E+03  0.17398198392E+02  0.11246644241E+03  0.00000000000E+00 0.  1.
         11    1    1    2    0    0  0.24871601926E+02  0.30342837069E+01  0.51403963678E+01  0.25577864157E+02  0.00000000000E+00 0. -1.
</event>
<event>
 7    1  0.2989693E-009  0.2325576E+03  0.7561462E-02  0.1124852E+00
          1   -1    0    0  501    0  0.00000000000E+00  0.00000000000E+00  0.12150678621E+03  0.12150678621E+03  0.00000000000E+00 0. -1.
         -1   -1    0    0    0  501 -0.00000000000E+00 -0.00000000000E+00 -0.68083732078E+03  0.68083732078E+03  0.00000000000E+00 0.  1.
         25    2    1    2    0    0  0.21786635519E+03 -0.39260907619E+01 -0.49911835510E+03  0.55879163586E+03  0.12509115475E+03 0.  0.
          5    1    3    3  502    0  0.42787811448E+02  0.29870242638E+02 -0.23036640155E+03  0.23623966552E+03  0.41800000000E+01 0. -1.
         -5    1    3    3    0  502  0.17507854375E+03 -0.33796333400E+02 -0.26875195355E+03  0.32255197034E+03  0.41800000000E+01 0. -1.
        -11    1    1    2    0    0 -0.95270355881E+02  0.44661581142E+02 -0.41092233715E+02  0.11295870578E+03  0.00000000000E+00 0.  1.
         11    1    1    2    0    0 -0.12259599931E+03 -0.40735490380E+02 -0.19119945753E+02  0.13059376535E+03  0.00000000000E+00 0. -1.
</event>
<event>
 7    1  0.2989693E-009  0.6921262E+02  0.7561462E-02  0.1362791E+00
         -1   -1    0    0    0  501 -0.00000000000E+00  0.00000000000E+00  0.67104791181E+02  0.67104791181E+02  0.00000000000E+00 0.  1.
          1   -1    0    0  501    0  0.00000000000E+00 -0.00000000000E+00 -0.20991939908E+03  0.20991939908E+03  0.00000000000E+00 0. -1.
         25    2    1    2    0    0  0.15906125871E+01 -0.31248605184E+02 -0.12965625362E+03  0.18284177946E+03  0.12506545022E+03 0.  0.
          5    1    3    3  502    0  0.13041407247E+02  0.23482383413E+02  0.12578817554E+02  0.29953291719E+02  0.41800000000E+01 0.  1.
         -5    1    3    3    0  502 -0.11450794660E+02 -0.54730988597E+02 -0.14223507118E+03  0.15288848774E+03  0.41800000000E+01 0.  1.
        -11    1    1    2    0    0 -0.22360675530E+02  0.24864325716E+02  0.30598964027E+02  0.45326935733E+02  0.00000000000E+00 0.  1.
         11    1    1    2    0    0  0.20770062942E+02  0.63842794686E+01 -0.43757318303E+02  0.48855475067E+02  0.00000000000E+00 0. -1.
</event>
<event>
 7    1  0.2989693E-009  0.4524324E+03  0.7561462E-02  0.1026999E+00
          1   -1    0    0  501    0  0.00000000000E+00  0.00000000000E+00  0.24422686769E+03  0.24422686769E+03  0.00000000000E+00 0. -1.
         -1   -1    0    0    0  501 -0.00000000000E+00 -0.00000000000E+00 -0.87035305821E+03  0.87035305821E+03  0.00000000000E+00 0.  1.
         25    2    1    2    0    0  0.40142204856E+03  0.19740128527E+03 -0.33970916056E+03  0.57546070431E+03  0.12508309217E+03 0.  0.
          5    1    3    3  502    0  0.89784628019E+02  0.90437047785E+02 -0.14347576761E+03  0.19194506332E+03  0.41800000000E+01 0.  1.
         -5    1    3    3    0  502  0.31163742054E+03  0.10696423748E+03 -0.19623339295E+03  0.38351564100E+03  0.41800000000E+01 0.  1.
        -11    1    1    2    0    0 -0.26816330993E+03 -0.14305932100E+03 -0.24198723619E+03  0.38850399303E+03  0.00000000000E+00 0.  1.
         11    1    1    2    0    0 -0.13325873863E+03 -0.54341964270E+02 -0.44429793769E+02  0.15061522857E+03  0.00000000000E+00 0. -1.
</event>
<event>
 7    1  0.2989693E-009  0.1482639E+03  0.7561462E-02  0.1202623E+00
          1   -1    0    0  501    0  0.00000000000E+00  0.00000000000E+00  0.15358659135E+03  0.15358659135E+03  0.00000000000E+00 0. -1.
         -1   -1    0    0    0  501 -0.00000000000E+00 -0.00000000000E+00 -0.14757311737E+03  0.14757311737E+03  0.00000000000E+00 0.  1.
         25    2    1    2    0    0 -0.81426630614E+02 -0.42846289268E+02 -0.18611410777E+02  0.15642401115E+03  0.12512388251E+03 0.  0.
          5    1    3    3  502    0 -0.10296187618E+03 -0.66436615997E+02 -0.19762825387E+02  0.12418942611E+03  0.41800000000E+01 0. -1.
         -5    1    3    3    0  502  0.21535245564E+02  0.23590326729E+02  0.11514146102E+01  0.32234585034E+02  0.41800000000E+01 0. -1.
        -11    1    1    2    0    0  0.75585829980E+01  0.64334366598E+02  0.30995071870E+01  0.64850981853E+02  0.00000000000E+00 0.  1.
         11    1    1    2    0    0  0.73868047616E+02 -0.21488077331E+02  0.21525377570E+02  0.79884715719E+02  0.00000000000E+00 0. -1.
</event>
<event>
 7    1  0.2989693E-009  0.8048370E+02  0.7561462E-02  0.1327684E+00
         -1   -1    0    0    0  501 -0.00000000000E+00  0.00000000000E+00  0.10900101702E+03  0.10900101702E+03  0.00000000000E+00 0.  1.
          1   -1    0    0  501    0  0.00000000000E+00 -0.00000000000E+00 -0.13768309827E+03  0.13768309827E+03  0.00000000000E+00 0. -1.
         25    2    1    2    0    0 -0.57143613184E+01  0.35611424220E+02 -0.61403285169E+02  0.14393345501E+03  0.12508256705E+03 0.  0.
          5    1    3    3  502    0  0.52733175650E+02  0.70857268719E+01  0.14511244690E+01  0.53390762325E+02  0.41800000000E+01 0.  1.
         -5    1    3    3    0  502 -0.58447536969E+02  0.28525697348E+02 -0.62854409638E+02  0.90542692680E+02  0.41800000000E+01 0.  1.
        -11    1    1    2    0    0 -0.74885723302E+01 -0.22916305661E+02 -0.29379505567E+02  0.38005146073E+02  0.00000000000E+00 0. -1.
         11    1    1    2    0    0  0.13202933649E+02 -0.12695118558E+02  0.62100709479E+02  0.64745514207E+02  0.00000000000E+00 0.  1.
</event>
<event>
 7    1  0.2989693E-009  0.1320718E+03  0.7561462E-02  0.1224414E+00
         -1   -1    0    0    0  501 -0.00000000000E+00  0.00000000000E+00  0.47170805990E+02  0.47170805990E+02  0.00000000000E+00 0.  1.
          1   -1    0    0  501    0  0.00000000000E+00 -0.00000000000E+00 -0.50950070073E+03  0.50950070073E+03  0.00000000000E+00 0. -1.
         25    2    1    2    0    0 -0.63356373512E+02  0.51634151918E+02 -0.11126748908E+03  0.18630263618E+03  0.12509237551E+03 0.  0.
          5    1    3    3  502    0 -0.50634808449E+02 -0.34859050877E+02 -0.40324644116E+02  0.73638214113E+02  0.41800000000E+01 0.  1.
         -5    1    3    3    0  502 -0.12721565064E+02  0.86493202794E+02 -0.70942844966E+02  0.11266442206E+03  0.41800000000E+01 0.  1.
        -11    1    1    2    0    0  0.29755846083E+02 -0.70462546103E+02 -0.26993826125E+03  0.28056558176E+03  0.00000000000E+00 0.  1.
         11    1    1    2    0    0  0.33600527429E+02  0.18828394186E+02 -0.81124144410E+02  0.89803288790E+02  0.00000000000E+00 0. -1.
</event>
<event>
 7    1  0.2989693E-009  0.1081691E+03  0.7561462E-02  0.1263998E+00
          2   -1    0    0  501    0  0.00000000000E+00  0.00000000000E+00  0.29175172452E+03  0.29175172452E+03  0.00000000000E+00 0.  1.
         -2   -1    0    0    0  501 -0.00000000000E+00 -0.00000000000E+00 -0.58930350584E+02  0.58930350584E+02  0.00000000000E+00 0. -1.
         25    2    1    2    0    0 -0.33841712184E+02 -0.25880351084E+02  0.20818279563E+03  0.24657995727E+03  0.12508614981E+03 0.  0.
          5    1    3    3  502    0 -0.75404899711E+02 -0.35439301912E+02  0.10005497849E+03  0.13027015829E+03  0.41800000000E+01 0.  1.
         -5    1    3    3    0  502  0.41563187528E+02  0.95589508279E+01  0.10812781714E+03  0.11630979898E+03  0.41800000000E+01 0.  1.
        -11    1    1    2    0    0  0.42893375927E+02 -0.17073028584E+02  0.36247879778E+02  0.58696156534E+02  0.00000000000E+00 0.  1.
         11    1    1    2    0    0 -0.90516637432E+01  0.42953379668E+02 -0.11609301470E+02  0.45405961305E+02  0.00000000000E+00 0. -1.
</event>
<event>
 7    1  0.2989693E-009  0.1099049E+03  0.7561462E-02  0.1260746E+00
          1   -1    0    0  501    0  0.00000000000E+00  0.00000000000E+00  0.12004312586E+03  0.12004312586E+03  0.00000000000E+00 0. -1.
         -1   -1    0    0    0  501 -0.00000000000E+00 -0.00000000000E+00 -0.11551322853E+03  0.11551322853E+03  0.00000000000E+00 0.  1.
         25    2    1    2    0    0  0.32064517649E+02  0.10086288842E+02 -0.27879440110E+02  0.13249257294E+03  0.12508857737E+03 0.  0.
          5    1    3    3  502    0 -0.14286902699E+02 -0.49141811996E+02  0.21747523057E+01  0.51392949152E+02  0.41800000000E+01 0.  1.
         -5    1    3    3    0  502  0.46351420347E+02  0.59228100838E+02 -0.30054192416E+02  0.81099623790E+02  0.41800000000E+01 0.  1.
        -11    1    1    2    0    0 -0.66302248973E+01  0.38088300151E+02 -0.18582528081E+01  0.38705704930E+02  0.00000000000E+00 0.  1.
         11    1    1    2    0    0 -0.25434292751E+02 -0.48174588993E+02  0.34267590249E+02  0.64358076524E+02  0.00000000000E+00 0. -1.
</event>
<event>
 7    1  0.2989693E-009  0.9299697E+02  0.7561462E-02  0.1295752E+00
         -1   -1    0    0    0  501 -0.00000000000E+00  0.00000000000E+00  0.20948727722E+03  0.20948727722E+03  0.00000000000E+00 0.  1.
          1   -1    0    0  501    0  0.00000000000E+00 -0.00000000000E+00 -0.57839829432E+02  0.57839829432E+02  0.00000000000E+00 0. -1.
         25    2    1    2    0    0  0.15353964490E+02 -0.24512808282E+02  0.78139788409E+02  0.15029997374E+03  0.12509050155E+03 0.  0.
          5    1    3    3  502    0 -0.26261291152E+02 -0.61113020810E+02  0.65199459450E+02  0.93235715464E+02  0.41800000000E+01 0.  1.
         -5    1    3    3    0  502  0.41615255641E+02  0.36600212528E+02  0.12940328959E+02  0.57064258278E+02  0.41800000000E+01 0.  1.
        -11    1    1    2    0    0 -0.15204230099E+02  0.42831047614E+02  0.84295798478E+02  0.95767681885E+02  0.00000000000E+00 0.  1.
         11    1    1    2    0    0 -0.14973439112E+00 -0.18318239332E+02 -0.10788139100E+02  0.21259451024E+02  0.00000000000E+00 0. -1.
</event>
<event>
 7    1  0.2989693E-009  0.1189940E+03  0.7561462E-02  0.1244766E+00
          1   -1    0    0  501    0  0.00000000000E+00  0.00000000000E+00  0.55813544349E+03  0.55813544349E+03  0.00000000000E+00 0. -1.
         -1   -1    0    0    0  501 -0.00000000000E+00 -0.00000000000E+00 -0.27791851541E+02  0.27791851541E+02  0.00000000000E+00 0.  1.
         25    2    1    2    0    0 -0.37148599051E+02  0.46366569691E+02  0.34059541446E+03  0.36767269452E+03  0.12509235286E+03 0.  0.
          5    1    3    3  502    0 -0.67549744244E+02 -0.93913581450E+01  0.23146569866E+03  0.24134002489E+03  0.41800000000E+01 0. -1.
         -5    1    3    3    0  502  0.30401145193E+02  0.55757927836E+02  0.10912971580E+03  0.12633266963E+03  0.41800000000E+01 0. -1.
        -11    1    1    2    0    0  0.45168057836E+02 -0.68738212652E+02  0.12863249944E+03  0.15268076251E+03  0.00000000000E+00 0.  1.
         11    1    1    2    0    0 -0.80194587845E+01  0.22371642960E+02  0.61115678042E+02  0.65573838004E+02  0.00000000000E+00 0. -1.
</event>
<event>
 7    1  0.2989693E-009  0.1131953E+03  0.7561462E-02  0.1254764E+00
          1   -1    0    0  501    0  0.00000000000E+00  0.00000000000E+00  0.48446203458E+03  0.48446203458E+03  0.00000000000E+00 0. -1.
         -1   -1    0    0    0  501 -0.00000000000E+00 -0.00000000000E+00 -0.62153176234E+02  0.62153176234E+02  0.00000000000E+00 0.  1.
         25    2    1    2    0    0  0.88763737709E+01 -0.93709338979E+02  0.37527251649E+03  0.40661597043E+03  0.12508739167E+03 0.  0.
          5    1    3    3  502    0  0.49734504598E+01 -0.32764184219E+02  0.80923907177E+01  0.34368389030E+02  0.41800000000E+01 0.  1.
         -5    1    3    3    0  502  0.39029233111E+01 -0.60945154761E+02  0.36718012577E+03  0.37224758140E+03  0.41800000000E+01 0.  1.
        -11    1    1    2    0    0 -0.29890746775E+02  0.10411881243E+03  0.40574738952E+02  0.11567408217E+03  0.00000000000E+00 0. -1.
         11    1    1    2    0    0  0.21014373004E+02 -0.10409473449E+02  0.64616029112E+01  0.24325158220E+02  0.00000000000E+00 0.  1.
</event>
<event>
 7    1  0.2989693E-009  0.1379952E+03  0.7561462E-02  0.1216052E+00
          1   -1    0    0  501    0  0.00000000000E+00  0.00000000000E+00  0.11272131975E+04  0.11272131975E+04  0.00000000000E+00 0. -1.
         -1   -1    0    0    0  501 -0.00000000000E+00 -0.00000000000E+00 -0.21369178215E+02  0.21369178215E+02  0.00000000000E+00 0.  1.
         25    2    1    2    0    0  0.53331852734E+02 -0.92660836838E+02  0.68349475899E+03  0.70302408397E+03  0.12508980729E+03 0.  0.
          5    1    3    3  502    0 -0.12361714629E+02 -0.79083901938E+02  0.52174322651E+03  0.52786413247E+03  0.41800000000E+01 0. -1.
         -5    1    3    3    0  502  0.65693567363E+02 -0.13576934900E+02  0.16175153247E+03  0.17515995150E+03  0.41800000000E+01 0. -1.
        -11    1    1    2    0    0 -0.17714945574E+02  0.91278249766E+02  0.37463111900E+03  0.38599742681E+03  0.00000000000E+00 0. -1.
         11    1    1    2    0    0 -0.35616907159E+02  0.13825870714E+01  0.47718141285E+02  0.59560864922E+02  0.00000000000E+00 0.  1.
</event>
<event>
 7    1  0.2989693E-009  0.7605984E+02  0.7561462E-02  0.1340620E+00
          2   -1    0    0  501    0  0.00000000000E+00  0.00000000000E+00  0.67844915963E+03  0.67844915963E+03  0.00000000000E+00 0. -1.
         -2   -1    0    0    0  501 -0.00000000000E+00 -0.00000000000E+00 -0.18300534094E+02  0.18300534094E+02  0.00000000000E+00 0.  1.
         25    2    1    2    0    0 -0.23205974536E+02 -0.15711350199E+02  0.42364975139E+03  0.44261934186E+03  0.12508959251E+03 0.  0.
          5    1    3    3  502    0  0.20651413466E+02 -0.12773135113E+02  0.99543778456E+01  0.26574346596E+02  0.41800000000E+01 0.  1.
         -5    1    3    3    0  502 -0.43857388002E+02 -0.29382150863E+01  0.41369537354E+03  0.41604499526E+03  0.41800000000E+01 0.  1.
        -11    1    1    2    0    0  0.23340377925E+01  0.46265054978E+02  0.18503199002E+03  0.19074260241E+03  0.00000000000E+00 0.  1.
         11    1    1    2    0    0  0.20871936744E+02 -0.30553704780E+02  0.51466884130E+02  0.63387749457E+02  0.00000000000E+00 0. -1.
</event>
<event>
 7    1  0.2989693E-009  0.9304724E+02  0.7561462E-02  0.1295636E+00
          2   -1    0    0  501    0  0.00000000000E+00  0.00000000000E+00  0.30869188284E+03  0.30869188284E+03  0.00000000000E+00 0. -1.
         -2   -1    0    0    0  501 -0.00000000000E+00 -0.00000000000E+00 -0.40120059047E+02  0.40120059047E+02  0.00000000000E+00 0.  1.
         25    2    1    2    0    0  0.32707899992E+02  0.72047981065E+01  0.14862311977E+03  0.19712503594E+03  0.12509089587E+03 0.  0.
          5    1    3    3  502    0  0.23084651719E+02 -0.54334991246E+02  0.10642179942E+03  0.12177136039E+03  0.41800000000E+01 0. -1.
         -5    1    3    3    0  502  0.96232482738E+01  0.61539789352E+02  0.42201320345E+02  0.75353675556E+02  0.41800000000E+01 0. -1.
        -11    1    1    2    0    0 -0.36761769439E+02 -0.26147175190E+02  0.12395220284E+03  0.13190622067E+03  0.00000000000E+00 0. -1.
         11    1    1    2    0    0  0.40538694466E+01  0.18942377083E+02 -0.40034988146E+01  0.19780685271E+02  0.00000000000E+00 0.  1.
</event>
<event>
 7    1  0.2989693E-009  0.1172204E+03  0.7561462E-02  0.1247754E+00
         -2   -1    0    0    0  501 -0.00000000000E+00  0.00000000000E+00  0.11718149767E+02  0.11718149767E+02  0.00000000000E+00 0.  1.
          2   -1    0    0  501    0  0.00000000000E+00 -0.00000000000E+00 -0.20176816641E+04  0.20176816641E+04  0.00000000000E+00 0. -1.
         25    2    1    2    0    0 -0.53218313193E+02 -0.44828656096E+02 -0.16453709161E+04  0.16515855856E+04  0.12509075815E+03 0.  0.
          5    1    3    3  502    0 -0.90592776879E+02 -0.35957579887E+02 -0.13764480194E+04  0.13799009462E+04  0.41800000000E+01 0.  1.
         -5    1    3    3    0  502  0.37374463686E+02 -0.88710762090E+01 -0.26892289674E+03  0.27168463946E+03  0.41800000000E+01 0.  1.
        -11    1    1    2    0    0 -0.17012224153E+02  0.11275662383E+02 -0.20495860905E+02  0.28924671944E+02  0.00000000000E+00 0.  1.
         11    1    1    2    0    0  0.70230537347E+02  0.33552993714E+02 -0.34009673729E+03  0.34888955628E+03  0.00000000000E+00 0. -1.
</event>
<event>
 7    1  0.2989693E-009  0.1184510E+03  0.7561462E-02  0.1245674E+00
         -2   -1    0    0    0  501 -0.00000000000E+00  0.00000000000E+00  0.14835614639E+03  0.14835614639E+03  0.00000000000E+00 0.  1.
          2   -1    0    0  501    0  0.00000000000E+00 -0.00000000000E+00 -0.13143977843E+03  0.13143977843E+03  0.00000000000E+00 0. -1.
         25    2    1    2    0    0 -0.22206758288E+02 -0.82439409249E+02  0.26287277352E+02  0.15371379012E+03  0.12509001564E+03 0.  0.
          5    1    3    3  502    0  0.32650895291E+02 -0.86837308930E+02  0.67750653129E+00  0.92869427696E+02  0.41800000000E+01 0. -1.
         -5    1    3    3    0  502 -0.54857653579E+02  0.43978996810E+01  0.25609770820E+02  0.60844362428E+02  0.41800000000E+01 0. -1.
        -11    1    1    2    0    0  0.15201328855E+02  0.16129235729E+02  0.38206116423E+02  0.44169446185E+02  0.00000000000E+00 0.  1.
         11    1    1    2    0    0  0.70054294335E+01  0.66310173519E+02 -0.47577025816E+02  0.81912688512E+02  0.00000000000E+00 0. -1.
</event>
<event>
 7    1  0.2989693E-009  0.1238152E+03  0.7561462E-02  0.1236933E+00
          2   -1    0    0  501    0  0.00000000000E+00  0.00000000000E+00  0.23518232633E+04  0.23518232633E+04  0.00000000000E+00 0. -1.
         -2   -1    0    0    0  501 -0.00000000000E+00 -0.00000000000E+00 -0.19210547921E+02  0.19210547921E+02  0.00000000000E+00 0.  1.
         25    2    1    2    0    0 -0.99278654868E+02 -0.41466919703E+02  0.20341378203E+04  0.20408184515E+04  0.12509006011E+03 0.  0.
          5    1    3    3  502    0 -0.10427662240E+02  0.44032709241E+01  0.15225624133E+02  0.19427222263E+02  0.41800000000E+01 0. -1.
         -5    1    3    3    0  502 -0.88850992628E+02 -0.45870190627E+02  0.20189121962E+04  0.20213912292E+04  0.41800000000E+01 0. -1.
        -11    1    1    2    0    0  0.19954425993E+02 -0.25004650978E+02  0.11709693894E+03  0.12138823994E+03  0.00000000000E+00 0. -1.
         11    1    1    2    0    0  0.79324228875E+02  0.66471570681E+02  0.18137795615E+03  0.20882711982E+03  0.00000000000E+00 0.  1.
</event>
<event>
 7    1  0.2989693E-009  0.1641609E+03  0.7561462E-02  0.1184078E+00
         -1   -1    0    0    0  501 -0.00000000000E+00  0.00000000000E+00  0.61146858542E+02  0.61146858542E+02  0.00000000000E+00 0.  1.
          1   -1    0    0  501    0  0.00000000000E+00 -0.00000000000E+00 -0.57073466885E+03  0.57073466885E+03  0.00000000000E+00 0. -1.
         25    2    1    2    0    0  0.13447223457E+03 -0.52207701501E+02 -0.18666028337E+03  0.26701581567E+03  0.12508780301E+03 0.  0.
          5    1    3    3  502    0  0.87307227876E+02  0.12143291203E+02 -0.16012236985E+03  0.18282958537E+03  0.41800000000E+01 0.  1.
         -5    1    3    3    0  502  0.47165006690E+02 -0.64350992704E+02 -0.26537913529E+02  0.84186230302E+02  0.41800000000E+01 0.  1.
        -11    1    1    2    0    0 -0.10326169548E+02  0.32975126141E+02 -0.13098700506E+03  0.13546801916E+03  0.00000000000E+00 0. -1.
         11    1    1    2    0    0 -0.12414606502E+03  0.19232575360E+02 -0.19194052188E+03  0.22939769256E+03  0.00000000000E+00 0.  1.
</event>
<event>
 7    1  0.2989693E-009  0.1140338E+03  0.7561462E-02  0.1253277E+00
          2   -1    0    0  501    0  0.00000000000E+00  0.00000000000E+00  0.17351529181E+03  0.17351529181E+03  0.00000000000E+00 0.  1.
         -2   -1    0    0    0  501 -0.00000000000E+00 -0.00000000000E+00 -0.15139952223E+03  0.15139952223E+03  0.00000000000E+00 0. -1.
         25    2    1    2    0    0 -0.77871957942E+00 -0.91227237175E+02  0.90876910743E+02  0.17952688836E+03  0.12509306748E+03 0.  0.
          5    1    3    3  502    0  0.28960671351E+02  0.47767760951E+01 -0.15218005318E+02  0.33325638191E+02  0.41800000000E+01 0.  1.
         -5    1    3    3    0  502 -0.29739390931E+02 -0.96004013270E+02  0.10609491606E+03  0.14620125017E+03  0.41800000000E+01 0.  1.
        -11    1    1    2    0    0  0.16594566250E+02  0.27083497150E+02 -0.72566515132E+02  0.79213600886E+02  0.00000000000E+00 0. -1.
         11    1    1    2    0    0 -0.15815846671E+02  0.64143740025E+02  0.38053739658E+01  0.66174324789E+02  0.00000000000E+00 0.  1.
</event>
<event>
 7    1  0.2989693E-009  0.1167760E+03  0.7561462E-02  0.1248512E+00
         -2   -1    0    0    0  501 -0.00000000000E+00  0.00000000000E+00  0.10828913059E+03  0.10828913059E+03  0.00000000000E+00 0.  1.
          2   -1    0    0  501    0  0.00000000000E+00 -0.00000000000E+00 -0.34138029613E+03  0.34138029613E+03  0.00000000000E+00 0. -1.
         25    2    1    2    0    0 -0.43456293480E+02  0.64045449577E+02  0.40148997392E+02  0.15247977948E+03  0.12509145495E+03 0.  0.
          5    1    3    3  502    0 -0.48555426342E+02  0.96556389704E+02  0.11719565434E+02  0.10879148144E+03  0.41800000000E+01 0.  1.
         -5    1    3    3    0  502  0.50991328613E+01 -0.32510940127E+02  0.28429431957E+02  0.43688298036E+02  0.41800000000E+01 0.  1.
        -11    1    1    2    0    0 -0.11441770034E+02 -0.11776339201E+02 -0.32207751584E+01  0.16732293898E+02  0.00000000000E+00 0.  1.
         11    1    1    2    0    0  0.54898063514E+02 -0.52269110377E+02 -0.27001938777E+03  0.28045735335E+03  0.00000000000E+00 0. -1.
</event>
<event>
 7    1  0.2989693E-009  0.1010055E+03  0.7561462E-02  0.1278196E+00
         -1   -1    0    0    0  501 -0.00000000000E+00  0.00000000000E+00  0.64147079770E+02  0.64147079770E+02  0.00000000000E+00 0.  1.
          1   -1    0    0  501    0  0.00000000000E+00 -0.00000000000E+00 -0.28307865205E+03  0.28307865205E+03  0.00000000000E+00 0. -1.
         25    2    1    2    0    0  0.38865591854E+02 -0.65989608118E+02 -0.13786442632E+03  0.20129546614E+03  0.12509237399E+03 0.  0.
          5    1    3    3  502    0  0.27425724585E+02 -0.71867109248E+02 -0.15996107819E+02  0.78679092686E+02  0.41800000000E+01 0. -1.
         -5    1    3    3    0  502  0.11439867269E+02  0.58775011295E+01 -0.12186831851E+03  0.12261637345E+03  0.41800000000E+01 0. -1.
        -11    1    1    2    0    0 -0.64140640469E+02  0.42473900209E+02 -0.26511166287E+02  0.81368887768E+02  0.00000000000E+00 0.  1.
         11    1    1    2    0    0  0.25275048615E+02  0.23515707909E+02 -0.54555979673E+02  0.64561377921E+02  0.00000000000E+00 0. -1.
</event>
<event>
 7    1  0.2989693E-009  0.1096163E+03  0.7561462E-02  0.1261282E+00
          1   -1    0    0  501    0  0.00000000000E+00  0.00000000000E+00  0.28383728497E+03  0.28383728497E+03  0.00000000000E+00 0. -1.
         -1   -1    0    0    0  501 -0.00000000000E+00 -0.00000000000E+00 -0.51811872730E+02  0.51811872730E+02  0.00000000000E+00 0.  1.
         25    2    1    2    0    0 -0.19923814765E+02  0.36178681143E+02  0.13284664483E+03  0.18708795231E+03  0.12509122869E+03 0.  0.
          5    1    3    3  502    0 -0.68727791819E+02  0.27861349551E+02  0.10919052656E+03  0.13205986392E+03  0.41800000000E+01 0.  1.
         -5    1    3    3    0  502  0.48803977054E+02  0.83173315917E+01  0.23656118271E+02  0.55028088398E+02  0.41800000000E+01 0.  1.
        -11    1    1    2    0    0 -0.31237066590E+02 -0.30732857497E+02  0.84289950971E+02  0.95000308914E+02  0.00000000000E+00 0. -1.
         11    1    1    2    0    0  0.51160881355E+02 -0.54458236463E+01  0.14888816441E+02  0.53560896475E+02  0.00000000000E+00 0.  1.
</event>
<event>
 7    1  0.2989693E-009  0.1390616E+03  0.7561462E-02  0.1214597E+00
         -2   -1    0    0    0  501 -0.00000000000E+00  0.00000000000E+00  0.18884819050E+03  0.18884819050E+03  0.00000000000E+00 0. -1.
          2   -1    0    0  501    0  0.00000000000E+00 -0.00000000000E+00 -0.12480390963E+03  0.12480390963E+03  0.00000000000E+00 0.  1.
         25    2    1    2    0    0  0.70222784341E+02  0.81312698468E+02  0.46164004116E+02  0.17124023170E+03  0.12509639206E+03 0.  0.
          5    1    3    3  502    0  0.94672996900E+02  0.17936240744E+02  0.21213533494E+02  0.98753083381E+02  0.41800000000E+01 0.  1.
         -5    1    3    3    0  502 -0.24450212558E+02  0.63376457723E+02  0.24950470622E+02  0.72487148323E+02  0.41800000000E+01 0.  1.
        -11    1    1    2    0    0 -0.10531876869E+02 -0.39139154159E+02  0.48468992764E+02  0.63182569418E+02  0.00000000000E+00 0. -1.
         11    1    1    2    0    0 -0.59690907472E+02 -0.42173544309E+02 -0.30588716012E+02  0.79229299011E+02  0.00000000000E+00 0.  1.
</event>
<event>
 7    1  0.2989693E-009  0.1223892E+03  0.7561462E-02  0.1239207E+00
          1   -1    0    0  501    0  0.00000000000E+00  0.00000000000E+00  0.15046337356E+03  0.15046337356E+03  0.00000000000E+00 0. -1.
         -1   -1    0    0    0  501 -0.00000000000E+00 -0.00000000000E+00 -0.10214575054E+03  0.10214575054E+03  0.00000000000E+00 0.  1.
         25    2    1    2    0    0  0.59112083271E+02 -0.18392255463E+02  0.30031364019E+02  0.14276225739E+03  0.12508663342E+03 0.  0.
          5    1    3    3  502    0 -0.39073345638E+02  0.11858254385E+01  0.67807082563E+01  0.39894647833E+02  0.41800000000E+01 0. -1.
         -5    1    3    3    0  502  0.98185428909E+02 -0.19578080902E+02  0.23250655763E+02  0.10286760955E+03  0.41800000000E+01 0. -1.
        -11    1    1    2    0    0 -0.13194953618E+02 -0.33478044745E+02  0.18738661851E+02  0.40571217986E+02  0.00000000000E+00 0. -1.
         11    1    1    2    0    0 -0.45917129653E+02  0.51870300208E+02 -0.45240284926E+00  0.69275648734E+02  0.00000000000E+00 0.  1.
</event>
<event>
 7    1  0.2989693E-009  0.1058834E+03  0.7561462E-02  0.1268389E+00
          1   -1    0    0  501    0  0.00000000000E+00  0.00000000000E+00  0.61575205661E+03  0.61575205661E+03  0.00000000000E+00 0. -1.
         -1   -1    0    0    0  501 -0.00000000000E+00 -0.00000000000E+00 -0.19517817623E+02  0.19517817623E+02  0.00000000000E+00 0.  1.
         25    2    1    2    0    0  0.82154420892E+01  0.87828558681E+01  0.32723425964E+03  0.35053535837E+03  0.12509254472E+03 0.  0.
          5    1    3    3  502    0  0.61843433977E+02  0.16355898615E+02  0.23408334485E+03  0.24270272038E+03  0.41800000000E+01 0. -1.
         -5    1    3    3    0  502 -0.53627991887E+02 -0.75730427471E+01  0.93150914790E+02  0.10783263799E+03  0.41800000000E+01 0. -1.
        -11    1    1    2    0    0 -0.51551674872E+01  0.42074975630E+02  0.12108577028E+03  0.12829124323E+03  0.00000000000E+00 0. -1.
         11    1    1    2    0    0 -0.30602746020E+01 -0.50857831498E+02  0.14791420908E+03  0.15644327263E+03  0.00000000000E+00 0.  1.
</event>
<event>
 7    1  0.2989693E-009  0.1902563E+03  0.7561462E-02  0.1158230E+00
         -1   -1    0    0    0  501 -0.00000000000E+00  0.00000000000E+00  0.19651005351E+03  0.19651005351E+03  0.00000000000E+00 0.  1.
          1   -1    0    0  501    0  0.00000000000E+00 -0.00000000000E+00 -0.26912952752E+03  0.26912952752E+03  0.00000000000E+00 0. -1.
         25    2    1    2    0    0 -0.90919025892E+02 -0.13769148500E+03  0.80924300456E+02  0.22231083254E+03  0.12509256393E+03 0.  0.
          5    1    3    3  502    0 -0.99835765206E+02 -0.15405350217E+03  0.58194143534E+02  0.19262318731E+03  0.41800000000E+01 0.  1.
         -5    1    3    3    0  502  0.89167393140E+01  0.16362017173E+02  0.22730156922E+02  0.29687645236E+02  0.41800000000E+01 0.  1.
        -11    1    1    2    0    0  0.51527383539E+02  0.22817988353E+02 -0.90211882803E+02  0.10636689168E+03  0.00000000000E+00 0. -1.
         11    1    1    2    0    0  0.39391642353E+02  0.11487349665E+03 -0.63331891661E+02  0.13696185681E+03  0.00000000000E+00 0.  1.
</event>
<event>
 7    1  0.2989693E-009  0.9037349E+02  0.7561462E-02  0.1301950E+00
          1   -1    0    0  501    0  0.00000000000E+00  0.00000000000E+00  0.21743494135E+02  0.21743494135E+02  0.00000000000E+00 0. -1.
         -1   -1    0    0    0  501 -0.00000000000E+00 -0.00000000000E+00 -0.79526811069E+03  0.79526811069E+03  0.00000000000E+00 0.  1.
         25    2    1    2    0    0 -0.13928598965E+02  0.45868294360E+02 -0.60066869646E+03  0.61542552863E+03  0.12509113515E+03 0.  0.
          5    1    3    3  502    0  0.33519632395E+02  0.41169185835E+02 -0.51113159337E+03  0.51389828348E+03  0.41800000000E+01 0. -1.
         -5    1    3    3    0  502 -0.47448231360E+02  0.46991085246E+01 -0.89537103086E+02  0.10152724516E+03  0.41800000000E+01 0. -1.
        -11    1    1    2    0    0  0.31439280331E+02 -0.98793873769E+00 -0.11991929285E+02  0.33663195610E+02  0.00000000000E+00 0. -1.
         11    1    1    2    0    0 -0.17510681366E+02 -0.44880355622E+02 -0.16086399082E+03  0.16792288059E+03  0.00000000000E+00 0.  1.
</event>
<event>
 6    1  0.2989693E-009  0.2308141E+03  0.7561462E-02  0.1126068E+00
          2   -1    0    0  501    0  0.00000000000E+00  0.00000000000E+00  0.90666889147E+03  0.90666889147E+03  0.00000000000E+00 0. -1.
         -2   -1    0    0    0  501 -0.00000000000E+00 -0.00000000000E+00 -0.62028174159E+02  0.62028174159E+02  0.00000000000E+00 0.  1.
          5    1    1    2  502    0  0.16814486524E+03 -0.62466139049E+02  0.26123501629E+03  0.31691626713E+03  0.41800000000E+01 0. -1.
         -5    1    1    2    0  502  0.40092473919E+02  0.47261377627E+02  0.12510945798E+03  0.13968139875E+03  0.41800000000E+01 0. -1.
        -11    1    1    2    0    0 -0.19270192872E+03 -0.71873887562E+01  0.34167450308E+03  0.39233551706E+03  0.00000000000E+00 0.  1.
         11    1    1    2    0    0 -0.15535410431E+02  0.22392150178E+02  0.11662173996E+03  0.11976388269E+03  0.00000000000E+00 0. -1.
</event>
<event>
 7    1  0.2989693E-009  0.1317132E+03  0.7561462E-02  0.1224936E+00
          2   -1    0    0  501    0  0.00000000000E+00  0.00000000000E+00  0.24254088060E+03  0.24254088060E+03  0.00000000000E+00 0. -1.
         -2   -1    0    0    0  501 -0.00000000000E+00 -0.00000000000E+00 -0.21551926604E+03  0.21551926604E+03  0.00000000000E+00 0.  1.
         25    2    1    2    0    0 -0.86585817344E+02  0.69785723720E+02 -0.15392240677E+03  0.22741518399E+03  0.12513355906E+03 0.  0.
          5    1    3    3  502    0  0.59479998981E+01 -0.14536958845E+02  0.11505898437E+02  0.19913813651E+02  0.41800000000E+01 0. -1.
         -5    1    3    3    0  502 -0.92533817242E+02  0.84322682565E+02 -0.16542830520E+03  0.20750137033E+03  0.41800000000E+01 0. -1.
        -11    1    1    2    0    0  0.15387321810E+02 -0.43289916364E+02  0.15321703161E+02  0.48430786892E+02  0.00000000000E+00 0.  1.
         11    1    1    2    0    0  0.71198495534E+02 -0.26495807356E+02  0.16562231816E+03  0.18221417576E+03  0.00000000000E+00 0. -1.
</event>
<event>
 7    1  0.2989693E-009  0.7131857E+02  0.7561462E-02  0.1355666E+00
          3   -1    0    0  501    0  0.00000000000E+00  0.00000000000E+00  0.21351590391E+03  0.21351590391E+03  0.00000000000E+00 0. -1.
         -3   -1    0    0    0  501 -0.00000000000E+00 -0.00000000000E+00 -0.65316328590E+02  0.65316328590E+02  0.00000000000E+00 0.  1.
         25    2    1    2    0    0 -0.27475646681E+02  0.17393142469E+01  0.40141321753E+02  0.13422823998E+03  0.12509179957E+03 0.  0.
          5    1    3    3  502    0 -0.84216613891E+01 -0.38612866980E+02 -0.30824339604E+02  0.50294037310E+02  0.41800000000E+01 0.  1.
         -5    1    3    3    0  502 -0.19053985292E+02  0.40352181227E+02  0.70965661357E+02  0.83934202666E+02  0.41800000000E+01 0.  1.
        -11    1    1    2    0    0 -0.82152745695E+01 -0.17291636558E+02 -0.90634757626E+01  0.21181077026E+02  0.00000000000E+00 0.  1.
         11    1    1    2    0    0  0.35690921251E+02  0.15552322311E+02  0.11712172933E+03  0.12342291550E+03  0.00000000000E+00 0. -1.
</event>
<event>
 7    1  0.2989693E-009  0.1371041E+03  0.7561462E-02  0.1217280E+00
          1   -1    0    0  501    0  0.00000000000E+00  0.00000000000E+00  0.99161489877E+03  0.99161489877E+03  0.00000000000E+00 0. -1.
         -1   -1    0    0    0  501 -0.00000000000E+00 -0.00000000000E+00 -0.21974257782E+02  0.21974257782E+02  0.00000000000E+00 0.  1.
         25    2    1    2    0    0  0.10806935216E+03 -0.50026403762E+01  0.56153822086E+03  0.58538610656E+03  0.12509080290E+03 0.  0.
          5    1    3    3  502    0 -0.13574978318E+02  0.34564692014E+02  0.12242917600E+03  0.12800536515E+03  0.41800000000E+01 0.  1.
         -5    1    3    3    0  502  0.12164433048E+03 -0.39567332390E+02  0.43910904486E+03  0.45738074141E+03  0.41800000000E+01 0.  1.
        -11    1    1    2    0    0 -0.34129748429E+02  0.71986760437E+01  0.41498179816E+02  0.54210327361E+02  0.00000000000E+00 0.  1.
         11    1    1    2    0    0 -0.73939603732E+02 -0.21960356675E+01  0.36660424030E+03  0.37399272263E+03  0.00000000000E+00 0. -1.
</event>
<event>
 7    1  0.2989693E-009  0.1727924E+03  0.7561462E-02  0.1174967E+00
         -1   -1    0    0    0  501 -0.00000000000E+00  0.00000000000E+00  0.30894089773E+03  0.30894089773E+03  0.00000000000E+00 0.  1.
          1   -1    0    0  501    0  0.00000000000E+00 -0.00000000000E+00 -0.12041298613E+03  0.12041298613E+03  0.00000000000E+00 0. -1.
         25    2    1    2    0    0  0.24774399083E+02 -0.14193910548E+03  0.23674557321E+02  0.19227257011E+03  0.12509107097E+03 0.  0.
          5    1    3    3  502    0 -0.36015773235E+02 -0.10564066447E+03  0.41484022658E+02  0.11914479614E+03  0.41800000000E+01 0.  1.
         -5    1    3    3    0  502  0.60790172318E+02 -0.36298441017E+02 -0.17809465337E+02  0.73127773973E+02  0.41800000000E+01 0.  1.
        -11    1    1    2    0    0  0.18401106036E+02  0.10362134128E+03  0.71194655483E+02  0.12706164662E+03  0.00000000000E+00 0. -1.
         11    1    1    2    0    0 -0.43175505119E+02  0.38317764203E+02  0.93658698788E+02  0.11001966713E+03  0.00000000000E+00 0.  1.
</event>
<event>
 7    1  0.2989693E-009  0.1491342E+03  0.7561462E-02  0.1201541E+00
         -2   -1    0    0    0  501 -0.00000000000E+00  0.00000000000E+00  0.15193375454E+03  0.15193375454E+03  0.00000000000E+00 0.  1.
          2   -1    0    0  501    0  0.00000000000E+00 -0.00000000000E+00 -0.19408224310E+03  0.19408224310E+03  0.00000000000E+00 0. -1.
         25    2    1    2    0    0  0.11787725737E+03 -0.94630236107E+01  0.39189404468E+02  0.17655153124E+03  0.12510010846E+03 0.  0.
          5    1    3    3  502    0  0.70020757288E+02 -0.67095918360E+02  0.24222155901E+02  0.10004475972E+03  0.41800000000E+01 0.  1.
         -5    1    3    3    0  502  0.47856500083E+02  0.57632894750E+02  0.14967248567E+02  0.76506771511E+02  0.41800000000E+01 0.  1.
        -11    1    1    2    0    0 -0.69377567854E+02  0.27215984875E+02 -0.16982962756E+01  0.74544221536E+02  0.00000000000E+00 0.  1.
         11    1    1    2    0    0 -0.48499689517E+02 -0.17752961264E+02 -0.79639596752E+02  0.94920244878E+02  0.00000000000E+00 0. -1.
</event>
<event>
 7    1  0.2989693E-009  0.1003562E+03  0.7561462E-02  0.1279549E+00
          3   -1    0    0  501    0  0.00000000000E+00  0.00000000000E+00  0.56577210216E+03  0.56577210216E+03  0.00000000000E+00 0. -1.
         -3   -1    0    0    0  501 -0.00000000000E+00 -0.00000000000E+00 -0.25791369290E+02  0.25791369290E+02  0.00000000000E+00 0.  1.
         25    2    1    2    0    0 -0.28214027601E+02 -0.21005230563E+02  0.21627187310E+03  0.25230627316E+03  0.12509069237E+03 0.  0.
          5    1    3    3  502    0 -0.60037737296E+01  0.37739028034E+02  0.14733987635E+02  0.41168462779E+02  0.41800000000E+01 0.  1.
         -5    1    3    3    0  502 -0.22210253872E+02 -0.58744258598E+02  0.20153788547E+03  0.21113781038E+03  0.41800000000E+01 0.  1.
        -11    1    1    2    0    0 -0.34433992050E+02  0.76337547964E+01  0.15062764952E+03  0.15470185138E+03  0.00000000000E+00 0.  1.
         11    1    1    2    0    0  0.62648019651E+02  0.13371475767E+02  0.17308121025E+03  0.18455534691E+03  0.00000000000E+00 0. -1.
</event>
<event>
 7    1  0.2989693E-009  0.1339488E+03  0.7561462E-02  0.1221711E+00
         -2   -1    0    0    0  501 -0.00000000000E+00  0.00000000000E+00  0.33621430759E+02  0.33621430759E+02  0.00000000000E+00 0.  1.
          2   -1    0    0  501    0  0.00000000000E+00 -0.00000000000E+00 -0.56846092955E+03  0.56846092955E+03  0.00000000000E+00 0. -1.
         25    2    1    2    0    0  0.81101900580E+02  0.23086838772E+02 -0.26392572577E+03  0.30399652501E+03  0.12508628258E+03 0.  0.
          5    1    3    3  502    0  0.53120977846E+02  0.72303020938E+02 -0.19508861512E+03  0.21477105316E+03  0.41800000000E+01 0.  1.
         -5    1    3    3    0  502  0.27980922734E+02 -0.49216182166E+02 -0.68837110650E+02  0.89225471849E+02  0.41800000000E+01 0.  1.
        -11    1    1    2    0    0 -0.47804313540E+01  0.28690165341E+02 -0.96514930715E+02  0.10080233113E+03  0.00000000000E+00 0.  1.
         11    1    1    2    0    0 -0.76321469226E+02 -0.51777004112E+02 -0.17439884231E+03  0.19728350417E+03  0.00000000000E+00 0. -1.
</event>
<event>
 7    1  0.2989693E-009  0.2135893E+03  0.7561462E-02  0.1138755E+00
         -2   -1    0    0    0  501 -0.00000000000E+00  0.00000000000E+00  0.31381107413E+03  0.31381107413E+03  0.00000000000E+00 0. -1.
          2   -1    0    0  501    0  0.00000000000E+00 -0.00000000000E+00 -0.16218629441E+03  0.16218629441E+03  0.00000000000E+00 0.  1.
         25    2    1    2    0    0 -0.16653483077E+03 -0.10410096379E+03  0.98396904076E+02  0.25278492014E+03  0.12508958627E+03 0.  0.
          5    1    3    3  502    0 -0.11989454576E+03 -0.95585777062E+01  0.82929164440E+02  0.14615330042E+03  0.41800000000E+01 0.  1.
         -5    1    3    3    0  502 -0.46640285013E+02 -0.94542386085E+02  0.15467739636E+02  0.10663161971E+03  0.41800000000E+01 0.  1.
        -11    1    1    2    0    0  0.14550494213E+03  0.10627755767E+03  0.16635271840E+02  0.18095120811E+03  0.00000000000E+00 0.  1.
         11    1    1    2    0    0  0.21029888643E+02 -0.21765938812E+01  0.36592603805E+02  0.42261240286E+02  0.00000000000E+00 0. -1.
</event>
<event>
 7    1  0.2989693E-009  0.1109102E+03  0.7561462E-02  0.1258894E+00
         -2   -1    0    0    0  501 -0.00000000000E+00  0.00000000000E+00  0.21228189378E+02  0.21228189378E+02  0.00000000000E+00 0.  1.
          2   -1    0    0  501    0  0.00000000000E+00 -0.00000000000E+00 -0.69543575665E+03  0.69543575665E+03  0.00000000000E+00 0. -1.
         25    2    1    2    0    0 -0.16874777439E+01  0.52053463897E+02 -0.44233970516E+03  0.46262730822E+03  0.12508877194E+03 0.  0.
          5    1    3    3  502    0 -0.61262940979E+02  0.95902160608E+01 -0.19567145706E+03  0.20530443661E+03  0.41800000000E+01 0. -1.
         -5    1    3    3    0  502  0.59575463235E+02  0.42463247836E+02 -0.24666824809E+03  0.25732287161E+03  0.41800000000E+01 0. -1.
        -11    1    1    2    0    0  0.22490221711E+02  0.71821377957E+01 -0.14324181593E+02  0.27614766960E+02  0.00000000000E+00 0.  1.
         11    1    1    2    0    0 -0.20802743967E+02 -0.59235601692E+02 -0.21754368052E+03  0.22642187085E+03  0.00000000000E+00 0. -1.
</event>
<event>
 7    1  0.2989693E-009  0.1321400E+03  0.7561462E-02  0.1224314E+00
         -2   -1    0    0    0  501 -0.00000000000E+00  0.00000000000E+00  0.19971709455E+02  0.19971709455E+02  0.00000000000E+00 0.  1.
          2   -1    0    0  501    0  0.00000000000E+00 -0.00000000000E+00 -0.12411600384E+04  0.12411600384E+04  0.00000000000E+00 0. -1.
         25    2    1    2    0    0  0.52311518501E+02  0.87478646233E+02 -0.85951286977E+03  0.87452706008E+03  0.12508475923E+03 0.  0.
          5    1    3    3  502    0  0.23270897534E+01  0.84125211230E+02 -0.74124054733E+03  0.74601440195E+03  0.41800000000E+01 0. -1.
         -5    1    3    3    0  502  0.49984428747E+02  0.33534350026E+01 -0.11827232244E+03  0.12851265813E+03  0.41800000000E+01 0. -1.
        -11    1    1    2    0    0 -0.18686957777E+02  0.13672431735E+02 -0.28092051908E+02  0.36404685975E+02  0.00000000000E+00 0.  1.
         11    1    1    2    0    0 -0.33624560724E+02 -0.10115107797E+03 -0.33358340725E+03  0.35020000178E+03  0.00000000000E+00 0. -1.
</event>
<event>
 7    1  0.2989693E-009  0.1225646E+03  0.7561462E-02  0.1238925E+00
         -2   -1    0    0    0  501 -0.00000000000E+00  0.00000000000E+00  0.17125038113E+02  0.17125038113E+02  0.00000000000E+00 0.  1.
          2   -1    0    0  501    0  0.00000000000E+00 -0.00000000000E+00 -0.17930253712E+04  0.17930253712E+04  0.00000000000E+00 0. -1.
         25    2    1    2    0    0 -0.48841830190E+02  0.81407790348E+02 -0.14482120487E+04  0.14567012436E+04  0.12509045666E+03 0.  0.
          5    1    3    3  502    0 -0.64603540829E+02  0.58308688808E+02 -0.46555380665E+03  0.47363629503E+03  0.41800000000E+01 0. -1.
         -5    1    3    3    0  502  0.15761710639E+02  0.23099101539E+02 -0.98265824204E+03  0.98306494855E+03  0.41800000000E+01 0. -1.
        -11    1    1    2    0    0  0.70377031744E+02 -0.82157875562E+02 -0.29581671365E+03  0.31497677881E+03  0.00000000000E+00 0. -1.
         11    1    1    2    0    0 -0.21535201554E+02  0.75008521390E+00 -0.31871570702E+02  0.38472386887E+02  0.00000000000E+00 0.  1.
</event>
<event>
 7    1  0.2989693E-009  0.1280314E+03  0.7561462E-02  0.1230406E+00
         -1   -1    0    0    0  501 -0.00000000000E+00  0.00000000000E+00  0.58545552126E+02  0.58545552126E+02  0.00000000000E+00 0.  1.
          1   -1    0    0  501    0  0.00000000000E+00 -0.00000000000E+00 -0.35422058917E+03  0.35422058917E+03  0.00000000000E+00 0. -1.
         25    2    1    2    0    0 -0.41682270526E+01 -0.82106286756E+02 -0.93254007177E+02  0.17636998419E+03  0.12510493606E+03 0.  0.
          5    1    3    3  502    0 -0.38960960105E+02  0.14914510108E+02 -0.83120434139E+01  0.42742970062E+02  0.41800000000E+01 0.  1.
         -5    1    3    3    0  502  0.34792733052E+02 -0.97020796863E+02 -0.84941963763E+02  0.13362701413E+03  0.41800000000E+01 0.  1.
        -11    1    1    2    0    0  0.20009672208E+02 -0.64460033939E+01 -0.85943544202E+01  0.22711249845E+02  0.00000000000E+00 0. -1.
         11    1    1    2    0    0 -0.15841445156E+02  0.88552290150E+02 -0.19382667545E+03  0.21368490726E+03  0.00000000000E+00 0.  1.
</event>
<event>
 7    1  0.2989693E-009  0.1702362E+03  0.7561462E-02  0.1177602E+00
          1   -1    0    0  501    0  0.00000000000E+00  0.00000000000E+00  0.54408698885E+03  0.54408698885E+03  0.00000000000E+00 0. -1.
         -1   -1    0    0    0  501 -0.00000000000E+00 -0.00000000000E+00 -0.71314491427E+02  0.71314491427E+02  0.00000000000E+00 0.  1.
         25    2    1    2    0    0 -0.14731995748E+03 -0.17875969445E+02  0.13802695849E+03  0.23816693920E+03  0.12509728016E+03 0.  0.
          5    1    3    3  502    0 -0.15657640509E+03  0.12892929709E+02  0.92747345682E+02  0.18248819358E+03  0.41800000000E+01 0.  1.
         -5    1    3    3    0  502  0.92564476100E+01 -0.30768899154E+02  0.45279612805E+02  0.55678745615E+02  0.41800000000E+01 0.  1.
        -11    1    1    2    0    0  0.10165390382E+03  0.25018737904E+02  0.12786791622E+03  0.16525633847E+03  0.00000000000E+00 0.  1.
         11    1    1    2    0    0  0.45666053657E+02 -0.71427684595E+01  0.20687762272E+03  0.21197820260E+03  0.00000000000E+00 0. -1.
</event>
<event>
 7    1  0.2989693E-009  0.1193395E+03  0.7561462E-02  0.1244191E+00
         -1   -1    0    0    0  501 -0.00000000000E+00  0.00000000000E+00  0.47029683191E+02  0.47029683191E+02  0.00000000000E+00 0.  1.
          1   -1    0    0  501    0  0.00000000000E+00 -0.00000000000E+00 -0.39429244346E+03  0.39429244346E+03  0.00000000000E+00 0. -1.
         25    2    1    2    0    0  0.60577493506E+02  0.20151724430E+02 -0.27672171246E+03  0.31031957440E+03  0.12509039688E+03 0.  0.
          5    1    3    3  502    0  0.93453836984E+02 -0.25835037198E+01 -0.23215826219E+03  0.25031025796E+03  0.41800000000E+01 0. -1.
         -5    1    3    3    0  502 -0.32876343477E+02  0.22735228150E+02 -0.44563450277E+02  0.60009316444E+02  0.41800000000E+01 0. -1.
        -11    1    1    2    0    0 -0.79211373023E+02 -0.28902866922E+02 -0.37978014197E+02  0.92477818394E+02  0.00000000000E+00 0.  1.
         11    1    1    2    0    0  0.18633879517E+02  0.87511424917E+01 -0.32563033611E+02  0.38524733856E+02  0.00000000000E+00 0. -1.
</event>
<event>
 7    1  0.2989693E-009  0.1137999E+03  0.7561462E-02  0.1253691E+00
          2   -1    0    0  501    0  0.00000000000E+00  0.00000000000E+00  0.13498008047E+03  0.13498008047E+03  0.00000000000E+00 0. -1.
         -2   -1    0    0    0  501 -0.00000000000E+00 -0.00000000000E+00 -0.14874828705E+03  0.14874828705E+03  0.00000000000E+00 0.  1.
         25    2    1    2    0    0  0.65252209784E+02 -0.56070427053E+02 -0.24053403480E+02  0.15371676260E+03  0.12509409744E+03 0.  0.
          5    1    3    3  502    0 -0.22410349287E+02 -0.39426295854E+02  0.24848616910E+02  0.51880465710E+02  0.41800000000E+01 0. -1.
         -5    1    3    3    0  502  0.87662559072E+02 -0.16644131199E+02 -0.48902020391E+02  0.10183629689E+03  0.41800000000E+01 0. -1.
        -11    1    1    2    0    0 -0.38327944169E+02  0.53320073511E+02  0.49591791396E+02  0.82288561279E+02  0.00000000000E+00 0. -1.
         11    1    1    2    0    0 -0.26924265616E+02  0.27503535417E+01 -0.39306594499E+02  0.47723043644E+02  0.00000000000E+00 0.  1.
</event>
<event>
 7    1  0.2989693E-009  0.1081797E+03  0.7561462E-02  0.1263978E+00
          2   -1    0    0  501    0  0.00000000000E+00  0.00000000000E+00  0.10648357640E+03  0.10648357640E+03  0.00000000000E+00 0.  1.
         -2   -1    0    0    0  501 -0.00000000000E+00 -0.00000000000E+00 -0.16385811980E+03  0.16385811980E+03  0.00000000000E+00 0. -1.
         25    2    1    2    0    0 -0.40360757217E+02  0.51454642312E+02  0.52059046720E+01  0.14124850313E+03  0.12508983674E+03 0.  0.
          5    1    3    3  502    0  0.30129813643E+02  0.54006389604E+01 -0.35977573135E+02  0.47421838218E+02  0.41800000000E+01 0.  1.
         -5    1    3    3    0  502 -0.70490570861E+02  0.46054003352E+02  0.41183477807E+02  0.93826664916E+02  0.41800000000E+01 0.  1.
        -11    1    1    2    0    0  0.34516693140E+01  0.20234847493E+02  0.79041278535E+01  0.21996324948E+02  0.00000000000E+00 0.  1.
         11    1    1    2    0    0  0.36909087903E+02 -0.71689489805E+02 -0.70484575925E+02  0.10709686812E+03  0.00000000000E+00 0. -1.
</event>
<event>
 7    1  0.2989693E-009  0.1761299E+03  0.7561462E-02  0.1171602E+00
          2   -1    0    0  501    0  0.00000000000E+00  0.00000000000E+00  0.19053773700E+04  0.19053773700E+04  0.00000000000E+00 0. -1.
         -2   -1    0    0    0  501 -0.00000000000E+00 -0.00000000000E+00 -0.20678946910E+02  0.20678946910E+02  0.00000000000E+00 0.  1.
         25    2    1    2    0    0  0.12853174787E+03  0.95941041055E+02  0.10749134633E+04  0.10939890974E+04  0.12509235844E+03 0.  0.
          5    1    3    3  502    0  0.89846764920E+02  0.83909029984E+02  0.41566100812E+03  0.43347977179E+03  0.41800000000E+01 0. -1.
         -5    1    3    3    0  502  0.38684982946E+02  0.12032011071E+02  0.65925245516E+03  0.66050932561E+03  0.41800000000E+01 0. -1.
        -11    1    1    2    0    0 -0.10414844940E+02 -0.65805455557E+02  0.22232824207E+03  0.23209626063E+03  0.00000000000E+00 0. -1.
         11    1    1    2    0    0 -0.11811690293E+03 -0.30135585498E+02  0.58745671770E+03  0.59997095884E+03  0.00000000000E+00 0.  1.
</event>
<event>
 7    1  0.2989693E-009  0.9854868E+02  0.7561462E-02  0.1283378E+00
         -1   -1    0    0    0  501 -0.00000000000E+00  0.00000000000E+00  0.12345481653E+02  0.12345481653E+02  0.00000000000E+00 0.  1.
          1   -1    0    0  501    0  0.00000000000E+00 -0.00000000000E+00 -0.13302151740E+04  0.13302151740E+04  0.00000000000E+00 0. -1.
         25    2    1    2    0    0 -0.56370653037E+02  0.43548362150E+02 -0.10068630006E+04  0.10171005843E+04  0.12508551621E+03 0.  0.
          5    1    3    3  502    0  0.16363266008E+02 -0.65543091223E+01 -0.23025195422E+02  0.29297567591E+02  0.41800000000E+01 0. -1.
         -5    1    3    3    0  502 -0.72733919045E+02  0.50102671272E+02 -0.98383780514E+03  0.98780301674E+03  0.41800000000E+01 0. -1.
        -11    1    1    2    0    0  0.38182831541E+02  0.51963115960E+01 -0.81792050455E+02  0.90414986569E+02  0.00000000000E+00 0.  1.
         11    1    1    2    0    0  0.18187821497E+02 -0.48744673746E+02 -0.22921464136E+03  0.23504508479E+03  0.00000000000E+00 0. -1.
</event>
<event>
 7    1  0.2989693E-009  0.1004115E+03  0.7561462E-02  0.1279433E+00
          1   -1    0    0  501    0  0.00000000000E+00  0.00000000000E+00  0.38850404907E+02  0.38850404907E+02  0.00000000000E+00 0. -1.
         -1   -1    0    0    0  501 -0.00000000000E+00 -0.00000000000E+00 -0.44763235665E+03  0.44763235665E+03  0.00000000000E+00 0.  1.
         25    2    1    2    0    0 -0.56053803846E+02  0.34013249319E+02 -0.16087137917E+03  0.21406633790E+03  0.12508343748E+03 0.  0.
          5    1    3    3  502    0  0.12924065605E+02  0.24615288929E+02 -0.13775480580E+03  0.14059446235E+03  0.41800000000E+01 0. -1.
         -5    1    3    3    0  502 -0.68977869451E+02  0.93979603901E+01 -0.23116573363E+02  0.73471875555E+02  0.41800000000E+01 0. -1.
        -11    1    1    2    0    0  0.70001588100E+02 -0.46670857461E+02 -0.23493313681E+03  0.24954352335E+03  0.00000000000E+00 0.  1.
         11    1    1    2    0    0 -0.13947784254E+02  0.12657608142E+02 -0.12977435765E+02  0.22872900308E+02  0.00000000000E+00 0. -1.
</event>
<event>
 6    1  0.2989693E-009  0.1340499E+03  0.7561462E-02  0.1221567E+00
          2   -1    0    0  501    0  0.00000000000E+00  0.00000000000E+00  0.76334846535E+03  0.76334846535E+03  0.00000000000E+00 0. -1.
         -2   -1    0    0    0  501 -0.00000000000E+00 -0.00000000000E+00 -0.27940974726E+02  0.27940974726E+02  0.00000000000E+00 0.  1.
          5    1    1    2  502    0 -0.65467300091E+01 -0.28327060279E+02  0.23665774566E+02  0.37720330111E+02  0.41800000000E+01 0.  1.
         -5    1    1    2    0  502 -0.38385503867E+02  0.10917285683E+03  0.29544450672E+03  0.31732804560E+03  0.41800000000E+01 0.  1.
        -11    1    1    2    0    0 -0.76895984945E+01 -0.68429585719E+02  0.30269830852E+03  0.31043196373E+03  0.00000000000E+00 0.  1.
         11    1    1    2    0    0  0.52621832370E+02 -0.12416210833E+02  0.11359890082E+03  0.12580910063E+03  0.00000000000E+00 0. -1.
</event>
<event>
 7    1  0.2989693E-009  0.7769704E+02  0.7561462E-02  0.1335717E+00
         -1   -1    0    0    0  501 -0.00000000000E+00  0.00000000000E+00  0.58774122351E+02  0.58774122351E+02  0.00000000000E+00 0.  1.
          1   -1    0    0  501    0  0.00000000000E+00 -0.00000000000E+00 -0.19903378126E+03  0.19903378126E+03  0.00000000000E+00 0. -1.
         25    2    1    2    0    0  0.37561774904E+01 -0.70957796621E+01 -0.88916945585E+02  0.15369102248E+03  0.12510095211E+03 0.  0.
          5    1    3    3  502    0 -0.34807998109E+02 -0.20382087260E+02 -0.10271409761E+03  0.11042954523E+03  0.41800000000E+01 0.  1.
         -5    1    3    3    0  502  0.38564175599E+02  0.13286307598E+02  0.13797152021E+02  0.43261477242E+02  0.41800000000E+01 0.  1.
        -11    1    1    2    0    0  0.32794768060E+02  0.15593891173E+02  0.47567096066E+01  0.36623660935E+02  0.00000000000E+00 0.  1.
         11    1    1    2    0    0 -0.36550945550E+02 -0.84981115106E+01 -0.56099422934E+02  0.67493220203E+02  0.00000000000E+00 0. -1.
</event>
<event>
 7    1  0.2989693E-009  0.9561211E+02  0.7561462E-02  0.1289803E+00
         -1   -1    0    0    0  501 -0.00000000000E+00  0.00000000000E+00  0.12811080732E+03  0.12811080732E+03  0.00000000000E+00 0.  1.
          1   -1    0    0  501    0  0.00000000000E+00 -0.00000000000E+00 -0.91219867742E+02  0.91219867742E+02  0.00000000000E+00 0. -1.
         25    2    1    2    0    0  0.58651160140E+01  0.18067599386E+01  0.65773845401E+01  0.12541525634E+03  0.12509220827E+03 0.  0.
          5    1    3    3  502    0 -0.27303839929E+02 -0.51778769918E+02  0.17672936190E+02  0.61289034603E+02  0.41800000000E+01 0.  1.
         -5    1    3    3    0  502  0.33168955943E+02  0.53585529856E+02 -0.11095551649E+02  0.64126221741E+02  0.41800000000E+01 0.  1.
        -11    1    1    2    0    0  0.21722660178E+02 -0.25156072934E+02  0.44109049917E+02  0.55229613934E+02  0.00000000000E+00 0.  1.
         11    1    1    2    0    0 -0.27587776192E+02  0.23349312996E+02 -0.13795494882E+02  0.38685804782E+02  0.00000000000E+00 0. -1.
</event>
<event>
 7    1  0.2989693E-009  0.9397242E+02  0.7561462E-02  0.1293507E+00
          2   -1    0    0  501    0  0.00000000000E+00  0.00000000000E+00  0.12642450082E+03  0.12642450082E+03  0.00000000000E+00 0. -1.
         -2   -1    0    0    0  501 -0.00000000000E+00 -0.00000000000E+00 -0.11118981304E+03  0.11118981304E+03  0.00000000000E+00 0.  1.
         25    2    1    2    0    0 -0.44398059326E+02  0.18574493707E+02  0.14688927335E+02  0.13483037558E+03  0.12508903272E+03 0.  0.
          5    1    3    3  502    0  0.97877413188E+01  0.61592729993E+02 -0.51998035679E+01  0.62721404842E+02  0.41800000000E+01 0. -1.
         -5    1    3    3    0  502 -0.54185800645E+02 -0.43018236286E+02  0.19888730903E+02  0.72108970743E+02  0.41800000000E+01 0. -1.
        -11    1    1    2    0    0  0.63166011495E+01 -0.16863338045E+02 -0.41976747221E+02  0.45676240294E+02  0.00000000000E+00 0.  1.
         11    1    1    2    0    0  0.38081458176E+02 -0.17111556627E+01  0.42522507672E+02  0.57107697986E+02  0.00000000000E+00 0. -1.
</event>
<event>
 7    1  0.2989693E-009  0.1265803E+03  0.7561462E-02  0.1232620E+00
         -2   -1    0    0    0  501 -0.00000000000E+00  0.00000000000E+00  0.12290754357E+03  0.12290754357E+03  0.00000000000E+00 0.  1.
          2   -1    0    0  501    0  0.00000000000E+00 -0.00000000000E+00 -0.17662697161E+03  0.17662697161E+03  0.00000000000E+00 0. -1.
         25    2    1    2    0    0  0.48233505408E+02  0.22348396631E+02  0.40179077549E+02  0.14173302205E+03  0.12509184382E+03 0.  0.
          5    1    3    3  502    0 -0.26360275336E+02  0.48337224266E+02  0.59259073096E+01  0.55533234581E+02  0.41800000000E+01 0.  1.
         -5    1    3    3    0  502  0.74593780744E+02 -0.25988827635E+02  0.34253170239E+02  0.86199787465E+02  0.41800000000E+01 0.  1.
        -11    1    1    2    0    0 -0.13169651869E+02 -0.63458113702E+02 -0.23239125056E+02  0.68850772388E+02  0.00000000000E+00 0.  1.
         11    1    1    2    0    0 -0.35063853539E+02  0.41109717071E+02 -0.70659380537E+02  0.88950720742E+02  0.00000000000E+00 0. -1.
</event>
<event>
 7    1  0.2989693E-009  0.7105492E+02  0.7561462E-02  0.1356542E+00
          3   -1    0    0  501    0  0.00000000000E+00  0.00000000000E+00  0.12611992989E+03  0.12611992989E+03  0.00000000000E+00 0. -1.
         -3   -1    0    0    0  501 -0.00000000000E+00 -0.00000000000E+00 -0.13255374947E+03  0.13255374947E+03  0.00000000000E+00 0.  1.
         25    2    1    2    0    0  0.48899250610E+01 -0.37693264111E+02  0.55097587000E+02  0.14187306562E+03  0.12509008405E+03 0.  0.
          5    1    3    3  502    0  0.10654017761E+02 -0.91492371143E+01 -0.39857390576E+02  0.42465287209E+02  0.41800000000E+01 0. -1.
         -5    1    3    3    0  502 -0.57640927002E+01 -0.28544026996E+02  0.94954977576E+02  0.99407778409E+02  0.41800000000E+01 0. -1.
        -11    1    1    2    0    0 -0.24709620326E+02 -0.23265590092E+02 -0.30301710656E+02  0.45497765744E+02  0.00000000000E+00 0.  1.
         11    1    1    2    0    0  0.19819695265E+02  0.60958854203E+02 -0.31229695924E+02  0.71302848005E+02  0.00000000000E+00 0. -1.
</event>
<event>
 7    1  0.2989693E-009  0.1205643E+03  0.7561462E-02  0.1242169E+00
          1   -1    0    0  501    0  0.00000000000E+00  0.00000000000E+00  0.74738175686E+03  0.74738175686E+03  0.00000000000E+00 0. -1.
         -1   -1    0    0    0  501 -0.00000000000E+00 -0.00000000000E+00 -0.25347946401E+02  0.25347946401E+02  0.00000000000E+00 0.  1.
         25    2    1    2    0    0 -0.43175962914E+02  0.64834662823E+02  0.30333168607E+03  0.33722770716E+03  0.12507884484E+03 0.  0.
          5    1    3    3  502    0 -0.75185655086E+02  0.24528303970E+02  0.10065542588E+03  0.12807617884E+03  0.41800000000E+01 0.  1.
         -5    1    3    3    0  502  0.32009692172E+02  0.40306358853E+02  0.20267626018E+03  0.20915152832E+03  0.41800000000E+01 0.  1.
        -11    1    1    2    0    0 -0.11140209330E+02 -0.53704663511E+02  0.29337721840E+03  0.29846019403E+03  0.00000000000E+00 0. -1.
         11    1    1    2    0    0  0.54316172245E+02 -0.11129999312E+02  0.12532490599E+03  0.13704180207E+03  0.00000000000E+00 0.  1.
</event>
<event>
 7    1  0.2989693E-009  0.1390418E+03  0.7561462E-02  0.1214624E+00
         -1   -1    0    0    0  501 -0.00000000000E+00  0.00000000000E+00  0.27721616926E+02  0.27721616926E+02  0.00000000000E+00 0.  1.
          1   -1    0    0  501    0  0.00000000000E+00 -0.00000000000E+00 -0.90346889498E+03  0.90346889498E+03  0.00000000000E+00 0. -1.
         25    2    1    2    0    0 -0.23539434158E+02  0.11032857113E+03 -0.47287708842E+03  0.50198292424E+03  0.12509043490E+03 0.  0.
          5    1    3    3  502    0 -0.30139560514E+02 -0.18879106893E+02 -0.67066253615E+02  0.76027419784E+02  0.41800000000E+01 0. -1.
         -5    1    3    3    0  502  0.66001263566E+01  0.12920767802E+03 -0.40581083481E+03  0.42595550445E+03  0.41800000000E+01 0. -1.
        -11    1    1    2    0    0  0.90413313235E+01 -0.47308772710E+02 -0.46261453817E+02  0.66783139764E+02  0.00000000000E+00 0.  1.
         11    1    1    2    0    0  0.14498102834E+02 -0.63019798419E+02 -0.35660873581E+03  0.36242444790E+03  0.00000000000E+00 0. -1.
</event>
<event>
 7    1  0.3374139E-009  0.1398393E+03  0.7561462E-02  0.1213545E+00
         -2   -1    0    0    0  501 -0.00000000000E+00  0.00000000000E+00  0.82481527457E+02  0.82481527457E+02  0.00000000000E+00 0.  1.
          2   -1    0    0  501    0  0.00000000000E+00 -0.00000000000E+00 -0.34027776122E+03  0.34027776122E+03  0.00000000000E+00 0. -1.
         25    2    1    2    0    0  0.10447358898E+03 -0.72259956152E+02 -0.12932054570E+03  0.22024400033E+03  0.12508950430E+03 0.  0.
          5    1    3    3  502    0  0.81172088098E+02 -0.21234475188E+02 -0.54312527509E+01  0.84183025184E+02  0.41800000000E+01 0. -1.
         -5    1    3    3    0  502  0.23301500877E+02 -0.51025480965E+02 -0.12388929295E+03  0.13606097515E+03  0.41800000000E+01 0. -1.
        -11    1    1    2    0    0 -0.90703272411E+02  0.30888712228E+02 -0.39909604782E+02  0.10379774912E+03  0.00000000000E+00 0.  1.
         11    1    1    2    0    0 -0.13770316564E+02  0.41371243924E+02 -0.88566083283E+02  0.98717539222E+02  0.00000000000E+00 0. -1.
</event>
<event>
 7    1  0.2989693E-009  0.1043728E+03  0.7561462E-02  0.1271360E+00
         -2   -1    0    0    0  501 -0.00000000000E+00  0.00000000000E+00  0.92536109307E+02  0.92536109307E+02  0.00000000000E+00 0.  1.
          2   -1    0    0  501    0  0.00000000000E+00 -0.00000000000E+00 -0.15682007410E+03  0.15682007410E+03  0.00000000000E+00 0. -1.
         25    2    1    2    0    0  0.35877582729E+02 -0.22632418993E+02 -0.47874543486E+01  0.13217509586E+03  0.12509160210E+03 0.  0.
          5    1    3    3  502    0  0.48852383513E+02 -0.68448659536E+02 -0.71336929476E+00  0.84200686831E+02  0.41800000000E+01 0. -1.
         -5    1    3    3    0  502 -0.12974800784E+02  0.45816240543E+02 -0.40740850538E+01  0.47974409031E+02  0.41800000000E+01 0. -1.
        -11    1    1    2    0    0 -0.18520635459E+02  0.44867247069E+02 -0.71587248805E+02  0.86491722083E+02  0.00000000000E+00 0.  1.
         11    1    1    2    0    0 -0.17356947270E+02 -0.22234828076E+02  0.12090738363E+02  0.30689365459E+02  0.00000000000E+00 0. -1.
</event>
<event>
 7    1  0.2989693E-009  0.2334102E+03  0.7561462E-02  0.1124262E+00
          1   -1    0    0  501    0  0.00000000000E+00  0.00000000000E+00  0.25702597095E+03  0.25702597095E+03  0.00000000000E+00 0. -1.
         -1   -1    0    0    0  501 -0.00000000000E+00 -0.00000000000E+00 -0.25382468926E+03  0.25382468926E+03  0.00000000000E+00 0.  1.
         25    2    1    2    0    0 -0.22456470226E+03 -0.12206869094E+02  0.55337443926E+02  0.26322538185E+03  0.12508819206E+03 0.  0.
          5    1    3    3  502    0 -0.16595604118E+02 -0.21963471420E+01 -0.32822701545E+02  0.37081533862E+02  0.41800000000E+01 0. -1.
         -5    1    3    3    0  502 -0.20796909814E+03 -0.10010521952E+02  0.88160145471E+02  0.22614384798E+03  0.41800000000E+01 0. -1.
        -11    1    1    2    0    0  0.10225361176E+03 -0.38018303974E+02 -0.13824792041E+02  0.10996507368E+03  0.00000000000E+00 0. -1.
         11    1    1    2    0    0  0.12231109050E+03  0.50225173068E+02 -0.38311370196E+02  0.13766020469E+03  0.00000000000E+00 0.  1.
</event>
<event>
 7    1  0.2989693E-009  0.9290039E+02  0.7561462E-02  0.1295976E+00
         -2   -1    0    0    0  501 -0.00000000000E+00  0.00000000000E+00  0.98419629944E+02  0.98419629944E+02  0.00000000000E+00 0.  1.
          2   -1    0    0  501    0  0.00000000000E+00 -0.00000000000E+00 -0.13787946207E+03  0.13787946207E+03  0.00000000000E+00 0. -1.
         25    2    1    2    0    0  0.56789217343E+02  0.10677138262E+02 -0.59315398002E+02  0.15001201940E+03  0.12508506320E+03 0.  0.
          5    1    3    3  502    0  0.80142337854E+02  0.10285839781E+02 -0.83404424927E+02  0.11619967003E+03  0.41800000000E+01 0. -1.
         -5    1    3    3    0  502 -0.23353120510E+02  0.39129848054E+00  0.24089026925E+02  0.33812349375E+02  0.41800000000E+01 0. -1.
        -11    1    1    2    0    0  0.31103241111E+01  0.15490475290E+02  0.13191007455E+02  0.20582313244E+02  0.00000000000E+00 0.  1.
         11    1    1    2    0    0 -0.59899541455E+02 -0.26167613552E+02  0.66645584168E+01  0.65704759374E+02  0.00000000000E+00 0. -1.
</event>
<event>
 7    1  0.2989693E-009  0.2068076E+03  0.7561462E-02  0.1144119E+00
          2   -1    0    0  501    0  0.00000000000E+00  0.00000000000E+00  0.71144476540E+03  0.71144476540E+03  0.00000000000E+00 0. -1.
         -2   -1    0    0    0  501 -0.00000000000E+00 -0.00000000000E+00 -0.93767470437E+02  0.93767470437E+02  0.00000000000E+00 0.  1.
         25    2    1    2    0    0  0.72241335261E+02  0.17484941231E+03  0.53343456295E+03  0.57964836462E+03  0.12509462881E+03 0.  0.
          5    1    3    3  502    0  0.79793123645E+02  0.56955965659E+02  0.33088830733E+03  0.34513108949E+03  0.41800000000E+01 0.  1.
         -5    1    3    3    0  502 -0.75517883838E+01  0.11789344665E+03  0.20254625562E+03  0.23451727513E+03  0.41800000000E+01 0.  1.
        -11    1    1    2    0    0 -0.58976188729E+02 -0.69719081691E+02  0.76833527782E+02  0.11934124258E+03  0.00000000000E+00 0. -1.
         11    1    1    2    0    0 -0.13265146532E+02 -0.10513033061E+03  0.74092042347E+01  0.10622262864E+03  0.00000000000E+00 0.  1.
</event>
<event>
 7    1  0.2989693E-009  0.2214023E+03  0.7561462E-02  0.1132842E+00
          4   -1    0    0  501    0  0.00000000000E+00  0.00000000000E+00  0.18248971660E+03  0.18248971660E+03  0.00000000000E+00 0. -1.
         -4   -1    0    0    0  501 -0.00000000000E+00 -0.00000000000E+00 -0.31103773316E+03  0.31103773316E+03  0.00000000000E+00 0.  1.
         25    2    1    2    0    0  0.20297910469E+03  0.28967303052E+02 -0.12136941299E+03  0.26910569306E+03  0.12509083915E+03 0.  0.
          5    1    3    3  502    0  0.39607156540E+02 -0.30165095770E+02 -0.73440158732E+02  0.88823359352E+02  0.41800000000E+01 0.  1.
         -5    1    3    3    0  502  0.16337194815E+03  0.59132398823E+02 -0.47929254263E+02  0.18028233371E+03  0.41800000000E+01 0.  1.
        -11    1    1    2    0    0 -0.84189949267E+02 -0.50715409849E+02 -0.27269951576E+02  0.10199828730E+03  0.00000000000E+00 0.  1.
         11    1    1    2    0    0 -0.11878915542E+03  0.21748106796E+02  0.20091348011E+02  0.12242346940E+03  0.00000000000E+00 0. -1.
</event>
<event>
 7    1  0.2989693E-009  0.1840592E+03  0.7561462E-02  0.1163931E+00
         -1   -1    0    0    0  501 -0.00000000000E+00  0.00000000000E+00  0.33099791588E+03  0.33099791588E+03  0.00000000000E+00 0.  1.
          1   -1    0    0  501    0  0.00000000000E+00 -0.00000000000E+00 -0.20082651007E+03  0.20082651007E+03  0.00000000000E+00 0. -1.
         25    2    1    2    0    0 -0.14746792098E+03  0.73094627430E+02 -0.10336805421E+03  0.23113314533E+03  0.12509182213E+03 0.  0.
          5    1    3    3  502    0 -0.15224196883E+03  0.29438567470E+02 -0.10444715156E+03  0.18700515019E+03  0.41800000000E+01 0.  1.
         -5    1    3    3    0  502  0.47740478560E+01  0.43656059960E+02  0.10790973527E+01  0.44127995142E+02  0.41800000000E+01 0.  1.
        -11    1    1    2    0    0  0.10374526586E+03 -0.31210896935E+02  0.77180646054E+02  0.13301899263E+03  0.00000000000E+00 0. -1.
         11    1    1    2    0    0  0.43722655116E+02 -0.41883730495E+02  0.15635881397E+03  0.16767228798E+03  0.00000000000E+00 0.  1.
</event>
<event>
 7    1  0.2989693E-009  0.2367509E+03  0.7561462E-02  0.1121976E+00
          2   -1    0    0  501    0  0.00000000000E+00  0.00000000000E+00  0.21819637263E+04  0.21819637263E+04  0.00000000000E+00 0. -1.
         -2   -1    0    0    0  501 -0.00000000000E+00 -0.00000000000E+00 -0.37340865590E+02  0.37340865590E+02  0.00000000000E+00 0.  1.
         25    2    1    2    0    0  0.89559547487E+02 -0.19668185463E+03  0.16884312125E+04  0.17067967415E+04  0.12510193032E+03 0.  0.
          5    1    3    3  502    0 -0.83428047592E+01 -0.12220133206E+03  0.68903174629E+03  0.69984640296E+03  0.41800000000E+01 0.  1.
         -5    1    3    3    0  502  0.97902352246E+02 -0.74480522572E+02  0.99939946622E+03  0.10069503385E+04  0.41800000000E+01 0.  1.
        -11    1    1    2    0    0 -0.40571182033E+02  0.21414763190E+02  0.52672742425E+02  0.69850058616E+02  0.00000000000E+00 0. -1.
         11    1    1    2    0    0 -0.48988365454E+02  0.17526709144E+03  0.40351890581E+03  0.44265779179E+03  0.00000000000E+00 0.  1.
</event>
<event>
 7    1  0.2989693E-009  0.8238723E+02  0.7561462E-02  0.1322410E+00
         -1   -1    0    0    0  501 -0.00000000000E+00  0.00000000000E+00  0.15897346404E+03  0.15897346404E+03  0.00000000000E+00 0.  1.
          1   -1    0    0  501    0  0.00000000000E+00 -0.00000000000E+00 -0.10108913431E+03  0.10108913431E+03  0.00000000000E+00 0. -1.
         25    2    1    2    0    0 -0.38751990603E+02  0.52406420875E+02  0.43063323049E+02  0.14747872056E+03  0.12508946199E+03 0.  0.
          5    1    3    3  502    0 -0.68573740707E+01  0.28983092425E+02 -0.43108618069E+02  0.52562996276E+02  0.41800000000E+01 0. -1.
         -5    1    3    3    0  502 -0.31894616532E+02  0.23423328450E+02  0.86171941118E+02  0.94915724280E+02  0.41800000000E+01 0. -1.
        -11    1    1    2    0    0 -0.71423280563E+01 -0.48305046254E+02 -0.22042828123E+02  0.53574962579E+02  0.00000000000E+00 0. -1.
         11    1    1    2    0    0  0.45894318659E+02 -0.41013746211E+01  0.36863834802E+02  0.59008915219E+02  0.00000000000E+00 0.  1.
</event>
<event>
 7    1  0.2989693E-009  0.1608961E+03  0.7561462E-02  0.1187689E+00
          1   -1    0    0  501    0  0.00000000000E+00  0.00000000000E+00  0.11173986309E+03  0.11173986309E+03  0.00000000000E+00 0. -1.
         -1   -1    0    0    0  501 -0.00000000000E+00 -0.00000000000E+00 -0.37570490046E+03  0.37570490046E+03  0.00000000000E+00 0.  1.
         25    2    1    2    0    0  0.11726883937E+03 -0.78662202047E+02 -0.18926620349E+02  0.18959237533E+03  0.12508928454E+03 0.  0.
          5    1    3    3  502    0  0.13307351516E+03 -0.81555840840E+02 -0.41516276335E+02  0.16155800572E+03  0.41800000000E+01 0.  1.
         -5    1    3    3    0  502 -0.15804675783E+02  0.28936387935E+01  0.22589655986E+02  0.28034369613E+02  0.41800000000E+01 0.  1.
        -11    1    1    2    0    0 -0.72322098232E+02  0.19775011123E+02 -0.19374686880E+03  0.20774837214E+03  0.00000000000E+00 0.  1.
         11    1    1    2    0    0 -0.44946741141E+02  0.58887190924E+02 -0.51291548223E+02  0.90104016077E+02  0.00000000000E+00 0. -1.
</event>
<event>
 7    1  0.2989693E-009  0.1083401E+03  0.7561462E-02  0.1263675E+00
          1   -1    0    0  501    0  0.00000000000E+00  0.00000000000E+00  0.10065987592E+04  0.10065987592E+04  0.00000000000E+00 0. -1.
         -1   -1    0    0    0  501 -0.00000000000E+00 -0.00000000000E+00 -0.20548355256E+02  0.20548355256E+02  0.00000000000E+00 0.  1.
         25    2    1    2    0    0  0.56348204494E+02  0.68433375386E+02  0.43040746639E+03  0.45689800874E+03  0.12508779416E+03 0.  0.
          5    1    3    3  502    0  0.26743795921E+02  0.33325702699E+02  0.39853709115E+03  0.40084300979E+03  0.41800000000E+01 0. -1.
         -5    1    3    3    0  502  0.29604408573E+02  0.35107672687E+02  0.31870375239E+02  0.56054998941E+02  0.41800000000E+01 0. -1.
        -11    1    1    2    0    0  0.65558638213E+01  0.18899593865E+02  0.10907616625E+03  0.11089537431E+03  0.00000000000E+00 0. -1.
         11    1    1    2    0    0 -0.62904068315E+02 -0.87332969251E+02  0.44656677133E+03  0.45935373144E+03  0.00000000000E+00 0.  1.
</event>
<event>
 7    1  0.2989693E-009  0.6561490E+02  0.7561462E-02  0.1375673E+00
          1   -1    0    0  501    0  0.00000000000E+00  0.00000000000E+00  0.16243936075E+03  0.16243936075E+03  0.00000000000E+00 0. -1.
         -1   -1    0    0    0  501 -0.00000000000E+00 -0.00000000000E+00 -0.80813122036E+02  0.80813122036E+02  0.00000000000E+00 0.  1.
         25    2    1    2    0    0 -0.10920517370E+02  0.37549912395E+02  0.50810416496E+02  0.14055728765E+03  0.12508156965E+03 0.  0.
          5    1    3    3  502    0  0.10347315927E+02  0.25069141582E+02 -0.38799329717E+02  0.47522512487E+02  0.41800000000E+01 0. -1.
         -5    1    3    3    0  502 -0.21267833297E+02  0.12480770813E+02  0.89609746213E+02  0.93034775163E+02  0.41800000000E+01 0. -1.
        -11    1    1    2    0    0  0.40069277300E+02 -0.20504672102E+02  0.47150040379E+02  0.65185235054E+02  0.00000000000E+00 0.  1.
         11    1    1    2    0    0 -0.29148759930E+02 -0.17045240292E+02 -0.16334218163E+02  0.37509960078E+02  0.00000000000E+00 0. -1.
</event>
<event>
 7    1  0.2989693E-009  0.5911803E+02  0.7561462E-02  0.1401571E+00
         -1   -1    0    0    0  501 -0.00000000000E+00  0.00000000000E+00  0.35715514488E+03  0.35715514488E+03  0.00000000000E+00 0.  1.
          1   -1    0    0  501    0  0.00000000000E+00 -0.00000000000E+00 -0.47928981993E+02  0.47928981993E+02  0.00000000000E+00 0. -1.
         25    2    1    2    0    0  0.55448789239E+01  0.35074078321E+02  0.26825006522E+03  0.29810477133E+03  0.12508965004E+03 0.  0.
          5    1    3    3  502    0  0.27009018198E+02  0.40376732356E+02  0.27107688574E+03  0.27542679239E+03  0.41800000000E+01 0. -1.
         -5    1    3    3    0  502 -0.21464139274E+02 -0.53026540353E+01 -0.28268205271E+01  0.22677978942E+02  0.41800000000E+01 0. -1.
        -11    1    1    2    0    0 -0.16759481986E+02 -0.30629371431E+02  0.68523813214E+02  0.76906122045E+02  0.00000000000E+00 0.  1.
         11    1    1    2    0    0  0.11214603062E+02 -0.44447068901E+01 -0.27547715546E+02  0.30073233497E+02  0.00000000000E+00 0. -1.
</event>
<event>
 7    1  0.2989693E-009  0.8128890E+02  0.7561462E-02  0.1325433E+00
         -1   -1    0    0    0  501 -0.00000000000E+00  0.00000000000E+00  0.66134758675E+02  0.66134758675E+02  0.00000000000E+00 0.  1.
          1   -1    0    0  501    0  0.00000000000E+00 -0.00000000000E+00 -0.19528519674E+03  0.19528519674E+03  0.00000000000E+00 0. -1.
         25    2    1    2    0    0 -0.19803095335E+01 -0.20582972576E+02 -0.10892915569E+03  0.16715600050E+03  0.12509191483E+03 0.  0.
          5    1    3    3  502    0 -0.40722863642E+02  0.57771467446E+01 -0.11261703144E+03  0.11996580854E+03  0.41800000000E+01 0.  1.
         -5    1    3    3    0  502  0.38742554108E+02 -0.26360119320E+02  0.36878757514E+01  0.47190191957E+02  0.41800000000E+01 0.  1.
        -11    1    1    2    0    0 -0.34457185869E+02  0.13842824205E+02 -0.38028620773E+02  0.53151645674E+02  0.00000000000E+00 0. -1.
         11    1    1    2    0    0  0.36437495403E+02  0.67401483705E+01  0.17807338393E+02  0.41112309250E+02  0.00000000000E+00 0.  1.
</event>
<event>
 7    1  0.2989693E-009  0.1116160E+03  0.7561462E-02  0.1257606E+00
         -1   -1    0    0    0  501 -0.00000000000E+00  0.00000000000E+00  0.24361380416E+02  0.24361380416E+02  0.00000000000E+00 0.  1.
          1   -1    0    0  501    0  0.00000000000E+00 -0.00000000000E+00 -0.63955737945E+03  0.63955737945E+03  0.00000000000E+00 0. -1.
         25    2    1    2    0    0 -0.35941288295E+02  0.41670364774E+02 -0.32714562920E+03  0.35454358293E+03  0.12509474004E+03 0.  0.
          5    1    3    3  502    0 -0.14336905888E+02  0.78311606245E+02 -0.12748997906E+03  0.15036429664E+03  0.41800000000E+01 0.  1.
         -5    1    3    3    0  502 -0.21604382408E+02 -0.36641241471E+02 -0.19965565014E+03  0.20417928629E+03  0.41800000000E+01 0.  1.
        -11    1    1    2    0    0 -0.20520723092E+02 -0.39206643469E+02 -0.19933196954E+03  0.20418495304E+03  0.00000000000E+00 0. -1.
         11    1    1    2    0    0  0.56462011387E+02 -0.24637213045E+01 -0.88718400293E+02  0.10519022389E+03  0.00000000000E+00 0.  1.
</event>
<event>
 7    1  0.2989693E-009  0.1996466E+03  0.7561462E-02  0.1150038E+00
         -2   -1    0    0    0  501 -0.00000000000E+00  0.00000000000E+00  0.28568927196E+03  0.28568927196E+03  0.00000000000E+00 0.  1.
          2   -1    0    0  501    0  0.00000000000E+00 -0.00000000000E+00 -0.29909421545E+03  0.29909421545E+03  0.00000000000E+00 0. -1.
         25    2    1    2    0    0  0.13339839432E+03 -0.96639402859E+02 -0.22016346699E+03  0.30207442436E+03  0.12507077940E+03 0.  0.
          5    1    3    3  502    0 -0.58939178686E+01 -0.63060027745E+02 -0.66220327959E+02  0.91727365611E+02  0.41800000000E+01 0. -1.
         -5    1    3    3    0  502  0.13929231219E+03 -0.33579375114E+02 -0.15394313903E+03  0.21034705875E+03  0.41800000000E+01 0. -1.
        -11    1    1    2    0    0 -0.31163308813E+02 -0.20266711873E+02  0.46705113670E+02  0.59693040376E+02  0.00000000000E+00 0.  1.
         11    1    1    2    0    0 -0.10223508550E+03  0.11690611473E+03  0.16005340983E+03  0.22301602267E+03  0.00000000000E+00 0. -1.
</event>
<event>
 7    1  0.2989693E-009  0.6721517E+02  0.7561462E-02  0.1369827E+00
          1   -1    0    0  501    0  0.00000000000E+00  0.00000000000E+00  0.11644556438E+03  0.11644556438E+03  0.00000000000E+00 0. -1.
         -1   -1    0    0    0  501 -0.00000000000E+00 -0.00000000000E+00 -0.10739507000E+03  0.10739507000E+03  0.00000000000E+00 0.  1.
         25    2    1    2    0    0  0.75830329027E+01 -0.19859099937E+02  0.11936777719E+02  0.12747272342E+03  0.12511963201E+03 0.  0.
          5    1    3    3  502    0  0.97297909590E+00 -0.33557320844E+02 -0.51769182537E+02  0.61843036238E+02  0.41800000000E+01 0.  1.
         -5    1    3    3    0  502  0.66100538068E+01  0.13698220907E+02  0.63705960255E+02  0.65629687181E+02  0.41800000000E+01 0.  1.
        -11    1    1    2    0    0  0.34509783697E+02  0.24725047268E+02  0.21385868772E+02  0.47535339657E+02  0.00000000000E+00 0. -1.
         11    1    1    2    0    0 -0.42092816599E+02 -0.48659473312E+01 -0.24272152107E+02  0.48832571309E+02  0.00000000000E+00 0.  1.
</event>
<event>
 7    1  0.2989693E-009  0.1188680E+03  0.7561462E-02  0.1244976E+00
          1   -1    0    0  501    0  0.00000000000E+00  0.00000000000E+00  0.71659995063E+03  0.71659995063E+03  0.00000000000E+00 0. -1.
         -1   -1    0    0    0  501 -0.00000000000E+00 -0.00000000000E+00 -0.20076838801E+02  0.20076838801E+02  0.00000000000E+00 0.  1.
         25    2    1    2    0    0 -0.30928402289E+02  0.40025573525E+02  0.41832453681E+03  0.43954733709E+03  0.12509129001E+03 0.  0.
          5    1    3    3  502    0 -0.76403963951E+02  0.60774253965E+01  0.26939380723E+03  0.28011604127E+03  0.41800000000E+01 0. -1.
         -5    1    3    3    0  502  0.45475561663E+02  0.33948148128E+02  0.14893072959E+03  0.15943129581E+03  0.41800000000E+01 0. -1.
        -11    1    1    2    0    0  0.39922960036E+02  0.19107772615E+02  0.12934485533E+03  0.13670786851E+03  0.00000000000E+00 0. -1.
         11    1    1    2    0    0 -0.89945577473E+01 -0.59133346140E+02  0.14885371969E+03  0.16042158383E+03  0.00000000000E+00 0.  1.
</event>
<event>
 6    1  0.2989693E-009  0.8223152E+02  0.7561462E-02  0.1322835E+00
         -3   -1    0    0    0  501 -0.00000000000E+00  0.00000000000E+00  0.57035705126E+02  0.57035705126E+02  0.00000000000E+00 0.  1.
          3   -1    0    0  501    0  0.00000000000E+00 -0.00000000000E+00 -0.25652850810E+03  0.25652850810E+03  0.00000000000E+00 0. -1.
          5    1    1    2  502    0  0.60306262755E+01  0.15186855498E+02 -0.92568752040E+02  0.94092801464E+02  0.41800000000E+01 0. -1.
         -5    1    1    2    0  502 -0.52314653380E+02 -0.32666584908E+02  0.11489122792E+02  0.62876077091E+02  0.41800000000E+01 0. -1.
        -11    1    1    2    0    0  0.30713950420E+01  0.37872038653E+02 -0.11836440427E+02  0.39797312739E+02  0.00000000000E+00 0.  1.
         11    1    1    2    0    0  0.43212632063E+02 -0.20392309244E+02 -0.10657673330E+03  0.11679802193E+03  0.00000000000E+00 0. -1.
</event>
<event>
 7    1  0.2989693E-009  0.1394769E+03  0.7561462E-02  0.1214035E+00
         -2   -1    0    0    0  501 -0.00000000000E+00  0.00000000000E+00  0.30073051013E+02  0.30073051013E+02  0.00000000000E+00 0.  1.
          2   -1    0    0  501    0  0.00000000000E+00 -0.00000000000E+00 -0.66182830245E+03  0.66182830245E+03  0.00000000000E+00 0. -1.
         25    2    1    2    0    0 -0.69892548526E+02  0.54789598575E+02 -0.33116602441E+03  0.36497355948E+03  0.12509154626E+03 0.  0.
          5    1    3    3  502    0 -0.69646827950E+02 -0.23260621597E+02 -0.13357224140E+03  0.15248197675E+03  0.41800000000E+01 0. -1.
         -5    1    3    3    0  502 -0.24572057664E+00  0.78050220172E+02 -0.19759378301E+03  0.21249158273E+03  0.41800000000E+01 0. -1.
        -11    1    1    2    0    0  0.38744362515E+02 -0.78870185231E+02 -0.22802777608E+03  0.24437327679E+03  0.00000000000E+00 0. -1.
         11    1    1    2    0    0  0.31148186011E+02  0.24080586656E+02 -0.72561450943E+02  0.82554517190E+02  0.00000000000E+00 0.  1.
</event>
<event>
 7    1  0.2989693E-009  0.9275385E+02  0.7561462E-02  0.1296317E+00
          2   -1    0    0  501    0  0.00000000000E+00  0.00000000000E+00  0.11230682510E+03  0.11230682510E+03  0.00000000000E+00 0.  1.
         -2   -1    0    0    0  501 -0.00000000000E+00 -0.00000000000E+00 -0.14373707270E+03  0.14373707270E+03  0.00000000000E+00 0. -1.
         25    2    1    2    0    0 -0.16333956489E+02  0.24832475240E+02  0.39231767728E+02  0.13442773647E+03  0.12509290456E+03 0.  0.
          5    1    3    3  502    0  0.39885071987E+02  0.18760787105E+02  0.59542471118E+02  0.74199490342E+02  0.41800000000E+01 0.  1.
         -5    1    3    3    0  502 -0.56219028476E+02  0.60716881351E+01 -0.20310703389E+02  0.60228246128E+02  0.41800000000E+01 0.  1.
        -11    1    1    2    0    0 -0.26429007839E+02 -0.31645661940E+02 -0.30718407368E+01  0.41344607635E+02  0.00000000000E+00 0.  1.
         11    1    1    2    0    0  0.42762964328E+02  0.68131867001E+01 -0.67590174594E+02  0.80271553696E+02  0.00000000000E+00 0. -1.
</event>
<event>
 7    1  0.2989693E-009  0.1071626E+03  0.7561462E-02  0.1265916E+00
         -1   -1    0    0    0  501 -0.00000000000E+00  0.00000000000E+00  0.40285220212E+03  0.40285220212E+03  0.00000000000E+00 0.  1.
          1   -1    0    0  501    0  0.00000000000E+00 -0.00000000000E+00 -0.40597293403E+02  0.40597293403E+02  0.00000000000E+00 0. -1.
         25    2    1    2    0    0 -0.52595675467E+02  0.41229207736E+02  0.22246761758E+03  0.26382894328E+03  0.12509083817E+03 0.  0.
          5    1    3    3  502    0  0.27261634070E+02  0.39246184874E+02  0.14398883633E+03  0.15176863018E+03  0.41800000000E+01 0. -1.
         -5    1    3    3    0  502 -0.79857309537E+02  0.19830228627E+01  0.78478781242E+02  0.11206031310E+03  0.41800000000E+01 0. -1.
        -11    1    1    2    0    0  0.12129922810E+02 -0.44158575141E+02  0.14665419602E+02  0.48085229727E+02  0.00000000000E+00 0. -1.
         11    1    1    2    0    0  0.40465752657E+02  0.29293674043E+01  0.12512187154E+03  0.13153532252E+03  0.00000000000E+00 0.  1.
</event>
<event>
 7    1  0.2989693E-009  0.2822874E+03  0.7561462E-02  0.1094446E+00
          1   -1    0    0  501    0  0.00000000000E+00  0.00000000000E+00  0.12074491200E+04  0.12074491200E+04  0.00000000000E+00 0. -1.
         -1   -1    0    0    0  501 -0.00000000000E+00 -0.00000000000E+00 -0.88486689896E+02  0.88486689896E+02  0.00000000000E+00 0.  1.
         25    2    1    2    0    0  0.13418806184E+03 -0.24678814180E+03  0.30539008902E+03  0.43338358646E+03  0.12508958257E+03 0.  0.
          5    1    3    3  502    0  0.12468009416E+03 -0.20274389732E+03  0.30654017357E+03  0.38811668889E+03  0.41800000000E+01 0.  1.
         -5    1    3    3    0  502  0.95079676818E+01 -0.44044244481E+02 -0.11500845507E+01  0.45266897573E+02  0.41800000000E+01 0.  1.
        -11    1    1    2    0    0 -0.30550514703E+02  0.44439074194E+02  0.99662227349E+02  0.11331692205E+03  0.00000000000E+00 0.  1.
         11    1    1    2    0    0 -0.10363754714E+03  0.20234906761E+03  0.71391011369E+03  0.74923530133E+03  0.00000000000E+00 0. -1.
</event>
<event>
 7    1  0.2989693E-009  0.1935128E+03  0.7561462E-02  0.1155331E+00
          1   -1    0    0  501    0  0.00000000000E+00  0.00000000000E+00  0.40520093863E+02  0.40520093863E+02  0.00000000000E+00 0. -1.
         -1   -1    0    0    0  501 -0.00000000000E+00 -0.00000000000E+00 -0.15012662587E+04  0.15012662587E+04  0.00000000000E+00 0.  1.
         25    2    1    2    0    0 -0.16064212129E+03  0.87077676643E+02 -0.11507280850E+04  0.11718407963E+04  0.12508922149E+03 0.  0.
          5    1    3    3  502    0 -0.89075190903E+02  0.29146970650E+02 -0.26095375872E+03  0.27730537701E+03  0.41800000000E+01 0. -1.
         -5    1    3    3    0  502 -0.71566930391E+02  0.57930705994E+02 -0.88977432628E+03  0.89453541927E+03  0.41800000000E+01 0. -1.
        -11    1    1    2    0    0  0.94302727134E+02 -0.35449191258E+01 -0.16225195470E+03  0.18769994033E+03  0.00000000000E+00 0.  1.
         11    1    1    2    0    0  0.66339394160E+02 -0.83532757517E+02 -0.14776612518E+03  0.18224561599E+03  0.00000000000E+00 0. -1.
</event>
<event>
 7    1  0.2989693E-009  0.8126736E+02  0.7561462E-02  0.1325493E+00
         -1   -1    0    0    0  501 -0.00000000000E+00  0.00000000000E+00  0.63637585396E+02  0.63637585396E+02  0.00000000000E+00 0.  1.
          1   -1    0    0  501    0  0.00000000000E+00 -0.00000000000E+00 -0.27060443168E+03  0.27060443168E+03  0.00000000000E+00 0. -1.
         25    2    1    2    0    0  0.42198994359E+02 -0.17649760890E+02 -0.18729378182E+03  0.22982183570E+03  0.12508735457E+03 0.  0.
          5    1    3    3  502    0 -0.19629149423E+02 -0.12408397479E+02  0.79608956685E+01  0.24902210643E+02  0.41800000000E+01 0. -1.
         -5    1    3    3    0  502  0.61828143782E+02 -0.52413634103E+01 -0.19525467748E+03  0.20491962506E+03  0.41800000000E+01 0. -1.
        -11    1    1    2    0    0 -0.58382784167E+02  0.15634613114E+02  0.18253161230E+02  0.63136110977E+02  0.00000000000E+00 0.  1.
         11    1    1    2    0    0  0.16183789808E+02  0.20151477753E+01 -0.37926225694E+02  0.41284070397E+02  0.00000000000E+00 0. -1.
</event>
<event>
 7    1  0.2989693E-009  0.1171062E+03  0.7561462E-02  0.1247949E+00
          1   -1    0    0  501    0  0.00000000000E+00  0.00000000000E+00  0.63094161826E+03  0.63094161826E+03  0.00000000000E+00 0. -1.
         -1   -1    0    0    0  501 -0.00000000000E+00 -0.00000000000E+00 -0.28545996085E+02  0.28545996085E+02  0.00000000000E+00 0.  1.
         25    2    1    2    0    0 -0.74373875304E+02  0.56839073230E+00  0.39631063491E+03  0.42218814512E+03  0.12509561997E+03 0.  0.
          5    1    3    3  502    0 -0.36655298228E+02 -0.51684479067E+02  0.96625375026E+02  0.11562366437E+03  0.41800000000E+01 0.  1.
         -5    1    3    3    0  502 -0.37718577077E+02  0.52252869800E+02  0.29968525989E+03  0.30656448074E+03  0.41800000000E+01 0.  1.
        -11    1    1    2    0    0  0.60107154247E+02  0.33772556788E+02  0.17742588519E+03  0.19035072976E+03  0.00000000000E+00 0. -1.
         11    1    1    2    0    0  0.14266721057E+02 -0.34340947520E+02  0.28659102071E+02  0.46948739470E+02  0.00000000000E+00 0.  1.
</event>
<event>
 7    1  0.2989693E-009  0.2294835E+03  0.7561462E-02  0.1127004E+00
          1   -1    0    0  501    0  0.00000000000E+00  0.00000000000E+00  0.12316819963E+04  0.12316819963E+04  0.00000000000E+00 0. -1.
         -1   -1    0    0    0  501 -0.00000000000E+00 -0.00000000000E+00 -0.65102199662E+02  0.65102199662E+02  0.00000000000E+00 0.  1.
         25    2    1    2    0    0 -0.15722730908E+03  0.13887640996E+03  0.24024883364E+03  0.34259971012E+03  0.12509186762E+03 0.  0.
          5    1    3    3  502    0 -0.16892967004E+03  0.15027360107E+03  0.21360753229E+03  0.31107079395E+03  0.41800000000E+01 0.  1.
         -5    1    3    3    0  502  0.11702360963E+02 -0.11397191106E+02  0.26641301356E+02  0.31528916174E+02  0.41800000000E+01 0.  1.
        -11    1    1    2    0    0  0.14896518450E+03 -0.10796868992E+03  0.87145358544E+03  0.89066223439E+03  0.00000000000E+00 0. -1.
         11    1    1    2    0    0  0.82621245832E+01 -0.30907720045E+02  0.54877377526E+02  0.63522251418E+02  0.00000000000E+00 0.  1.
</event>
<event>
 7    1  0.2989693E-009  0.1471170E+03  0.7561462E-02  0.1204061E+00
          2   -1    0    0  501    0  0.00000000000E+00  0.00000000000E+00  0.43852629909E+03  0.43852629909E+03  0.00000000000E+00 0. -1.
         -2   -1    0    0    0  501 -0.00000000000E+00 -0.00000000000E+00 -0.53061081398E+02  0.53061081398E+02  0.00000000000E+00 0.  1.
         25    2    1    2    0    0  0.10844810159E+03 -0.11404204842E+01  0.21215861448E+03  0.26911601064E+03  0.12509939322E+03 0.  0.
          5    1    3    3  502    0  0.15120830315E+02 -0.48460563800E+02  0.11704335075E+03  0.12764671601E+03  0.41800000000E+01 0. -1.
         -5    1    3    3    0  502  0.93327271280E+02  0.47320143316E+02  0.95115263735E+02  0.14146929463E+03  0.41800000000E+01 0. -1.
        -11    1    1    2    0    0 -0.67302159245E+02 -0.41702019677E+02  0.86247464291E+02  0.11707802604E+03  0.00000000000E+00 0.  1.
         11    1    1    2    0    0 -0.41145942350E+02  0.42842440161E+02  0.87059138916E+02  0.10539334381E+03  0.00000000000E+00 0. -1.
</event>
<event>
 7    1  0.2989693E-009  0.1345210E+03  0.7561462E-02  0.1220898E+00
         -2   -1    0    0    0  501 -0.00000000000E+00  0.00000000000E+00  0.42710988734E+02  0.42710988734E+02  0.00000000000E+00 0. -1.
          2   -1    0    0  501    0  0.00000000000E+00 -0.00000000000E+00 -0.47525490658E+03  0.47525490658E+03  0.00000000000E+00 0.  1.
         25    2    1    2    0    0 -0.23496891453E+02 -0.77303841772E+02 -0.29198414181E+03  0.32776633926E+03  0.12509215092E+03 0.  0.
          5    1    3    3  502    0 -0.56983926820E+02 -0.46860090357E+00 -0.69447832311E+02  0.89932537579E+02  0.41800000000E+01 0. -1.
         -5    1    3    3    0  502  0.33487035367E+02 -0.76835240868E+02 -0.22253630950E+03  0.23783380168E+03  0.41800000000E+01 0. -1.
        -11    1    1    2    0    0  0.21012858585E+02 -0.20965130522E+02 -0.36608574046E+02  0.47130294051E+02  0.00000000000E+00 0. -1.
         11    1    1    2    0    0  0.24840328681E+01  0.98268972293E+02 -0.10395120199E+03  0.14306926201E+03  0.00000000000E+00 0.  1.
</event>
<event>
 7    1  0.2989693E-009  0.1091311E+03  0.7561462E-02  0.1262187E+00
          1   -1    0    0  501    0  0.00000000000E+00  0.00000000000E+00  0.78429586009E+03  0.78429586009E+03  0.00000000000E+00 0. -1.
         -1   -1    0    0    0  501 -0.00000000000E+00 -0.00000000000E+00 -0.17917511061E+02  0.17917511061E+02  0.00000000000E+00 0.  1.
         25    2    1    2    0    0  0.41214005858E+00 -0.44795454965E+02  0.37672248782E+03  0.39946613392E+03  0.12508619700E+03 0.  0.
          5    1    3    3  502    0 -0.35312693168E+02 -0.65808933694E+02  0.32265513835E+03  0.33121233787E+03  0.41800000000E+01 0.  1.
         -5    1    3    3    0  502  0.35724833227E+02  0.21013478730E+02  0.54067349463E+02  0.68253796051E+02  0.41800000000E+01 0.  1.
        -11    1    1    2    0    0  0.43239899373E+02  0.64828977595E+01  0.16129869663E+03  0.16711967687E+03  0.00000000000E+00 0. -1.
         11    1    1    2    0    0 -0.43652039432E+02  0.38312557205E+02  0.22835716458E+03  0.23562756036E+03  0.00000000000E+00 0.  1.
</event>
<event>
 7    1  0.2989693E-009  0.1409959E+03  0.7561462E-02  0.1211995E+00
         -2   -1    0    0    0  501 -0.00000000000E+00  0.00000000000E+00  0.37241002930E+02  0.37241002930E+02  0.00000000000E+00 0. -1.
          2   -1    0    0  501    0  0.00000000000E+00 -0.00000000000E+00 -0.69069745683E+03  0.69069745683E+03  0.00000000000E+00 0.  1.
         25    2    1    2    0    0  0.34758504041E+02 -0.11087821055E+03 -0.32312324943E+03  0.36545626236E+03  0.12509002436E+03 0.  0.
          5    1    3    3  502    0  0.77980663591E+02 -0.70707664458E+02 -0.25076672508E+03  0.27199628768E+03  0.41800000000E+01 0. -1.
         -5    1    3    3    0  502 -0.43222159550E+02 -0.40170546092E+02 -0.72356524358E+02  0.93459974677E+02  0.41800000000E+01 0. -1.
        -11    1    1    2    0    0 -0.22885491571E+02  0.94677074888E+02 -0.32812298012E+03  0.34227501270E+03  0.00000000000E+00 0.  1.
         11    1    1    2    0    0 -0.11873012470E+02  0.16201135662E+02 -0.22102243405E+01  0.20207184700E+02  0.00000000000E+00 0. -1.
</event>
<event>
 7    1  0.2989693E-009  0.8799682E+02  0.7561462E-02  0.1307776E+00
         -1   -1    0    0    0  501 -0.00000000000E+00  0.00000000000E+00  0.20908381926E+03  0.20908381926E+03  0.00000000000E+00 0.  1.
          1   -1    0    0  501    0  0.00000000000E+00 -0.00000000000E+00 -0.67270404733E+02  0.67270404733E+02  0.00000000000E+00 0. -1.
         25    2    1    2    0    0  0.33845994891E+02  0.32333438752E+02  0.84861353314E+02  0.15823905746E+03  0.12508855818E+03 0.  0.
          5    1    3    3  502    0  0.34799412316E+01 -0.17628584192E+02 -0.26561028633E+02  0.32339412697E+02  0.41800000000E+01 0.  1.
         -5    1    3    3    0  502  0.30366053659E+02  0.49962022944E+02  0.11142238195E+03  0.12589964476E+03  0.41800000000E+01 0.  1.
        -11    1    1    2    0    0  0.20268600402E+02  0.16425468271E+02  0.31624025590E+02  0.40996233543E+02  0.00000000000E+00 0.  1.
         11    1    1    2    0    0 -0.54114595293E+02 -0.48758907023E+02  0.25328035624E+02  0.77118932996E+02  0.00000000000E+00 0. -1.
</event>
<event>
 7    1  0.2989693E-009  0.1451378E+03  0.7561462E-02  0.1206578E+00
         -1   -1    0    0    0  501 -0.00000000000E+00  0.00000000000E+00  0.31898211999E+02  0.31898211999E+02  0.00000000000E+00 0.  1.
          1   -1    0    0  501    0  0.00000000000E+00 -0.00000000000E+00 -0.11390392646E+04  0.11390392646E+04  0.00000000000E+00 0. -1.
         25    2    1    2    0    0 -0.12115065889E+03 -0.24047112113E+02 -0.87415672177E+03  0.89165774619E+03  0.12509123222E+03 0.  0.
          5    1    3    3  502    0 -0.27100265928E+02  0.18485891616E+02 -0.55950561181E+03  0.56048207344E+03  0.41800000000E+01 0. -1.
         -5    1    3    3    0  502 -0.94050392964E+02 -0.42533003729E+02 -0.31465110996E+03  0.33117567275E+03  0.41800000000E+01 0. -1.
        -11    1    1    2    0    0  0.95337514747E+02  0.57737351334E+02 -0.16420969882E+03  0.19846326774E+03  0.00000000000E+00 0.  1.
         11    1    1    2    0    0  0.25813144145E+02 -0.33690239221E+02 -0.68774632026E+02  0.80816462677E+02  0.00000000000E+00 0. -1.
</event>
<event>
 7    1  0.2989693E-009  0.5020654E+02  0.7561462E-02  0.1444231E+00
         -3   -1    0    0    0  501 -0.00000000000E+00  0.00000000000E+00  0.11437745649E+03  0.11437745649E+03  0.00000000000E+00 0.  1.
          3   -1    0    0  501    0  0.00000000000E+00 -0.00000000000E+00 -0.10879086734E+03  0.10879086734E+03  0.00000000000E+00 0. -1.
         25    2    1    2    0    0  0.11382523570E+02  0.19814143714E+02  0.22629096351E+02  0.12915699387E+03  0.12508913194E+03 0.  0.
          5    1    3    3  502    0  0.17084048468E+02  0.71310029725E+01 -0.50839929243E+02  0.54266810491E+02  0.41800000000E+01 0. -1.
         -5    1    3    3    0  502 -0.57015248976E+01  0.12683140742E+02  0.73469025594E+02  0.74890183382E+02  0.41800000000E+01 0. -1.
        -11    1    1    2    0    0  0.21482811837E+02  0.89178160861E+01 -0.38798358808E+02  0.45236614533E+02  0.00000000000E+00 0. -1.
         11    1    1    2    0    0 -0.32865335408E+02 -0.28731959800E+02  0.21755851613E+02  0.48774715425E+02  0.00000000000E+00 0.  1.
</event>
<event>
 7    1  0.2989693E-009  0.1187441E+03  0.7561462E-02  0.1245183E+00
         -2   -1    0    0    0  501 -0.00000000000E+00  0.00000000000E+00  0.88354799438E+02  0.88354799438E+02  0.00000000000E+00 0.  1.
          2   -1    0    0  501    0  0.00000000000E+00 -0.00000000000E+00 -0.32510713803E+03  0.32510713803E+03  0.00000000000E+00 0. -1.
         25    2    1    2    0    0 -0.73865471516E+02  0.49402390843E+02 -0.24034277540E+03  0.28514613281E+03  0.12508782221E+03 0.  0.
          5    1    3    3  502    0  0.30505745268E+02  0.57072057311E+01 -0.19282051678E+02  0.36775570812E+02  0.41800000000E+01 0.  1.
         -5    1    3    3    0  502 -0.10437121678E+03  0.43695185112E+02 -0.22106072372E+03  0.24837056200E+03  0.41800000000E+01 0.  1.
        -11    1    1    2    0    0  0.46492739393E+02 -0.14726523439E+02  0.46026012786E+02  0.67058475690E+02  0.00000000000E+00 0.  1.
         11    1    1    2    0    0  0.27372732122E+02 -0.34675867404E+02 -0.42435575985E+02  0.61257328976E+02  0.00000000000E+00 0. -1.
</event>
<event>
 7    1  0.2989693E-009  0.1463395E+03  0.7561462E-02  0.1205044E+00
         -2   -1    0    0    0  501 -0.00000000000E+00  0.00000000000E+00  0.59393553037E+02  0.59393553037E+02  0.00000000000E+00 0.  1.
          2   -1    0    0  501    0  0.00000000000E+00 -0.00000000000E+00 -0.44680895834E+03  0.44680895834E+03  0.00000000000E+00 0. -1.
         25    2    1    2    0    0 -0.55536795728E+02 -0.85747113871E+02 -0.30505894952E+03  0.34517352405E+03  0.12508755255E+03 0.  0.
          5    1    3    3  502    0 -0.34688668822E+02 -0.11404357028E+03 -0.27084499592E+03  0.29594547450E+03  0.41800000000E+01 0.  1.
         -5    1    3    3    0  502 -0.20848126906E+02  0.28296456405E+02 -0.34213953603E+02  0.49228049542E+02  0.41800000000E+01 0.  1.
        -11    1    1    2    0    0  0.36304075649E+02  0.10481575156E+03 -0.61399166992E+02  0.12678401079E+03  0.00000000000E+00 0. -1.
         11    1    1    2    0    0  0.19232720079E+02 -0.19068637692E+02 -0.20957288794E+02  0.34244976546E+02  0.00000000000E+00 0.  1.
</event>
<event>
 7    1  0.2989693E-009  0.9902038E+02  0.7561462E-02  0.1282370E+00
         -2   -1    0    0    0  501 -0.00000000000E+00  0.00000000000E+00  0.43351029969E+03  0.43351029969E+03  0.00000000000E+00 0.  1.
          2   -1    0    0  501    0  0.00000000000E+00 -0.00000000000E+00 -0.35973995864E+02  0.35973995864E+02  0.00000000000E+00 0. -1.
         25    2    1    2    0    0 -0.39899629345E+02  0.21973898771E+02  0.23908723013E+03  0.27365158151E+03  0.12509057440E+03 0.  0.
          5    1    3    3  502    0 -0.47889521006E+02 -0.12961640925E+02  0.23148512836E+03  0.23677889984E+03  0.41800000000E+01 0.  1.
         -5    1    3    3    0  502  0.79898916609E+01  0.34935539695E+02  0.76021017749E+01  0.36872681676E+02  0.41800000000E+01 0.  1.
        -11    1    1    2    0    0 -0.31938434103E+02 -0.24556314519E+02  0.36976449501E+02  0.54683946213E+02  0.00000000000E+00 0.  1.
         11    1    1    2    0    0  0.71838063449E+02  0.25824157487E+01  0.12147262419E+03  0.14114876783E+03  0.00000000000E+00 0. -1.
</event>
<event>
 7    1  0.2989693E-009  0.1238615E+03  0.7561462E-02  0.1236859E+00
          2   -1    0    0  501    0  0.00000000000E+00  0.00000000000E+00  0.82123995665E+03  0.82123995665E+03  0.00000000000E+00 0.  1.
         -2   -1    0    0    0  501 -0.00000000000E+00 -0.00000000000E+00 -0.23520555004E+02  0.23520555004E+02  0.00000000000E+00 0. -1.
         25    2    1    2    0    0  0.38143482040E+02  0.76656324305E+02  0.49635525370E+03  0.51898553953E+03  0.12508531127E+03 0.  0.
          5    1    3    3  502    0  0.67447464729E+02  0.18084060391E+02  0.13851950621E+03  0.15518157023E+03  0.41800000000E+01 0. -1.
         -5    1    3    3    0  502 -0.29303982689E+02  0.58572263914E+02  0.35783574749E+03  0.36380396930E+03  0.41800000000E+01 0. -1.
        -11    1    1    2    0    0 -0.49972921703E+02 -0.19288228879E+02  0.21392442793E+03  0.22052888596E+03  0.00000000000E+00 0.  1.
         11    1    1    2    0    0  0.11829439663E+02 -0.57368095426E+02  0.87439720026E+02  0.10524608617E+03  0.00000000000E+00 0. -1.
</event>
<event>
 7    1  0.2989693E-009  0.1408509E+03  0.7561462E-02  0.1212189E+00
         -2   -1    0    0    0  501 -0.00000000000E+00  0.00000000000E+00  0.57697824258E+02  0.57697824258E+02  0.00000000000E+00 0.  1.
          2   -1    0    0  501    0  0.00000000000E+00 -0.00000000000E+00 -0.38393619135E+03  0.38393619135E+03  0.00000000000E+00 0. -1.
         25    2    1    2    0    0 -0.38570024017E+02 -0.94305947489E+02 -0.19927983956E+03  0.25639125224E+03  0.12507102496E+03 0.  0.
          5    1    3    3  502    0 -0.54680120851E+02 -0.11929412117E+03 -0.16190803607E+03  0.20845308227E+03  0.41800000000E+01 0.  1.
         -5    1    3    3    0  502  0.16110096834E+02  0.24988173684E+02 -0.37371803488E+02  0.47938169969E+02  0.41800000000E+01 0.  1.
        -11    1    1    2    0    0 -0.11959456737E+02  0.55221103187E+02 -0.10210758789E+03  0.11669772212E+03  0.00000000000E+00 0. -1.
         11    1    1    2    0    0  0.50529480754E+02  0.39084844302E+02 -0.24850939646E+02  0.68545041256E+02  0.00000000000E+00 0.  1.
</event>
<event>
 7    1  0.2989693E-009  0.1169738E+03  0.7561462E-02  0.1248174E+00
         -2   -1    0    0    0  501 -0.00000000000E+00  0.00000000000E+00  0.21177742878E+02  0.21177742878E+02  0.00000000000E+00 0.  1.
          2   -1    0    0  501    0  0.00000000000E+00 -0.00000000000E+00 -0.78440517605E+03  0.78440517605E+03  0.00000000000E+00 0. -1.
         25    2    1    2    0    0 -0.55334583449E+02 -0.30780037439E+01 -0.55139862279E+03  0.56811963033E+03  0.12509229762E+03 0.  0.
          5    1    3    3  502    0  0.63849717842E+01 -0.54352456463E+02 -0.18262219377E+03  0.19069162395E+03  0.41800000000E+01 0.  1.
         -5    1    3    3    0  502 -0.61719555233E+02  0.51274452719E+02 -0.36877642902E+03  0.37742800638E+03  0.41800000000E+01 0.  1.
        -11    1    1    2    0    0  0.36951032078E+02 -0.38432633802E+02 -0.15955713124E+03  0.16822878541E+03  0.00000000000E+00 0. -1.
         11    1    1    2    0    0  0.18383551371E+02  0.41510637545E+02 -0.52271679152E+02  0.69234503189E+02  0.00000000000E+00 0.  1.
</event>
<event>
 7    1  0.2989693E-009  0.1061258E+03  0.7561462E-02  0.1267917E+00
          2   -1    0    0  501    0  0.00000000000E+00  0.00000000000E+00  0.91770475734E+02  0.91770475734E+02  0.00000000000E+00 0. -1.
         -2   -1    0    0    0  501 -0.00000000000E+00 -0.00000000000E+00 -0.15746535813E+03  0.15746535813E+03  0.00000000000E+00 0.  1.
         25    2    1    2    0    0  0.48208848188E+02  0.19186795663E+02 -0.18163517810E+02  0.13663461427E+03  0.12508748245E+03 0.  0.
          5    1    3    3  502    0  0.83539480765E+02  0.39681571548E+02 -0.22714319797E+02  0.95325152456E+02  0.41800000000E+01 0.  1.
         -5    1    3    3    0  502 -0.35330632577E+02 -0.20494775885E+02  0.45508019861E+01  0.41309461816E+02  0.41800000000E+01 0.  1.
        -11    1    1    2    0    0 -0.53358584231E+02 -0.33770964829E+02 -0.64069020260E+02  0.89958078758E+02  0.00000000000E+00 0.  1.
         11    1    1    2    0    0  0.51497360434E+01  0.14584169166E+02  0.16537655675E+02  0.22643140834E+02  0.00000000000E+00 0. -1.
</event>
<event>
 7    1  0.2989693E-009  0.2140809E+03  0.7561462E-02  0.1138374E+00
         -2   -1    0    0    0  501 -0.00000000000E+00  0.00000000000E+00  0.40491464706E+02  0.40491464706E+02  0.00000000000E+00 0.  1.
          2   -1    0    0  501    0  0.00000000000E+00 -0.00000000000E+00 -0.15525723048E+04  0.15525723048E+04  0.00000000000E+00 0. -1.
         25    2    1    2    0    0 -0.62675324303E+02 -0.17908467583E+03 -0.11331422292E+04  0.11557073682E+04  0.12509473197E+03 0.  0.
          5    1    3    3  502    0 -0.36724113676E+02  0.64390453423E+01 -0.25940987012E+03  0.26210889902E+03  0.41800000000E+01 0.  1.
         -5    1    3    3    0  502 -0.25951210626E+02 -0.18552372117E+03 -0.87373235906E+03  0.89359846918E+03  0.41800000000E+01 0.  1.
        -11    1    1    2    0    0  0.32980772626E+02  0.14503692408E+02 -0.19619350107E+02  0.41024472636E+02  0.00000000000E+00 0.  1.
         11    1    1    2    0    0  0.29694551677E+02  0.16458098342E+03 -0.35931926086E+03  0.39633192873E+03  0.00000000000E+00 0. -1.
</event>
<event>
 7    1  0.2989693E-009  0.1036479E+03  0.7561462E-02  0.1272807E+00
         -1   -1    0    0    0  501 -0.00000000000E+00  0.00000000000E+00  0.25270197264E+02  0.25270197264E+02  0.00000000000E+00 0. -1.
          1   -1    0    0  501    0  0.00000000000E+00 -0.00000000000E+00 -0.50555082270E+03  0.50555082270E+03  0.00000000000E+00 0.  1.
         25    2    1    2    0    0 -0.21044896316E+02  0.22674097860E+02 -0.30775297209E+03  0.33362987848E+03  0.12505999204E+03 0.  0.
          5    1    3    3  502    0  0.37672805698E+02 -0.25423523182E+02 -0.17294671035E+03  0.17886764056E+03  0.41800000000E+01 0. -1.
         -5    1    3    3    0  502 -0.58717702014E+02  0.48097621041E+02 -0.13480626174E+03  0.15476223791E+03  0.41800000000E+01 0. -1.
        -11    1    1    2    0    0  0.35133625582E+02 -0.46305465918E+02 -0.15238214674E+03  0.16309165051E+03  0.00000000000E+00 0.  1.
         11    1    1    2    0    0 -0.14088729266E+02  0.23631368059E+02 -0.20145506608E+02  0.34099490981E+02  0.00000000000E+00 0. -1.
</event>
<event>
 7    1  0.3747269E-009  0.9312473E+02  0.7561462E-02  0.1295456E+00
         -2   -1    0    0    0  501 -0.00000000000E+00  0.00000000000E+00  0.29118679831E+02  0.29118679831E+02  0.00000000000E+00 0.  1.
          2   -1    0    0  501    0  0.00000000000E+00 -0.00000000000E+00 -0.61156721142E+03  0.61156721142E+03  0.00000000000E+00 0. -1.
         25    2    1    2    0    0  0.48713720210E+02  0.53947070186E+02 -0.38957468533E+03  0.41557188392E+03  0.12509293480E+03 0.  0.
          5    1    3    3  502    0  0.36309875067E+02  0.41022008908E+02 -0.39303275964E+03  0.39685442519E+03  0.41800000000E+01 0.  1.
         -5    1    3    3    0  502  0.12403845143E+02  0.12925061277E+02  0.34580743102E+01  0.18717458729E+02  0.41800000000E+01 0.  1.
        -11    1    1    2    0    0  0.24475639852E+02 -0.22522037017E+02 -0.82917667533E+02  0.89340017275E+02  0.00000000000E+00 0. -1.
         11    1    1    2    0    0 -0.73189360062E+02 -0.31425033169E+02 -0.10995617872E+03  0.13577399005E+03  0.00000000000E+00 0.  1.
</event>
<event>
 7    1  0.2989693E-009  0.1064750E+03  0.7561462E-02  0.1267241E+00
          2   -1    0    0  501    0  0.00000000000E+00  0.00000000000E+00  0.75843424495E+03  0.75843424495E+03  0.00000000000E+00 0. -1.
         -2   -1    0    0    0  501 -0.00000000000E+00 -0.00000000000E+00 -0.17840050862E+02  0.17840050862E+02  0.00000000000E+00 0.  1.
         25    2    1    2    0    0 -0.23423521964E+02 -0.44783693667E+02  0.44597870482E+03  0.46593876265E+03  0.12509070625E+03 0.  0.
          5    1    3    3  502    0 -0.68602093368E+02 -0.11804488324E+02  0.16039629700E+03  0.17490007905E+03  0.41800000000E+01 0. -1.
         -5    1    3    3    0  502  0.45178571404E+02 -0.32979205344E+02  0.28558240782E+03  0.29103868361E+03  0.41800000000E+01 0. -1.
        -11    1    1    2    0    0  0.34890156279E+02 -0.57008364639E+01  0.56436194934E+02  0.66594794393E+02  0.00000000000E+00 0.  1.
         11    1    1    2    0    0 -0.11466634315E+02  0.50484530131E+02  0.23817929434E+03  0.24374073877E+03  0.00000000000E+00 0. -1.
</event>
<event>
 7    1  0.2989693E-009  0.1186463E+03  0.7561462E-02  0.1245347E+00
         -2   -1    0    0    0  501 -0.00000000000E+00  0.00000000000E+00  0.44255772290E+02  0.44255772290E+02  0.00000000000E+00 0. -1.
          2   -1    0    0  501    0  0.00000000000E+00 -0.00000000000E+00 -0.52481300000E+03  0.52481300000E+03  0.00000000000E+00 0.  1.
         25    2    1    2    0    0  0.99469530639E+02 -0.27115603877E+02 -0.20527734383E+03  0.26156284715E+03  0.12508753584E+03 0.  0.
          5    1    3    3  502    0 -0.70277953295E+01 -0.22241307013E+02  0.63759550122E+01  0.24539577159E+02  0.41800000000E+01 0.  1.
         -5    1    3    3    0  502  0.10649732597E+03 -0.48742968647E+01 -0.21165329884E+03  0.23702326999E+03  0.41800000000E+01 0.  1.
        -11    1    1    2    0    0 -0.41418353002E+02  0.25883121707E+02 -0.34431802361E+02  0.59757551561E+02  0.00000000000E+00 0. -1.
         11    1    1    2    0    0 -0.58051177636E+02  0.12324821702E+01 -0.24084808152E+03  0.24774837358E+03  0.00000000000E+00 0.  1.
</event>
<event>
 7    1  0.2989693E-009  0.9191889E+02  0.7561462E-02  0.1298270E+00
         -2   -1    0    0    0  501 -0.00000000000E+00  0.00000000000E+00  0.11400820760E+03  0.11400820760E+03  0.00000000000E+00 0.  1.
          2   -1    0    0  501    0  0.00000000000E+00 -0.00000000000E+00 -0.11596922578E+03  0.11596922578E+03  0.00000000000E+00 0. -1.
         25    2    1    2    0    0 -0.85269659323E+01 -0.37442840256E+02 -0.23488557843E+01  0.13087531445E+03  0.12509258721E+03 0.  0.
          5    1    3    3  502    0  0.50010186690E+02 -0.22785015746E+01 -0.28352877382E+02  0.57685079510E+02  0.41800000000E+01 0. -1.
         -5    1    3    3    0  502 -0.58537152623E+02 -0.35164338681E+02  0.26004021598E+02  0.73190234945E+02  0.41800000000E+01 0. -1.
        -11    1    1    2    0    0  0.15451434716E+02 -0.92330314434E+01  0.35823475704E+02  0.40091359617E+02  0.00000000000E+00 0.  1.
         11    1    1    2    0    0 -0.69244687841E+01  0.46675871699E+02 -0.35435638098E+02  0.59010759309E+02  0.00000000000E+00 0. -1.
</event>
<event>
 7    1  0.2989693E-009  0.1032143E+03  0.7561462E-02  0.1273678E+00
         -1   -1    0    0    0  501 -0.00000000000E+00  0.00000000000E+00  0.29396103257E+03  0.29396103257E+03  0.00000000000E+00 0.  1.
          1   -1    0    0  501    0  0.00000000000E+00 -0.00000000000E+00 -0.72399489534E+02  0.72399489534E+02  0.00000000000E+00 0. -1.
         25    2    1    2    0    0 -0.62222549944E+02 -0.24657078868E+02  0.30823642625E+02  0.14518256019E+03  0.12509301171E+03 0.  0.
          5    1    3    3  502    0  0.59303871103E+01 -0.38765410987E+02  0.58177661763E+02  0.70285413198E+02  0.41800000000E+01 0. -1.
         -5    1    3    3    0  502 -0.68152937054E+02  0.14108332119E+02 -0.27354019138E+02  0.74897146990E+02  0.41800000000E+01 0. -1.
        -11    1    1    2    0    0  0.66375179670E+02 -0.57069648475E+01  0.17386939111E+03  0.18619559363E+03  0.00000000000E+00 0.  1.
         11    1    1    2    0    0 -0.41526297262E+01  0.30364043716E+02  0.16868509299E+02  0.34982368279E+02  0.00000000000E+00 0. -1.
</event>
<event>
 7    1  0.2989693E-009  0.1135210E+03  0.7561462E-02  0.1254185E+00
          2   -1    0    0  501    0  0.00000000000E+00  0.00000000000E+00  0.49841767749E+02  0.49841767749E+02  0.00000000000E+00 0. -1.
         -2   -1    0    0    0  501 -0.00000000000E+00 -0.00000000000E+00 -0.29591865665E+03  0.29591865665E+03  0.00000000000E+00 0.  1.
         25    2    1    2    0    0 -0.22302813408E+02  0.46401747700E+02 -0.11334196469E+03  0.17647854734E+03  0.12509092307E+03 0.  0.
          5    1    3    3  502    0 -0.35614299692E+02 -0.34984531986E+02 -0.26613281913E+02  0.56727726863E+02  0.41800000000E+01 0. -1.
         -5    1    3    3    0  502  0.13311486285E+02  0.81386279686E+02 -0.86728682777E+02  0.11975082048E+03  0.41800000000E+01 0. -1.
        -11    1    1    2    0    0 -0.32141324511E+01  0.21548816938E+02 -0.70105671963E+02  0.73413128255E+02  0.00000000000E+00 0.  1.
         11    1    1    2    0    0  0.25516945859E+02 -0.67950564638E+02 -0.62629252251E+02  0.95868748808E+02  0.00000000000E+00 0. -1.
</event>
<event>
 7    1  0.2989693E-009  0.1155870E+03  0.7561462E-02  0.1250560E+00
         -2   -1    0    0    0  501 -0.00000000000E+00  0.00000000000E+00  0.34984812503E+03  0.34984812503E+03  0.00000000000E+00 0. -1.
          2   -1    0    0  501    0  0.00000000000E+00 -0.00000000000E+00 -0.44911993214E+02  0.44911993214E+02  0.00000000000E+00 0.  1.
         25    2    1    2    0    0 -0.34071727872E+02  0.41682124557E+02  0.12473089154E+03  0.18467189895E+03  0.12509049848E+03 0.  0.
          5    1    3    3  502    0 -0.73561676326E+02 -0.21455528383E+01  0.48697559323E+02  0.88345052520E+02  0.41800000000E+01 0. -1.
         -5    1    3    3    0  502  0.39489948454E+02  0.43827677395E+02  0.76033332218E+02  0.96326846429E+02  0.41800000000E+01 0. -1.
        -11    1    1    2    0    0 -0.56559152697E+01 -0.55854759511E+02  0.14379993417E+03  0.15437021930E+03  0.00000000000E+00 0. -1.
         11    1    1    2    0    0  0.39727643142E+02  0.14172634954E+02  0.36405306096E+02  0.55717999992E+02  0.00000000000E+00 0.  1.
</event>
<event>
 7    1  0.2989693E-009  0.2513363E+03  0.7561462E-02  0.1112463E+00
          2   -1    0    0  501    0  0.00000000000E+00  0.00000000000E+00  0.19232237924E+04  0.19232237924E+04  0.00000000000E+00 0. -1.
         -2   -1    0    0    0  501 -0.00000000000E+00 -0.00000000000E+00 -0.38168328812E+02  0.38168328812E+02  0.00000000000E+00 0.  1.
         25    2    1    2    0    0  0.20673086709E+03 -0.11937683344E+03  0.77812930192E+03  0.82348111353E+03  0.12508978400E+03 0.  0.
          5    1    3    3  502    0  0.16930302234E+03 -0.61703091212E+02  0.68071611190E+03  0.70417517866E+03  0.41800000000E+01 0. -1.
         -5    1    3    3    0  502  0.37427844754E+02 -0.57673742230E+02  0.97413190025E+02  0.11930593488E+03  0.41800000000E+01 0. -1.
        -11    1    1    2    0    0 -0.10164973636E+03  0.10725094708E+03  0.48356524177E+03  0.50563897951E+03  0.00000000000E+00 0.  1.
         11    1    1    2    0    0 -0.10508113073E+03  0.12125886361E+02  0.62336091993E+03  0.63227202821E+03  0.00000000000E+00 0. -1.
</event>
<event>
 7    1  0.2989693E-009  0.1315802E+03  0.7561462E-02  0.1225130E+00
         -2   -1    0    0    0  501 -0.00000000000E+00  0.00000000000E+00  0.17151501980E+03  0.17151501980E+03  0.00000000000E+00 0.  1.
          2   -1    0    0  501    0  0.00000000000E+00 -0.00000000000E+00 -0.14612388798E+03  0.14612388798E+03  0.00000000000E+00 0. -1.
         25    2    1    2    0    0  0.36940886518E+02  0.98618256174E+02  0.58371122298E+02  0.17362011065E+03  0.12508623169E+03 0.  0.
          5    1    3    3  502    0 -0.12117004030E+02 -0.97935695990E+01 -0.23942293652E+02  0.28869388935E+02  0.41800000000E+01 0. -1.
         -5    1    3    3    0  502  0.49057890548E+02  0.10841182577E+03  0.82313415950E+02  0.14475072172E+03  0.41800000000E+01 0. -1.
        -11    1    1    2    0    0  0.14841303813E+02  0.18275348492E+01  0.15060965076E+02  0.21223497626E+02  0.00000000000E+00 0.  1.
         11    1    1    2    0    0 -0.51782190330E+02 -0.10044579102E+03 -0.48040955554E+02  0.12279529950E+03  0.00000000000E+00 0. -1.
</event>
<event>
 7    1  0.2989693E-009  0.9827530E+02  0.7561462E-02  0.1283965E+00
         -1   -1    0    0    0  501 -0.00000000000E+00  0.00000000000E+00  0.43612783603E+02  0.43612783603E+02  0.00000000000E+00 0.  1.
          1   -1    0    0  501    0  0.00000000000E+00 -0.00000000000E+00 -0.44248634026E+03  0.44248634026E+03  0.00000000000E+00 0. -1.
         25    2    1    2    0    0  0.53521870329E+02  0.15712013117E+02 -0.32864473815E+03  0.35604286993E+03  0.12509078047E+03 0.  0.
          5    1    3    3  502    0 -0.21173514681E+02  0.47672309345E+02 -0.92484514655E+02  0.10626299757E+03  0.41800000000E+01 0.  1.
         -5    1    3    3    0  502  0.74695385010E+02 -0.31960296227E+02 -0.23616022349E+03  0.24977987236E+03  0.41800000000E+01 0.  1.
        -11    1    1    2    0    0 -0.26597161670E+02 -0.22792489946E+02 -0.89557852521E+02  0.96164003427E+02  0.00000000000E+00 0. -1.
         11    1    1    2    0    0 -0.26924708659E+02  0.70804768289E+01  0.19329034009E+02  0.33892250504E+02  0.00000000000E+00 0.  1.
</event>
<event>
 7    1  0.2989693E-009  0.1422491E+03  0.7561462E-02  0.1210334E+00
          2   -1    0    0  501    0  0.00000000000E+00  0.00000000000E+00  0.35773533962E+03  0.35773533962E+03  0.00000000000E+00 0. -1.
         -2   -1    0    0    0  501 -0.00000000000E+00 -0.00000000000E+00 -0.61586663245E+02  0.61586663245E+02  0.00000000000E+00 0.  1.
         25    2    1    2    0    0 -0.62013845291E+02  0.68783166861E+02  0.10278454598E+03  0.18651747298E+03  0.12508902344E+03 0.  0.
          5    1    3    3  502    0  0.37049873062E+02  0.67419858446E+01  0.17337140958E+02  0.41667689204E+02  0.41800000000E+01 0.  1.
         -5    1    3    3    0  502 -0.99063718353E+02  0.62041181017E+02  0.85447405020E+02  0.14484978378E+03  0.41800000000E+01 0.  1.
        -11    1    1    2    0    0  0.14527924046E+02 -0.79624131051E+02  0.12045409314E+03  0.14512150556E+03  0.00000000000E+00 0.  1.
         11    1    1    2    0    0  0.47485921245E+02  0.10840964189E+02  0.72910037260E+02  0.87683024322E+02  0.00000000000E+00 0. -1.
</event>
<event>
 7    1  0.2989693E-009  0.1097855E+03  0.7561462E-02  0.1260968E+00
          2   -1    0    0  501    0  0.00000000000E+00  0.00000000000E+00  0.22532749136E+02  0.22532749136E+02  0.00000000000E+00 0. -1.
         -2   -1    0    0    0  501 -0.00000000000E+00 -0.00000000000E+00 -0.89755942226E+03  0.89755942226E+03  0.00000000000E+00 0.  1.
         25    2    1    2    0    0  0.68265883220E+02  0.11751565881E+02 -0.66948643539E+03  0.68458579163E+03  0.12508912348E+03 0.  0.
          5    1    3    3  502    0  0.55676272164E+02  0.44548949855E+02 -0.17755262855E+03  0.19138146336E+03  0.41800000000E+01 0. -1.
         -5    1    3    3    0  502  0.12589611056E+02 -0.32797383974E+02 -0.49193380684E+03  0.49320432826E+03  0.41800000000E+01 0. -1.
        -11    1    1    2    0    0 -0.53458008119E+02 -0.49101803871E+02 -0.10919893871E+03  0.13112266772E+03  0.00000000000E+00 0.  1.
         11    1    1    2    0    0 -0.14807875101E+02  0.37350237990E+02 -0.96341299029E+02  0.10438371205E+03  0.00000000000E+00 0. -1.
</event>
<event>
 7    1  0.2989693E-009  0.1595780E+03  0.7561462E-02  0.1189174E+00
          2   -1    0    0  501    0  0.00000000000E+00  0.00000000000E+00  0.36848930926E+03  0.36848930926E+03  0.00000000000E+00 0.  1.
         -2   -1    0    0    0  501 -0.00000000000E+00 -0.00000000000E+00 -0.81631555711E+02  0.81631555711E+02  0.00000000000E+00 0. -1.
         25    2    1    2    0    0 -0.12153155262E+03 -0.56283844553E+02  0.15176393704E+03  0.23794349722E+03  0.12508807235E+03 0.  0.
          5    1    3    3  502    0 -0.48836077308E+02  0.17758990956E+02  0.11757115025E+03  0.12861101033E+03  0.41800000000E+01 0.  1.
         -5    1    3    3    0  502 -0.72695475317E+02 -0.74042835510E+02  0.34192786791E+02  0.10933248689E+03  0.41800000000E+01 0.  1.
        -11    1    1    2    0    0  0.69182066259E+02 -0.18756079205E+02  0.51697233558E+02  0.88377331689E+02  0.00000000000E+00 0. -1.
         11    1    1    2    0    0  0.52349486366E+02  0.75039923758E+02  0.83396582950E+02  0.12380003606E+03  0.00000000000E+00 0.  1.
</event>
<event>
 7    1  0.2989693E-009  0.1152824E+03  0.7561462E-02  0.1251089E+00
          2   -1    0    0  501    0  0.00000000000E+00  0.00000000000E+00  0.13388958379E+04  0.13388958379E+04  0.00000000000E+00 0. -1.
         -2   -1    0    0    0  501 -0.00000000000E+00 -0.00000000000E+00 -0.15103367396E+02  0.15103367396E+02  0.00000000000E+00 0.  1.
         25    2    1    2    0    0  0.12719874782E+02  0.15046345183E+01  0.10780769626E+04  0.10853852052E+04  0.12508815769E+03 0.  0.
          5    1    3    3  502    0 -0.43737674080E+02 -0.36785231315E+02  0.51268309220E+03  0.51587553034E+03  0.41800000000E+01 0. -1.
         -5    1    3    3    0  502  0.56457548862E+02  0.38289865833E+02  0.56539387042E+03  0.56950967486E+03  0.41800000000E+01 0. -1.
        -11    1    1    2    0    0 -0.70373588191E-01 -0.52437095643E+02  0.15714848614E+03  0.16566623268E+03  0.00000000000E+00 0.  1.
         11    1    1    2    0    0 -0.12649501194E+02  0.50932461124E+02  0.88567021730E+02  0.10294776741E+03  0.00000000000E+00 0. -1.
</event>
<event>
 7    1  0.2989693E-009  0.8830824E+02  0.7561462E-02  0.1307001E+00
         -2   -1    0    0    0  501 -0.00000000000E+00  0.00000000000E+00  0.38220362782E+02  0.38220362782E+02  0.00000000000E+00 0. -1.
          2   -1    0    0  501    0  0.00000000000E+00 -0.00000000000E+00 -0.37024958546E+03  0.37024958546E+03  0.00000000000E+00 0.  1.
         25    2    1    2    0    0 -0.43932506158E+02 -0.15536952219E+02 -0.21810375581E+03  0.25571260904E+03  0.12509287807E+03 0.  0.
          5    1    3    3  502    0 -0.18904697641E+02  0.26912530522E+02 -0.20049260769E+03  0.20321523080E+03  0.41800000000E+01 0.  1.
         -5    1    3    3    0  502 -0.25027808518E+02 -0.42449482740E+02 -0.17611148123E+02  0.52497378243E+02  0.41800000000E+01 0.  1.
        -11    1    1    2    0    0  0.45351765872E+02  0.45364791270E+02 -0.10222711260E+03  0.12068607834E+03  0.00000000000E+00 0. -1.
         11    1    1    2    0    0 -0.14192597139E+01 -0.29827839051E+02 -0.11698354271E+02  0.32071260861E+02  0.00000000000E+00 0.  1.
</event>
<event>
 7    1  0.2989693E-009  0.8637202E+02  0.7561462E-02  0.1311883E+00
         -1   -1    0    0    0  501 -0.00000000000E+00  0.00000000000E+00  0.65027158060E+03  0.65027158060E+03  0.00000000000E+00 0.  1.
          1   -1    0    0  501    0  0.00000000000E+00 -0.00000000000E+00 -0.17135516658E+02  0.17135516658E+02  0.00000000000E+00 0. -1.
         25    2    1    2    0    0  0.47812117019E+02  0.30816861207E+02  0.49412863732E+03  0.51288079543E+03  0.12509165690E+03 0.  0.
          5    1    3    3  502    0 -0.16628149523E+02  0.40331628156E+02  0.37046242256E+03  0.37304559308E+03  0.41800000000E+01 0. -1.
         -5    1    3    3    0  502  0.64440266542E+02 -0.95147669489E+01  0.12366621476E+03  0.13983520235E+03  0.41800000000E+01 0. -1.
        -11    1    1    2    0    0 -0.11915614164E+02 -0.24437108284E+02  0.35032644410E+02  0.44344563326E+02  0.00000000000E+00 0. -1.
         11    1    1    2    0    0 -0.35896502855E+02 -0.63797529231E+01  0.10397478221E+03  0.11018173851E+03  0.00000000000E+00 0.  1.
</event>
<event>
 7    1  0.3081888E-009  0.8277461E+02  0.7561462E-02  0.1321357E+00
          1   -1    0    0  501    0  0.00000000000E+00  0.00000000000E+00  0.24111484030E+03  0.24111484030E+03  0.00000000000E+00 0. -1.
         -1   -1    0    0    0  501 -0.00000000000E+00 -0.00000000000E+00 -0.77219050515E+02  0.77219050515E+02  0.00000000000E+00 0.  1.
         25    2    1    2    0    0 -0.28193161148E+02 -0.55931842419E+02  0.26949554053E+02  0.14246745565E+03  0.12508985620E+03 0.  0.
          5    1    3    3  502    0 -0.37462551532E+02 -0.67164875475E+02 -0.30660561441E+02  0.82898164592E+02  0.41800000000E+01 0. -1.
         -5    1    3    3    0  502  0.92693903839E+01  0.11233033056E+02  0.57610115494E+02  0.59569291057E+02  0.41800000000E+01 0. -1.
        -11    1    1    2    0    0 -0.38290022857E+01  0.34803293090E+02  0.14496507395E+01  0.35043286884E+02  0.00000000000E+00 0.  1.
         11    1    1    2    0    0  0.32022163433E+02  0.21128549329E+02  0.13549658499E+03  0.14082314828E+03  0.00000000000E+00 0. -1.
</event>
<event>
 7    1  0.2989693E-009  0.9619566E+02  0.7561462E-02  0.1288506E+00
          2   -1    0    0  501    0  0.00000000000E+00  0.00000000000E+00  0.19600799353E+02  0.19600799353E+02  0.00000000000E+00 0. -1.
         -2   -1    0    0    0  501 -0.00000000000E+00 -0.00000000000E+00 -0.91037310243E+03  0.91037310243E+03  0.00000000000E+00 0.  1.
         25    2    1    2    0    0 -0.14918227270E+02 -0.46980373437E+02 -0.70667518760E+03  0.71935099073E+03  0.12508524329E+03 0.  0.
          5    1    3    3  502    0  0.15947091342E+01  0.37265631922E+02 -0.10375472804E+03  0.11033488302E+03  0.41800000000E+01 0.  1.
         -5    1    3    3    0  502 -0.16512936404E+02 -0.84246005359E+02 -0.60292045956E+03  0.60901610771E+03  0.41800000000E+01 0.  1.
        -11    1    1    2    0    0  0.32292879136E+02  0.24716120633E+02 -0.22298805366E+02  0.46378371929E+02  0.00000000000E+00 0. -1.
         11    1    1    2    0    0 -0.17374651866E+02  0.22264252804E+02 -0.16179831011E+03  0.16424453913E+03  0.00000000000E+00 0.  1.
</event>
<event>
 7    1  0.2989693E-009  0.1107163E+03  0.7561462E-02  0.1259249E+00
          4   -1    0    0  501    0  0.00000000000E+00  0.00000000000E+00  0.17847926072E+03  0.17847926072E+03  0.00000000000E+00 0. -1.
         -4   -1    0    0    0  501 -0.00000000000E+00 -0.00000000000E+00 -0.13174409421E+03  0.13174409421E+03  0.00000000000E+00 0.  1.
         25    2    1    2    0    0  0.36760003054E+02 -0.81858536077E+02 -0.38154900729E+02  0.15860582160E+03  0.12509153626E+03 0.  0.
          5    1    3    3  502    0 -0.22258165448E+01 -0.54908539475E+02 -0.78711447638E+02  0.96087805448E+02  0.41800000000E+01 0. -1.
         -5    1    3    3    0  502  0.38985819599E+02 -0.26949996602E+02  0.40556546909E+02  0.62518016154E+02  0.41800000000E+01 0. -1.
        -11    1    1    2    0    0 -0.12202309446E+02 -0.14702927185E+02 -0.22671253369E+01  0.19240901250E+02  0.00000000000E+00 0.  1.
         11    1    1    2    0    0 -0.24557693608E+02  0.96561463262E+02  0.87157192581E+02  0.13237663208E+03  0.00000000000E+00 0. -1.
</event>
<event>
 7    1  0.2989693E-009  0.2041818E+03  0.7561462E-02  0.1146258E+00
         -4   -1    0    0    0  501 -0.00000000000E+00  0.00000000000E+00  0.49534689865E+03  0.49534689865E+03  0.00000000000E+00 0.  1.
          4   -1    0    0  501    0  0.00000000000E+00 -0.00000000000E+00 -0.98114244724E+02  0.98114244724E+02  0.00000000000E+00 0. -1.
         25    2    1    2    0    0 -0.12065995155E+03  0.14258053498E+03  0.25841742269E+03  0.34251277257E+03  0.12508957654E+03 0.  0.
          5    1    3    3  502    0 -0.74096922034E+02  0.13422816976E+03  0.11576467608E+03  0.19216266037E+03  0.41800000000E+01 0.  1.
         -5    1    3    3    0  502 -0.46563029520E+02  0.83523652134E+01  0.14265274661E+03  0.15035011220E+03  0.41800000000E+01 0.  1.
        -11    1    1    2    0    0  0.66608148413E+02 -0.14068201091E+02  0.60300430707E+02  0.90943398113E+02  0.00000000000E+00 0.  1.
         11    1    1    2    0    0  0.54051803141E+02 -0.12851233389E+03  0.78514800533E+02  0.16000497269E+03  0.00000000000E+00 0. -1.
</event>
<event>
 7    1  0.2989693E-009  0.1445758E+03  0.7561462E-02  0.1207301E+00
         -2   -1    0    0    0  501 -0.00000000000E+00  0.00000000000E+00  0.13167014733E+03  0.13167014733E+03  0.00000000000E+00 0.  1.
          2   -1    0    0  501    0  0.00000000000E+00 -0.00000000000E+00 -0.24289258405E+03  0.24289258405E+03  0.00000000000E+00 0. -1.
         25    2    1    2    0    0  0.94425619483E+02 -0.84668478614E+02  0.56876296757E+01  0.17822607280E+03  0.12508890842E+03 0.  0.
          5    1    3    3  502    0  0.88179135688E+02 -0.41893740521E+02  0.55310200355E+02  0.11228239456E+03  0.41800000000E+01 0.  1.
         -5    1    3    3    0  502  0.62464837952E+01 -0.42774738093E+02 -0.49622570679E+02  0.65943678238E+02  0.41800000000E+01 0.  1.
        -11    1    1    2    0    0 -0.34991328727E+02  0.81261840330E+02 -0.10188381248E+03  0.13493773018E+03  0.00000000000E+00 0.  1.
         11    1    1    2    0    0 -0.59434290757E+02  0.34066382841E+01 -0.15026253917E+02  0.61398928402E+02  0.00000000000E+00 0. -1.
</event>
<event>
 7    1  0.2989693E-009  0.8779913E+02  0.7561462E-02  0.1308271E+00
         -2   -1    0    0    0  501 -0.00000000000E+00  0.00000000000E+00  0.36996790906E+03  0.36996790906E+03  0.00000000000E+00 0.  1.
          2   -1    0    0  501    0  0.00000000000E+00 -0.00000000000E+00 -0.37598887041E+02  0.37598887041E+02  0.00000000000E+00 0. -1.
         25    2    1    2    0    0 -0.38403362484E+02 -0.21371195819E+02  0.22253961946E+03  0.25903356739E+03  0.12507182155E+03 0.  0.
          5    1    3    3  502    0  0.33911751137E+02 -0.12966422423E+02  0.15630825458E+03  0.16052376093E+03  0.41800000000E+01 0. -1.
         -5    1    3    3    0  502 -0.72315113621E+02 -0.84047733966E+01  0.66231364886E+02  0.98509806459E+02  0.41800000000E+01 0. -1.
        -11    1    1    2    0    0  0.27201504104E+02  0.37602023981E+02  0.11829420405E+03  0.12707223436E+03  0.00000000000E+00 0.  1.
         11    1    1    2    0    0  0.11201858380E+02 -0.16230828162E+02 -0.84648014967E+01  0.21460994347E+02  0.00000000000E+00 0. -1.
</event>
<event>
 7    1  0.2989693E-009  0.1039806E+03  0.7561462E-02  0.1272141E+00
          2   -1    0    0  501    0  0.00000000000E+00  0.00000000000E+00  0.71428990718E+02  0.71428990718E+02  0.00000000000E+00 0.  1.
         -2   -1    0    0    0  501 -0.00000000000E+00 -0.00000000000E+00 -0.23159416647E+03  0.23159416647E+03  0.00000000000E+00 0. -1.
         25    2    1    2    0    0 -0.99680168302E+01 -0.30867307276E+02 -0.15821248794E+03  0.20428121263E+03  0.12508984960E+03 0.  0.
          5    1    3    3  502    0 -0.36366963926E+02  0.29026412721E+02 -0.11905805069E+03  0.12789597544E+03  0.41800000000E+01 0.  1.
         -5    1    3    3    0  502  0.26398947095E+02 -0.59893719996E+02 -0.39154437253E+02  0.76385237182E+02  0.41800000000E+01 0.  1.
        -11    1    1    2    0    0  0.30812734093E+02 -0.22637553154E+02 -0.12768607371E+02  0.40310305497E+02  0.00000000000E+00 0. -1.
         11    1    1    2    0    0 -0.20844717263E+02  0.53504860430E+02  0.10815919565E+02  0.58431639062E+02  0.00000000000E+00 0.  1.
</event>
<event>
 7    1  0.2989693E-009  0.1056777E+03  0.7561462E-02  0.1268790E+00
          1   -1    0    0  501    0  0.00000000000E+00  0.00000000000E+00  0.49409517368E+03  0.49409517368E+03  0.00000000000E+00 0. -1.
         -1   -1    0    0    0  501 -0.00000000000E+00 -0.00000000000E+00 -0.27768146551E+02  0.27768146551E+02  0.00000000000E+00 0.  1.
         25    2    1    2    0    0 -0.22327732418E+02  0.10466012564E+02  0.17242175901E+03  0.21444141572E+03  0.12509113774E+03 0.  0.
          5    1    3    3  502    0 -0.66717888796E+02  0.29124399050E+02  0.69489433793E+02  0.10072616896E+03  0.41800000000E+01 0. -1.
         -5    1    3    3    0  502  0.44390156378E+02 -0.18658386485E+02  0.10293232521E+03  0.11371524675E+03  0.41800000000E+01 0. -1.
        -11    1    1    2    0    0  0.35437679352E+02  0.30709504837E+02  0.14781720229E+03  0.15507684578E+03  0.00000000000E+00 0.  1.
         11    1    1    2    0    0 -0.13109946934E+02 -0.41175517401E+02  0.14608806583E+03  0.15234505873E+03  0.00000000000E+00 0. -1.
</event>
<event>
 7    1  0.2989693E-009  0.1107865E+03  0.7561462E-02  0.1259120E+00
          1   -1    0    0  501    0  0.00000000000E+00  0.00000000000E+00  0.23670785981E+02  0.23670785981E+02  0.00000000000E+00 0. -1.
         -1   -1    0    0    0  501 -0.00000000000E+00 -0.00000000000E+00 -0.70432834466E+03  0.70432834466E+03  0.00000000000E+00 0.  1.
         25    2    1    2    0    0 -0.43494186194E+01  0.27006604345E+02 -0.19816420185E+03  0.23593394433E+03  0.12508997190E+03 0.  0.
          5    1    3    3  502    0 -0.17493045527E+02 -0.46679353231E+02 -0.55115085431E+02  0.74431940066E+02  0.41800000000E+01 0.  1.
         -5    1    3    3    0  502  0.13143626908E+02  0.73685957576E+02 -0.14304911642E+03  0.16150200426E+03  0.41800000000E+01 0.  1.
        -11    1    1    2    0    0 -0.25319670270E+02 -0.51969505317E+02 -0.28837107039E+03  0.29410846541E+03  0.00000000000E+00 0. -1.
         11    1    1    2    0    0  0.29669088890E+02  0.24962900972E+02 -0.19412228644E+03  0.19795672091E+03  0.00000000000E+00 0.  1.
</event>
<event>
 7    1  0.2989693E-009  0.1217489E+03  0.7561462E-02  0.1240239E+00
         -2   -1    0    0    0  501 -0.00000000000E+00  0.00000000000E+00  0.60993984971E+02  0.60993984971E+02  0.00000000000E+00 0.  1.
          2   -1    0    0  501    0  0.00000000000E+00 -0.00000000000E+00 -0.33702510863E+03  0.33702510863E+03  0.00000000000E+00 0. -1.
         25    2    1    2    0    0 -0.41321816549E+02 -0.66027740935E+02 -0.22061948994E+03  0.26530693354E+03  0.12509058537E+03 0.  0.
          5    1    3    3  502    0 -0.45595386473E+02  0.10393818358E+02 -0.16239600789E+03  0.16904705411E+03  0.41800000000E+01 0.  1.
         -5    1    3    3    0  502  0.42735699243E+01 -0.76421559293E+02 -0.58223482050E+02  0.96259879424E+02  0.41800000000E+01 0.  1.
        -11    1    1    2    0    0  0.53695359204E+02  0.10080897114E+01 -0.17758197098E+02  0.56564665730E+02  0.00000000000E+00 0.  1.
         11    1    1    2    0    0 -0.12373542656E+02  0.65019651224E+02 -0.37653436623E+02  0.76147494329E+02  0.00000000000E+00 0. -1.
</event>
<event>
 7    1  0.2989693E-009  0.1398626E+03  0.7561462E-02  0.1213514E+00
         -1   -1    0    0    0  501 -0.00000000000E+00  0.00000000000E+00  0.44669378512E+03  0.44669378512E+03  0.00000000000E+00 0.  1.
          1   -1    0    0  501    0  0.00000000000E+00 -0.00000000000E+00 -0.51571342167E+02  0.51571342167E+02  0.00000000000E+00 0. -1.
         25    2    1    2    0    0 -0.10044558395E+03 -0.30205375894E+02  0.23694414727E+03  0.28773649320E+03  0.12509228804E+03 0.  0.
          5    1    3    3  502    0 -0.11164110647E+03  0.15980113380E+02  0.18880011399E+03  0.21995921467E+03  0.41800000000E+01 0. -1.
         -5    1    3    3    0  502  0.11195522522E+02 -0.46185489274E+02  0.48144033282E+02  0.67777278528E+02  0.41800000000E+01 0. -1.
        -11    1    1    2    0    0  0.71842233480E+01  0.24716507829E+02  0.93305882060E+02  0.96791045305E+02  0.00000000000E+00 0.  1.
         11    1    1    2    0    0  0.93261360597E+02  0.54888680649E+01  0.64872413628E+02  0.11373758879E+03  0.00000000000E+00 0. -1.
</event>
<event>
 7    1  0.2989693E-009  0.1794316E+03  0.7561462E-02  0.1168354E+00
          1   -1    0    0  501    0  0.00000000000E+00  0.00000000000E+00  0.41883831844E+03  0.41883831844E+03  0.00000000000E+00 0. -1.
         -1   -1    0    0    0  501 -0.00000000000E+00 -0.00000000000E+00 -0.10444611911E+03  0.10444611911E+03  0.00000000000E+00 0.  1.
         25    2    1    2    0    0 -0.99495937726E+02  0.14825473428E+03  0.14772984096E+03  0.26334337848E+03  0.12508685469E+03 0.  0.
          5    1    3    3  502    0 -0.85793090527E+02  0.13828095988E+03  0.59369379702E+02  0.17327513929E+03  0.41800000000E+01 0. -1.
         -5    1    3    3    0  502 -0.13702847199E+02  0.99737744018E+01  0.88360461261E+02  0.90068239194E+02  0.41800000000E+01 0. -1.
        -11    1    1    2    0    0  0.23698059277E+02 -0.39332673254E+02 -0.12321193748E+01  0.45936644599E+02  0.00000000000E+00 0.  1.
         11    1    1    2    0    0  0.75797878450E+02 -0.10892206103E+03  0.16789447775E+03  0.21400441447E+03  0.00000000000E+00 0. -1.
</event>
<event>
 7    1  0.2989693E-009  0.1241768E+03  0.7561462E-02  0.1236361E+00
          1   -1    0    0  501    0  0.00000000000E+00  0.00000000000E+00  0.34773900112E+03  0.34773900112E+03  0.00000000000E+00 0. -1.
         -1   -1    0    0    0  501 -0.00000000000E+00 -0.00000000000E+00 -0.76120355913E+02  0.76120355913E+02  0.00000000000E+00 0.  1.
         25    2    1    2    0    0 -0.78855919608E+02  0.60275712789E+02  0.23759968214E+03  0.28627327626E+03  0.12508941657E+03 0.  0.
          5    1    3    3  502    0  0.19747611339E+02  0.75373616085E+01 -0.21917645626E+01  0.21657705453E+02  0.41800000000E+01 0.  1.
         -5    1    3    3    0  502 -0.98603530947E+02  0.52738351181E+02  0.23979144670E+03  0.26461557080E+03  0.41800000000E+01 0.  1.
        -11    1    1    2    0    0  0.27659930853E+02  0.87115094465E+01 -0.20790906383E+02  0.35682263940E+02  0.00000000000E+00 0.  1.
         11    1    1    2    0    0  0.51195988755E+02 -0.68987222236E+02  0.54809869450E+02  0.10190381684E+03  0.00000000000E+00 0. -1.
</event>
<event>
 7    1  0.2989693E-009  0.9409634E+02  0.7561462E-02  0.1293224E+00
         -2   -1    0    0    0  501 -0.00000000000E+00  0.00000000000E+00  0.49973909989E+02  0.49973909989E+02  0.00000000000E+00 0.  1.
          2   -1    0    0  501    0  0.00000000000E+00 -0.00000000000E+00 -0.33415139010E+03  0.33415139010E+03  0.00000000000E+00 0. -1.
         25    2    1    2    0    0  0.54187852091E+01 -0.60265192484E+02 -0.11050611875E+03  0.17754265447E+03  0.12509410545E+03 0.  0.
          5    1    3    3  502    0  0.43200845977E+02 -0.79215348698E+01  0.57574744107E+01  0.44493648079E+02  0.41800000000E+01 0. -1.
         -5    1    3    3    0  502 -0.37782060768E+02 -0.52343657614E+02 -0.11626359316E+03  0.13304900639E+03  0.41800000000E+01 0. -1.
        -11    1    1    2    0    0 -0.27941696397E+02  0.41694400326E+02 -0.26917514082E+02  0.56953612532E+02  0.00000000000E+00 0.  1.
         11    1    1    2    0    0  0.22522911188E+02  0.18570792157E+02 -0.14675384728E+03  0.14962903308E+03  0.00000000000E+00 0. -1.
</event>
<event>
 7    1  0.2989693E-009  0.1327765E+03  0.7561462E-02  0.1223393E+00
          2   -1    0    0  501    0  0.00000000000E+00  0.00000000000E+00  0.25291095824E+03  0.25291095824E+03  0.00000000000E+00 0. -1.
         -2   -1    0    0    0  501 -0.00000000000E+00 -0.00000000000E+00 -0.89889466176E+02  0.89889466176E+02  0.00000000000E+00 0.  1.
         25    2    1    2    0    0 -0.66342882289E+01  0.95837793503E+02  0.13448281226E+03  0.20726250339E+03  0.12507286705E+03 0.  0.
          5    1    3    3  502    0 -0.26987063986E+02 -0.98316523622E+01 -0.66083795959E+01  0.29767534188E+02  0.41800000000E+01 0.  1.
         -5    1    3    3    0  502  0.20352775757E+02  0.10566944586E+03  0.14109119186E+03  0.17749496920E+03  0.41800000000E+01 0.  1.
        -11    1    1    2    0    0 -0.81569377680E+01 -0.10883801038E+03  0.11960804710E+02  0.10979667110E+03  0.00000000000E+00 0.  1.
         11    1    1    2    0    0  0.14791225997E+02  0.13000216873E+02  0.16577875091E+02  0.25741249926E+02  0.00000000000E+00 0. -1.
</event>
<event>
 7    1  0.2989693E-009  0.1038427E+03  0.7561462E-02  0.1272417E+00
          2   -1    0    0  501    0  0.00000000000E+00  0.00000000000E+00  0.72273219290E+02  0.72273219290E+02  0.00000000000E+00 0. -1.
         -2   -1    0    0    0  501 -0.00000000000E+00 -0.00000000000E+00 -0.26185808458E+03  0.26185808458E+03  0.00000000000E+00 0.  1.
         25    2    1    2    0    0  0.14942269857E+02  0.69920430873E+02 -0.47892881097E+02  0.15183152308E+03  0.12508775024E+03 0.  0.
          5    1    3    3  502    0  0.55893266329E+02  0.69422851419E+02 -0.61621895072E+02  0.10843578686E+03  0.41800000000E+01 0. -1.
         -5    1    3    3    0  502 -0.40950996472E+02  0.49757945454E+00  0.13729013975E+02  0.43395736220E+02  0.41800000000E+01 0. -1.
        -11    1    1    2    0    0  0.85952498026E+01 -0.11888679736E+02  0.10291427357E+02  0.17920170258E+02  0.00000000000E+00 0. -1.
         11    1    1    2    0    0 -0.23537519660E+02 -0.58031751137E+02 -0.15198341155E+03  0.16437961053E+03  0.00000000000E+00 0.  1.
</event>
<event>
 7    1  0.2989693E-009  0.1002820E+03  0.7561462E-02  0.1279704E+00
         -1   -1    0    0    0  501 -0.00000000000E+00  0.00000000000E+00  0.20024308004E+03  0.20024308004E+03  0.00000000000E+00 0.  1.
          1   -1    0    0  501    0  0.00000000000E+00 -0.00000000000E+00 -0.85223896065E+02  0.85223896065E+02  0.00000000000E+00 0. -1.
         25    2    1    2    0    0  0.24687837573E+02 -0.52920576757E+02  0.15035983479E+02  0.13886080236E+03  0.12508463081E+03 0.  0.
          5    1    3    3  502    0  0.61161613800E+02 -0.72940700001E+02  0.17892542240E+02  0.96946914273E+02  0.41800000000E+01 0.  1.
         -5    1    3    3    0  502 -0.36473776227E+02  0.20020123243E+02 -0.28565587604E+01  0.41913888091E+02  0.41800000000E+01 0.  1.
        -11    1    1    2    0    0 -0.27782427657E+02  0.32256608580E+02  0.11383653608E+03  0.12153645145E+03  0.00000000000E+00 0.  1.
         11    1    1    2    0    0  0.30945900845E+01  0.20663968177E+02 -0.13853335591E+02  0.25069722289E+02  0.00000000000E+00 0. -1.
</event>
<event>
 7    1  0.2989693E-009  0.2504918E+03  0.7561462E-02  0.1112994E+00
          1   -1    0    0  501    0  0.00000000000E+00  0.00000000000E+00  0.40326829465E+02  0.40326829465E+02  0.00000000000E+00 0. -1.
         -1   -1    0    0    0  501 -0.00000000000E+00 -0.00000000000E+00 -0.16920150918E+04  0.16920150918E+04  0.00000000000E+00 0.  1.
         25    2    1    2    0    0  0.78531909026E+02  0.22355261610E+03 -0.89833300332E+03  0.93743948420E+03  0.12509024256E+03 0.  0.
          5    1    3    3  502    0  0.84127122805E+02  0.11669961183E+03 -0.34458912759E+03  0.37343715863E+03  0.41800000000E+01 0.  1.
         -5    1    3    3    0  502 -0.55952137789E+01  0.10685300426E+03 -0.55374387573E+03  0.56400232557E+03  0.41800000000E+01 0.  1.
        -11    1    1    2    0    0  0.16652005588E+02 -0.31215339427E+02 -0.66820593636E+02  0.75608719335E+02  0.00000000000E+00 0. -1.
         11    1    1    2    0    0 -0.95183914614E+02 -0.19233727667E+03 -0.68653466539E+03  0.71929371774E+03  0.00000000000E+00 0.  1.
</event>
<event>
 7    1  0.3833740E-009  0.1100402E+03  0.7561462E-02  0.1260496E+00
         -1   -1    0    0    0  501 -0.00000000000E+00  0.00000000000E+00  0.41565523412E+02  0.41565523412E+02  0.00000000000E+00 0.  1.
          1   -1    0    0  501    0  0.00000000000E+00 -0.00000000000E+00 -0.49673960188E+03  0.49673960188E+03  0.00000000000E+00 0. -1.
         25    2    1    2    0    0 -0.65955565258E+02  0.30787866650E+01 -0.37263442252E+03  0.39857749429E+03  0.12509192858E+03 0.  0.
          5    1    3    3  502    0 -0.79384197024E+02  0.48430519937E+02 -0.22499282435E+03  0.24348841740E+03  0.41800000000E+01 0. -1.
         -5    1    3    3    0  502  0.13428631766E+02 -0.45351733272E+02 -0.14764159817E+03  0.15508907689E+03  0.41800000000E+01 0. -1.
        -11    1    1    2    0    0  0.38106566149E+02  0.20277754342E+02  0.64092104113E+01  0.43639153096E+02  0.00000000000E+00 0.  1.
         11    1    1    2    0    0  0.27848999109E+02 -0.23356541007E+02 -0.88948866363E+02  0.96088477906E+02  0.00000000000E+00 0. -1.
</event>
<event>
 7    1  0.2989693E-009  0.1280106E+03  0.7561462E-02  0.1230438E+00
          2   -1    0    0  501    0  0.00000000000E+00  0.00000000000E+00  0.10856451827E+03  0.10856451827E+03  0.00000000000E+00 0.  1.
         -2   -1    0    0    0  501 -0.00000000000E+00 -0.00000000000E+00 -0.31929877793E+03  0.31929877793E+03  0.00000000000E+00 0. -1.
         25    2    1    2    0    0  0.31369229493E+02  0.88841266749E+02 -0.24773443808E+03  0.29308261370E+03  0.12509303502E+03 0.  0.
          5    1    3    3  502    0  0.76911236906E+01  0.10697547059E+03 -0.23857045182E+03  0.26160320635E+03  0.41800000000E+01 0.  1.
         -5    1    3    3    0  502  0.23678105803E+02 -0.18134203839E+02 -0.91639862589E+01  0.31479407355E+02  0.41800000000E+01 0.  1.
        -11    1    1    2    0    0  0.23235146479E+02 -0.19652164412E+02 -0.13396146777E+02  0.33249606711E+02  0.00000000000E+00 0. -1.
         11    1    1    2    0    0 -0.54604375972E+02 -0.69189102336E+02  0.50396325194E+02  0.10153107579E+03  0.00000000000E+00 0.  1.
</event>
<event>
 7    1  0.2989693E-009  0.1024398E+03  0.7561462E-02  0.1275248E+00
          1   -1    0    0  501    0  0.00000000000E+00  0.00000000000E+00  0.88017437526E+03  0.88017437526E+03  0.00000000000E+00 0. -1.
         -1   -1    0    0    0  501 -0.00000000000E+00 -0.00000000000E+00 -0.15153359159E+02  0.15153359159E+02  0.00000000000E+00 0.  1.
         25    2    1    2    0    0 -0.10931165617E+02 -0.20895448162E+02  0.58600754631E+03  0.59967375573E+03  0.12509060252E+03 0.  0.
          5    1    3    3  502    0 -0.60627463328E+02  0.54295936306E+01  0.18702883700E+03  0.19672932691E+03  0.41800000000E+01 0.  1.
         -5    1    3    3    0  502  0.49696297711E+02 -0.26325041793E+02  0.39897870931E+03  0.40294442882E+03  0.41800000000E+01 0.  1.
        -11    1    1    2    0    0  0.32400381627E+02  0.44834703496E+02  0.10485419760E+03  0.11855099376E+03  0.00000000000E+00 0.  1.
         11    1    1    2    0    0 -0.21469216010E+02 -0.23939255334E+02  0.17415927219E+03  0.17710298493E+03  0.00000000000E+00 0. -1.
</event>
<event>
 7    1  0.2989693E-009  0.1557444E+03  0.7561462E-02  0.1193587E+00
          1   -1    0    0  501    0  0.00000000000E+00  0.00000000000E+00  0.97558095549E+02  0.97558095549E+02  0.00000000000E+00 0. -1.
         -1   -1    0    0    0  501 -0.00000000000E+00 -0.00000000000E+00 -0.27381457387E+03  0.27381457387E+03  0.00000000000E+00 0.  1.
         25    2    1    2    0    0  0.11831366032E+03 -0.22534510869E+02 -0.11149185265E+03  0.20636014462E+03  0.12509256444E+03 0.  0.
          5    1    3    3  502    0 -0.16609740606E+02  0.21522678544E+02 -0.30159509394E+01  0.27670878822E+02  0.41800000000E+01 0. -1.
         -5    1    3    3    0  502  0.13492340093E+03 -0.44057189413E+02 -0.10847590171E+03  0.17868926579E+03  0.41800000000E+01 0. -1.
        -11    1    1    2    0    0 -0.60479018556E+02 -0.26626921919E+02 -0.59505505484E+02  0.88924742559E+02  0.00000000000E+00 0. -1.
         11    1    1    2    0    0 -0.57834641769E+02  0.49161432789E+02 -0.52591201915E+01  0.76087782249E+02  0.00000000000E+00 0.  1.
</event>
<event>
 7    1  0.2989693E-009  0.1129720E+03  0.7561462E-02  0.1255163E+00
         -2   -1    0    0    0  501 -0.00000000000E+00  0.00000000000E+00  0.61885910433E+02  0.61885910433E+02  0.00000000000E+00 0. -1.
          2   -1    0    0  501    0  0.00000000000E+00 -0.00000000000E+00 -0.33634787007E+03  0.33634787007E+03  0.00000000000E+00 0.  1.
         25    2    1    2    0    0 -0.43187501192E+02  0.55305218564E+02 -0.59482350042E+02  0.15527447066E+03  0.12509270088E+03 0.  0.
          5    1    3    3  502    0  0.25053524680E+02  0.69051875190E+02 -0.27401989038E+02  0.78512304573E+02  0.41800000000E+01 0.  1.
         -5    1    3    3    0  502 -0.68241025873E+02 -0.13746656625E+02 -0.32080361004E+02  0.76762166089E+02  0.41800000000E+01 0.  1.
        -11    1    1    2    0    0  0.29832046233E+02 -0.45848962328E+01 -0.10651045070E+02  0.32006515227E+02  0.00000000000E+00 0. -1.
         11    1    1    2    0    0  0.13355454959E+02 -0.50720322332E+02 -0.20432856452E+03  0.21095279461E+03  0.00000000000E+00 0.  1.
</event>
<event>
 7    1  0.2989693E-009  0.1006725E+03  0.7561462E-02  0.1278888E+00
         -1   -1    0    0    0  501 -0.00000000000E+00  0.00000000000E+00  0.14818652513E+04  0.14818652513E+04  0.00000000000E+00 0.  1.
          1   -1    0    0  501    0  0.00000000000E+00 -0.00000000000E+00 -0.12187508459E+02  0.12187508459E+02  0.00000000000E+00 0. -1.
         25    2    1    2    0    0 -0.34868831811E+02 -0.69599247459E+02  0.92186581023E+03  0.93356473661E+03  0.12508658880E+03 0.  0.
          5    1    3    3  502    0  0.46592564693E+01 -0.84545552800E+00  0.65744343318E+03  0.65747377415E+03  0.41800000000E+01 0.  1.
         -5    1    3    3    0  502 -0.39528088280E+02 -0.68753791931E+02  0.26442237706E+03  0.27609096247E+03  0.41800000000E+01 0.  1.
        -11    1    1    2    0    0  0.53559847691E+02  0.78403309916E+02  0.48949974312E+03  0.49862384099E+03  0.00000000000E+00 0.  1.
         11    1    1    2    0    0 -0.18691015881E+02 -0.88040624569E+01  0.58312189502E+02  0.61864182165E+02  0.00000000000E+00 0. -1.
</event>
<event>
 7    1  0.2989693E-009  0.2222174E+03  0.7561462E-02  0.1132241E+00
          3   -1    0    0  501    0  0.00000000000E+00  0.00000000000E+00  0.21820449457E+03  0.21820449457E+03  0.00000000000E+00 0. -1.
         -3   -1    0    0    0  501 -0.00000000000E+00 -0.00000000000E+00 -0.27055826308E+03  0.27055826308E+03  0.00000000000E+00 0.  1.
         25    2    1    2    0    0 -0.10980868925E+03  0.18328056497E+03 -0.68157435252E+02  0.25679228091E+03  0.12508847200E+03 0.  0.
          5    1    3    3  502    0 -0.10932721011E+03  0.15056774257E+03 -0.57537849411E+01  0.18620865290E+03  0.41800000000E+01 0.  1.
         -5    1    3    3    0  502 -0.48147913176E+00  0.32712822396E+02 -0.62403650311E+02  0.70583628012E+02  0.41800000000E+01 0.  1.
        -11    1    1    2    0    0  0.43114908980E+02 -0.13835947366E+03  0.35449373890E+02  0.14919416020E+03  0.00000000000E+00 0. -1.
         11    1    1    2    0    0  0.66693780266E+02 -0.44921091303E+02 -0.19645707153E+02  0.82776316538E+02  0.00000000000E+00 0.  1.
</event>
<event>
 7    1  0.2989693E-009  0.9370431E+02  0.7561462E-02  0.1294121E+00
         -2   -1    0    0    0  501 -0.00000000000E+00  0.00000000000E+00  0.11088115754E+03  0.11088115754E+03  0.00000000000E+00 0.  1.
          2   -1    0    0  501    0  0.00000000000E+00 -0.00000000000E+00 -0.12461055093E+03  0.12461055093E+03  0.00000000000E+00 0. -1.
         25    2    1    2    0    0  0.26563253586E+02 -0.30823000781E+02 -0.28494540724E+02  0.13459358694E+03  0.12509129056E+03 0.  0.
          5    1    3    3  502    0 -0.31708337934E+02 -0.14093769199E+02 -0.57475187933E+02  0.67267545315E+02  0.41800000000E+01 0.  1.
         -5    1    3    3    0  502  0.58271591521E+02 -0.16729231582E+02  0.28980647209E+02  0.67326041621E+02  0.41800000000E+01 0.  1.
        -11    1    1    2    0    0  0.23303278558E+02 -0.11771049088E+02 -0.13609197776E+02  0.29441648261E+02  0.00000000000E+00 0. -1.
         11    1    1    2    0    0 -0.49866532144E+02  0.42594049869E+02  0.28374345107E+02  0.71456473273E+02  0.00000000000E+00 0.  1.
</event>
<event>
 7    1  0.2989693E-009  0.1439787E+03  0.7561462E-02  0.1208073E+00
         -1   -1    0    0    0  501 -0.00000000000E+00  0.00000000000E+00  0.22079000677E+02  0.22079000677E+02  0.00000000000E+00 0.  1.
          1   -1    0    0  501    0  0.00000000000E+00 -0.00000000000E+00 -0.98533611715E+03  0.98533611715E+03  0.00000000000E+00 0. -1.
         25    2    1    2    0    0 -0.68167255415E+02 -0.72145028327E+02 -0.50363535660E+03  0.52834376698E+03  0.12508750484E+03 0.  0.
          5    1    3    3  502    0 -0.47342970584E+02 -0.10796482521E+03 -0.36493985945E+03  0.38353139867E+03  0.41800000000E+01 0. -1.
         -5    1    3    3    0  502 -0.20824284831E+02  0.35819796883E+02 -0.13869549715E+03  0.14481236831E+03  0.41800000000E+01 0. -1.
        -11    1    1    2    0    0  0.45501534655E+01 -0.17693244787E+02 -0.26553115603E+02  0.32230773429E+02  0.00000000000E+00 0.  1.
         11    1    1    2    0    0  0.63617101949E+02  0.89838273114E+02 -0.43306864427E+03  0.44684057741E+03  0.00000000000E+00 0. -1.
</event>
<event>
 7    1  0.3248646E-009  0.8684526E+02  0.7561462E-02  0.1310676E+00
         -1   -1    0    0    0  501 -0.00000000000E+00  0.00000000000E+00  0.22265189746E+03  0.22265189746E+03  0.00000000000E+00 0.  1.
          1   -1    0    0  501    0  0.00000000000E+00 -0.00000000000E+00 -0.61149339575E+02  0.61149339575E+02  0.00000000000E+00 0. -1.
         25    2    1    2    0    0  0.25667574028E+01  0.42665614569E+02  0.82124788061E+02  0.15561754569E+03  0.12508156060E+03 0.  0.
          5    1    3    3  502    0 -0.19489539889E+02 -0.20902176402E+02 -0.18643931176E+02  0.34377488464E+02  0.41800000000E+01 0. -1.
         -5    1    3    3    0  502  0.22056297292E+02  0.63567790971E+02  0.10076871924E+03  0.12124005723E+03  0.41800000000E+01 0. -1.
        -11    1    1    2    0    0  0.30926813707E+02 -0.23114305729E+02  0.80612303918E+02  0.89381667463E+02  0.00000000000E+00 0.  1.
         11    1    1    2    0    0 -0.33493571110E+02 -0.19551308841E+02 -0.12345340920E+01  0.38802023884E+02  0.00000000000E+00 0. -1.
</event>
<event>
 7    1  0.2989693E-009  0.1785746E+03  0.7561462E-02  0.1169190E+00
          2   -1    0    0  501    0  0.00000000000E+00  0.00000000000E+00  0.50722650914E+03  0.50722650914E+03  0.00000000000E+00 0.  1.
         -2   -1    0    0    0  501 -0.00000000000E+00 -0.00000000000E+00 -0.81856903908E+02  0.81856903908E+02  0.00000000000E+00 0. -1.
         25    2    1    2    0    0  0.76683302396E+01  0.14919837589E+03  0.10002283855E+03  0.21902245718E+03  0.12508920760E+03 0.  0.
          5    1    3    3  502    0  0.54045833046E+02  0.48585955363E+02  0.76672168503E+02  0.10572436309E+03  0.41800000000E+01 0. -1.
         -5    1    3    3    0  502 -0.46377502806E+02  0.10061242053E+03  0.23350670051E+02  0.11329809409E+03  0.41800000000E+01 0. -1.
        -11    1    1    2    0    0 -0.24850623105E+02 -0.16087647109E+01  0.74020604778E+02  0.78097320852E+02  0.00000000000E+00 0.  1.
         11    1    1    2    0    0  0.17182292866E+02 -0.14758961118E+03  0.25132616190E+03  0.29196363501E+03  0.00000000000E+00 0. -1.
</event>
<event>
 7    1  0.2989693E-009  0.9920067E+02  0.7561462E-02  0.1281986E+00
          3   -1    0    0  501    0  0.00000000000E+00  0.00000000000E+00  0.94418349830E+02  0.94418349830E+02  0.00000000000E+00 0. -1.
         -3   -1    0    0    0  501 -0.00000000000E+00 -0.00000000000E+00 -0.12781735705E+03  0.12781735705E+03  0.00000000000E+00 0.  1.
         25    2    1    2    0    0  0.12706464894E+02  0.17366613436E+01 -0.33684569560E+02  0.13018348061E+03  0.12509443695E+03 0.  0.
          5    1    3    3  502    0  0.46385116525E+02 -0.44412182083E+02 -0.34241320258E+02  0.72896922880E+02  0.41800000000E+01 0. -1.
         -5    1    3    3    0  502 -0.33678651631E+02  0.46148843426E+02  0.55675069863E+00  0.57286557731E+02  0.41800000000E+01 0. -1.
        -11    1    1    2    0    0 -0.19095122015E+01 -0.38448788590E+02  0.25544712067E+02  0.46200518347E+02  0.00000000000E+00 0. -1.
         11    1    1    2    0    0 -0.10796952692E+02  0.36712127247E+02 -0.25259149725E+02  0.45851707921E+02  0.00000000000E+00 0.  1.
</event>
<event>
 7    1  0.2989693E-009  0.9153890E+02  0.7561462E-02  0.1299167E+00
         -2   -1    0    0    0  501 -0.00000000000E+00  0.00000000000E+00  0.29265702026E+02  0.29265702026E+02  0.00000000000E+00 0.  1.
          2   -1    0    0  501    0  0.00000000000E+00 -0.00000000000E+00 -0.49505808900E+03  0.49505808900E+03  0.00000000000E+00 0. -1.
         25    2    1    2    0    0  0.13810550728E+02 -0.25903338204E+02 -0.17526579640E+03  0.21731225801E+03  0.12507919033E+03 0.  0.
          5    1    3    3  502    0  0.14481021577E+02 -0.58253004378E+02 -0.17460277158E+03  0.18468002801E+03  0.41800000000E+01 0.  1.
         -5    1    3    3    0  502 -0.67047084935E+00  0.32349666174E+02 -0.66302482470E+00  0.32632229998E+02  0.41800000000E+01 0.  1.
        -11    1    1    2    0    0 -0.49976889730E+02  0.18970079217E+02 -0.23026963693E+03  0.23639301831E+03  0.00000000000E+00 0. -1.
         11    1    1    2    0    0  0.36166339002E+02  0.69332589868E+01 -0.60256953636E+02  0.70618514700E+02  0.00000000000E+00 0.  1.
</event>
<event>
 7    1  0.2989693E-009  0.1680364E+03  0.7561462E-02  0.1179911E+00
          2   -1    0    0  501    0  0.00000000000E+00  0.00000000000E+00  0.17151168994E+03  0.17151168994E+03  0.00000000000E+00 0. -1.
         -2   -1    0    0    0  501 -0.00000000000E+00 -0.00000000000E+00 -0.41934148458E+03  0.41934148458E+03  0.00000000000E+00 0.  1.
         25    2    1    2    0    0  0.93723639398E+02 -0.11141057982E+03 -0.34095353342E+03  0.39127251292E+03  0.12509368305E+03 0.  0.
          5    1    3    3  502    0  0.61770377506E+02 -0.13038431628E+03 -0.31269541813E+03  0.34440027060E+03  0.41800000000E+01 0.  1.
         -5    1    3    3    0  502  0.31953261892E+02  0.18973736460E+02 -0.28258115294E+02  0.46872242327E+02  0.41800000000E+01 0.  1.
        -11    1    1    2    0    0 -0.31603884059E+02  0.77209270608E+02  0.11386476040E+01  0.83434845681E+02  0.00000000000E+00 0.  1.
         11    1    1    2    0    0 -0.62119755339E+02  0.34201309216E+02  0.91985091181E+02  0.11614581592E+03  0.00000000000E+00 0. -1.
</event>
<event>
 7    1  0.2989693E-009  0.1052734E+03  0.7561462E-02  0.1269582E+00
          4   -1    0    0  501    0  0.00000000000E+00  0.00000000000E+00  0.73752105814E+02  0.73752105814E+02  0.00000000000E+00 0. -1.
         -4   -1    0    0    0  501 -0.00000000000E+00 -0.00000000000E+00 -0.15839051834E+03  0.15839051834E+03  0.00000000000E+00 0.  1.
         25    2    1    2    0    0 -0.10584732177E+02  0.12505920473E+02 -0.50257416644E+02  0.13580039188E+03  0.12508998323E+03 0.  0.
          5    1    3    3  502    0  0.49958172725E+02  0.35276178790E+02 -0.22717144513E+02  0.65374068765E+02  0.41800000000E+01 0.  1.
         -5    1    3    3    0  502 -0.60542904902E+02 -0.22770258317E+02 -0.27540272132E+02  0.70426323110E+02  0.41800000000E+01 0.  1.
        -11    1    1    2    0    0  0.45364362488E+01 -0.48105414141E+02 -0.28486403132E+01  0.48402736236E+02  0.00000000000E+00 0. -1.
         11    1    1    2    0    0  0.60482959282E+01  0.35599493668E+02 -0.31532355567E+02  0.47939496041E+02  0.00000000000E+00 0.  1.
</event>
<event>
 7    1  0.2989693E-009  0.1002309E+03  0.7561462E-02  0.1279811E+00
          1   -1    0    0  501    0  0.00000000000E+00  0.00000000000E+00  0.50305323372E+03  0.50305323372E+03  0.00000000000E+00 0. -1.
         -1   -1    0    0    0  501 -0.00000000000E+00 -0.00000000000E+00 -0.49835687464E+02  0.49835687464E+02  0.00000000000E+00 0.  1.
         25    2    1    2    0    0 -0.66969477799E+02  0.23195804511E+02  0.85189305031E+02  0.16711338132E+03  0.12508680275E+03 0.  0.
          5    1    3    3  502    0  0.18213779630E+02  0.16774670179E+01  0.76453561195E+02  0.78722138458E+02  0.41800000000E+01 0. -1.
         -5    1    3    3    0  502 -0.85183257429E+02  0.21518337493E+02  0.87357438361E+01  0.88391242864E+02  0.41800000000E+01 0. -1.
        -11    1    1    2    0    0  0.16689348420E+02 -0.37852190818E+02  0.57345844827E+02  0.70709749110E+02  0.00000000000E+00 0.  1.
         11    1    1    2    0    0  0.50280129379E+02  0.14656386307E+02  0.31068239640E+03  0.31506579075E+03  0.00000000000E+00 0. -1.
</event>
<event>
 7    1  0.2989693E-009  0.1786006E+03  0.7561462E-02  0.1169164E+00
          1   -1    0    0  501    0  0.00000000000E+00  0.00000000000E+00  0.14005187800E+04  0.14005187800E+04  0.00000000000E+00 0. -1.
         -1   -1    0    0    0  501 -0.00000000000E+00 -0.00000000000E+00 -0.23075843440E+02  0.23075843440E+02  0.00000000000E+00 0.  1.
         25    2    1    2    0    0 -0.62525014888E+02  0.12729442602E+03  0.69402607872E+03  0.71932679252E+03  0.12508232533E+03 0.  0.
          5    1    3    3  502    0 -0.26784961811E+02  0.14547593717E+03  0.57097640573E+03  0.58984083512E+03  0.41800000000E+01 0.  1.
         -5    1    3    3    0  502 -0.35740053077E+02 -0.18181511141E+02  0.12304967299E+03  0.12948595740E+03  0.41800000000E+01 0.  1.
        -11    1    1    2    0    0  0.71918369607E+02 -0.42388365790E+02  0.37952865782E+03  0.38860137358E+03  0.00000000000E+00 0.  1.
         11    1    1    2    0    0 -0.93933547190E+01 -0.84906060234E+02  0.30388819997E+03  0.31566645729E+03  0.00000000000E+00 0. -1.
</event>
<event>
 7    1  0.2989693E-009  0.1507369E+03  0.7561462E-02  0.1199570E+00
          1   -1    0    0  501    0  0.00000000000E+00  0.00000000000E+00  0.11316606462E+04  0.11316606462E+04  0.00000000000E+00 0. -1.
         -1   -1    0    0    0  501 -0.00000000000E+00 -0.00000000000E+00 -0.25922119693E+02  0.25922119693E+02  0.00000000000E+00 0.  1.
         25    2    1    2    0    0 -0.29186839088E+02  0.10708643663E+03  0.83088068791E+03  0.84754332226E+03  0.12509032363E+03 0.  0.
          5    1    3    3  502    0  0.43237107926E+02  0.69879518087E+02  0.33196265487E+03  0.34200770631E+03  0.41800000000E+01 0. -1.
         -5    1    3    3    0  502 -0.72423947015E+02  0.37206918545E+02  0.49891803305E+03  0.50553561595E+03  0.41800000000E+01 0. -1.
        -11    1    1    2    0    0 -0.24690964759E+02 -0.64254606527E+02  0.18101476331E+03  0.19366115443E+03  0.00000000000E+00 0.  1.
         11    1    1    2    0    0  0.53877803847E+02 -0.42831830105E+02  0.93843075246E+02  0.11637828917E+03  0.00000000000E+00 0. -1.
</event>
<event>
 7    1  0.2989693E-009  0.6277453E+02  0.7561462E-02  0.1386544E+00
         -2   -1    0    0    0  501 -0.00000000000E+00  0.00000000000E+00  0.31073857948E+02  0.31073857948E+02  0.00000000000E+00 0.  1.
          2   -1    0    0  501    0  0.00000000000E+00 -0.00000000000E+00 -0.44106859014E+03  0.44106859014E+03  0.00000000000E+00 0. -1.
         25    2    1    2    0    0  0.41140207904E+02 -0.15677415943E+02 -0.22358871337E+03  0.25995706180E+03  0.12508982035E+03 0.  0.
          5    1    3    3  502    0 -0.48124639503E+01 -0.24765282183E+02 -0.20922733044E+03  0.21078431444E+03  0.41800000000E+01 0. -1.
         -5    1    3    3    0  502  0.45952671855E+02  0.90878662403E+01 -0.14361382934E+02  0.49172747362E+02  0.41800000000E+01 0. -1.
        -11    1    1    2    0    0 -0.38537740743E+02  0.15354338652E+01 -0.19267612904E+03  0.19649836061E+03  0.00000000000E+00 0. -1.
         11    1    1    2    0    0 -0.26024671608E+01  0.14141982077E+02  0.62701102238E+01  0.15687025678E+02  0.00000000000E+00 0.  1.
</event>
<event>
 7    1  0.3024799E-009  0.1035027E+03  0.7561462E-02  0.1273098E+00
          1   -1    0    0  501    0  0.00000000000E+00  0.00000000000E+00  0.78494572959E+02  0.78494572959E+02  0.00000000000E+00 0. -1.
         -1   -1    0    0    0  501 -0.00000000000E+00 -0.00000000000E+00 -0.23388106954E+03  0.23388106954E+03  0.00000000000E+00 0.  1.
         25    2    1    2    0    0  0.12762250573E+02 -0.70628958381E+02 -0.42726679129E+02  0.15041529599E+03  0.12509143599E+03 0.  0.
          5    1    3    3  502    0 -0.19422945950E+02 -0.82260159696E+01  0.37803902786E+02  0.43491673157E+02  0.41800000000E+01 0.  1.
         -5    1    3    3    0  502  0.32185196523E+02 -0.62402942411E+02 -0.80530581915E+02  0.10692362284E+03  0.41800000000E+01 0.  1.
        -11    1    1    2    0    0 -0.51538874058E+02  0.33444319800E+02 -0.71568033079E+02  0.94322645345E+02  0.00000000000E+00 0.  1.
         11    1    1    2    0    0  0.38776623486E+02  0.37184638581E+02 -0.41091784369E+02  0.67637701158E+02  0.00000000000E+00 0. -1.
</event>
<event>
 7    1  0.2989693E-009  0.8945776E+02  0.7561462E-02  0.1304170E+00
         -4   -1    0    0    0  501 -0.00000000000E+00  0.00000000000E+00  0.58329961536E+02  0.58329961536E+02  0.00000000000E+00 0.  1.
          4   -1    0    0  501    0  0.00000000000E+00 -0.00000000000E+00 -0.25396403252E+03  0.25396403252E+03  0.00000000000E+00 0. -1.
         25    2    1    2    0    0  0.49023919888E+02  0.18361483779E+02 -0.15868573704E+03  0.20873122695E+03  0.12508826146E+03 0.  0.
          5    1    3    3  502    0  0.72443744093E+02 -0.24906917068E+02 -0.56625406852E+02  0.95353865560E+02  0.41800000000E+01 0.  1.
         -5    1    3    3    0  502 -0.23419824204E+02  0.43268400847E+02 -0.10206033019E+03  0.11337736139E+03  0.41800000000E+01 0.  1.
        -11    1    1    2    0    0 -0.24085497496E+02 -0.52804112984E+01  0.25246241132E+02  0.35289752399E+02  0.00000000000E+00 0.  1.
         11    1    1    2    0    0 -0.24938422393E+02 -0.13081072481E+02 -0.62194575081E+02  0.68273014715E+02  0.00000000000E+00 0. -1.
</event>
<event>
 7    1  0.2993869E-009  0.1494749E+03  0.7561462E-02  0.1201120E+00
          1   -1    0    0  501    0  0.00000000000E+00  0.00000000000E+00  0.41136897421E+03  0.41136897421E+03  0.00000000000E+00 0. -1.
         -1   -1    0    0    0  501 -0.00000000000E+00 -0.00000000000E+00 -0.75558905922E+02  0.75558905922E+02  0.00000000000E+00 0.  1.
         25    2    1    2    0    0  0.13330973620E+03 -0.24040841541E+02  0.21644687782E+03  0.28433346532E+03  0.12508725257E+03 0.  0.
          5    1    3    3  502    0  0.20078712329E+02 -0.43313675883E+02  0.13557835496E+03  0.14379913749E+03  0.41800000000E+01 0. -1.
         -5    1    3    3    0  502  0.11323102387E+03  0.19272834342E+02  0.80868522853E+02  0.14053432783E+03  0.41800000000E+01 0. -1.
        -11    1    1    2    0    0 -0.72392183347E+02  0.19666603073E+02  0.78163077650E+01  0.75422133046E+02  0.00000000000E+00 0.  1.
         11    1    1    2    0    0 -0.60917552856E+02  0.43742384682E+01  0.11154688271E+03  0.12717228177E+03  0.00000000000E+00 0. -1.
</event>
<event>
 7    1  0.2989693E-009  0.8993213E+02  0.7561462E-02  0.1303016E+00
         -4   -1    0    0    0  501 -0.00000000000E+00  0.00000000000E+00  0.48745745664E+02  0.48745745664E+02  0.00000000000E+00 0.  1.
          4   -1    0    0  501    0  0.00000000000E+00 -0.00000000000E+00 -0.49025240338E+03  0.49025240338E+03  0.00000000000E+00 0. -1.
         25    2    1    2    0    0 -0.19687141650E+02 -0.79400037164E+01 -0.42582868975E+03  0.44432832844E+03  0.12508782209E+03 0.  0.
          5    1    3    3  502    0 -0.63605002603E+02 -0.34935131498E+01 -0.12610483702E+03  0.14134250355E+03  0.41800000000E+01 0. -1.
         -5    1    3    3    0  502  0.43917860952E+02 -0.44464905667E+01 -0.29972385273E+03  0.30298582489E+03  0.41800000000E+01 0. -1.
        -11    1    1    2    0    0  0.37672808846E+02  0.26331105280E+02  0.20460468970E+02  0.50311016906E+02  0.00000000000E+00 0.  1.
         11    1    1    2    0    0 -0.17985667196E+02 -0.18391101564E+02 -0.36138436936E+02  0.44358803696E+02  0.00000000000E+00 0. -1.
</event>
<event>
 7    1  0.2989693E-009  0.1536903E+03  0.7561462E-02  0.1196010E+00
         -2   -1    0    0    0  501 -0.00000000000E+00  0.00000000000E+00  0.32878237925E+02  0.32878237925E+02  0.00000000000E+00 0. -1.
          2   -1    0    0  501    0  0.00000000000E+00 -0.00000000000E+00 -0.10389068658E+04  0.10389068658E+04  0.00000000000E+00 0.  1.
         25    2    1    2    0    0 -0.14211083400E+02  0.12147755240E+03 -0.78315702706E+03  0.80246044169E+03  0.12509628617E+03 0.  0.
          5    1    3    3  502    0  0.49693039184E+02  0.51340220638E+02 -0.46345487379E+03  0.46894894055E+03  0.41800000000E+01 0. -1.
         -5    1    3    3    0  502 -0.63904122584E+02  0.70137331764E+02 -0.31970215327E+03  0.33351150115E+03  0.41800000000E+01 0. -1.
        -11    1    1    2    0    0 -0.28454505246E+02 -0.52830715016E+02 -0.48586609111E+02  0.77210115288E+02  0.00000000000E+00 0. -1.
         11    1    1    2    0    0  0.42665588646E+02 -0.68646837386E+02 -0.17428499166E+03  0.19211454670E+03  0.00000000000E+00 0.  1.
</event>
<event>
 7    1  0.2989693E-009  0.9165387E+02  0.7561462E-02  0.1298895E+00
          4   -1    0    0  501    0  0.00000000000E+00  0.00000000000E+00  0.34855458500E+03  0.34855458500E+03  0.00000000000E+00 0. -1.
         -4   -1    0    0    0  501 -0.00000000000E+00 -0.00000000000E+00 -0.65259580338E+02  0.65259580338E+02  0.00000000000E+00 0.  1.
         25    2    1    2    0    0 -0.17923524858E+02 -0.52580103343E+02  0.31281826609E+02  0.14039955255E+03  0.12509021412E+03 0.  0.
          5    1    3    3  502    0  0.32459133226E+02  0.69662052591E-01  0.54699679095E+02  0.63742666055E+02  0.41800000000E+01 0.  1.
         -5    1    3    3    0  502 -0.50382658085E+02 -0.52649765396E+02 -0.23417852487E+02  0.76656886494E+02  0.41800000000E+01 0.  1.
        -11    1    1    2    0    0 -0.17393423565E+02  0.32756525936E+02  0.21617897043E+03  0.21933733935E+03  0.00000000000E+00 0.  1.
         11    1    1    2    0    0  0.35316948423E+02  0.19823577407E+02  0.35834207621E+02  0.54077273442E+02  0.00000000000E+00 0. -1.
</event>
<event>
 7    1  0.2989693E-009  0.1053800E+03  0.7561462E-02  0.1269373E+00
          2   -1    0    0  501    0  0.00000000000E+00  0.00000000000E+00  0.41028281645E+03  0.41028281645E+03  0.00000000000E+00 0. -1.
         -2   -1    0    0    0  501 -0.00000000000E+00 -0.00000000000E+00 -0.34641186320E+02  0.34641186320E+02  0.00000000000E+00 0.  1.
         25    2    1    2    0    0 -0.30317747676E+02  0.16903464024E+02  0.14793331186E+03  0.19681707614E+03  0.12509118188E+03 0.  0.
          5    1    3    3  502    0 -0.31379816644E+02  0.61935929977E+02  0.41081048543E+02  0.80782902053E+02  0.41800000000E+01 0. -1.
         -5    1    3    3    0  502  0.10620689681E+01 -0.45032465954E+02  0.10685226332E+03  0.11603417409E+03  0.41800000000E+01 0. -1.
        -11    1    1    2    0    0 -0.51953700626E+01 -0.48290242599E+02  0.14324057416E+03  0.15125079003E+03  0.00000000000E+00 0.  1.
         11    1    1    2    0    0  0.35513117739E+02  0.31386778576E+02  0.84467744110E+02  0.96856136594E+02  0.00000000000E+00 0. -1.
</event>
<event>
 7    1  0.2989693E-009  0.1050908E+03  0.7561462E-02  0.1269941E+00
          2   -1    0    0  501    0  0.00000000000E+00  0.00000000000E+00  0.81777220944E+02  0.81777220944E+02  0.00000000000E+00 0. -1.
         -2   -1    0    0    0  501 -0.00000000000E+00 -0.00000000000E+00 -0.16470797439E+03  0.16470797439E+03  0.00000000000E+00 0.  1.
         25    2    1    2    0    0 -0.34263282062E+02  0.42080503524E+02 -0.59345569531E+02  0.14871248982E+03  0.12509503080E+03 0.  0.
          5    1    3    3  502    0  0.23106264225E+01  0.69610494678E+02  0.46383940219E+01  0.69928156439E+02  0.41800000000E+01 0.  1.
         -5    1    3    3    0  502 -0.36573908485E+02 -0.27529991155E+02 -0.63983963553E+02  0.78784333384E+02  0.41800000000E+01 0.  1.
        -11    1    1    2    0    0 -0.13871557722E+02  0.14559170671E+02 -0.89686542353E+01  0.22018772061E+02  0.00000000000E+00 0.  1.
         11    1    1    2    0    0  0.48134839784E+02 -0.56639674195E+02 -0.14616529684E+02  0.75753933455E+02  0.00000000000E+00 0. -1.
</event>
<event>
 7    1  0.2989693E-009  0.1370940E+03  0.7561462E-02  0.1217294E+00
          1   -1    0    0  501    0  0.00000000000E+00  0.00000000000E+00  0.20125720439E+03  0.20125720439E+03  0.00000000000E+00 0. -1.
         -1   -1    0    0    0  501 -0.00000000000E+00 -0.00000000000E+00 -0.14032878732E+03  0.14032878732E+03  0.00000000000E+00 0.  1.
         25    2    1    2    0    0  0.26602010080E+02 -0.12439969938E+03  0.15455001107E+02  0.17908545235E+03  0.12509912085E+03 0.  0.
          5    1    3    3  502    0  0.27365440374E+02 -0.81729138365E+02  0.69000456671E+02  0.11048554116E+03  0.41800000000E+01 0.  1.
         -5    1    3    3    0  502 -0.76343029426E+00 -0.42670561012E+02 -0.53545455564E+02  0.68599911184E+02  0.41800000000E+01 0.  1.
        -11    1    1    2    0    0  0.10341627573E+02  0.10046711426E+03  0.25670804824E+01  0.10103059047E+03  0.00000000000E+00 0.  1.
         11    1    1    2    0    0 -0.36943637653E+02  0.23932585120E+02  0.42906335483E+02  0.61469948903E+02  0.00000000000E+00 0. -1.
</event>
<event>
 7    1  0.2989693E-009  0.1153246E+03  0.7561462E-02  0.1251016E+00
          1   -1    0    0  501    0  0.00000000000E+00  0.00000000000E+00  0.99472796535E+02  0.99472796535E+02  0.00000000000E+00 0. -1.
         -1   -1    0    0    0  501 -0.00000000000E+00 -0.00000000000E+00 -0.17333014958E+03  0.17333014958E+03  0.00000000000E+00 0.  1.
         25    2    1    2    0    0 -0.66204686490E+01 -0.65386427526E+02 -0.71731330468E+01  0.14148823838E+03  0.12509297443E+03 0.  0.
          5    1    3    3  502    0 -0.52510593117E+02 -0.43944857613E+02 -0.41482635015E+02  0.80167289513E+02  0.41800000000E+01 0. -1.
         -5    1    3    3    0  502  0.45890124468E+02 -0.21441569913E+02  0.34309501968E+02  0.61320948862E+02  0.41800000000E+01 0. -1.
        -11    1    1    2    0    0 -0.38683466971E+02  0.10553485749E+02 -0.35867855790E+02  0.53798603675E+02  0.00000000000E+00 0.  1.
         11    1    1    2    0    0  0.45303935621E+02  0.54832941777E+02 -0.30816364212E+02  0.77516104068E+02  0.00000000000E+00 0. -1.
</event>
<event>
 7    1  0.2989693E-009  0.2872564E+03  0.7561462E-02  0.1091790E+00
         -2   -1    0    0    0  501 -0.00000000000E+00  0.00000000000E+00  0.87557535991E+02  0.87557535991E+02  0.00000000000E+00 0.  1.
          2   -1    0    0  501    0  0.00000000000E+00 -0.00000000000E+00 -0.10335185347E+04  0.10335185347E+04  0.00000000000E+00 0. -1.
         25    2    1    2    0    0  0.14011672264E+03  0.24121264427E+03 -0.43956628492E+03  0.53542743371E+03  0.12509109566E+03 0.  0.
          5    1    3    3  502    0  0.52508648412E+02  0.63087380560E+02 -0.24098692339E+03  0.25461607449E+03  0.41800000000E+01 0. -1.
         -5    1    3    3    0  502  0.87608074225E+02  0.17812526371E+03 -0.19857936153E+03  0.28081135922E+03  0.41800000000E+01 0. -1.
        -11    1    1    2    0    0 -0.15348597812E+03 -0.21279780433E+03 -0.46131650429E+03  0.53071062561E+03  0.00000000000E+00 0. -1.
         11    1    1    2    0    0  0.13369255481E+02 -0.28414839937E+02 -0.45078209461E+02  0.54938011331E+02  0.00000000000E+00 0.  1.
</event>
<event>
 7    1  0.2989693E-009  0.1062125E+03  0.7561462E-02  0.1267749E+00
          2   -1    0    0  501    0  0.00000000000E+00  0.00000000000E+00  0.41106077125E+03  0.41106077125E+03  0.00000000000E+00 0. -1.
         -2   -1    0    0    0  501 -0.00000000000E+00 -0.00000000000E+00 -0.40525611369E+02  0.40525611369E+02  0.00000000000E+00 0.  1.
         25    2    1    2    0    0  0.47837113740E+02 -0.36763053408E+02  0.16479666461E+03  0.21551202402E+03  0.12509028852E+03 0.  0.
          5    1    3    3  502    0  0.68932210647E+02 -0.18604438161E+02  0.29579204311E+02  0.77396230603E+02  0.41800000000E+01 0.  1.
         -5    1    3    3    0  502 -0.21095096907E+02 -0.18158615247E+02  0.13521746030E+03  0.13811579341E+03  0.41800000000E+01 0.  1.
        -11    1    1    2    0    0  0.11172467350E+02  0.50872472303E+02  0.12211517976E+03  0.13275899063E+03  0.00000000000E+00 0.  1.
         11    1    1    2    0    0 -0.59009581090E+02 -0.14109418895E+02  0.83623315509E+02  0.10331536797E+03  0.00000000000E+00 0. -1.
</event>
<event>
 7    1  0.2989693E-009  0.2389261E+03  0.7561462E-02  0.1120510E+00
          1   -1    0    0  501    0  0.00000000000E+00  0.00000000000E+00  0.55522273940E+03  0.55522273940E+03  0.00000000000E+00 0. -1.
         -1   -1    0    0    0  501 -0.00000000000E+00 -0.00000000000E+00 -0.12506602824E+03  0.12506602824E+03  0.00000000000E+00 0.  1.
         25    2    1    2    0    0  0.18380678142E+03 -0.12277083952E+03  0.34073160042E+03  0.42497324875E+03  0.12508647689E+03 0.  0.
          5    1    3    3  502    0  0.17981957520E+03 -0.14409640495E+03  0.32216142020E+03  0.39611148255E+03  0.41800000000E+01 0. -1.
         -5    1    3    3    0  502  0.39872062146E+01  0.21325565440E+02  0.18570180220E+02  0.28861766199E+02  0.41800000000E+01 0. -1.
        -11    1    1    2    0    0 -0.57649958846E+02  0.63928335087E+02  0.77105753022E+02  0.11556663416E+03  0.00000000000E+00 0.  1.
         11    1    1    2    0    0 -0.12615682257E+03  0.58842504429E+02  0.12319357716E+02  0.13974888473E+03  0.00000000000E+00 0. -1.
</event>
<event>
 7    1  0.2989693E-009  0.1023424E+03  0.7561462E-02  0.1275446E+00
         -1   -1    0    0    0  501 -0.00000000000E+00  0.00000000000E+00  0.92820788230E+02  0.92820788230E+02  0.00000000000E+00 0.  1.
          1   -1    0    0  501    0  0.00000000000E+00 -0.00000000000E+00 -0.16114062395E+03  0.16114062395E+03  0.00000000000E+00 0. -1.
         25    2    1    2    0    0  0.47495342966E+02  0.30045047639E+02 -0.38426038769E+02  0.14241697639E+03  0.12509005643E+03 0.  0.
          5    1    3    3  502    0  0.12817064854E+02  0.70659528507E+02  0.68745892639E+01  0.72261874442E+02  0.41800000000E+01 0.  1.
         -5    1    3    3    0  502  0.34678278112E+02 -0.40614480868E+02 -0.45300628033E+02  0.70155101947E+02  0.41800000000E+01 0.  1.
        -11    1    1    2    0    0 -0.32103385618E+02  0.12104874570E+02 -0.51388582291E+02  0.61789495438E+02  0.00000000000E+00 0. -1.
         11    1    1    2    0    0 -0.15391957348E+02 -0.42149922209E+02  0.21494785338E+02  0.49754940357E+02  0.00000000000E+00 0.  1.
</event>
<event>
 7    1  0.2989693E-009  0.1240549E+03  0.7561462E-02  0.1236554E+00
          1   -1    0    0  501    0  0.00000000000E+00  0.00000000000E+00  0.99677780756E+02  0.99677780756E+02  0.00000000000E+00 0. -1.
         -1   -1    0    0    0  501 -0.00000000000E+00 -0.00000000000E+00 -0.24312341579E+03  0.24312341579E+03  0.00000000000E+00 0.  1.
         25    2    1    2    0    0  0.89512766627E+02 -0.58518667007E+02 -0.10847223301E+03  0.19710529874E+03  0.12508918290E+03 0.  0.
          5    1    3    3  502    0  0.73366941208E+02 -0.75498881418E+02 -0.22280722326E+02  0.10768793872E+03  0.41800000000E+01 0.  1.
         -5    1    3    3    0  502  0.16145825419E+02  0.16980214411E+02 -0.86191510680E+02  0.89417360022E+02  0.41800000000E+01 0.  1.
        -11    1    1    2    0    0 -0.47058663105E+02  0.50327515525E+00 -0.53703599196E+02  0.71406215596E+02  0.00000000000E+00 0. -1.
         11    1    1    2    0    0 -0.42454103521E+02  0.58015391851E+02  0.18730197167E+02  0.74289682214E+02  0.00000000000E+00 0.  1.
</event>
<event>
 7    1  0.2989693E-009  0.1476569E+03  0.7561462E-02  0.1203382E+00
          2   -1    0    0  501    0  0.00000000000E+00  0.00000000000E+00  0.27128468025E+03  0.27128468025E+03  0.00000000000E+00 0.  1.
         -2   -1    0    0    0  501 -0.00000000000E+00 -0.00000000000E+00 -0.97434261517E+02  0.97434261517E+02  0.00000000000E+00 0. -1.
         25    2    1    2    0    0  0.11109584454E+03 -0.31977300957E+02  0.58661666282E+02  0.18014959085E+03  0.12509136478E+03 0.  0.
          5    1    3    3  502    0 -0.18522301344E+02 -0.97132647923E+01 -0.17960676098E+02  0.27883354280E+02  0.41800000000E+01 0.  1.
         -5    1    3    3    0  502  0.12961814588E+03 -0.22264036165E+02  0.76622342379E+02  0.15226623657E+03  0.41800000000E+01 0.  1.
        -11    1    1    2    0    0 -0.60434522790E+02  0.59448184617E+02  0.39730745078E+02  0.93621313297E+02  0.00000000000E+00 0. -1.
         11    1    1    2    0    0 -0.50661321749E+02 -0.27470883660E+02  0.75458007371E+02  0.94948037614E+02  0.00000000000E+00 0.  1.
</event>
<event>
 7    1  0.2989693E-009  0.1599409E+03  0.7561462E-02  0.1188764E+00
         -2   -1    0    0    0  501 -0.00000000000E+00  0.00000000000E+00  0.46859627390E+02  0.46859627390E+02  0.00000000000E+00 0.  1.
          2   -1    0    0  501    0  0.00000000000E+00 -0.00000000000E+00 -0.59108314607E+03  0.59108314607E+03  0.00000000000E+00 0. -1.
         25    2    1    2    0    0  0.87625887511E+02  0.90025145645E+02 -0.31250616435E+03  0.35928702548E+03  0.12507693995E+03 0.  0.
          5    1    3    3  502    0  0.66861388859E+02  0.12165460837E+03 -0.23593518723E+03  0.27377577327E+03  0.41800000000E+01 0.  1.
         -5    1    3    3    0  502  0.20764498652E+02 -0.31629462723E+02 -0.76570977117E+02  0.85511252202E+02  0.41800000000E+01 0.  1.
        -11    1    1    2    0    0 -0.98993228762E+02 -0.85110513863E+02 -0.23206558613E+03  0.26626658667E+03  0.00000000000E+00 0. -1.
         11    1    1    2    0    0  0.11367341251E+02 -0.49146317814E+01  0.34823180031E+00  0.12389161314E+02  0.00000000000E+00 0.  1.
</event>
<event>
 7    1  0.2989693E-009  0.2400759E+03  0.7561462E-02  0.1119742E+00
          2   -1    0    0  501    0  0.00000000000E+00  0.00000000000E+00  0.73093951980E+02  0.73093951980E+02  0.00000000000E+00 0. -1.
         -2   -1    0    0    0  501 -0.00000000000E+00 -0.00000000000E+00 -0.10652989557E+04  0.10652989557E+04  0.00000000000E+00 0.  1.
         25    2    1    2    0    0  0.23514900765E+03  0.11115590085E+02 -0.71818914897E+03  0.76606850440E+03  0.12508672030E+03 0.  0.
          5    1    3    3  502    0  0.43990315052E+02  0.11992972443E+02 -0.37957463890E+02  0.59474538008E+02  0.41800000000E+01 0.  1.
         -5    1    3    3    0  502  0.19115869260E+03 -0.87738235717E+00 -0.68023168508E+03  0.70659396640E+03  0.41800000000E+01 0.  1.
        -11    1    1    2    0    0 -0.68970253902E+02 -0.31333592322E+02 -0.43243254123E+02  0.87227684586E+02  0.00000000000E+00 0. -1.
         11    1    1    2    0    0 -0.16617875375E+03  0.20218002236E+02 -0.23077260067E+03  0.28509671873E+03  0.00000000000E+00 0.  1.
</event>
<event>
 7    1  0.3370423E-009  0.1298953E+03  0.7561462E-02  0.1227611E+00
          2   -1    0    0  501    0  0.00000000000E+00  0.00000000000E+00  0.24071707749E+03  0.24071707749E+03  0.00000000000E+00 0. -1.
         -2   -1    0    0    0  501 -0.00000000000E+00 -0.00000000000E+00 -0.90586204512E+02  0.90586204512E+02  0.00000000000E+00 0.  1.
         25    2    1    2    0    0  0.94066990338E+02  0.31606628718E+02  0.89918699026E+02  0.18324956993E+03  0.12508978693E+03 0.  0.
          5    1    3    3  502    0  0.12005652904E+03  0.46099168473E+02  0.64708136450E+02  0.14402541033E+03  0.41800000000E+01 0.  1.
         -5    1    3    3    0  502 -0.25989538700E+02 -0.14492539755E+02  0.25210562576E+02  0.39224159593E+02  0.41800000000E+01 0.  1.
        -11    1    1    2    0    0 -0.63038609027E+02 -0.30482283396E+02 -0.10519438600E+02  0.70807446060E+02  0.00000000000E+00 0.  1.
         11    1    1    2    0    0 -0.31028381312E+02 -0.11243453222E+01  0.70731612549E+02  0.77246266013E+02  0.00000000000E+00 0. -1.
</event>
<event>
 7    1  0.2989693E-009  0.1727385E+03  0.7561462E-02  0.1175022E+00
          2   -1    0    0  501    0  0.00000000000E+00  0.00000000000E+00  0.10829797291E+03  0.10829797291E+03  0.00000000000E+00 0. -1.
         -2   -1    0    0    0  501 -0.00000000000E+00 -0.00000000000E+00 -0.28244648045E+03  0.28244648045E+03  0.00000000000E+00 0.  1.
         25    2    1    2    0    0  0.18102759495E+02 -0.13528133444E+03 -0.10828773746E+03  0.21448975054E+03  0.12510343582E+03 0.  0.
          5    1    3    3  502    0  0.60288222054E+02 -0.12818472389E+03 -0.89264969675E+02  0.16748641846E+03  0.41800000000E+01 0. -1.
         -5    1    3    3    0  502 -0.42185462560E+02 -0.70966105448E+01 -0.19022767786E+02  0.47003332083E+02  0.41800000000E+01 0. -1.
        -11    1    1    2    0    0  0.34386535642E+02  0.54614813083E+02 -0.42322141818E+02  0.77177557163E+02  0.00000000000E+00 0.  1.
         11    1    1    2    0    0 -0.52489295137E+02  0.80666521352E+02 -0.23538628258E+02  0.99077145656E+02  0.00000000000E+00 0. -1.
</event>
<event>
 7    1  0.2989693E-009  0.1669354E+03  0.7561462E-02  0.1181082E+00
         -1   -1    0    0    0  501 -0.00000000000E+00  0.00000000000E+00  0.14584981809E+03  0.14584981809E+03  0.00000000000E+00 0.  1.
          1   -1    0    0  501    0  0.00000000000E+00 -0.00000000000E+00 -0.25561272357E+03  0.25561272357E+03  0.00000000000E+00 0. -1.
         25    2    1    2    0    0 -0.13494065141E+03  0.84017772936E+02 -0.14071341352E+02  0.20277618564E+03  0.12510880563E+03 0.  0.
          5    1    3    3  502    0 -0.72324423963E+02  0.76108057857E+01  0.46878621605E+02  0.86624616767E+02  0.41800000000E+01 0. -1.
         -5    1    3    3    0  502 -0.62616227443E+02  0.76406967150E+02 -0.60949962958E+02  0.11615156888E+03  0.41800000000E+01 0. -1.
        -11    1    1    2    0    0  0.43887199676E+02 -0.45711017939E+02 -0.74228202068E+02  0.97598204076E+02  0.00000000000E+00 0. -1.
         11    1    1    2    0    0  0.91053451730E+02 -0.38306754997E+02 -0.21463362061E+02  0.10108815193E+03  0.00000000000E+00 0.  1.
</event>
<event>
 7    1  0.2989693E-009  0.1760999E+03  0.7561462E-02  0.1171632E+00
         -1   -1    0    0    0  501 -0.00000000000E+00  0.00000000000E+00  0.14837321761E+03  0.14837321761E+03  0.00000000000E+00 0.  1.
          1   -1    0    0  501    0  0.00000000000E+00 -0.00000000000E+00 -0.25172870121E+03  0.25172870121E+03  0.00000000000E+00 0. -1.
         25    2    1    2    0    0  0.82283503766E+02  0.12157427532E+03 -0.12224332331E+03  0.22834369442E+03  0.12508610345E+03 0.  0.
          5    1    3    3  502    0  0.63446443788E+02 -0.59682390012E+01 -0.41522130478E+02  0.76175001316E+02  0.41800000000E+01 0.  1.
         -5    1    3    3    0  502  0.18837059978E+02  0.12754251433E+03 -0.80721192829E+02  0.15216869310E+03  0.41800000000E+01 0.  1.
        -11    1    1    2    0    0 -0.35447881247E+02 -0.10305035679E+03 -0.16478619792E+02  0.11021557617E+03  0.00000000000E+00 0. -1.
         11    1    1    2    0    0 -0.46835622520E+02 -0.18523918532E+02  0.35366459495E+02  0.61542648235E+02  0.00000000000E+00 0.  1.
</event>
<event>
 7    1  0.2989693E-009  0.1369903E+03  0.7561462E-02  0.1217437E+00
          2   -1    0    0  501    0  0.00000000000E+00  0.00000000000E+00  0.79503898137E+02  0.79503898137E+02  0.00000000000E+00 0. -1.
         -2   -1    0    0    0  501 -0.00000000000E+00 -0.00000000000E+00 -0.53143267846E+03  0.53143267846E+03  0.00000000000E+00 0.  1.
         25    2    1    2    0    0  0.37595592805E+02 -0.78634066511E+02 -0.11385453532E+02  0.15288614661E+03  0.12509116779E+03 0.  0.
          5    1    3    3  502    0 -0.17712181980E+02  0.25511880390E+02 -0.15200314487E+02  0.34829576397E+02  0.41800000000E+01 0. -1.
         -5    1    3    3    0  502  0.55307774784E+02 -0.10414594690E+03  0.38148609546E+01  0.11805657022E+03  0.41800000000E+01 0. -1.
        -11    1    1    2    0    0 -0.32131735489E+02 -0.11665139037E+02 -0.99279635485E+02  0.10499985674E+03  0.00000000000E+00 0.  1.
         11    1    1    2    0    0 -0.54638573154E+01  0.90299205548E+02 -0.34126369131E+03  0.35305057324E+03  0.00000000000E+00 0. -1.
</event>
<event>
 7    1  0.2989693E-009  0.9671155E+02  0.7561462E-02  0.1287367E+00
         -2   -1    0    0    0  501 -0.00000000000E+00  0.00000000000E+00  0.48246900492E+02  0.48246900492E+02  0.00000000000E+00 0.  1.
          2   -1    0    0  501    0  0.00000000000E+00 -0.00000000000E+00 -0.36271314185E+03  0.36271314185E+03  0.00000000000E+00 0. -1.
         25    2    1    2    0    0 -0.55424636976E+02 -0.95449112847E+01 -0.94962737872E+02  0.16679869370E+03  0.12506353154E+03 0.  0.
          5    1    3    3  502    0 -0.63070132972E+02 -0.29605567829E+02 -0.11668855585E+03  0.13597066884E+03  0.41800000000E+01 0.  1.
         -5    1    3    3    0  502  0.76454959955E+01  0.20060656544E+02  0.21725817978E+02  0.30828024861E+02  0.41800000000E+01 0.  1.
        -11    1    1    2    0    0  0.70421470371E+02 -0.15921967164E+02 -0.18580205109E+03  0.19933663666E+03  0.00000000000E+00 0. -1.
         11    1    1    2    0    0 -0.14996833395E+02  0.25466878449E+02 -0.33701452397E+02  0.44824711973E+02  0.00000000000E+00 0.  1.
</event>
<event>
 7    1  0.2989693E-009  0.1142141E+03  0.7561462E-02  0.1252959E+00
          2   -1    0    0  501    0  0.00000000000E+00  0.00000000000E+00  0.27915301315E+03  0.27915301315E+03  0.00000000000E+00 0. -1.
         -2   -1    0    0    0  501 -0.00000000000E+00 -0.00000000000E+00 -0.56190879697E+02  0.56190879697E+02  0.00000000000E+00 0.  1.
         25    2    1    2    0    0 -0.73021465703E+02  0.14805569472E+02  0.18472671787E+03  0.23520773042E+03  0.12508947524E+03 0.  0.
          5    1    3    3  502    0 -0.60285950406E+02  0.67293658510E+02  0.10202490921E+03  0.13634290151E+03  0.41800000000E+01 0.  1.
         -5    1    3    3    0  502 -0.12735515297E+02 -0.52488089039E+02  0.82701808658E+02  0.98864828914E+02  0.41800000000E+01 0.  1.
        -11    1    1    2    0    0  0.44533039902E+02  0.10446107193E+02  0.41717355343E+02  0.61908404399E+02  0.00000000000E+00 0. -1.
         11    1    1    2    0    0  0.28488425800E+02 -0.25251676665E+02 -0.34819397623E+01  0.38227758023E+02  0.00000000000E+00 0.  1.
</event>
<event>
 7    1  0.2989693E-009  0.7156636E+02  0.7561462E-02  0.1354846E+00
         -1   -1    0    0    0  501 -0.00000000000E+00  0.00000000000E+00  0.91378278045E+03  0.91378278045E+03  0.00000000000E+00 0.  1.
          1   -1    0    0  501    0  0.00000000000E+00 -0.00000000000E+00 -0.23717301527E+02  0.23717301527E+02  0.00000000000E+00 0. -1.
         25    2    1    2    0    0  0.33741162983E+01  0.60063861406E+02  0.75394220423E+03  0.76661225914E+03  0.12508579631E+03 0.  0.
          5    1    3    3  502    0  0.63371196877E+01  0.44449506134E+01  0.63653962596E+03  0.63660041195E+03  0.41800000000E+01 0. -1.
         -5    1    3    3    0  502 -0.29630033894E+01  0.55618910793E+02  0.11740257827E+03  0.13001184719E+03  0.41800000000E+01 0. -1.
        -11    1    1    2    0    0 -0.17093440422E+02 -0.23037013312E+00  0.96095454311E+02  0.97604175706E+02  0.00000000000E+00 0.  1.
         11    1    1    2    0    0  0.13719324124E+02 -0.59833491273E+02  0.40027820384E+02  0.73283647132E+02  0.00000000000E+00 0. -1.
</event>
<event>
 7    1  0.2989693E-009  0.8758907E+02  0.7561462E-02  0.1308797E+00
         -1   -1    0    0    0  501 -0.00000000000E+00  0.00000000000E+00  0.10916973001E+03  0.10916973001E+03  0.00000000000E+00 0.  1.
          1   -1    0    0  501    0  0.00000000000E+00 -0.00000000000E+00 -0.17853438914E+03  0.17853438914E+03  0.00000000000E+00 0. -1.
         25    2    1    2    0    0 -0.40585661116E+02 -0.38171422369E+02  0.29500934124E+02  0.14008991316E+03  0.12510245914E+03 0.  0.
          5    1    3    3  502    0 -0.48899571485E+02 -0.70393826305E+02 -0.12089840519E+02  0.86660807272E+02  0.41800000000E+01 0. -1.
         -5    1    3    3    0  502  0.83139103685E+01  0.32222403936E+02  0.41590774643E+02  0.53429105892E+02  0.41800000000E+01 0. -1.
        -11    1    1    2    0    0  0.27796555176E+02  0.28320061909E+02 -0.11687535936E+03  0.12342821400E+03  0.00000000000E+00 0. -1.
         11    1    1    2    0    0  0.12789105940E+02  0.98513604599E+01  0.18009766102E+02  0.24185991994E+02  0.00000000000E+00 0.  1.
</event>
<event>
 7    1  0.2989693E-009  0.1184654E+03  0.7561462E-02  0.1245650E+00
          2   -1    0    0  501    0  0.00000000000E+00  0.00000000000E+00  0.11186896080E+04  0.11186896080E+04  0.00000000000E+00 0. -1.
         -2   -1    0    0    0  501 -0.00000000000E+00 -0.00000000000E+00 -0.14932748970E+02  0.14932748970E+02  0.00000000000E+00 0.  1.
         25    2    1    2    0    0 -0.52189349367E+02 -0.24900562219E+02  0.74912384711E+03  0.76169357204E+03  0.12508714239E+03 0.  0.
          5    1    3    3  502    0 -0.83984092797E+02  0.68594054584E+01  0.34994857097E+03  0.35997479636E+03  0.41800000000E+01 0.  1.
         -5    1    3    3    0  502  0.31794743430E+02 -0.31759967677E+02  0.39917527614E+03  0.40171877568E+03  0.41800000000E+01 0.  1.
        -11    1    1    2    0    0  0.77913407896E+02  0.24596290518E+02  0.21614761379E+03  0.23107416036E+03  0.00000000000E+00 0.  1.
         11    1    1    2    0    0 -0.25724058530E+02  0.30427170071E+00  0.13848539811E+03  0.14085462455E+03  0.00000000000E+00 0. -1.
</event>
<event>
 7    1  0.2989693E-009  0.1235714E+03  0.7561462E-02  0.1237319E+00
         -1   -1    0    0    0  501 -0.00000000000E+00  0.00000000000E+00  0.14318046764E+03  0.14318046764E+03  0.00000000000E+00 0.  1.
          1   -1    0    0  501    0  0.00000000000E+00 -0.00000000000E+00 -0.21236577783E+03  0.21236577783E+03  0.00000000000E+00 0. -1.
         25    2    1    2    0    0  0.10283095876E+03 -0.31777710742E+01  0.54288768082E+02  0.17081830734E+03  0.12508924603E+03 0.  0.
          5    1    3    3  502    0  0.11114279006E+03  0.18065053318E+01 -0.42680266908E+01  0.11131788578E+03  0.41800000000E+01 0. -1.
         -5    1    3    3    0  502 -0.83118313015E+01 -0.49842764060E+01  0.58556794773E+02  0.59500421553E+02  0.41800000000E+01 0. -1.
        -11    1    1    2    0    0 -0.90863915477E+02  0.30238425301E+02 -0.55718223438E+02  0.11079320342E+03  0.00000000000E+00 0. -1.
         11    1    1    2    0    0 -0.11967043281E+02 -0.27060654227E+02 -0.67755854842E+02  0.73934734715E+02  0.00000000000E+00 0.  1.
</event>
<event>
 7    1  0.2989693E-009  0.1197037E+03  0.7561462E-02  0.1243587E+00
         -1   -1    0    0    0  501 -0.00000000000E+00  0.00000000000E+00  0.71040262506E+02  0.71040262506E+02  0.00000000000E+00 0.  1.
          1   -1    0    0  501    0  0.00000000000E+00 -0.00000000000E+00 -0.26261927179E+03  0.26261927179E+03  0.00000000000E+00 0. -1.
         25    2    1    2    0    0 -0.30784530574E+02  0.73451697028E+02 -0.13602831726E+03  0.20123374614E+03  0.12509387823E+03 0.  0.
          5    1    3    3  502    0 -0.34026794126E+02 -0.27787344038E+02 -0.60164474129E+02  0.74613641879E+02  0.41800000000E+01 0.  1.
         -5    1    3    3    0  502  0.32422635525E+01  0.10123904107E+03 -0.75863843129E+02  0.12662010426E+03  0.41800000000E+01 0.  1.
        -11    1    1    2    0    0  0.40972033529E+02 -0.34265800731E+02 -0.71209406960E+02  0.89014786810E+02  0.00000000000E+00 0. -1.
         11    1    1    2    0    0 -0.10187502955E+02 -0.39185896297E+02  0.15658714929E+02  0.43411001351E+02  0.00000000000E+00 0.  1.
</event>
<event>
 7    1  0.2989693E-009  0.9479985E+02  0.7561462E-02  0.1291628E+00
         -1   -1    0    0    0  501 -0.00000000000E+00  0.00000000000E+00  0.31612148752E+03  0.31612148752E+03  0.00000000000E+00 0.  1.
          1   -1    0    0  501    0  0.00000000000E+00 -0.00000000000E+00 -0.46472499737E+02  0.46472499737E+02  0.00000000000E+00 0. -1.
         25    2    1    2    0    0  0.48410025971E+02  0.19524636271E+02  0.12915229105E+03  0.18721919362E+03  0.12508385243E+03 0.  0.
          5    1    3    3  502    0  0.66302998269E+02 -0.19502153326E+02  0.23528228143E+02  0.73126407565E+02  0.41800000000E+01 0. -1.
         -5    1    3    3    0  502 -0.17892972298E+02  0.39026789597E+02  0.10562406291E+03  0.11409278605E+03  0.41800000000E+01 0. -1.
        -11    1    1    2    0    0  0.70410307224E+00  0.16374899925E+02 -0.54371177741E+01  0.17268333978E+02  0.00000000000E+00 0. -1.
         11    1    1    2    0    0 -0.49114129043E+02 -0.35899536196E+02  0.14593381450E+03  0.15810645966E+03  0.00000000000E+00 0.  1.
</event>
<event>
 7    1  0.2989693E-009  0.1398760E+03  0.7561462E-02  0.1213496E+00
          2   -1    0    0  501    0  0.00000000000E+00  0.00000000000E+00  0.16162937479E+02  0.16162937479E+02  0.00000000000E+00 0. -1.
         -2   -1    0    0    0  501 -0.00000000000E+00 -0.00000000000E+00 -0.20413648303E+04  0.20413648303E+04  0.00000000000E+00 0.  1.
         25    2    1    2    0    0 -0.11368870784E+03 -0.27007610698E+02 -0.15611405735E+04  0.15704973127E+04  0.12508951074E+03 0.  0.
          5    1    3    3  502    0 -0.32363142537E+02 -0.64958965297E+02 -0.95142446928E+03  0.95419758609E+03  0.41800000000E+01 0.  1.
         -5    1    3    3    0  502 -0.81325565301E+02  0.37951354599E+02 -0.60971610424E+03  0.61629972664E+03  0.41800000000E+01 0.  1.
        -11    1    1    2    0    0  0.73875747768E+02  0.13006373147E+02 -0.41751534649E+03  0.42420025507E+03  0.00000000000E+00 0.  1.
         11    1    1    2    0    0  0.39812960070E+02  0.14001237550E+02 -0.46545972793E+02  0.62830199950E+02  0.00000000000E+00 0. -1.
</event>
<event>
 7    1  0.2989693E-009  0.1686764E+03  0.7561462E-02  0.1179235E+00
         -1   -1    0    0    0  501 -0.00000000000E+00  0.00000000000E+00  0.33745843812E+02  0.33745843812E+02  0.00000000000E+00 0.  1.
          1   -1    0    0  501    0  0.00000000000E+00 -0.00000000000E+00 -0.88578634198E+03  0.88578634198E+03  0.00000000000E+00 0. -1.
         25    2    1    2    0    0  0.18828795173E+01  0.13300150562E+03 -0.48080205830E+03  0.51430583538E+03  0.12508767849E+03 0.  0.
          5    1    3    3  502    0 -0.56933574247E+02  0.62189627486E+02 -0.29602200747E+03  0.30782378555E+03  0.41800000000E+01 0. -1.
         -5    1    3    3    0  502  0.58816453764E+02  0.70811878139E+02 -0.18478005082E+03  0.20648204983E+03  0.41800000000E+01 0. -1.
        -11    1    1    2    0    0  0.37564190395E+02 -0.10735124054E+03 -0.23464961456E+03  0.26076004077E+03  0.00000000000E+00 0. -1.
         11    1    1    2    0    0 -0.39447069913E+02 -0.25650265088E+02 -0.13658882531E+03  0.14446630965E+03  0.00000000000E+00 0.  1.
</event>
<event>
 7    1  0.2989693E-009  0.9643544E+02  0.7561462E-02  0.1287975E+00
         -1   -1    0    0    0  501 -0.00000000000E+00  0.00000000000E+00  0.12166667237E+02  0.12166667237E+02  0.00000000000E+00 0.  1.
          1   -1    0    0  501    0  0.00000000000E+00 -0.00000000000E+00 -0.11195842062E+04  0.11195842062E+04  0.00000000000E+00 0. -1.
         25    2    1    2    0    0  0.36923918663E+02 -0.21740155390E+02 -0.60650456593E+03  0.62075098290E+03  0.12509190283E+03 0.  0.
          5    1    3    3  502    0  0.35643228277E+02 -0.51177859180E+02 -0.14026100393E+03  0.15355857063E+03  0.41800000000E+01 0. -1.
         -5    1    3    3    0  502  0.12806903861E+01  0.29437703789E+02 -0.46624356201E+03  0.46719241227E+03  0.41800000000E+01 0. -1.
        -11    1    1    2    0    0 -0.50065195798E+02 -0.22180944068E+02 -0.29582037031E+03  0.30084582363E+03  0.00000000000E+00 0. -1.
         11    1    1    2    0    0  0.13141277135E+02  0.43921099458E+02 -0.20509260276E+03  0.21015406693E+03  0.00000000000E+00 0.  1.
</event>
<event>
 7    1  0.2989693E-009  0.1268794E+03  0.7561462E-02  0.1232161E+00
          1   -1    0    0  501    0  0.00000000000E+00  0.00000000000E+00  0.22412144131E+03  0.22412144131E+03  0.00000000000E+00 0. -1.
         -1   -1    0    0    0  501 -0.00000000000E+00 -0.00000000000E+00 -0.10056471489E+03  0.10056471489E+03  0.00000000000E+00 0.  1.
         25    2    1    2    0    0  0.93571890616E+02  0.17339408642E+02  0.68767363986E+02  0.17156509572E+03  0.12509707396E+03 0.  0.
          5    1    3    3  502    0 -0.13260132138E+02  0.44507027886E+02  0.24812042408E+02  0.52818713389E+02  0.41800000000E+01 0.  1.
         -5    1    3    3    0  502  0.10683202275E+03 -0.27167619244E+02  0.43955321578E+02  0.11874638233E+03  0.41800000000E+01 0.  1.
        -11    1    1    2    0    0 -0.12539906386E+02 -0.88401673534E+01  0.68763961641E+02  0.70454809854E+02  0.00000000000E+00 0. -1.
         11    1    1    2    0    0 -0.81031984230E+02 -0.84992412887E+01 -0.13974599206E+02  0.82666250633E+02  0.00000000000E+00 0.  1.
</event>
<event>
 7    1  0.2989693E-009  0.1718206E+03  0.7561462E-02  0.1175962E+00
          1   -1    0    0  501    0  0.00000000000E+00  0.00000000000E+00  0.42125082651E+03  0.42125082651E+03  0.00000000000E+00 0. -1.
         -1   -1    0    0    0  501 -0.00000000000E+00 -0.00000000000E+00 -0.16511204977E+03  0.16511204977E+03  0.00000000000E+00 0.  1.
         25    2    1    2    0    0  0.11825731799E+03 -0.60739052335E+02 -0.90424851668E+02  0.20371246518E+03  0.12509232165E+03 0.  0.
          5    1    3    3  502    0  0.21772540556E+01  0.32300513059E+02 -0.25129946992E+02  0.41195269327E+02  0.41800000000E+01 0. -1.
         -5    1    3    3    0  502  0.11608006394E+03 -0.93039565394E+02 -0.65294904676E+02  0.16251719586E+03  0.41800000000E+01 0. -1.
        -11    1    1    2    0    0 -0.48449446085E+01  0.47779916357E+02  0.10671887747E+03  0.11702697425E+03  0.00000000000E+00 0.  1.
         11    1    1    2    0    0 -0.11341237339E+03  0.12959135978E+02  0.23984475094E+03  0.26562343683E+03  0.00000000000E+00 0. -1.
</event>
<event>
 7    1  0.2989693E-009  0.1027346E+03  0.7561462E-02  0.1274648E+00
          2   -1    0    0  501    0  0.00000000000E+00  0.00000000000E+00  0.53726554891E+02  0.53726554891E+02  0.00000000000E+00 0.  1.
         -2   -1    0    0    0  501 -0.00000000000E+00 -0.00000000000E+00 -0.23998250776E+03  0.23998250776E+03  0.00000000000E+00 0. -1.
         25    2    1    2    0    0 -0.26021629808E+02 -0.22755700714E+02 -0.95091857978E+02  0.16089104740E+03  0.12509404680E+03 0.  0.
          5    1    3    3  502    0  0.44520264572E+02  0.78910915290E+01 -0.62503069560E+02  0.77255610719E+02  0.41800000000E+01 0.  1.
         -5    1    3    3    0  502 -0.70541894380E+02 -0.30646792243E+02 -0.32588788418E+02  0.83635436677E+02  0.41800000000E+01 0.  1.
        -11    1    1    2    0    0  0.51920987271E+02  0.61793254301E+01 -0.87389178856E+02  0.10183732893E+03  0.00000000000E+00 0.  1.
         11    1    1    2    0    0 -0.25899357463E+02  0.16576375284E+02 -0.37749160385E+01  0.30980686333E+02  0.00000000000E+00 0. -1.
</event>
<event>
 7    1  0.2989693E-009  0.1170566E+03  0.7561462E-02  0.1248033E+00
         -1   -1    0    0    0  501 -0.00000000000E+00  0.00000000000E+00  0.39983101272E+03  0.39983101272E+03  0.00000000000E+00 0. -1.
          1   -1    0    0  501    0  0.00000000000E+00 -0.00000000000E+00 -0.45419031453E+02  0.45419031453E+02  0.00000000000E+00 0.  1.
         25    2    1    2    0    0  0.56400504588E+02  0.35021305053E+02  0.12330963164E+03  0.18776793971E+03  0.12507607766E+03 0.  0.
          5    1    3    3  502    0 -0.23802733955E+02 -0.12970697309E+02  0.80189452998E+02  0.84750397665E+02  0.41800000000E+01 0. -1.
         -5    1    3    3    0  502  0.80203238543E+02  0.47992002361E+02  0.43120178642E+02  0.10301754205E+03  0.41800000000E+01 0. -1.
        -11    1    1    2    0    0 -0.47673958474E+02  0.24062060510E+02  0.11994810148E+03  0.13129865239E+03  0.00000000000E+00 0. -1.
         11    1    1    2    0    0 -0.87265461144E+01 -0.59083365563E+02  0.11115424815E+03  0.12618345206E+03  0.00000000000E+00 0.  1.
</event>
<event>
 7    1  0.2989693E-009  0.8144772E+02  0.7561462E-02  0.1324993E+00
          2   -1    0    0  501    0  0.00000000000E+00  0.00000000000E+00  0.29878951755E+03  0.29878951755E+03  0.00000000000E+00 0.  1.
         -2   -1    0    0    0  501 -0.00000000000E+00 -0.00000000000E+00 -0.56256192638E+02  0.56256192638E+02  0.00000000000E+00 0. -1.
         25    2    1    2    0    0 -0.28405492392E+02 -0.52972847083E+02  0.18741736925E+03  0.23320682461E+03  0.12508860150E+03 0.  0.
          5    1    3    3  502    0 -0.35714455288E+02 -0.13683272744E+01 -0.26470361620E+01  0.36081488834E+02  0.41800000000E+01 0.  1.
         -5    1    3    3    0  502  0.73089628965E+01 -0.51604519808E+02  0.19006440541E+03  0.19712533578E+03  0.41800000000E+01 0.  1.
        -11    1    1    2    0    0  0.11585100160E+02 -0.61772423954E+01  0.58786010865E+02  0.60234275481E+02  0.00000000000E+00 0.  1.
         11    1    1    2    0    0  0.16820392232E+02  0.59150089478E+02 -0.36700551947E+01  0.61604610097E+02  0.00000000000E+00 0. -1.
</event>
<event>
 7    1  0.2989693E-009  0.1132452E+03  0.7561462E-02  0.1254676E+00
         -2   -1    0    0    0  501 -0.00000000000E+00  0.00000000000E+00  0.15869139499E+03  0.15869139499E+03  0.00000000000E+00 0.  1.
          2   -1    0    0  501    0  0.00000000000E+00 -0.00000000000E+00 -0.11860109254E+03  0.11860109254E+03  0.00000000000E+00 0. -1.
         25    2    1    2    0    0  0.64072799614E+02 -0.26605582114E+02  0.64493885014E+02  0.15690417128E+03  0.12508507949E+03 0.  0.
          5    1    3    3  502    0  0.51811163315E+02 -0.72582776865E+02  0.62717669334E+02  0.10910377898E+03  0.41800000000E+01 0. -1.
         -5    1    3    3    0  502  0.12261636299E+02  0.45977194751E+02  0.17762156799E+01  0.47800392300E+02  0.41800000000E+01 0. -1.
        -11    1    1    2    0    0  0.30415889530E+01  0.21962999469E+02  0.27567046069E+02  0.35377487728E+02  0.00000000000E+00 0.  1.
         11    1    1    2    0    0 -0.67114388567E+02  0.46425826455E+01 -0.51970628631E+02  0.85010828526E+02  0.00000000000E+00 0. -1.
</event>
<event>
 7    1  0.2989693E-009  0.1154313E+03  0.7561462E-02  0.1250830E+00
         -1   -1    0    0    0  501 -0.00000000000E+00  0.00000000000E+00  0.49460591928E+03  0.49460591928E+03  0.00000000000E+00 0.  1.
          1   -1    0    0  501    0  0.00000000000E+00 -0.00000000000E+00 -0.40361468181E+02  0.40361468181E+02  0.00000000000E+00 0. -1.
         25    2    1    2    0    0 -0.87846897483E+02 -0.17231787168E+02  0.24940278249E+03  0.29302407078E+03  0.12508935309E+03 0.  0.
          5    1    3    3  502    0 -0.32114226007E+02 -0.41572908063E+02  0.21833371434E+03  0.22460345816E+03  0.41800000000E+01 0. -1.
         -5    1    3    3    0  502 -0.55732671476E+02  0.24341120895E+02  0.31069068147E+02  0.68420612624E+02  0.41800000000E+01 0. -1.
        -11    1    1    2    0    0  0.50855328566E+02  0.47362700786E+02  0.16754286448E+03  0.18138385074E+03  0.00000000000E+00 0.  1.
         11    1    1    2    0    0  0.36991568918E+02 -0.30130913618E+02  0.37298804133E+02  0.60559465950E+02  0.00000000000E+00 0. -1.
</event>
<event>
 7    1  0.2989693E-009  0.6339117E+02  0.7561462E-02  0.1384128E+00
         -2   -1    0    0    0  501 -0.00000000000E+00  0.00000000000E+00  0.13964526930E+02  0.13964526930E+02  0.00000000000E+00 0. -1.
          2   -1    0    0  501    0  0.00000000000E+00 -0.00000000000E+00 -0.85587888972E+03  0.85587888972E+03  0.00000000000E+00 0.  1.
         25    2    1    2    0    0  0.26095782577E+01  0.17971577037E+02 -0.49524448878E+03  0.51112175268E+03  0.12509418418E+03 0.  0.
          5    1    3    3  502    0  0.82298854713E+01 -0.86807692237E+01 -0.47892924880E+03  0.47909684253E+03  0.41800000000E+01 0. -1.
         -5    1    3    3    0  502 -0.56203072136E+01  0.26652346261E+02 -0.16315239984E+02  0.32024910150E+02  0.41800000000E+01 0. -1.
        -11    1    1    2    0    0  0.11455512769E+02 -0.50146831669E+02 -0.26297846256E+03  0.26796194743E+03  0.00000000000E+00 0.  1.
         11    1    1    2    0    0 -0.14065091027E+02  0.32175254632E+02 -0.83691411453E+02  0.90759716544E+02  0.00000000000E+00 0. -1.
</event>
<event>
 7    1  0.2989693E-009  0.1092002E+03  0.7561462E-02  0.1262058E+00
          1   -1    0    0  501    0  0.00000000000E+00  0.00000000000E+00  0.36597885505E+02  0.36597885505E+02  0.00000000000E+00 0. -1.
         -1   -1    0    0    0  501 -0.00000000000E+00 -0.00000000000E+00 -0.37789150869E+03  0.37789150869E+03  0.00000000000E+00 0.  1.
         25    2    1    2    0    0  0.71745561706E+00 -0.25474834307E+02 -0.12477597653E+03  0.17850994958E+03  0.12508907169E+03 0.  0.
          5    1    3    3  502    0 -0.56924532996E+02  0.11337956529E+02 -0.68175467020E+02  0.89634359586E+02  0.41800000000E+01 0.  1.
         -5    1    3    3    0  502  0.57641988613E+02 -0.36812790836E+02 -0.56600509510E+02  0.88875589996E+02  0.41800000000E+01 0.  1.
        -11    1    1    2    0    0 -0.19230502755E+02  0.54200500217E+02 -0.15892360881E+03  0.16900952606E+03  0.00000000000E+00 0.  1.
         11    1    1    2    0    0  0.18513047138E+02 -0.28725665910E+02 -0.57594037848E+02  0.66969918560E+02  0.00000000000E+00 0. -1.
</event>
<event>
 7    1  0.2989693E-009  0.7787012E+02  0.7561462E-02  0.1335207E+00
          2   -1    0    0  501    0  0.00000000000E+00  0.00000000000E+00  0.12203142978E+03  0.12203142978E+03  0.00000000000E+00 0.  1.
         -2   -1    0    0    0  501 -0.00000000000E+00 -0.00000000000E+00 -0.98346694201E+02  0.98346694201E+02  0.00000000000E+00 0. -1.
         25    2    1    2    0    0  0.44818933631E+00  0.17430755942E+02  0.20570908799E+02  0.12796718737E+03  0.12509359148E+03 0.  0.
          5    1    3    3  502    0 -0.43790706737E+02 -0.11644529067E+02 -0.30106969661E+02  0.54563019307E+02  0.41800000000E+01 0. -1.
         -5    1    3    3    0  502  0.44238896073E+02  0.29075285009E+02  0.50677878460E+02  0.73404168065E+02  0.41800000000E+01 0. -1.
        -11    1    1    2    0    0 -0.25756279390E+02  0.10773221259E+01  0.37736715388E+02  0.45701271747E+02  0.00000000000E+00 0.  1.
         11    1    1    2    0    0  0.25308090054E+02 -0.18508078068E+02 -0.34622888608E+02  0.46709664862E+02  0.00000000000E+00 0. -1.
</event>
<event>
 7    1  0.2989693E-009  0.9154487E+02  0.7561462E-02  0.1299153E+00
         -1   -1    0    0    0  501 -0.00000000000E+00  0.00000000000E+00  0.72489884488E+02  0.72489884488E+02  0.00000000000E+00 0.  1.
          1   -1    0    0  501    0  0.00000000000E+00 -0.00000000000E+00 -0.22448335433E+03  0.22448335433E+03  0.00000000000E+00 0. -1.
         25    2    1    2    0    0 -0.42865799695E+02  0.38887474872E+02 -0.44440102298E+02  0.14481800041E+03  0.12509043955E+03 0.  0.
          5    1    3    3  502    0 -0.91600976299E+01  0.41300828797E+02 -0.83075197916E+02  0.93320023343E+02  0.41800000000E+01 0.  1.
         -5    1    3    3    0  502 -0.33705702065E+02 -0.24133539253E+01  0.38635095618E+02  0.51497977070E+02  0.41800000000E+01 0.  1.
        -11    1    1    2    0    0  0.47811446727E+02  0.16759262382E+02 -0.62024883767E+02  0.80086787425E+02  0.00000000000E+00 0.  1.
         11    1    1    2    0    0 -0.49456470317E+01 -0.55646737254E+02 -0.45528483776E+02  0.72068450979E+02  0.00000000000E+00 0. -1.
</event>
<event>
 7    1  0.2989693E-009  0.1857506E+03  0.7561462E-02  0.1162351E+00
         -2   -1    0    0    0  501 -0.00000000000E+00  0.00000000000E+00  0.54299220820E+03  0.54299220820E+03  0.00000000000E+00 0. -1.
          2   -1    0    0  501    0  0.00000000000E+00 -0.00000000000E+00 -0.74333470857E+02  0.74333470857E+02  0.00000000000E+00 0.  1.
         25    2    1    2    0    0  0.14536183314E+03  0.88794437393E+02  0.25703793698E+03  0.33276198761E+03  0.12509006639E+03 0.  0.
          5    1    3    3  502    0 -0.12676845537E+01  0.48788604845E+02  0.24097017487E+02  0.54590050729E+02  0.41800000000E+01 0. -1.
         -5    1    3    3    0  502  0.14662951769E+03  0.40005832548E+02  0.23294091949E+03  0.27817193688E+03  0.41800000000E+01 0. -1.
        -11    1    1    2    0    0 -0.97573374650E+02 -0.63294871153E+02  0.19647782916E+03  0.22832069881E+03  0.00000000000E+00 0. -1.
         11    1    1    2    0    0 -0.47788458489E+02 -0.25499566240E+02  0.15142971208E+02  0.56242992632E+02  0.00000000000E+00 0.  1.
</event>
<event>
 7    1  0.2989693E-009  0.9011387E+02  0.7561462E-02  0.1302576E+00
          1   -1    0    0  501    0  0.00000000000E+00  0.00000000000E+00  0.68159614166E+03  0.68159614166E+03  0.00000000000E+00 0. -1.
         -1   -1    0    0    0  501 -0.00000000000E+00 -0.00000000000E+00 -0.22044589366E+02  0.22044589366E+02  0.00000000000E+00 0.  1.
         25    2    1    2    0    0  0.25140586767E+02  0.60295094995E+01  0.51073703307E+03  0.52646785468E+03  0.12509069100E+03 0.  0.
          5    1    3    3  502    0  0.35626089892E+02  0.37323695098E+02  0.85630891894E+02  0.10006197351E+03  0.41800000000E+01 0.  1.
         -5    1    3    3    0  502 -0.10485503125E+02 -0.31294185599E+02  0.42510614118E+03  0.42640588117E+03  0.41800000000E+01 0.  1.
        -11    1    1    2    0    0  0.17915103283E+02 -0.37702922804E+02  0.77795058857E+02  0.88286649592E+02  0.00000000000E+00 0. -1.
         11    1    1    2    0    0 -0.43055690050E+02  0.31673413305E+02  0.71019460369E+02  0.88886226757E+02  0.00000000000E+00 0.  1.
</event>
<event>
 7    1  0.2989693E-009  0.1058989E+03  0.7561462E-02  0.1268359E+00
          2   -1    0    0  501    0  0.00000000000E+00  0.00000000000E+00  0.81210520074E+03  0.81210520074E+03  0.00000000000E+00 0. -1.
         -2   -1    0    0    0  501 -0.00000000000E+00 -0.00000000000E+00 -0.24555216449E+02  0.24555216449E+02  0.00000000000E+00 0.  1.
         25    2    1    2    0    0 -0.75753794526E-01  0.84461870175E+02  0.53672339714E+03  0.55754174784E+03  0.12508789830E+03 0.  0.
          5    1    3    3  502    0 -0.32620574649E+02 -0.38095998249E+01  0.39782602577E+02  0.51756572616E+02  0.41800000000E+01 0. -1.
         -5    1    3    3    0  502  0.32544820854E+02  0.88271470000E+02  0.49694079456E+03  0.50578517523E+03  0.41800000000E+01 0. -1.
        -11    1    1    2    0    0 -0.13097287398E+01 -0.20894242990E+02  0.60384971507E+00  0.20943958889E+02  0.00000000000E+00 0.  1.
         11    1    1    2    0    0  0.13854825343E+01 -0.63567627185E+02  0.25022273744E+03  0.25817471045E+03  0.00000000000E+00 0. -1.
</event>
<event>
 7    1  0.2989693E-009  0.1517786E+03  0.7561462E-02  0.1198304E+00
          1   -1    0    0  501    0  0.00000000000E+00  0.00000000000E+00  0.31651217149E+03  0.31651217149E+03  0.00000000000E+00 0. -1.
         -1   -1    0    0    0  501 -0.00000000000E+00 -0.00000000000E+00 -0.16926938535E+03  0.16926938535E+03  0.00000000000E+00 0.  1.
         25    2    1    2    0    0 -0.10051779103E+03  0.92803105183E+02  0.23538571891E+03  0.29961745590E+03  0.12509172863E+03 0.  0.
          5    1    3    3  502    0 -0.24474820156E+02  0.57444192199E+02  0.15827008385E+02  0.64550899556E+02  0.41800000000E+01 0. -1.
         -5    1    3    3    0  502 -0.76042970869E+02  0.35358912985E+02  0.21955871052E+03  0.23506655635E+03  0.41800000000E+01 0. -1.
        -11    1    1    2    0    0  0.94057596929E+02 -0.10636600547E+03 -0.93731206146E+02  0.17013552735E+03  0.00000000000E+00 0.  1.
         11    1    1    2    0    0  0.64601940959E+01  0.13562900287E+02  0.55882733746E+01  0.16028573588E+02  0.00000000000E+00 0. -1.
</event>
<event>
 7    1  0.2989693E-009  0.1300320E+03  0.7561462E-02  0.1227408E+00
         -4   -1    0    0    0  501 -0.00000000000E+00  0.00000000000E+00  0.94574318546E+02  0.94574318546E+02  0.00000000000E+00 0. -1.
          4   -1    0    0  501    0  0.00000000000E+00 -0.00000000000E+00 -0.24110630446E+03  0.24110630446E+03  0.00000000000E+00 0.  1.
         25    2    1    2    0    0  0.93169656287E+02 -0.30576788124E+02 -0.11742215771E+03  0.19760909016E+03  0.12508343043E+03 0.  0.
          5    1    3    3  502    0 -0.99370508143E+01  0.14128738798E+02  0.15439800554E+02  0.23542006713E+02  0.41800000000E+01 0. -1.
         -5    1    3    3    0  502  0.10310670710E+03 -0.44705526922E+02 -0.13286195826E+03  0.17406708345E+03  0.41800000000E+01 0. -1.
        -11    1    1    2    0    0 -0.35260484638E+02 -0.29805502219E+02 -0.28784592970E+02  0.54407927105E+02  0.00000000000E+00 0.  1.
         11    1    1    2    0    0 -0.57909171649E+02  0.60382290342E+02 -0.32523523787E+00  0.83663605744E+02  0.00000000000E+00 0. -1.
</event>
<event>
 7    1  0.2989693E-009  0.1073788E+03  0.7561462E-02  0.1265502E+00
          1   -1    0    0  501    0  0.00000000000E+00  0.00000000000E+00  0.43470399473E+03  0.43470399473E+03  0.00000000000E+00 0. -1.
         -1   -1    0    0    0  501 -0.00000000000E+00 -0.00000000000E+00 -0.45874387501E+02  0.45874387501E+02  0.00000000000E+00 0.  1.
         25    2    1    2    0    0  0.64703784280E+02  0.39484401322E+02  0.25783519871E+03  0.29643054965E+03  0.12508590417E+03 0.  0.
          5    1    3    3  502    0  0.99407167558E+01 -0.13245531893E+02 -0.87463781531E+01  0.19189411026E+02  0.41800000000E+01 0.  1.
         -5    1    3    3    0  502  0.54763067524E+02  0.52729933215E+02  0.26658157687E+03  0.27724113863E+03  0.41800000000E+01 0.  1.
        -11    1    1    2    0    0  0.24328557143E+02 -0.17099369743E+02  0.82306167247E+01  0.30854662369E+02  0.00000000000E+00 0.  1.
         11    1    1    2    0    0 -0.89032341422E+02 -0.22385031579E+02  0.12276379179E+03  0.15329317021E+03  0.00000000000E+00 0. -1.
</event>
<event>
 7    1  0.3526105E-009  0.9466176E+02  0.7561462E-02  0.1291940E+00
          1   -1    0    0  501    0  0.00000000000E+00  0.00000000000E+00  0.93775702708E+02  0.93775702708E+02  0.00000000000E+00 0. -1.
         -1   -1    0    0    0  501 -0.00000000000E+00 -0.00000000000E+00 -0.21870451859E+03  0.21870451859E+03  0.00000000000E+00 0.  1.
         25    2    1    2    0    0  0.14176732862E+00  0.63352488243E+02  0.61223133190E+01  0.14036235640E+03  0.12510216029E+03 0.  0.
          5    1    3    3  502    0  0.22460717710E+02  0.26495484000E+02 -0.55167672556E+02  0.65325638211E+02  0.41800000000E+01 0.  1.
         -5    1    3    3    0  502 -0.22318950382E+02  0.36857004243E+02  0.61289985875E+02  0.75036718188E+02  0.41800000000E+01 0.  1.
        -11    1    1    2    0    0 -0.45665237071E+02 -0.32733871529E+02 -0.57903591941E+02  0.80682378384E+02  0.00000000000E+00 0. -1.
         11    1    1    2    0    0  0.45523469742E+02 -0.30618616714E+02 -0.73147537258E+02  0.91435486513E+02  0.00000000000E+00 0.  1.
</event>
<event>
 7    1  0.2989693E-009  0.8624215E+02  0.7561462E-02  0.1312216E+00
         -2   -1    0    0    0  501 -0.00000000000E+00  0.00000000000E+00  0.13235180022E+03  0.13235180022E+03  0.00000000000E+00 0.  1.
          2   -1    0    0  501    0  0.00000000000E+00 -0.00000000000E+00 -0.18365991832E+03  0.18365991832E+03  0.00000000000E+00 0. -1.
         25    2    1    2    0    0  0.43711102487E+02 -0.13066711367E+02 -0.13121922428E+03  0.18693907737E+03  0.12508530850E+03 0.  0.
          5    1    3    3  502    0 -0.63127625759E+01  0.38105704666E+02 -0.10267915465E+03  0.10978331795E+03  0.41800000000E+01 0.  1.
         -5    1    3    3    0  502  0.50023865062E+02 -0.51172416032E+02 -0.28540069632E+02  0.77155759428E+02  0.41800000000E+01 0.  1.
        -11    1    1    2    0    0 -0.34338951290E+01 -0.13349092959E+02 -0.16379134264E+02  0.21407147354E+02  0.00000000000E+00 0. -1.
         11    1    1    2    0    0 -0.40277207357E+02  0.26415804326E+02  0.96290240448E+02  0.10766549380E+03  0.00000000000E+00 0.  1.
</event>
<event>
 7    1  0.2989693E-009  0.1288634E+03  0.7561462E-02  0.1229152E+00
         -2   -1    0    0    0  501 -0.00000000000E+00  0.00000000000E+00  0.44436400573E+02  0.44436400573E+02  0.00000000000E+00 0.  1.
          2   -1    0    0  501    0  0.00000000000E+00 -0.00000000000E+00 -0.58900463843E+03  0.58900463843E+03  0.00000000000E+00 0. -1.
         25    2    1    2    0    0  0.32063808740E+02  0.98630845955E+02 -0.33856007636E+03  0.37553665077E+03  0.12509484066E+03 0.  0.
          5    1    3    3  502    0  0.27015724772E+02  0.12002909904E+03 -0.19758546115E+03  0.23279673722E+03  0.41800000000E+01 0.  1.
         -5    1    3    3    0  502  0.50480839683E+01 -0.21398253084E+02 -0.14097461521E+03  0.14273991355E+03  0.41800000000E+01 0.  1.
        -11    1    1    2    0    0 -0.40320704342E+02 -0.57102455035E+02 -0.28623659337E+02  0.75536504046E+02  0.00000000000E+00 0.  1.
         11    1    1    2    0    0  0.82568956023E+01 -0.41528390920E+02 -0.17738450216E+03  0.18236788419E+03  0.00000000000E+00 0. -1.
</event>
<event>
 7    1  0.2989693E-009  0.1193066E+03  0.7561462E-02  0.1244245E+00
         -2   -1    0    0    0  501 -0.00000000000E+00  0.00000000000E+00  0.49748753414E+02  0.49748753414E+02  0.00000000000E+00 0.  1.
          2   -1    0    0  501    0  0.00000000000E+00 -0.00000000000E+00 -0.43109765835E+03  0.43109765835E+03  0.00000000000E+00 0. -1.
         25    2    1    2    0    0 -0.83170270662E+02  0.48901860038E+02 -0.23279853936E+03  0.28133000896E+03  0.12507089259E+03 0.  0.
          5    1    3    3  502    0  0.73162118355E+01  0.17999577075E+01  0.12757521717E+02  0.15394595276E+02  0.41800000000E+01 0.  1.
         -5    1    3    3    0  502 -0.90486482497E+02  0.47101902331E+02 -0.24555606108E+03  0.26593541368E+03  0.41800000000E+01 0.  1.
        -11    1    1    2    0    0  0.45994271056E+02 -0.71041280880E+02 -0.12288514384E+03  0.14920822744E+03  0.00000000000E+00 0. -1.
         11    1    1    2    0    0  0.37175999606E+02  0.22139420842E+02 -0.25665221728E+02  0.50308175362E+02  0.00000000000E+00 0.  1.
</event>
<event>
 7    1  0.2989693E-009  0.1471857E+03  0.7561462E-02  0.1203974E+00
         -1   -1    0    0    0  501 -0.00000000000E+00  0.00000000000E+00  0.29214024969E+02  0.29214024969E+02  0.00000000000E+00 0.  1.
          1   -1    0    0  501    0  0.00000000000E+00 -0.00000000000E+00 -0.11499237169E+04  0.11499237169E+04  0.00000000000E+00 0. -1.
         25    2    1    2    0    0  0.81710067805E+02 -0.76683678818E+02 -0.89903289603E+03  0.91458531487E+03  0.12509687549E+03 0.  0.
          5    1    3    3  502    0 -0.23088371568E+02 -0.56409650514E+02 -0.31902498940E+03  0.32482231733E+03  0.41800000000E+01 0.  1.
         -5    1    3    3    0  502  0.10479843937E+03 -0.20274028304E+02 -0.58000790662E+03  0.58976299754E+03  0.41800000000E+01 0.  1.
        -11    1    1    2    0    0  0.32857023091E+01  0.28621884586E+02 -0.12068556131E+03  0.12407664094E+03  0.00000000000E+00 0. -1.
         11    1    1    2    0    0 -0.84995770114E+02  0.48061794231E+02 -0.10099123454E+03  0.14047578602E+03  0.00000000000E+00 0.  1.
</event>
<event>
 7    1  0.2989693E-009  0.9844168E+02  0.7561462E-02  0.1283607E+00
         -3   -1    0    0    0  501 -0.00000000000E+00  0.00000000000E+00  0.35354276896E+02  0.35354276896E+02  0.00000000000E+00 0.  1.
          3   -1    0    0  501    0  0.00000000000E+00 -0.00000000000E+00 -0.48912340088E+03  0.48912340088E+03  0.00000000000E+00 0. -1.
         25    2    1    2    0    0 -0.15024350145E+02 -0.71234920715E+02 -0.29408753044E+03  0.32776954382E+03  0.12508098683E+03 0.  0.
          5    1    3    3  502    0 -0.43115400161E+02 -0.37561154083E+02 -0.27295523347E+03  0.27891183178E+03  0.41800000000E+01 0. -1.
         -5    1    3    3    0  502  0.28091050016E+02 -0.33673766632E+02 -0.21132296968E+02  0.48857712036E+02  0.41800000000E+01 0. -1.
        -11    1    1    2    0    0  0.34733505006E+02  0.18830554415E+02 -0.12441718775E+03  0.13053981292E+03  0.00000000000E+00 0. -1.
         11    1    1    2    0    0 -0.19709154861E+02  0.52404366300E+02 -0.35264405782E+02  0.66168321029E+02  0.00000000000E+00 0.  1.
</event>
<event>
 7    1  0.2989693E-009  0.1489822E+03  0.7561462E-02  0.1201729E+00
          1   -1    0    0  501    0  0.00000000000E+00  0.00000000000E+00  0.54219932500E+03  0.54219932500E+03  0.00000000000E+00 0. -1.
         -1   -1    0    0    0  501 -0.00000000000E+00 -0.00000000000E+00 -0.56644587019E+02  0.56644587019E+02  0.00000000000E+00 0.  1.
         25    2    1    2    0    0 -0.12223058520E+03  0.53215163300E+02  0.31309166163E+03  0.36255443923E+03  0.12508862161E+03 0.  0.
          5    1    3    3  502    0 -0.67498103144E+02  0.48387130435E+02  0.57521695826E+02  0.10111145440E+03  0.41800000000E+01 0. -1.
         -5    1    3    3    0  502 -0.54732482051E+02  0.48280328654E+01  0.25556996581E+03  0.26144298483E+03  0.41800000000E+01 0. -1.
        -11    1    1    2    0    0  0.82041581571E+02  0.12187463631E+02  0.10714620339E+03  0.13549783864E+03  0.00000000000E+00 0. -1.
         11    1    1    2    0    0  0.40189003624E+02 -0.65402626931E+02  0.65316872963E+02  0.10079163415E+03  0.00000000000E+00 0.  1.
</event>
<event>
 7    1  0.2989693E-009  0.9753462E+02  0.7561462E-02  0.1285567E+00
          1   -1    0    0  501    0  0.00000000000E+00  0.00000000000E+00  0.10919430053E+03  0.10919430053E+03  0.00000000000E+00 0. -1.
         -1   -1    0    0    0  501 -0.00000000000E+00 -0.00000000000E+00 -0.10557514312E+03  0.10557514312E+03  0.00000000000E+00 0.  1.
         25    2    1    2    0    0  0.24671228469E+02 -0.31583807914E+02  0.35922802839E+02  0.13619454484E+03  0.12510915172E+03 0.  0.
          5    1    3    3  502    0 -0.84377386798E+01  0.45664572603E+02  0.19072625005E+02  0.50375450862E+02  0.41800000000E+01 0. -1.
         -5    1    3    3    0  502  0.33108967149E+02 -0.77248380516E+02  0.16850177834E+02  0.85819093977E+02  0.41800000000E+01 0. -1.
        -11    1    1    2    0    0  0.52277885749E+01 -0.11048892510E+02 -0.22474326412E+02  0.25583259111E+02  0.00000000000E+00 0.  1.
         11    1    1    2    0    0 -0.29899017044E+02  0.42632700423E+02 -0.98293190132E+01  0.52991639698E+02  0.00000000000E+00 0. -1.
</event>
<event>
 7    1  0.2989693E-009  0.1022634E+03  0.7561462E-02  0.1275607E+00
          2   -1    0    0  501    0  0.00000000000E+00  0.00000000000E+00  0.29973007297E+03  0.29973007297E+03  0.00000000000E+00 0. -1.
         -2   -1    0    0    0  501 -0.00000000000E+00 -0.00000000000E+00 -0.56296063578E+02  0.56296063578E+02  0.00000000000E+00 0.  1.
         25    2    1    2    0    0  0.17126023608E+01 -0.31403981991E+02  0.22048722719E+03  0.25544335746E+03  0.12509016119E+03 0.  0.
          5    1    3    3  502    0  0.57103563592E+02 -0.41636795487E+02  0.14288681508E+03  0.15946333132E+03  0.41800000000E+01 0.  1.
         -5    1    3    3    0  502 -0.55390961231E+02  0.10232813497E+02  0.77600412112E+02  0.95980026142E+02  0.41800000000E+01 0.  1.
        -11    1    1    2    0    0  0.19100203286E+02  0.47331961505E+02 -0.16132150017E+02  0.53529231357E+02  0.00000000000E+00 0.  1.
         11    1    1    2    0    0 -0.20812805647E+02 -0.15927979514E+02  0.39078932216E+02  0.47053547724E+02  0.00000000000E+00 0. -1.
</event>
<event>
 7    1  0.2989693E-009  0.1389052E+03  0.7561462E-02  0.1214810E+00
          1   -1    0    0  501    0  0.00000000000E+00  0.00000000000E+00  0.29419570480E+03  0.29419570480E+03  0.00000000000E+00 0. -1.
         -1   -1    0    0    0  501 -0.00000000000E+00 -0.00000000000E+00 -0.78742344444E+02  0.78742344444E+02  0.00000000000E+00 0.  1.
         25    2    1    2    0    0 -0.12691288930E+02 -0.10311211921E+03  0.97435274038E+02  0.18956807862E+03  0.12509694586E+03 0.  0.
          5    1    3    3  502    0  0.37779905398E+02 -0.77360914742E+01 -0.69138453114E+01  0.39401040851E+02  0.41800000000E+01 0. -1.
         -5    1    3    3    0  502 -0.50471194328E+02 -0.95376027734E+02  0.10434911935E+03  0.15016703777E+03  0.41800000000E+01 0. -1.
        -11    1    1    2    0    0  0.33588093160E+02  0.10481641031E+03  0.68615364052E+02  0.12970238262E+03  0.00000000000E+00 0.  1.
         11    1    1    2    0    0 -0.20896804230E+02 -0.17042911012E+01  0.49402722265E+02  0.53667588006E+02  0.00000000000E+00 0. -1.
</event>
<event>
 7    1  0.2989693E-009  0.1407989E+03  0.7561462E-02  0.1212258E+00
         -1   -1    0    0    0  501 -0.00000000000E+00  0.00000000000E+00  0.41416535029E+03  0.41416535029E+03  0.00000000000E+00 0.  1.
          1   -1    0    0  501    0  0.00000000000E+00 -0.00000000000E+00 -0.63560266366E+02  0.63560266366E+02  0.00000000000E+00 0. -1.
         25    2    1    2    0    0 -0.89458886709E+02  0.61329928659E+02  0.11711267620E+03  0.20280005426E+03  0.12509288757E+03 0.  0.
          5    1    3    3  502    0 -0.33473161974E+02  0.75098514407E+02  0.11930518708E+03  0.14495323212E+03  0.41800000000E+01 0.  1.
         -5    1    3    3    0  502 -0.55985724735E+02 -0.13768585748E+02 -0.21925108818E+01  0.57846822139E+02  0.41800000000E+01 0.  1.
        -11    1    1    2    0    0  0.64533353350E+02  0.10546974977E+02  0.13901565913E+03  0.15362664437E+03  0.00000000000E+00 0. -1.
         11    1    1    2    0    0  0.24925533359E+02 -0.71876903636E+02  0.94476748592E+02  0.12129891803E+03  0.00000000000E+00 0.  1.
</event>
<event>
 7    1  0.2989693E-009  0.1418797E+03  0.7561462E-02  0.1210822E+00
         -1   -1    0    0    0  501 -0.00000000000E+00  0.00000000000E+00  0.14953888709E+03  0.14953888709E+03  0.00000000000E+00 0.  1.
          1   -1    0    0  501    0  0.00000000000E+00 -0.00000000000E+00 -0.16457442239E+03  0.16457442239E+03  0.00000000000E+00 0. -1.
         25    2    1    2    0    0 -0.35386410858E+02 -0.97917547780E+02 -0.47378847552E+02  0.16949564538E+03  0.12507587446E+03 0.  0.
          5    1    3    3  502    0  0.35464527092E+02 -0.52151175567E+02  0.14443378535E+02  0.64834877792E+02  0.41800000000E+01 0. -1.
         -5    1    3    3    0  502 -0.70850937950E+02 -0.45766372213E+02 -0.61822226087E+02  0.10466076759E+03  0.41800000000E+01 0. -1.
        -11    1    1    2    0    0 -0.21607994829E+02  0.68776637956E+02  0.35842942459E+02  0.80509924191E+02  0.00000000000E+00 0. -1.
         11    1    1    2    0    0  0.56994405687E+02  0.29140909824E+02 -0.34996302083E+01  0.64107739911E+02  0.00000000000E+00 0.  1.
</event>
<event>
 7    1  0.2989693E-009  0.6701006E+02  0.7561462E-02  0.1370566E+00
         -2   -1    0    0    0  501 -0.00000000000E+00  0.00000000000E+00  0.32325233878E+02  0.32325233878E+02  0.00000000000E+00 0.  1.
          2   -1    0    0  501    0  0.00000000000E+00 -0.00000000000E+00 -0.49113981736E+03  0.49113981736E+03  0.00000000000E+00 0. -1.
         25    2    1    2    0    0  0.14409059161E+02  0.62764542282E+02 -0.22380265483E+03  0.26435231774E+03  0.12509001092E+03 0.  0.
          5    1    3    3  502    0 -0.35342436843E+01  0.45073606529E+01  0.15674247910E+02  0.17203535276E+02  0.41800000000E+01 0.  1.
         -5    1    3    3    0  502  0.17943302846E+02  0.58257181629E+02 -0.23947690274E+03  0.24714878247E+03  0.41800000000E+01 0.  1.
        -11    1    1    2    0    0 -0.68318195687E+01 -0.79057074335E+01  0.58441502749E+01  0.11971969808E+02  0.00000000000E+00 0.  1.
         11    1    1    2    0    0 -0.75772395928E+01 -0.54858834849E+02 -0.24085607892E+03  0.24714076369E+03  0.00000000000E+00 0. -1.
</event>
<event>
 7    1  0.2989693E-009  0.9864578E+02  0.7561462E-02  0.1283170E+00
          1   -1    0    0  501    0  0.00000000000E+00  0.00000000000E+00  0.26727460129E+02  0.26727460129E+02  0.00000000000E+00 0. -1.
         -1   -1    0    0    0  501 -0.00000000000E+00 -0.00000000000E+00 -0.44345245359E+03  0.44345245359E+03  0.00000000000E+00 0.  1.
         25    2    1    2    0    0  0.16521131791E+02 -0.55895928545E+01 -0.28390881362E+03  0.31073357602E+03  0.12508776707E+03 0.  0.
          5    1    3    3  502    0  0.40844237325E+02  0.46225979691E+02 -0.95408875487E+02  0.11369001206E+03  0.41800000000E+01 0. -1.
         -5    1    3    3    0  502 -0.24323105535E+02 -0.51815572546E+02 -0.18849993813E+03  0.19704356395E+03  0.41800000000E+01 0. -1.
        -11    1    1    2    0    0 -0.39269849613E+02  0.26336234669E+02 -0.11386673429E+03  0.12329376109E+03  0.00000000000E+00 0.  1.
         11    1    1    2    0    0  0.22748717823E+02 -0.20746641814E+02 -0.18949445556E+02  0.36152576617E+02  0.00000000000E+00 0. -1.
</event>
<event>
 7    1  0.2989693E-009  0.1212801E+03  0.7561462E-02  0.1241000E+00
          2   -1    0    0  501    0  0.00000000000E+00  0.00000000000E+00  0.54739542366E+02  0.54739542366E+02  0.00000000000E+00 0. -1.
         -2   -1    0    0    0  501 -0.00000000000E+00 -0.00000000000E+00 -0.35330186285E+03  0.35330186285E+03  0.00000000000E+00 0.  1.
         25    2    1    2    0    0 -0.44980825943E+02  0.75078963597E+02 -0.16548122658E+03  0.22514734957E+03  0.12508863734E+03 0.  0.
          5    1    3    3  502    0 -0.67348073807E+01  0.93136090685E+02 -0.59096525686E+02  0.11058734451E+03  0.41800000000E+01 0.  1.
         -5    1    3    3    0  502 -0.38246018563E+02 -0.18057127089E+02 -0.10638470089E+03  0.11456000505E+03  0.41800000000E+01 0.  1.
        -11    1    1    2    0    0  0.12742869425E+02 -0.73192856091E+02 -0.13091702414E+03  0.15052854252E+03  0.00000000000E+00 0.  1.
         11    1    1    2    0    0  0.32237956518E+02 -0.18861075054E+01 -0.21640697682E+01  0.32365513126E+02  0.00000000000E+00 0. -1.
</event>
<event>
 7    1  0.2989693E-009  0.1558114E+03  0.7561462E-02  0.1193508E+00
          1   -1    0    0  501    0  0.00000000000E+00  0.00000000000E+00  0.25179113865E+04  0.25179113865E+04  0.00000000000E+00 0. -1.
         -1   -1    0    0    0  501 -0.00000000000E+00 -0.00000000000E+00 -0.26332735879E+02  0.26332735879E+02  0.00000000000E+00 0.  1.
         25    2    1    2    0    0  0.62546653420E+02  0.94732857602E+02  0.22833567972E+04  0.22895961141E+04  0.12508278800E+03 0.  0.
          5    1    3    3  502    0 -0.18788559804E+02  0.80169911111E+02  0.90047243846E+03  0.90423907759E+03  0.41800000000E+01 0. -1.
         -5    1    3    3    0  502  0.81335213225E+02  0.14562946491E+02  0.13828843588E+04  0.13853570365E+04  0.41800000000E+01 0. -1.
        -11    1    1    2    0    0  0.24529785344E+02 -0.18782244633E+02  0.39323948329E+02  0.50008559214E+02  0.00000000000E+00 0. -1.
         11    1    1    2    0    0 -0.87076438765E+02 -0.75950612969E+02  0.16889790505E+03  0.20463944910E+03  0.00000000000E+00 0.  1.
</event>
<event>
 7    1  0.2989693E-009  0.1017748E+03  0.7561462E-02  0.1276608E+00
          1   -1    0    0  501    0  0.00000000000E+00  0.00000000000E+00  0.35541248922E+03  0.35541248922E+03  0.00000000000E+00 0. -1.
         -1   -1    0    0    0  501 -0.00000000000E+00 -0.00000000000E+00 -0.34025020855E+02  0.34025020855E+02  0.00000000000E+00 0.  1.
         25    2    1    2    0    0 -0.19214593293E+02  0.98133212789E+01  0.17529302009E+03  0.21642717159E+03  0.12509027078E+03 0.  0.
          5    1    3    3  502    0 -0.69549994046E+02 -0.11572686028E+02  0.82192124870E+02  0.10837041351E+03  0.41800000000E+01 0.  1.
         -5    1    3    3    0  502  0.50335400753E+02  0.21386007307E+02  0.93100895215E+02  0.10805675808E+03  0.41800000000E+01 0.  1.
        -11    1    1    2    0    0  0.36959757406E+02 -0.32535121418E+02  0.41127877537E+02  0.64156528147E+02  0.00000000000E+00 0.  1.
         11    1    1    2    0    0 -0.17745164113E+02  0.22721800139E+02  0.10496657074E+03  0.10885381034E+03  0.00000000000E+00 0. -1.
</event>
<event>
 7    1  0.2989693E-009  0.1253991E+03  0.7561462E-02  0.1234447E+00
         -1   -1    0    0    0  501 -0.00000000000E+00  0.00000000000E+00  0.39939036986E+02  0.39939036986E+02  0.00000000000E+00 0. -1.
          1   -1    0    0  501    0  0.00000000000E+00 -0.00000000000E+00 -0.78259426463E+03  0.78259426463E+03  0.00000000000E+00 0.  1.
         25    2    1    2    0    0 -0.10171127495E+03 -0.58732571825E+01 -0.60184599910E+03  0.62309434857E+03  0.12509309330E+03 0.  0.
          5    1    3    3  502    0 -0.92185575210E+02 -0.27561461572E+02 -0.21598412416E+03  0.23648346397E+03  0.41800000000E+01 0.  1.
         -5    1    3    3    0  502 -0.95256997360E+01  0.21688204390E+02 -0.38586187494E+03  0.38661088460E+03  0.41800000000E+01 0.  1.
        -11    1    1    2    0    0  0.29338707932E+02 -0.36298787431E+02 -0.16422523786E+02  0.49477884349E+02  0.00000000000E+00 0. -1.
         11    1    1    2    0    0  0.72372567014E+02  0.42172044614E+02 -0.12438670476E+03  0.14996106869E+03  0.00000000000E+00 0.  1.
</event>
<event>
 7    1  0.2989693E-009  0.1220131E+03  0.7561462E-02  0.1239813E+00
         -2   -1    0    0    0  501 -0.00000000000E+00  0.00000000000E+00  0.29418628769E+03  0.29418628769E+03  0.00000000000E+00 0.  1.
          2   -1    0    0  501    0  0.00000000000E+00 -0.00000000000E+00 -0.76104916624E+02  0.76104916624E+02  0.00000000000E+00 0. -1.
         25    2    1    2    0    0 -0.90425514177E+02 -0.82462194147E+01  0.61006906448E+02  0.16618167348E+03  0.12509888975E+03 0.  0.
          5    1    3    3  502    0 -0.94478345711E+02  0.19199756991E+02 -0.27343826453E+01  0.96538788708E+02  0.41800000000E+01 0. -1.
         -5    1    3    3    0  502  0.40528315335E+01 -0.27445976406E+02  0.63741289093E+02  0.69642884773E+02  0.41800000000E+01 0. -1.
        -11    1    1    2    0    0  0.57002498127E+01  0.31178629139E+02  0.84396269367E+02  0.90151705730E+02  0.00000000000E+00 0.  1.
         11    1    1    2    0    0  0.84725264364E+02 -0.22932409725E+02  0.72678195253E+02  0.11395782510E+03  0.00000000000E+00 0. -1.
</event>
<event>
 7    1  0.2989693E-009  0.8763376E+02  0.7561462E-02  0.1308685E+00
          2   -1    0    0  501    0  0.00000000000E+00  0.00000000000E+00  0.40536801063E+03  0.40536801063E+03  0.00000000000E+00 0.  1.
         -2   -1    0    0    0  501 -0.00000000000E+00 -0.00000000000E+00 -0.40438305110E+02  0.40438305110E+02  0.00000000000E+00 0. -1.
         25    2    1    2    0    0 -0.28568812976E+02 -0.40387259800E+02  0.12140510716E+03  0.18120221908E+03  0.12509091224E+03 0.  0.
          5    1    3    3  502    0 -0.40081401762E+02 -0.18769910026E+01 -0.11775266134E+02  0.42025839135E+02  0.41800000000E+01 0. -1.
         -5    1    3    3    0  502  0.11512588786E+02 -0.38510268797E+02  0.13318037330E+03  0.13917637995E+03  0.41800000000E+01 0. -1.
        -11    1    1    2    0    0  0.49021055079E+02  0.51613742575E+02  0.22097408619E+03  0.23215638916E+03  0.00000000000E+00 0.  1.
         11    1    1    2    0    0 -0.20452242103E+02 -0.11226482775E+02  0.22550512173E+02  0.32447707497E+02  0.00000000000E+00 0. -1.
</event>
<event>
 7    1  0.2989693E-009  0.1275389E+03  0.7561462E-02  0.1231154E+00
         -1   -1    0    0    0  501 -0.00000000000E+00  0.00000000000E+00  0.14908882104E+03  0.14908882104E+03  0.00000000000E+00 0.  1.
          1   -1    0    0  501    0  0.00000000000E+00 -0.00000000000E+00 -0.13068968378E+03  0.13068968378E+03  0.00000000000E+00 0. -1.
         25    2    1    2    0    0  0.58309030318E+02 -0.60939720646E+02  0.34189889427E+02  0.15469542015E+03  0.12509249341E+03 0.  0.
          5    1    3    3  502    0  0.71255646765E+02 -0.83037462091E+02 -0.27714221009E+01  0.10953419780E+03  0.41800000000E+01 0. -1.
         -5    1    3    3    0  502 -0.12946616447E+02  0.22097741444E+02  0.36961311528E+02  0.45161222351E+02  0.41800000000E+01 0. -1.
        -11    1    1    2    0    0  0.22316592681E+02  0.12953693651E+02  0.10165488246E+02  0.27733835641E+02  0.00000000000E+00 0.  1.
         11    1    1    2    0    0 -0.80625622999E+02  0.47986026995E+02 -0.25956240409E+02  0.97349249031E+02  0.00000000000E+00 0. -1.
</event>
<event>
 7    1  0.2989693E-009  0.8877791E+02  0.7561462E-02  0.1305838E+00
         -1   -1    0    0    0  501 -0.00000000000E+00  0.00000000000E+00  0.85047542217E+02  0.85047542217E+02  0.00000000000E+00 0.  1.
          1   -1    0    0  501    0  0.00000000000E+00 -0.00000000000E+00 -0.14122924215E+03  0.14122924215E+03  0.00000000000E+00 0. -1.
         25    2    1    2    0    0 -0.31693829591E+02  0.62892124361E+01 -0.27464619236E+02  0.13208565963E+03  0.12509301796E+03 0.  0.
          5    1    3    3  502    0 -0.64453388229E+01  0.63720018348E+02 -0.25845409136E+02  0.69189888743E+02  0.41800000000E+01 0. -1.
         -5    1    3    3    0  502 -0.25248490768E+02 -0.57430805912E+02 -0.16192100992E+01  0.62895770884E+02  0.41800000000E+01 0. -1.
        -11    1    1    2    0    0  0.36205025847E+02  0.66373069305E+01 -0.54051245923E+02  0.65394150547E+02  0.00000000000E+00 0. -1.
         11    1    1    2    0    0 -0.45111962562E+01 -0.12926519367E+02  0.25334165230E+02  0.28796974190E+02  0.00000000000E+00 0.  1.
</event>
<event>
 7    1  0.2989693E-009  0.1214867E+03  0.7561462E-02  0.1240664E+00
         -2   -1    0    0    0  501 -0.00000000000E+00  0.00000000000E+00  0.20795302037E+03  0.20795302037E+03  0.00000000000E+00 0.  1.
          2   -1    0    0  501    0  0.00000000000E+00 -0.00000000000E+00 -0.11504112751E+03  0.11504112751E+03  0.00000000000E+00 0. -1.
         25    2    1    2    0    0 -0.54655046159E+02  0.52043233580E+02 -0.32888027765E+02  0.14974688200E+03  0.12508730577E+03 0.  0.
          5    1    3    3  502    0 -0.80517611338E+01  0.86296656346E+02 -0.29538107296E+02  0.91661965593E+02  0.41800000000E+01 0.  1.
         -5    1    3    3    0  502 -0.46603285025E+02 -0.34253422766E+02 -0.33499204691E+01  0.58084916402E+02  0.41800000000E+01 0.  1.
        -11    1    1    2    0    0  0.44778237926E+02  0.46824810556E+00  0.10802025742E+03  0.11693453665E+03  0.00000000000E+00 0.  1.
         11    1    1    2    0    0  0.98768082331E+01 -0.52511481685E+02  0.17779663204E+02  0.56312729230E+02  0.00000000000E+00 0. -1.
</event>
<event>
 7    1  0.2989693E-009  0.1487918E+03  0.7561462E-02  0.1201965E+00
         -1   -1    0    0    0  501 -0.00000000000E+00  0.00000000000E+00  0.76086133349E+03  0.76086133349E+03  0.00000000000E+00 0.  1.
          1   -1    0    0  501    0  0.00000000000E+00 -0.00000000000E+00 -0.35659629514E+02  0.35659629514E+02  0.00000000000E+00 0. -1.
         25    2    1    2    0    0 -0.10758275199E+03  0.58083050857E+02  0.44309499769E+03  0.47637107453E+03  0.12509410196E+03 0.  0.
          5    1    3    3  502    0 -0.22800224784E+02  0.71659795580E+02  0.11707864978E+03  0.13921156269E+03  0.41800000000E+01 0. -1.
         -5    1    3    3    0  502 -0.84782527210E+02 -0.13576744723E+02  0.32601634791E+03  0.33715951184E+03  0.41800000000E+01 0. -1.
        -11    1    1    2    0    0  0.43928696694E+02 -0.57863388171E+02  0.21809152621E+03  0.22987347800E+03  0.00000000000E+00 0.  1.
         11    1    1    2    0    0  0.63654055300E+02 -0.21966268651E+00  0.64015180071E+02  0.90276410470E+02  0.00000000000E+00 0. -1.
</event>
<event>
 7    1  0.2989693E-009  0.1013517E+03  0.7561462E-02  0.1277479E+00
          2   -1    0    0  501    0  0.00000000000E+00  0.00000000000E+00  0.35284080666E+03  0.35284080666E+03  0.00000000000E+00 0. -1.
         -2   -1    0    0    0  501 -0.00000000000E+00 -0.00000000000E+00 -0.68515792268E+02  0.68515792268E+02  0.00000000000E+00 0.  1.
         25    2    1    2    0    0  0.26194748434E+01  0.67116718888E+01  0.28614623327E+01  0.12533225416E+03  0.12509227705E+03 0.  0.
          5    1    3    3  502    0  0.27187968119E+02 -0.53442286021E+02 -0.88408310519E+00  0.60112540693E+02  0.41800000000E+01 0.  1.
         -5    1    3    3    0  502 -0.24568493276E+02  0.60153957910E+02  0.37455454379E+01  0.65219713467E+02  0.41800000000E+01 0.  1.
        -11    1    1    2    0    0 -0.95953113993E+01  0.34437360006E+02  0.53983982181E+02  0.64747757468E+02  0.00000000000E+00 0.  1.
         11    1    1    2    0    0  0.69758365558E+01 -0.41149031895E+02  0.22747956987E+03  0.23127658730E+03  0.00000000000E+00 0. -1.
</event>
<event>
 7    1  0.2989693E-009  0.1432058E+03  0.7561462E-02  0.1209079E+00
          2   -1    0    0  501    0  0.00000000000E+00  0.00000000000E+00  0.80651398156E+02  0.80651398156E+02  0.00000000000E+00 0. -1.
         -2   -1    0    0    0  501 -0.00000000000E+00 -0.00000000000E+00 -0.35212842712E+03  0.35212842712E+03  0.00000000000E+00 0.  1.
         25    2    1    2    0    0 -0.34458570704E+02 -0.11262308936E+03 -0.79299189238E+02  0.18922780806E+03  0.12508976208E+03 0.  0.
          5    1    3    3  502    0 -0.50950880904E+01  0.25751714025E+02  0.83941634004E+00  0.26594881419E+02  0.41800000000E+01 0. -1.
         -5    1    3    3    0  502 -0.29363482613E+02 -0.13837480338E+03 -0.80138605578E+02  0.16263292664E+03  0.41800000000E+01 0. -1.
        -11    1    1    2    0    0  0.20112055238E+02  0.82945026995E+02 -0.19251573896E+03  0.21058651908E+03  0.00000000000E+00 0.  1.
         11    1    1    2    0    0  0.14346515466E+02  0.29678062364E+02  0.33789923824E+00  0.32965498140E+02  0.00000000000E+00 0. -1.
</event>
<event>
 7    1  0.2989693E-009  0.7179590E+02  0.7561462E-02  0.1354090E+00
         -2   -1    0    0    0  501 -0.00000000000E+00  0.00000000000E+00  0.15380304123E+03  0.15380304123E+03  0.00000000000E+00 0.  1.
          2   -1    0    0  501    0  0.00000000000E+00 -0.00000000000E+00 -0.85732349185E+02  0.85732349185E+02  0.00000000000E+00 0. -1.
         25    2    1    2    0    0  0.86234485146E+01 -0.18075808468E+02  0.89838286875E+02  0.15530407888E+03  0.12508932973E+03 0.  0.
          5    1    3    3  502    0 -0.23843651399E+01 -0.47373253997E+02 -0.11646584509E+02  0.49020666276E+02  0.41800000000E+01 0.  1.
         -5    1    3    3    0  502  0.11007813654E+02  0.29297445529E+02  0.10148487138E+03  0.10628341261E+03  0.41800000000E+01 0.  1.
        -11    1    1    2    0    0  0.23679692758E+02  0.21411739875E+02  0.14916796553E+02  0.35237781896E+02  0.00000000000E+00 0.  1.
         11    1    1    2    0    0 -0.32303141272E+02 -0.33359314074E+01 -0.36684391386E+02  0.48993529631E+02  0.00000000000E+00 0. -1.
</event>
<event>
 7    1  0.2989693E-009  0.1124455E+03  0.7561462E-02  0.1256107E+00
          1   -1    0    0  501    0  0.00000000000E+00  0.00000000000E+00  0.20880698821E+02  0.20880698821E+02  0.00000000000E+00 0. -1.
         -1   -1    0    0    0  501 -0.00000000000E+00 -0.00000000000E+00 -0.70117288635E+03  0.70117288635E+03  0.00000000000E+00 0.  1.
         25    2    1    2    0    0  0.10995778031E+02  0.52378843390E+02 -0.39124016100E+03  0.41422383804E+03  0.12509226217E+03 0.  0.
          5    1    3    3  502    0 -0.14799990868E+02 -0.32010268310E+02 -0.20548712281E+03  0.20853327564E+03  0.41800000000E+01 0.  1.
         -5    1    3    3    0  502  0.25795768899E+02  0.84389111701E+02 -0.18575303819E+03  0.20569056241E+03  0.41800000000E+01 0.  1.
        -11    1    1    2    0    0 -0.23271529946E+02 -0.73230107118E+02 -0.25299670714E+03  0.26440791690E+03  0.00000000000E+00 0.  1.
         11    1    1    2    0    0  0.12275751915E+02  0.20851263728E+02 -0.36055319387E+02  0.43421830227E+02  0.00000000000E+00 0. -1.
</event>
<event>
 7    1  0.2989693E-009  0.1914449E+03  0.7561462E-02  0.1157165E+00
          1   -1    0    0  501    0  0.00000000000E+00  0.00000000000E+00  0.20987083356E+04  0.20987083356E+04  0.00000000000E+00 0. -1.
         -1   -1    0    0    0  501 -0.00000000000E+00 -0.00000000000E+00 -0.31318701379E+02  0.31318701379E+02  0.00000000000E+00 0.  1.
         25    2    1    2    0    0  0.15989173696E+03 -0.32092962700E+02  0.17582797460E+04  0.17702517520E+04  0.12509306289E+03 0.  0.
          5    1    3    3  502    0  0.14532145085E+03  0.24041965436E+02  0.12468355026E+04  0.12555128766E+04  0.41800000000E+01 0. -1.
         -5    1    3    3    0  502  0.14570286108E+02 -0.56134928136E+02  0.51144424342E+03  0.51473887547E+03  0.41800000000E+01 0. -1.
        -11    1    1    2    0    0 -0.74254481286E+02 -0.20320306330E+02  0.87902637347E+02  0.11684826269E+03  0.00000000000E+00 0.  1.
         11    1    1    2    0    0 -0.85637255671E+02  0.52413269029E+02  0.22120725082E+03  0.24292702226E+03  0.00000000000E+00 0. -1.
</event>
<event>
 7    1  0.2989693E-009  0.1033254E+03  0.7561462E-02  0.1273454E+00
         -3   -1    0    0    0  501 -0.00000000000E+00  0.00000000000E+00  0.40120814197E+03  0.40120814197E+03  0.00000000000E+00 0.  1.
          3   -1    0    0  501    0  0.00000000000E+00 -0.00000000000E+00 -0.36485365381E+02  0.36485365381E+02  0.00000000000E+00 0. -1.
         25    2    1    2    0    0  0.45556787506E+02  0.12818935991E+02  0.24946630249E+03  0.28305903312E+03  0.12509689902E+03 0.  0.
          5    1    3    3  502    0  0.29519984521E+02  0.68971438064E+02  0.14451145074E+03  0.16287885237E+03  0.41800000000E+01 0. -1.
         -5    1    3    3    0  502  0.16036802985E+02 -0.56152502072E+02  0.10495485175E+03  0.12018018075E+03  0.41800000000E+01 0. -1.
        -11    1    1    2    0    0  0.21010772667E+01  0.16748248984E+02 -0.83996923655E+01  0.18853996965E+02  0.00000000000E+00 0. -1.
         11    1    1    2    0    0 -0.47657864773E+02 -0.29567184976E+02  0.12365616646E+03  0.13578047727E+03  0.00000000000E+00 0.  1.
</event>
<event>
 7    1  0.2989693E-009  0.9961469E+02  0.7561462E-02  0.1281108E+00
         -2   -1    0    0    0  501 -0.00000000000E+00  0.00000000000E+00  0.58242028949E+02  0.58242028949E+02  0.00000000000E+00 0.  1.
          2   -1    0    0  501    0  0.00000000000E+00 -0.00000000000E+00 -0.32690431829E+03  0.32690431829E+03  0.00000000000E+00 0. -1.
         25    2    1    2    0    0 -0.11950012963E+02  0.54266236834E+02 -0.23606732736E+03  0.27287877083E+03  0.12508962089E+03 0.  0.
          5    1    3    3  502    0 -0.43218971486E+02  0.52714817712E+02 -0.23100677108E+03  0.24089070590E+03  0.41800000000E+01 0. -1.
         -5    1    3    3    0  502  0.31268958523E+02  0.15514191218E+01 -0.50605562811E+01  0.31988064935E+02  0.41800000000E+01 0. -1.
        -11    1    1    2    0    0 -0.21570633952E+02  0.12291532412E+02  0.96123990048E+01  0.26622776579E+02  0.00000000000E+00 0.  1.
         11    1    1    2    0    0  0.33520646915E+02 -0.66557769246E+02 -0.42207360987E+02  0.85644799831E+02  0.00000000000E+00 0. -1.
</event>
<event>
 7    1  0.2989693E-009  0.1126776E+03  0.7561462E-02  0.1255690E+00
          2   -1    0    0  501    0  0.00000000000E+00  0.00000000000E+00  0.22362175043E+03  0.22362175043E+03  0.00000000000E+00 0. -1.
         -2   -1    0    0    0  501 -0.00000000000E+00 -0.00000000000E+00 -0.18226802991E+03  0.18226802991E+03  0.00000000000E+00 0.  1.
         25    2    1    2    0    0  0.10558862220E+03 -0.25984133527E+02 -0.11029782669E+03  0.19909121507E+03  0.12509024347E+03 0.  0.
          5    1    3    3  502    0  0.54674054399E+02 -0.28831769532E+02  0.15006648724E+02  0.63743196223E+02  0.41800000000E+01 0. -1.
         -5    1    3    3    0  502  0.50914567798E+02  0.28476360052E+01 -0.12530447542E+03  0.13534801884E+03  0.41800000000E+01 0. -1.
        -11    1    1    2    0    0 -0.92872885313E+02  0.12510035977E+02  0.55574117886E+02  0.10895116523E+03  0.00000000000E+00 0.  1.
         11    1    1    2    0    0 -0.12715736884E+02  0.13474097550E+02  0.96077429330E+02  0.97847400047E+02  0.00000000000E+00 0. -1.
</event>
<event>
 7    1  0.2989693E-009  0.1220402E+03  0.7561462E-02  0.1239769E+00
         -2   -1    0    0    0  501 -0.00000000000E+00  0.00000000000E+00  0.28352983801E+02  0.28352983801E+02  0.00000000000E+00 0.  1.
          2   -1    0    0  501    0  0.00000000000E+00 -0.00000000000E+00 -0.79137196011E+03  0.79137196011E+03  0.00000000000E+00 0. -1.
         25    2    1    2    0    0 -0.99356608265E+02 -0.63798941271E+01 -0.40765044452E+03  0.43788591598E+03  0.12511095810E+03 0.  0.
          5    1    3    3  502    0 -0.73253723551E+02 -0.19214699305E+02 -0.40053116661E+03  0.40764935975E+03  0.41800000000E+01 0. -1.
         -5    1    3    3    0  502 -0.26102884714E+02  0.12834805178E+02 -0.71192779173E+01  0.30236556226E+02  0.41800000000E+01 0. -1.
        -11    1    1    2    0    0  0.10155877276E+03  0.37043870902E+02 -0.29296354170E+03  0.31227242828E+03  0.00000000000E+00 0.  1.
         11    1    1    2    0    0 -0.22021644954E+01 -0.30663976775E+02 -0.62404990087E+02  0.69566599658E+02  0.00000000000E+00 0. -1.
</event>
<event>
 7    1  0.2989693E-009  0.1375039E+03  0.7561462E-02  0.1216728E+00
         -1   -1    0    0    0  501 -0.00000000000E+00  0.00000000000E+00  0.31321240073E+02  0.31321240073E+02  0.00000000000E+00 0.  1.
          1   -1    0    0  501    0  0.00000000000E+00 -0.00000000000E+00 -0.62235749347E+03  0.62235749347E+03  0.00000000000E+00 0. -1.
         25    2    1    2    0    0 -0.43591676600E+02  0.76111977090E+02 -0.28356929201E+03  0.32210437011E+03  0.12508562888E+03 0.  0.
          5    1    3    3  502    0  0.39789161489E+02  0.30029337651E+01 -0.97859622981E+02  0.10576470675E+03  0.41800000000E+01 0.  1.
         -5    1    3    3    0  502 -0.83380838089E+02  0.73109043325E+02 -0.18570966903E+03  0.21633966337E+03  0.41800000000E+01 0.  1.
        -11    1    1    2    0    0  0.42189767114E+02  0.52731385107E+01 -0.96629922028E+02  0.10557047063E+03  0.00000000000E+00 0.  1.
         11    1    1    2    0    0  0.14019094864E+01 -0.81385115601E+02 -0.21083703936E+03  0.22600389280E+03  0.00000000000E+00 0. -1.
</event>
<event>
 7    1  0.2989693E-009  0.1198570E+03  0.7561462E-02  0.1243333E+00
         -1   -1    0    0    0  501 -0.00000000000E+00  0.00000000000E+00  0.20590800006E+03  0.20590800006E+03  0.00000000000E+00 0.  1.
          1   -1    0    0  501    0  0.00000000000E+00 -0.00000000000E+00 -0.98506949851E+02  0.98506949851E+02  0.00000000000E+00 0. -1.
         25    2    1    2    0    0 -0.18701461846E+02  0.86671954038E+02  0.36874785238E+02  0.15770076832E+03  0.12509200714E+03 0.  0.
          5    1    3    3  502    0 -0.39728987966E+02  0.11075532385E+03  0.14894194012E+02  0.11867789879E+03  0.41800000000E+01 0. -1.
         -5    1    3    3    0  502  0.21027526120E+02 -0.24083369808E+02  0.21980591226E+02  0.39022869534E+02  0.41800000000E+01 0. -1.
        -11    1    1    2    0    0  0.13693467290E+02 -0.31697363762E+02  0.83195990627E+02  0.90076671632E+02  0.00000000000E+00 0.  1.
         11    1    1    2    0    0  0.50079945561E+01 -0.54974590276E+02 -0.12669725660E+02  0.56637509954E+02  0.00000000000E+00 0. -1.
</event>
<event>
 7    1  0.2989693E-009  0.9888763E+02  0.7561462E-02  0.1282653E+00
          1   -1    0    0  501    0  0.00000000000E+00  0.00000000000E+00  0.80705227832E+02  0.80705227832E+02  0.00000000000E+00 0. -1.
         -1   -1    0    0    0  501 -0.00000000000E+00 -0.00000000000E+00 -0.26235668960E+03  0.26235668960E+03  0.00000000000E+00 0.  1.
         25    2    1    2    0    0  0.51939680517E+02  0.70846259041E+02 -0.13512208205E+03  0.20401770977E+03  0.12509326924E+03 0.  0.
          5    1    3    3  502    0  0.30962744780E+02  0.12307413990E+01 -0.12693758241E+03  0.13073189556E+03  0.41800000000E+01 0.  1.
         -5    1    3    3    0  502  0.20976935738E+02  0.69615517642E+02 -0.81844996396E+01  0.73285814206E+02  0.41800000000E+01 0.  1.
        -11    1    1    2    0    0 -0.28438878187E+02 -0.62630022844E+02  0.16963233046E+02  0.70845189176E+02  0.00000000000E+00 0. -1.
         11    1    1    2    0    0 -0.23500802330E+02 -0.82162361974E+01 -0.63492612760E+02  0.68199018486E+02  0.00000000000E+00 0.  1.
</event>
<event>
 7    1  0.2989693E-009  0.1117933E+03  0.7561462E-02  0.1257285E+00
         -2   -1    0    0    0  501 -0.00000000000E+00  0.00000000000E+00  0.17382390616E+02  0.17382390616E+02  0.00000000000E+00 0.  1.
          2   -1    0    0  501    0  0.00000000000E+00 -0.00000000000E+00 -0.10486961336E+04  0.10486961336E+04  0.00000000000E+00 0. -1.
         25    2    1    2    0    0  0.30493449617E+02 -0.41019019682E+02 -0.83541934918E+03  0.84627732318E+03  0.12508960111E+03 0.  0.
          5    1    3    3  502    0  0.24019359718E+02  0.39960093877E+02 -0.44618568981E+03  0.44863446249E+03  0.41800000000E+01 0.  1.
         -5    1    3    3    0  502  0.64740898990E+01 -0.80979113559E+02 -0.38923365937E+03  0.39764286069E+03  0.41800000000E+01 0.  1.
        -11    1    1    2    0    0 -0.40806820341E+02  0.60740930716E+02 -0.11852169641E+03  0.13929124082E+03  0.00000000000E+00 0.  1.
         11    1    1    2    0    0  0.10313370723E+02 -0.19721911034E+02 -0.77372697398E+02  0.80509960211E+02  0.00000000000E+00 0. -1.
</event>
<event>
 7    1  0.2989693E-009  0.2334184E+03  0.7561462E-02  0.1124257E+00
         -1   -1    0    0    0  501 -0.00000000000E+00  0.00000000000E+00  0.12147931895E+03  0.12147931895E+03  0.00000000000E+00 0.  1.
          1   -1    0    0  501    0  0.00000000000E+00 -0.00000000000E+00 -0.53370294321E+03  0.53370294321E+03  0.00000000000E+00 0. -1.
         25    2    1    2    0    0 -0.11063497024E+03 -0.19529460891E+03 -0.14521253834E+03  0.29515080444E+03  0.12508890902E+03 0.  0.
          5    1    3    3  502    0 -0.14091449245E+02 -0.10572921819E+03 -0.11390635849E+02  0.10735201677E+03  0.41800000000E+01 0.  1.
         -5    1    3    3    0  502 -0.96543520993E+02 -0.89565390725E+02 -0.13382190249E+03  0.18779878766E+03  0.41800000000E+01 0.  1.
        -11    1    1    2    0    0  0.79583692271E+02  0.98229577060E+02 -0.87967455575E+02  0.15401586647E+03  0.00000000000E+00 0.  1.
         11    1    1    2    0    0  0.31051277967E+02  0.97065031853E+02 -0.17904363035E+03  0.20601559126E+03  0.00000000000E+00 0. -1.
</event>
<event>
 7    1  0.2989693E-009  0.1678896E+03  0.7561462E-02  0.1180067E+00
         -1   -1    0    0    0  501 -0.00000000000E+00  0.00000000000E+00  0.16904328963E+02  0.16904328963E+02  0.00000000000E+00 0.  1.
          1   -1    0    0  501    0  0.00000000000E+00 -0.00000000000E+00 -0.20045769782E+04  0.20045769782E+04  0.00000000000E+00 0. -1.
         25    2    1    2    0    0 -0.69481115873E+02  0.12237885549E+03 -0.12939025199E+04  0.13075300165E+04  0.12508718351E+03 0.  0.
          5    1    3    3  502    0 -0.81833469097E+02  0.13760828374E+03 -0.98115786855E+03  0.99414334572E+03  0.41800000000E+01 0. -1.
         -5    1    3    3    0  502  0.12352353224E+02 -0.15229428258E+02 -0.31274465130E+03  0.31338667080E+03  0.41800000000E+01 0. -1.
        -11    1    1    2    0    0  0.58867432303E+02 -0.36984899083E+02 -0.17878442041E+03  0.19182577076E+03  0.00000000000E+00 0.  1.
         11    1    1    2    0    0  0.10613683571E+02 -0.85393956402E+02 -0.51498570898E+03  0.52212551989E+03  0.00000000000E+00 0. -1.
</event>
<event>
 7    1  0.2989693E-009  0.1281783E+03  0.7561462E-02  0.1230184E+00
          2   -1    0    0  501    0  0.00000000000E+00  0.00000000000E+00  0.82622987334E+03  0.82622987334E+03  0.00000000000E+00 0.  1.
         -2   -1    0    0    0  501 -0.00000000000E+00 -0.00000000000E+00 -0.28625047396E+02  0.28625047396E+02  0.00000000000E+00 0. -1.
         25    2    1    2    0    0  0.82404193228E+02  0.66322223154E+02  0.51385465428E+03  0.53933684088E+03  0.12509410003E+03 0.  0.
          5    1    3    3  502    0  0.76016791567E+02  0.57470368501E+01  0.42325070216E+03  0.43008163215E+03  0.41800000000E+01 0. -1.
         -5    1    3    3    0  502  0.63874016611E+01  0.60575186304E+02  0.90603952120E+02  0.10925520873E+03  0.41800000000E+01 0. -1.
        -11    1    1    2    0    0 -0.73008446541E+02 -0.25918878239E+02  0.25094721695E+03  0.26263382724E+03  0.00000000000E+00 0.  1.
         11    1    1    2    0    0 -0.93957466871E+01 -0.40403344915E+02  0.32802954705E+02  0.52884252605E+02  0.00000000000E+00 0. -1.
</event>
<event>
 7    1  0.2989693E-009  0.1073250E+03  0.7561462E-02  0.1265605E+00
          1   -1    0    0  501    0  0.00000000000E+00  0.00000000000E+00  0.17959719536E+03  0.17959719536E+03  0.00000000000E+00 0. -1.
         -1   -1    0    0    0  501 -0.00000000000E+00 -0.00000000000E+00 -0.74712832830E+02  0.74712832830E+02  0.00000000000E+00 0.  1.
         25    2    1    2    0    0  0.19035697972E+02 -0.59093688965E+01  0.23520259510E+02  0.12882362104E+03  0.12508015147E+03 0.  0.
          5    1    3    3  502    0 -0.26003588234E+02 -0.53515103340E+02  0.20558481512E+02  0.63088639616E+02  0.41800000000E+01 0. -1.
         -5    1    3    3    0  502  0.45039286206E+02  0.47605734443E+02  0.29617779975E+01  0.65734981423E+02  0.41800000000E+01 0. -1.
        -11    1    1    2    0    0  0.33403970715E+02  0.14106172408E+02  0.55868510456E+02  0.66604052580E+02  0.00000000000E+00 0. -1.
         11    1    1    2    0    0 -0.52439668687E+02 -0.81968035111E+01  0.25495592568E+02  0.58882354574E+02  0.00000000000E+00 0.  1.
</event>
<event>
 7    1  0.2989693E-009  0.1726275E+03  0.7561462E-02  0.1175135E+00
          2   -1    0    0  501    0  0.00000000000E+00  0.00000000000E+00  0.30154958974E+03  0.30154958974E+03  0.00000000000E+00 0. -1.
         -2   -1    0    0    0  501 -0.00000000000E+00 -0.00000000000E+00 -0.14685750065E+03  0.14685750065E+03  0.00000000000E+00 0.  1.
         25    2    1    2    0    0  0.13655836102E+03 -0.97596536951E+02  0.14967205705E+03  0.25733599432E+03  0.12508724684E+03 0.  0.
          5    1    3    3  502    0  0.34915846609E+02 -0.54530537838E+02  0.12977154894E+03  0.14508901825E+03  0.41800000000E+01 0. -1.
         -5    1    3    3    0  502  0.10164251441E+03 -0.43065999113E+02  0.19900508112E+02  0.11224697607E+03  0.41800000000E+01 0. -1.
        -11    1    1    2    0    0 -0.98267508927E+02  0.83969579103E+02  0.42216009425E+02  0.13597641331E+03  0.00000000000E+00 0. -1.
         11    1    1    2    0    0 -0.38290852090E+02  0.13626957848E+02 -0.37195977384E+02  0.55094682752E+02  0.00000000000E+00 0.  1.
</event>
<event>
 7    1  0.2989693E-009  0.7057439E+02  0.7561462E-02  0.1358151E+00
          1   -1    0    0  501    0  0.00000000000E+00  0.00000000000E+00  0.47413861828E+02  0.47413861828E+02  0.00000000000E+00 0. -1.
         -1   -1    0    0    0  501 -0.00000000000E+00 -0.00000000000E+00 -0.29233195679E+03  0.29233195679E+03  0.00000000000E+00 0.  1.
         25    2    1    2    0    0 -0.44441583797E+02 -0.52635692164E+01 -0.10855302720E+03  0.17156394520E+03  0.12509063933E+03 0.  0.
          5    1    3    3  502    0 -0.23703305573E+02  0.60727888018E+01  0.25377677814E+02  0.35499639297E+02  0.41800000000E+01 0.  1.
         -5    1    3    3    0  502 -0.20738278224E+02 -0.11336358018E+02 -0.13393070501E+03  0.13606430591E+03  0.41800000000E+01 0.  1.
        -11    1    1    2    0    0  0.17977643839E+02 -0.37755376537E+02 -0.91593098436E+02  0.10068743624E+03  0.00000000000E+00 0.  1.
         11    1    1    2    0    0  0.26463939958E+02  0.43018945753E+02 -0.44771969327E+02  0.67494437172E+02  0.00000000000E+00 0. -1.
</event>
<event>
 7    1  0.2989693E-009  0.1067206E+03  0.7561462E-02  0.1266766E+00
          1   -1    0    0  501    0  0.00000000000E+00  0.00000000000E+00  0.26742977657E+03  0.26742977657E+03  0.00000000000E+00 0. -1.
         -1   -1    0    0    0  501 -0.00000000000E+00 -0.00000000000E+00 -0.51606522830E+02  0.51606522830E+02  0.00000000000E+00 0.  1.
         25    2    1    2    0    0 -0.12522502743E+02  0.35005069493E+02  0.76975474493E+02  0.15151173672E+03  0.12509362384E+03 0.  0.
          5    1    3    3  502    0 -0.49928891726E+02  0.61435257355E+02  0.68446109644E+02  0.10473551165E+03  0.41800000000E+01 0.  1.
         -5    1    3    3    0  502  0.37406388983E+02 -0.26430187862E+02  0.85293648487E+01  0.46776225071E+02  0.41800000000E+01 0.  1.
        -11    1    1    2    0    0  0.45120476057E+02 -0.79606319731E+01  0.10023359519E+03  0.11020890447E+03  0.00000000000E+00 0. -1.
         11    1    1    2    0    0 -0.32597973314E+02 -0.27044437520E+02  0.38614184064E+02  0.57315658209E+02  0.00000000000E+00 0.  1.
</event>
<event>
 7    1  0.2989693E-009  0.1134244E+03  0.7561462E-02  0.1254357E+00
         -1   -1    0    0    0  501 -0.00000000000E+00  0.00000000000E+00  0.22857969158E+03  0.22857969158E+03  0.00000000000E+00 0.  1.
          1   -1    0    0  501    0  0.00000000000E+00 -0.00000000000E+00 -0.61253215314E+02  0.61253215314E+02  0.00000000000E+00 0. -1.
         25    2    1    2    0    0  0.32213176291E+02  0.32010824065E+02  0.87232205954E+02  0.15911996912E+03  0.12508926906E+03 0.  0.
          5    1    3    3  502    0  0.42465902214E+02  0.72770433104E+02  0.33481242972E+02  0.90759874481E+02  0.41800000000E+01 0.  1.
         -5    1    3    3    0  502 -0.10252725923E+02 -0.40759609039E+02  0.53750962981E+02  0.68360094641E+02  0.41800000000E+01 0.  1.
        -11    1    1    2    0    0 -0.17582350090E+02 -0.63308704713E+02  0.36749588163E+02  0.75283885110E+02  0.00000000000E+00 0. -1.
         11    1    1    2    0    0 -0.14630826201E+02  0.31297880648E+02  0.43344682150E+02  0.55429052662E+02  0.00000000000E+00 0.  1.
</event>
<event>
 7    1  0.2989693E-009  0.2113152E+03  0.7561462E-02  0.1140529E+00
         -1   -1    0    0    0  501 -0.00000000000E+00  0.00000000000E+00  0.52258891116E+03  0.52258891116E+03  0.00000000000E+00 0.  1.
          1   -1    0    0  501    0  0.00000000000E+00 -0.00000000000E+00 -0.93990425330E+02  0.93990425330E+02  0.00000000000E+00 0. -1.
         25    2    1    2    0    0  0.18025802635E+03 -0.65182839487E+02  0.26112324657E+03  0.34723459925E+03  0.12507900857E+03 0.  0.
          5    1    3    3  502    0  0.10014057378E+03 -0.83234793173E+02  0.92976958173E+02  0.16005734117E+03  0.41800000000E+01 0. -1.
         -5    1    3    3    0  502  0.80117452572E+02  0.18051953686E+02  0.16814628840E+03  0.18717725808E+03  0.41800000000E+01 0. -1.
        -11    1    1    2    0    0 -0.62931447804E+02  0.68135588573E+02  0.85872519042E+02  0.12639982231E+03  0.00000000000E+00 0.  1.
         11    1    1    2    0    0 -0.11732657854E+03 -0.29527490859E+01  0.81602720213E+02  0.14294491494E+03  0.00000000000E+00 0. -1.
</event>
<event>
 7    1  0.2989693E-009  0.9669336E+02  0.7561462E-02  0.1287407E+00
          1   -1    0    0  501    0  0.00000000000E+00  0.00000000000E+00  0.11521935017E+03  0.11521935017E+03  0.00000000000E+00 0. -1.
         -1   -1    0    0    0  501 -0.00000000000E+00 -0.00000000000E+00 -0.14128267158E+03  0.14128267158E+03  0.00000000000E+00 0.  1.
         25    2    1    2    0    0  0.85790695938E+01  0.34370179038E+02  0.43023865553E+02  0.13693762680E+03  0.12508377587E+03 0.  0.
          5    1    3    3  502    0  0.53253135659E+02  0.12571312357E+02  0.62691329509E+02  0.83316322215E+02  0.41800000000E+01 0.  1.
         -5    1    3    3    0  502 -0.44674066065E+02  0.21798866681E+02 -0.19667463955E+02  0.53621304589E+02  0.41800000000E+01 0.  1.
        -11    1    1    2    0    0 -0.67509011274E+01  0.26694128341E+02 -0.47249526656E+02  0.54687008723E+02  0.00000000000E+00 0.  1.
         11    1    1    2    0    0 -0.18281684664E+01 -0.61064307379E+02 -0.21837660304E+02  0.64877386223E+02  0.00000000000E+00 0. -1.
</event>
<event>
 7    1  0.4880172E-009  0.1685330E+03  0.7561462E-02  0.1179386E+00
          2   -1    0    0  501    0  0.00000000000E+00  0.00000000000E+00  0.21774897820E+04  0.21774897820E+04  0.00000000000E+00 0. -1.
         -2   -1    0    0    0  501 -0.00000000000E+00 -0.00000000000E+00 -0.16929758393E+02  0.16929758393E+02  0.00000000000E+00 0.  1.
         25    2    1    2    0    0  0.56468224987E+01  0.14842253090E+03  0.14454903523E+04  0.14584755534E+04  0.12508975549E+03 0.  0.
          5    1    3    3  502    0  0.19388925064E+02  0.14793336414E+03  0.14282614366E+04  0.14360391410E+04  0.41800000000E+01 0. -1.
         -5    1    3    3    0  502 -0.13742102566E+02  0.48916676439E+00  0.17228915722E+02  0.22436412459E+02  0.41800000000E+01 0. -1.
        -11    1    1    2    0    0  0.40041458041E+02 -0.95295681417E+02  0.39572783417E+03  0.40900501708E+03  0.00000000000E+00 0.  1.
         11    1    1    2    0    0 -0.45688280539E+02 -0.53126849483E+02  0.31934183704E+03  0.32693896984E+03  0.00000000000E+00 0. -1.
</event>
<event>
 7    1  0.2989693E-009  0.6375356E+02  0.7561462E-02  0.1382722E+00
         -2   -1    0    0    0  501 -0.00000000000E+00  0.00000000000E+00  0.94554697222E+02  0.94554697222E+02  0.00000000000E+00 0.  1.
          2   -1    0    0  501    0  0.00000000000E+00 -0.00000000000E+00 -0.14280502257E+03  0.14280502257E+03  0.00000000000E+00 0. -1.
         25    2    1    2    0    0  0.93144431677E+01  0.68125822657E+01 -0.68803151043E+02  0.14322601757E+03  0.12508656357E+03 0.  0.
          5    1    3    3  502    0 -0.52810690130E+01  0.16392991637E+02  0.34280544147E+02  0.38590775734E+02  0.41800000000E+01 0. -1.
         -5    1    3    3    0  502  0.14595512181E+02 -0.95804093716E+01 -0.10308369519E+03  0.10463524183E+03  0.41800000000E+01 0. -1.
        -11    1    1    2    0    0  0.38340474212E+02  0.12624918199E+02  0.10237587786E+02  0.41643591656E+02  0.00000000000E+00 0.  1.
         11    1    1    2    0    0 -0.47654917379E+02 -0.19437500465E+02  0.10315237907E+02  0.52490110572E+02  0.00000000000E+00 0. -1.
</event>
<event>
 7    1  0.2989693E-009  0.8102769E+02  0.7561462E-02  0.1326160E+00
         -1   -1    0    0    0  501 -0.00000000000E+00  0.00000000000E+00  0.78565461259E+03  0.78565461259E+03  0.00000000000E+00 0.  1.
          1   -1    0    0  501    0  0.00000000000E+00 -0.00000000000E+00 -0.19324990760E+02  0.19324990760E+02  0.00000000000E+00 0. -1.
         25    2    1    2    0    0 -0.15010739332E+02 -0.43486111519E+02  0.56129389673E+03  0.57690160079E+03  0.12509298259E+03 0.  0.
          5    1    3    3  502    0 -0.13471807425E+02 -0.53352719221E+02  0.56321055820E+03  0.56590777297E+03  0.41800000000E+01 0. -1.
         -5    1    3    3    0  502 -0.15389319071E+01  0.98666077014E+01 -0.19166614646E+01  0.10993827819E+02  0.41800000000E+01 0. -1.
        -11    1    1    2    0    0 -0.23441506854E+02  0.51662652595E+02  0.15059976285E+03  0.16093111100E+03  0.00000000000E+00 0.  1.
         11    1    1    2    0    0  0.38452246186E+02 -0.81765410754E+01  0.54435962246E+02  0.67146891561E+02  0.00000000000E+00 0. -1.
</event>
<event>
 7    1  0.2989693E-009  0.1247380E+03  0.7561462E-02  0.1235479E+00
          1   -1    0    0  501    0  0.00000000000E+00  0.00000000000E+00  0.20224730872E+03  0.20224730872E+03  0.00000000000E+00 0. -1.
         -1   -1    0    0    0  501 -0.00000000000E+00 -0.00000000000E+00 -0.13181711610E+03  0.13181711610E+03  0.00000000000E+00 0.  1.
         25    2    1    2    0    0  0.52732196955E+02  0.32878046249E+02 -0.68805773703E+02  0.15570675028E+03  0.12509479233E+03 0.  0.
          5    1    3    3  502    0  0.76586026325E+02  0.63934680851E+02 -0.54842130962E+02  0.11392187925E+03  0.41800000000E+01 0. -1.
         -5    1    3    3    0  502 -0.23853829370E+02 -0.31056634602E+02 -0.13963642741E+02  0.41784871030E+02  0.41800000000E+01 0. -1.
        -11    1    1    2    0    0 -0.43642350837E+02  0.25910038609E+02  0.77372455851E+02  0.92533679338E+02  0.00000000000E+00 0. -1.
         11    1    1    2    0    0 -0.90898461183E+01 -0.58788084858E+02  0.61863510478E+02  0.85823995201E+02  0.00000000000E+00 0.  1.
</event>
<event>
 7    1  0.2989693E-009  0.1077534E+03  0.7561462E-02  0.1264788E+00
          1   -1    0    0  501    0  0.00000000000E+00  0.00000000000E+00  0.42644693159E+03  0.42644693159E+03  0.00000000000E+00 0. -1.
         -1   -1    0    0    0  501 -0.00000000000E+00 -0.00000000000E+00 -0.52207820452E+02  0.52207820452E+02  0.00000000000E+00 0.  1.
         25    2    1    2    0    0 -0.84527491252E+02  0.20290774633E+02  0.28800672020E+03  0.32581204364E+03  0.12509598149E+03 0.  0.
          5    1    3    3  502    0  0.68652156359E+01 -0.90098357975E+00 -0.10286430714E+02  0.13085335837E+02  0.41800000000E+01 0.  1.
         -5    1    3    3    0  502 -0.91392706888E+02  0.21191758213E+02  0.29829315092E+03  0.31272670780E+03  0.41800000000E+01 0.  1.
        -11    1    1    2    0    0  0.29132929529E+02 -0.44391998947E+02  0.75311459621E+01  0.53629239348E+02  0.00000000000E+00 0.  1.
         11    1    1    2    0    0  0.55394561723E+02  0.24101224314E+02  0.78701244975E+02  0.99213469058E+02  0.00000000000E+00 0. -1.
</event>
<event>
 7    1  0.2989693E-009  0.1328285E+03  0.7561462E-02  0.1223318E+00
         -2   -1    0    0    0  501 -0.00000000000E+00  0.00000000000E+00  0.60939436604E+02  0.60939436604E+02  0.00000000000E+00 0.  1.
          2   -1    0    0  501    0  0.00000000000E+00 -0.00000000000E+00 -0.33939655227E+03  0.33939655227E+03  0.00000000000E+00 0. -1.
         25    2    1    2    0    0  0.16400773498E+02 -0.89492916037E+02 -0.11195361848E+03  0.19094310515E+03  0.12509072436E+03 0.  0.
          5    1    3    3  502    0  0.57445838586E+02 -0.24017377102E+02 -0.91746721373E+02  0.11095851502E+03  0.41800000000E+01 0. -1.
         -5    1    3    3    0  502 -0.41045065088E+02 -0.65475538936E+02 -0.20206897103E+02  0.79984590126E+02  0.41800000000E+01 0. -1.
        -11    1    1    2    0    0  0.34805556197E+02  0.22124825685E+02 -0.42077271659E+02  0.58918854741E+02  0.00000000000E+00 0.  1.
         11    1    1    2    0    0 -0.51206329694E+02  0.67368090352E+02 -0.12442622553E+03  0.15047402898E+03  0.00000000000E+00 0. -1.
</event>
<event>
 7    1  0.3165293E-009  0.1091769E+03  0.7561462E-02  0.1262102E+00
          1   -1    0    0  501    0  0.00000000000E+00  0.00000000000E+00  0.91404076397E+03  0.91404076397E+03  0.00000000000E+00 0. -1.
         -1   -1    0    0    0  501 -0.00000000000E+00 -0.00000000000E+00 -0.18415415303E+02  0.18415415303E+02  0.00000000000E+00 0.  1.
         25    2    1    2    0    0  0.42915090105E+02 -0.12167341601E+02  0.68964222917E+03  0.70231303503E+03  0.12508975084E+03 0.  0.
          5    1    3    3  502    0  0.52396987774E+02  0.47079596478E+02  0.43336524906E+03  0.43907270950E+03  0.41800000000E+01 0.  1.
         -5    1    3    3    0  502 -0.94818976697E+01 -0.59246938079E+02  0.25627698011E+03  0.26324032554E+03  0.41800000000E+01 0.  1.
        -11    1    1    2    0    0 -0.14944047552E+02 -0.32026171800E+02  0.29381088724E+02  0.45959205954E+02  0.00000000000E+00 0.  1.
         11    1    1    2    0    0 -0.27971042553E+02  0.44193513400E+02  0.17660203077E+03  0.18418393828E+03  0.00000000000E+00 0. -1.
</event>
<event>
 7    1  0.2989693E-009  0.1236184E+03  0.7561462E-02  0.1237244E+00
          1   -1    0    0  501    0  0.00000000000E+00  0.00000000000E+00  0.16731682958E+03  0.16731682958E+03  0.00000000000E+00 0. -1.
         -1   -1    0    0    0  501 -0.00000000000E+00 -0.00000000000E+00 -0.10184688040E+03  0.10184688040E+03  0.00000000000E+00 0.  1.
         25    2    1    2    0    0 -0.97280365984E+01 -0.73924717094E+02  0.41752785474E+02  0.15149033822E+03  0.12508608630E+03 0.  0.
          5    1    3    3  502    0 -0.39761882783E+02  0.11379978227E+02  0.44525550852E+02  0.60913941800E+02  0.41800000000E+01 0.  1.
         -5    1    3    3    0  502  0.30033846185E+02 -0.85304695321E+02 -0.27727653784E+01  0.90576396419E+02  0.41800000000E+01 0.  1.
        -11    1    1    2    0    0  0.48945887470E+02  0.43789523853E+02  0.10817459753E+02  0.66560046087E+02  0.00000000000E+00 0. -1.
         11    1    1    2    0    0 -0.39217850872E+02  0.30135193241E+02  0.12899703955E+02  0.51113325668E+02  0.00000000000E+00 0.  1.
</event>
<event>
 6    1  0.2989693E-009  0.1077735E+03  0.7561462E-02  0.1264749E+00
         -2   -1    0    0    0  501 -0.00000000000E+00  0.00000000000E+00  0.12217639738E+02  0.12217639738E+02  0.00000000000E+00 0.  1.
          2   -1    0    0  501    0  0.00000000000E+00 -0.00000000000E+00 -0.14758629021E+04  0.14758629021E+04  0.00000000000E+00 0. -1.
          5    1    1    2  502    0 -0.78381646457E+02 -0.29105900024E+02 -0.53410117034E+03  0.54062220494E+03  0.41800000000E+01 0.  1.
         -5    1    1    2    0  502  0.39969106010E+02 -0.95191595853E+01 -0.64789961657E+03  0.64921454804E+03  0.41800000000E+01 0.  1.
        -11    1    1    2    0    0  0.32261588601E+02 -0.15686829069E+02 -0.17234741866E+03  0.17604124353E+03  0.00000000000E+00 0.  1.
         11    1    1    2    0    0  0.61509518459E+01  0.54311888679E+02 -0.10929705678E+03  0.12220254532E+03  0.00000000000E+00 0. -1.
</event>
<event>
 7    1  0.2989693E-009  0.1365987E+03  0.7561462E-02  0.1217980E+00
          1   -1    0    0  501    0  0.00000000000E+00  0.00000000000E+00  0.90017470850E+02  0.90017470850E+02  0.00000000000E+00 0. -1.
         -1   -1    0    0    0  501 -0.00000000000E+00 -0.00000000000E+00 -0.25724195279E+03  0.25724195279E+03  0.00000000000E+00 0.  1.
         25    2    1    2    0    0 -0.73405561275E+02 -0.88767188178E+02 -0.98170479571E+02  0.19634812158E+03  0.12508857528E+03 0.  0.
          5    1    3    3  502    0  0.27804377215E+02 -0.18211644451E+02 -0.57186829286E+02  0.66276339893E+02  0.41800000000E+01 0. -1.
         -5    1    3    3    0  502 -0.10120993849E+03 -0.70555543728E+02 -0.40983650285E+02  0.13007178168E+03  0.41800000000E+01 0. -1.
        -11    1    1    2    0    0  0.47144399775E+02  0.44783027870E+02 -0.75088362644E+02  0.99329634147E+02  0.00000000000E+00 0.  1.
         11    1    1    2    0    0  0.26261161500E+02  0.43984160308E+02  0.60343602710E+01  0.51581667918E+02  0.00000000000E+00 0. -1.
</event>
<event>
 7    1  0.2989693E-009  0.1513775E+03  0.7561462E-02  0.1198791E+00
         -2   -1    0    0    0  501 -0.00000000000E+00  0.00000000000E+00  0.25112202860E+03  0.25112202860E+03  0.00000000000E+00 0.  1.
          2   -1    0    0  501    0  0.00000000000E+00 -0.00000000000E+00 -0.10944915101E+03  0.10944915101E+03  0.00000000000E+00 0. -1.
         25    2    1    2    0    0  0.57577313411E+02 -0.11000996714E+03  0.63128775185E+02  0.18724526366E+03  0.12513275598E+03 0.  0.
          5    1    3    3  502    0 -0.33228124536E+02 -0.64904999998E+02  0.13463245135E+02  0.74266403269E+02  0.41800000000E+01 0.  1.
         -5    1    3    3    0  502  0.90805437947E+02 -0.45104967138E+02  0.49665530050E+02  0.11297886040E+03  0.41800000000E+01 0.  1.
        -11    1    1    2    0    0 -0.34051094103E+02  0.31874859688E+02  0.78980539440E+02  0.91724638457E+02  0.00000000000E+00 0.  1.
         11    1    1    2    0    0 -0.23526219308E+02  0.78135107448E+02 -0.43643702791E+00  0.81601277491E+02  0.00000000000E+00 0. -1.
</event>
<event>
 7    1  0.2989693E-009  0.1371570E+03  0.7561462E-02  0.1217206E+00
          2   -1    0    0  501    0  0.00000000000E+00  0.00000000000E+00  0.55418565634E+02  0.55418565634E+02  0.00000000000E+00 0.  1.
         -2   -1    0    0    0  501 -0.00000000000E+00 -0.00000000000E+00 -0.47850389297E+03  0.47850389297E+03  0.00000000000E+00 0. -1.
         25    2    1    2    0    0  0.10220472947E+03 -0.47625868464E+02 -0.30665956588E+03  0.34986030150E+03  0.12509241042E+03 0.  0.
          5    1    3    3  502    0  0.61490873793E+01  0.18317594820E+02 -0.16596111133E+03  0.16713440229E+03  0.41800000000E+01 0. -1.
         -5    1    3    3    0  502  0.96055642091E+02 -0.65943463284E+02 -0.14069845455E+03  0.18272589921E+03  0.41800000000E+01 0. -1.
        -11    1    1    2    0    0 -0.85500910824E+02 -0.20733539842E+01 -0.93857741227E+02  0.12698023522E+03  0.00000000000E+00 0.  1.
         11    1    1    2    0    0 -0.16703818646E+02  0.49699222448E+02 -0.22568020230E+02  0.57081921888E+02  0.00000000000E+00 0. -1.
</event>
<event>
 7    1  0.2989693E-009  0.1239732E+03  0.7561462E-02  0.1236683E+00
          1   -1    0    0  501    0  0.00000000000E+00  0.00000000000E+00  0.67827590495E+02  0.67827590495E+02  0.00000000000E+00 0. -1.
         -1   -1    0    0    0  501 -0.00000000000E+00 -0.00000000000E+00 -0.25679343696E+03  0.25679343696E+03  0.00000000000E+00 0.  1.
         25    2    1    2    0    0 -0.18699193861E+02  0.68580904914E+02 -0.13591706229E+03  0.19792571238E+03  0.12509252348E+03 0.  0.
          5    1    3    3  502    0  0.47980587612E+02  0.90937775836E+01 -0.75371714448E+02  0.89906625547E+02  0.41800000000E+01 0. -1.
         -5    1    3    3    0  502 -0.66679781474E+02  0.59487127331E+02 -0.60545347842E+02  0.10801908684E+03  0.41800000000E+01 0. -1.
        -11    1    1    2    0    0 -0.24774351774E+02  0.37800295700E+01  0.31871265284E+01  0.25262915605E+02  0.00000000000E+00 0. -1.
         11    1    1    2    0    0  0.43473545635E+02 -0.72360934484E+02 -0.56235910705E+02  0.10143239947E+03  0.00000000000E+00 0.  1.
</event>
<event>
 7    1  0.2989693E-009  0.1646796E+03  0.7561462E-02  0.1183513E+00
          3   -1    0    0  501    0  0.00000000000E+00  0.00000000000E+00  0.35274474943E+03  0.35274474943E+03  0.00000000000E+00 0. -1.
         -3   -1    0    0    0  501 -0.00000000000E+00 -0.00000000000E+00 -0.83731242821E+02  0.83731242821E+02  0.00000000000E+00 0.  1.
         25    2    1    2    0    0  0.11289772280E+03 -0.82351416886E+02  0.12988015162E+03  0.22812362726E+03  0.12507551259E+03 0.  0.
          5    1    3    3  502    0 -0.18110406719E+02  0.52689082920E+01 -0.57419921501E+01  0.20154183187E+02  0.41800000000E+01 0. -1.
         -5    1    3    3    0  502  0.13100812952E+03 -0.87620325178E+02  0.13562214377E+03  0.20796944407E+03  0.41800000000E+01 0. -1.
        -11    1    1    2    0    0 -0.69590918290E+02  0.13273237767E+02  0.84211111218E+02  0.11004810767E+03  0.00000000000E+00 0.  1.
         11    1    1    2    0    0 -0.43306804513E+02  0.69078179119E+02  0.54922243770E+02  0.98304257325E+02  0.00000000000E+00 0. -1.
</event>
<event>
 7    1  0.2989693E-009  0.1205414E+03  0.7561462E-02  0.1242207E+00
          1   -1    0    0  501    0  0.00000000000E+00  0.00000000000E+00  0.38579121975E+02  0.38579121975E+02  0.00000000000E+00 0. -1.
         -1   -1    0    0    0  501 -0.00000000000E+00 -0.00000000000E+00 -0.43318183102E+03  0.43318183102E+03  0.00000000000E+00 0.  1.
         25    2    1    2    0    0 -0.58155220959E+02  0.76428547567E+01 -0.28810747920E+03  0.31952142666E+03  0.12509028567E+03 0.  0.
          5    1    3    3  502    0 -0.78093920998E+02  0.46767791644E+02 -0.16128147350E+03  0.18524328038E+03  0.41800000000E+01 0. -1.
         -5    1    3    3    0  502  0.19938700040E+02 -0.39124936887E+02 -0.12682600570E+03  0.13427814628E+03  0.41800000000E+01 0. -1.
        -11    1    1    2    0    0  0.46278681996E+02  0.37252515320E+02 -0.41964686525E+02  0.72735831748E+02  0.00000000000E+00 0. -1.
         11    1    1    2    0    0  0.11876538963E+02 -0.44895370077E+02 -0.64530543320E+02  0.79503694589E+02  0.00000000000E+00 0.  1.
</event>
<event>
 7    1  0.2989693E-009  0.1398641E+03  0.7561462E-02  0.1213512E+00
         -1   -1    0    0    0  501 -0.00000000000E+00  0.00000000000E+00  0.12948824478E+03  0.12948824478E+03  0.00000000000E+00 0.  1.
          1   -1    0    0  501    0  0.00000000000E+00 -0.00000000000E+00 -0.27025538894E+03  0.27025538894E+03  0.00000000000E+00 0. -1.
         25    2    1    2    0    0  0.40059247203E+02 -0.12392152745E+03 -0.15571305611E+03  0.23844311352E+03  0.12508906542E+03 0.  0.
          5    1    3    3  502    0  0.18900250926E+02 -0.14237216935E+02  0.19270342324E+02  0.30801563668E+02  0.41800000000E+01 0.  1.
         -5    1    3    3    0  502  0.21158996277E+02 -0.10968431051E+03 -0.17498339843E+03  0.20764154985E+03  0.41800000000E+01 0.  1.
        -11    1    1    2    0    0  0.57611973929E+01  0.80764510046E+02 -0.27351280179E+02  0.85464554090E+02  0.00000000000E+00 0. -1.
         11    1    1    2    0    0 -0.45820444595E+02  0.43157017403E+02  0.42297192124E+02  0.75835966108E+02  0.00000000000E+00 0.  1.
</event>
<event>
 7    1  0.2989693E-009  0.7416021E+02  0.7561462E-02  0.1346491E+00
         -1   -1    0    0    0  501 -0.00000000000E+00  0.00000000000E+00  0.28984323895E+03  0.28984323895E+03  0.00000000000E+00 0.  1.
          1   -1    0    0  501    0  0.00000000000E+00 -0.00000000000E+00 -0.65022078834E+02  0.65022078834E+02  0.00000000000E+00 0. -1.
         25    2    1    2    0    0  0.34624366716E+02 -0.65215424588E+02  0.71066482307E+02  0.16170100976E+03  0.12507946784E+03 0.  0.
          5    1    3    3  502    0  0.10834315152E+02 -0.17501726407E+02 -0.36194327724E+02  0.41847276750E+02  0.41800000000E+01 0. -1.
         -5    1    3    3    0  502  0.23790051564E+02 -0.47713698180E+02  0.10726081003E+03  0.11985373301E+03  0.41800000000E+01 0. -1.
        -11    1    1    2    0    0 -0.11993944423E+02  0.22771310366E+02 -0.59141667675E+01  0.26407662660E+02  0.00000000000E+00 0. -1.
         11    1    1    2    0    0 -0.22630422293E+02  0.42444114222E+02  0.15966884457E+03  0.16675664536E+03  0.00000000000E+00 0.  1.
</event>
<event>
 7    1  0.2989693E-009  0.9202074E+02  0.7561462E-02  0.1298031E+00
          2   -1    0    0  501    0  0.00000000000E+00  0.00000000000E+00  0.49103187240E+03  0.49103187240E+03  0.00000000000E+00 0. -1.
         -2   -1    0    0    0  501 -0.00000000000E+00 -0.00000000000E+00 -0.45884538206E+02  0.45884538206E+02  0.00000000000E+00 0.  1.
         25    2    1    2    0    0 -0.24240382301E+02  0.55339980440E+02  0.38965125921E+03  0.41367259997E+03  0.12508719597E+03 0.  0.
          5    1    3    3  502    0 -0.28443674218E+02 -0.25630130694E+02  0.24313266355E+03  0.24616439768E+03  0.41800000000E+01 0. -1.
         -5    1    3    3    0  502  0.42032919168E+01  0.80970111134E+02  0.14651859566E+03  0.16750820229E+03  0.41800000000E+01 0. -1.
        -11    1    1    2    0    0  0.15190526059E+01 -0.31019617253E+02  0.77401190521E+02  0.83399451254E+02  0.00000000000E+00 0. -1.
         11    1    1    2    0    0  0.22721329696E+02 -0.24320363187E+02 -0.21905115528E+02  0.39844359388E+02  0.00000000000E+00 0.  1.
</event>
<event>
 7    1  0.2989693E-009  0.8460245E+02  0.7561462E-02  0.1316475E+00
         -2   -1    0    0    0  501 -0.00000000000E+00  0.00000000000E+00  0.20802299499E+02  0.20802299499E+02  0.00000000000E+00 0.  1.
          2   -1    0    0  501    0  0.00000000000E+00 -0.00000000000E+00 -0.82889782377E+03  0.82889782377E+03  0.00000000000E+00 0. -1.
         25    2    1    2    0    0 -0.74091676932E+02 -0.42345184577E+01 -0.49511750695E+03  0.51603956630E+03  0.12509188847E+03 0.  0.
          5    1    3    3  502    0 -0.61633170416E+02 -0.26679831662E+01 -0.49854828606E+03  0.50236802422E+03  0.41800000000E+01 0.  1.
         -5    1    3    3    0  502 -0.12458506516E+02 -0.15665352915E+01  0.34307791099E+01  0.13671542076E+02  0.41800000000E+01 0.  1.
        -11    1    1    2    0    0  0.47126837691E+02 -0.25839646978E+02 -0.26745109068E+03  0.27279793271E+03  0.00000000000E+00 0. -1.
         11    1    1    2    0    0  0.26964839241E+02  0.30074165436E+02 -0.45526926643E+02  0.60862624258E+02  0.00000000000E+00 0.  1.
</event>
<event>
 7    1  0.2989693E-009  0.1625639E+03  0.7561462E-02  0.1185832E+00
         -1   -1    0    0    0  501 -0.00000000000E+00  0.00000000000E+00  0.18443544502E+03  0.18443544502E+03  0.00000000000E+00 0.  1.
          1   -1    0    0  501    0  0.00000000000E+00 -0.00000000000E+00 -0.21535708023E+03  0.21535708023E+03  0.00000000000E+00 0. -1.
         25    2    1    2    0    0  0.12079461364E+03  0.88627255505E+02 -0.89876894065E+02  0.21487519201E+03  0.12508941983E+03 0.  0.
          5    1    3    3  502    0  0.70547518185E+02  0.56106260408E+02  0.17458922852E+02  0.91908384635E+02  0.41800000000E+01 0.  1.
         -5    1    3    3    0  502  0.50247095452E+02  0.32520995097E+02 -0.10733581692E+03  0.12296680738E+03  0.41800000000E+01 0.  1.
        -11    1    1    2    0    0 -0.43591371857E+02 -0.87415264956E+02  0.26921622812E+02  0.10132329457E+03  0.00000000000E+00 0.  1.
         11    1    1    2    0    0 -0.77203241780E+02 -0.12119905485E+01  0.32033636037E+02  0.83594038665E+02  0.00000000000E+00 0. -1.
</event>
<event>
 7    1  0.2989693E-009  0.1868181E+03  0.7561462E-02  0.1161363E+00
          1   -1    0    0  501    0  0.00000000000E+00  0.00000000000E+00  0.67889600124E+03  0.67889600124E+03  0.00000000000E+00 0. -1.
         -1   -1    0    0    0  501 -0.00000000000E+00 -0.00000000000E+00 -0.61609953254E+02  0.61609953254E+02  0.00000000000E+00 0.  1.
         25    2    1    2    0    0  0.13770007389E+03 -0.10239743236E+03  0.31771274076E+03  0.38214764972E+03  0.12509554762E+03 0.  0.
          5    1    3    3  502    0  0.53256640916E+02 -0.83132031702E+02  0.25957504882E+03  0.27774787644E+03  0.41800000000E+01 0. -1.
         -5    1    3    3    0  502  0.84443432979E+02 -0.19265400656E+02  0.58137691949E+02  0.10439977328E+03  0.41800000000E+01 0. -1.
        -11    1    1    2    0    0 -0.12237660094E+03  0.47769805497E+02  0.25252673080E+03  0.28465371338E+03  0.00000000000E+00 0. -1.
         11    1    1    2    0    0 -0.15323472960E+02  0.54627626861E+02  0.47046576422E+02  0.73704591397E+02  0.00000000000E+00 0.  1.
</event>
<event>
 7    1  0.2989693E-009  0.1214943E+03  0.7561462E-02  0.1240652E+00
         -1   -1    0    0    0  501 -0.00000000000E+00  0.00000000000E+00  0.10699847490E+04  0.10699847490E+04  0.00000000000E+00 0.  1.
          1   -1    0    0  501    0  0.00000000000E+00 -0.00000000000E+00 -0.21909539834E+02  0.21909539834E+02  0.00000000000E+00 0. -1.
         25    2    1    2    0    0 -0.34292511762E+02  0.82871600829E+02  0.77171374052E+03  0.78691359786E+03  0.12508890678E+03 0.  0.
          5    1    3    3  502    0 -0.14088962561E+02  0.11418257634E+03  0.62283359693E+03  0.63338402369E+03  0.41800000000E+01 0.  1.
         -5    1    3    3    0  502 -0.20203549201E+02 -0.31310975512E+02  0.14888014359E+03  0.15352957417E+03  0.41800000000E+01 0.  1.
        -11    1    1    2    0    0  0.91229759366E+01 -0.11448962819E+02 -0.35023133668E+01  0.15052363219E+02  0.00000000000E+00 0. -1.
         11    1    1    2    0    0  0.25169535825E+02 -0.71422638010E+02  0.27986378206E+03  0.28992832780E+03  0.00000000000E+00 0.  1.
</event>
<event>
 7    1  0.2989693E-009  0.1300094E+03  0.7561462E-02  0.1227442E+00
         -1   -1    0    0    0  501 -0.00000000000E+00  0.00000000000E+00  0.11071519931E+03  0.11071519931E+03  0.00000000000E+00 0.  1.
          1   -1    0    0  501    0  0.00000000000E+00 -0.00000000000E+00 -0.24792750670E+03  0.24792750670E+03  0.00000000000E+00 0. -1.
         25    2    1    2    0    0 -0.67762132566E+02 -0.45519197286E+02 -0.16950466920E+03  0.22592742878E+03  0.12509063220E+03 0.  0.
          5    1    3    3  502    0 -0.84596977055E+02  0.15253606652E+02 -0.93483784136E+02  0.12706695613E+03  0.41800000000E+01 0.  1.
         -5    1    3    3    0  502  0.16834844489E+02 -0.60772803938E+02 -0.76020885064E+02  0.98860472654E+02  0.41800000000E+01 0.  1.
        -11    1    1    2    0    0  0.61071468061E+02  0.65577787369E+02 -0.51022491410E+01  0.89756355506E+02  0.00000000000E+00 0. -1.
         11    1    1    2    0    0  0.66906645052E+01 -0.20058590084E+02  0.37394610950E+02  0.42958921725E+02  0.00000000000E+00 0.  1.
</event>
<event>
 7    1  0.2989693E-009  0.1071273E+03  0.7561462E-02  0.1265984E+00
          1   -1    0    0  501    0  0.00000000000E+00  0.00000000000E+00  0.40864803095E+03  0.40864803095E+03  0.00000000000E+00 0. -1.
         -1   -1    0    0    0  501 -0.00000000000E+00 -0.00000000000E+00 -0.59128195265E+02  0.59128195265E+02  0.00000000000E+00 0.  1.
         25    2    1    2    0    0 -0.64242027903E+02 -0.20781499508E+02  0.32096980497E+03  0.35103901123E+03  0.12509141790E+03 0.  0.
          5    1    3    3  502    0 -0.25850790444E+02  0.52380495828E+02  0.15236632639E+03  0.16323280776E+03  0.41800000000E+01 0.  1.
         -5    1    3    3    0  502 -0.38391237459E+02 -0.73161995336E+02  0.16860347858E+03  0.18780620348E+03  0.41800000000E+01 0.  1.
        -11    1    1    2    0    0  0.52802674009E+02  0.44021015808E+01  0.59642551557E+02  0.79779288271E+02  0.00000000000E+00 0. -1.
         11    1    1    2    0    0  0.11439353894E+02  0.16379397927E+02 -0.31092520846E+02  0.36957926708E+02  0.00000000000E+00 0.  1.
</event>
<event>
 7    1  0.2989693E-009  0.1087267E+03  0.7561462E-02  0.1262946E+00
         -1   -1    0    0    0  501 -0.00000000000E+00  0.00000000000E+00  0.40089651835E+02  0.40089651835E+02  0.00000000000E+00 0.  1.
          1   -1    0    0  501    0  0.00000000000E+00 -0.00000000000E+00 -0.30337348992E+03  0.30337348992E+03  0.00000000000E+00 0. -1.
         25    2    1    2    0    0  0.13924185547E+02  0.64433089887E+00 -0.13324293353E+03  0.18329287429E+03  0.12509316658E+03 0.  0.
          5    1    3    3  502    0 -0.32846724687E+02  0.47419824803E+02 -0.77418323021E+02  0.96636516112E+02  0.41800000000E+01 0. -1.
         -5    1    3    3    0  502  0.46770910234E+02 -0.46775493904E+02 -0.55824610510E+02  0.86656358178E+02  0.41800000000E+01 0. -1.
        -11    1    1    2    0    0 -0.30945356619E+02 -0.39933485796E+02 -0.65546231834E+02  0.82756310283E+02  0.00000000000E+00 0. -1.
         11    1    1    2    0    0  0.17021171072E+02  0.39289154897E+02 -0.64494672721E+02  0.77413957181E+02  0.00000000000E+00 0.  1.
</event>
<event>
 7    1  0.2989693E-009  0.1811528E+03  0.7561462E-02  0.1166692E+00
          1   -1    0    0  501    0  0.00000000000E+00  0.00000000000E+00  0.51950153656E+03  0.51950153656E+03  0.00000000000E+00 0. -1.
         -1   -1    0    0    0  501 -0.00000000000E+00 -0.00000000000E+00 -0.86234141784E+02  0.86234141784E+02  0.00000000000E+00 0.  1.
         25    2    1    2    0    0 -0.12671282196E+03  0.96616882417E+02  0.33634487685E+03  0.39263971722E+03  0.12508840930E+03 0.  0.
          5    1    3    3  502    0 -0.13764336438E+03  0.99037987586E+02  0.34015101151E+03  0.38009788446E+03  0.41800000000E+01 0.  1.
         -5    1    3    3    0  502  0.10930542423E+02 -0.24211051685E+01 -0.38061346593E+01  0.12541832759E+02  0.41800000000E+01 0.  1.
        -11    1    1    2    0    0  0.77629861565E+02 -0.62302674569E+01  0.74607537302E+02  0.10784941475E+03  0.00000000000E+00 0.  1.
         11    1    1    2    0    0  0.49082960390E+02 -0.90386614961E+02  0.22314980633E+02  0.10524654638E+03  0.00000000000E+00 0. -1.
</event>
<event>
 7    1  0.2989693E-009  0.1025114E+03  0.7561462E-02  0.1275102E+00
         -1   -1    0    0    0  501 -0.00000000000E+00  0.00000000000E+00  0.33756230938E+02  0.33756230938E+02  0.00000000000E+00 0.  1.
          1   -1    0    0  501    0  0.00000000000E+00 -0.00000000000E+00 -0.64900496789E+03  0.64900496789E+03  0.00000000000E+00 0. -1.
         25    2    1    2    0    0  0.33482795650E+02 -0.36942261285E+02 -0.53663486383E+03  0.55327225287E+03  0.12508948973E+03 0.  0.
          5    1    3    3  502    0  0.64972875223E+02 -0.55218808724E+02 -0.46537475269E+03  0.47314027962E+03  0.41800000000E+01 0.  1.
         -5    1    3    3    0  502 -0.31490079572E+02  0.18276547439E+02 -0.71260111140E+02  0.80131973253E+02  0.41800000000E+01 0.  1.
        -11    1    1    2    0    0 -0.32131754262E+02 -0.11809713634E+02  0.30514099706E+01  0.34369027785E+02  0.00000000000E+00 0.  1.
         11    1    1    2    0    0 -0.13510413882E+01  0.48751974919E+02 -0.81665283087E+02  0.95119918172E+02  0.00000000000E+00 0. -1.
</event>
<event>
 7    1  0.2989693E-009  0.1247816E+03  0.7561462E-02  0.1235411E+00
          2   -1    0    0  501    0  0.00000000000E+00  0.00000000000E+00  0.19257663138E+04  0.19257663138E+04  0.00000000000E+00 0. -1.
         -2   -1    0    0    0  501 -0.00000000000E+00 -0.00000000000E+00 -0.14681757415E+02  0.14681757415E+02  0.00000000000E+00 0.  1.
         25    2    1    2    0    0  0.31532593214E+02  0.10659713514E+03  0.13878895134E+04  0.13979420362E+04  0.12508949433E+03 0.  0.
          5    1    3    3  502    0 -0.10097904529E+02  0.74741983820E+02  0.32141307518E+03  0.33016990947E+03  0.41800000000E+01 0. -1.
         -5    1    3    3    0  502  0.41630497743E+02  0.31855151319E+02  0.10664764382E+04  0.10677721268E+04  0.41800000000E+01 0. -1.
        -11    1    1    2    0    0 -0.29675642678E+02 -0.22294893758E+02  0.52370378284E+02  0.64190050457E+02  0.00000000000E+00 0.  1.
         11    1    1    2    0    0 -0.18569505364E+01 -0.84302241381E+02  0.47082466475E+03  0.47831598458E+03  0.00000000000E+00 0. -1.
</event>
<event>
 7    1  0.2989693E-009  0.1020806E+03  0.7561462E-02  0.1275981E+00
         -1   -1    0    0    0  501 -0.00000000000E+00  0.00000000000E+00  0.94194911128E+01  0.94194911128E+01  0.00000000000E+00 0.  1.
          1   -1    0    0  501    0  0.00000000000E+00 -0.00000000000E+00 -0.13033669288E+04  0.13033669288E+04  0.00000000000E+00 0. -1.
         25    2    1    2    0    0 -0.40955629125E+01 -0.18506809785E+02 -0.84216982074E+03  0.85162042404E+03  0.12509222214E+03 0.  0.
          5    1    3    3  502    0 -0.56892130914E+02 -0.11226246017E+02 -0.63529379444E+03  0.63794860358E+03  0.41800000000E+01 0. -1.
         -5    1    3    3    0  502  0.52796568001E+02 -0.72805637676E+01 -0.20687602630E+03  0.21367182046E+03  0.41800000000E+01 0. -1.
        -11    1    1    2    0    0 -0.42686372051E+02  0.12695115467E+01 -0.20387988585E+03  0.20830445476E+03  0.00000000000E+00 0.  1.
         11    1    1    2    0    0  0.46781934963E+02  0.17237298238E+02 -0.24789773114E+03  0.25286154115E+03  0.00000000000E+00 0. -1.
</event>
<event>
 7    1  0.2989693E-009  0.1080711E+03  0.7561462E-02  0.1264184E+00
         -2   -1    0    0    0  501 -0.00000000000E+00  0.00000000000E+00  0.13291221818E+02  0.13291221818E+02  0.00000000000E+00 0.  1.
          2   -1    0    0  501    0  0.00000000000E+00 -0.00000000000E+00 -0.10054972280E+04  0.10054972280E+04  0.00000000000E+00 0. -1.
         25    2    1    2    0    0  0.13681765617E+02 -0.30194282053E+02 -0.68322639577E+03  0.69538033676E+03  0.12512641406E+03 0.  0.
          5    1    3    3  502    0 -0.55951160891E+02 -0.14065187321E+02 -0.30380180965E+03  0.30925939573E+03  0.41800000000E+01 0.  1.
         -5    1    3    3    0  502  0.69632926508E+02 -0.16129094732E+02 -0.37942458611E+03  0.38612094102E+03  0.41800000000E+01 0.  1.
        -11    1    1    2    0    0 -0.92189849496E+00 -0.27548796976E+02 -0.44086080781E+02  0.51993928782E+02  0.00000000000E+00 0.  1.
         11    1    1    2    0    0 -0.12759867122E+02  0.57743079028E+02 -0.26489352959E+03  0.27141418423E+03  0.00000000000E+00 0. -1.
</event>
<event>
 7    1  0.2989693E-009  0.9534117E+02  0.7561462E-02  0.1290410E+00
          3   -1    0    0  501    0  0.00000000000E+00  0.00000000000E+00  0.12231571690E+03  0.12231571690E+03  0.00000000000E+00 0. -1.
         -3   -1    0    0    0  501 -0.00000000000E+00 -0.00000000000E+00 -0.14740453502E+03  0.14740453502E+03  0.00000000000E+00 0.  1.
         25    2    1    2    0    0 -0.88935340881E+01 -0.72416751704E+02 -0.42572630269E+02  0.15094333378E+03  0.12509268679E+03 0.  0.
          5    1    3    3  502    0  0.39235030161E+01 -0.22210902511E+02 -0.82350763084E+02  0.85485897356E+02  0.41800000000E+01 0. -1.
         -5    1    3    3    0  502 -0.12817037104E+02 -0.50205849193E+02  0.39778132815E+02  0.65457436427E+02  0.41800000000E+01 0. -1.
        -11    1    1    2    0    0 -0.40393963169E+02  0.39453834722E+02 -0.15992516788E+01  0.56487475963E+02  0.00000000000E+00 0.  1.
         11    1    1    2    0    0  0.49287497257E+02  0.32962916982E+02  0.19083063825E+02  0.62289442177E+02  0.00000000000E+00 0. -1.
</event>
<event>
 7    1  0.2989693E-009  0.1344233E+03  0.7561462E-02  0.1221036E+00
          2   -1    0    0  501    0  0.00000000000E+00  0.00000000000E+00  0.11052332690E+04  0.11052332690E+04  0.00000000000E+00 0.  1.
         -2   -1    0    0    0  501 -0.00000000000E+00 -0.00000000000E+00 -0.17124511998E+02  0.17124511998E+02  0.00000000000E+00 0. -1.
         25    2    1    2    0    0 -0.41143576953E+02  0.76393680852E+02  0.69276010443E+03  0.70929018954E+03  0.12508885757E+03 0.  0.
          5    1    3    3  502    0  0.42176543389E+02  0.11459791761E+02  0.26796141421E+03  0.27153449052E+03  0.41800000000E+01 0.  1.
         -5    1    3    3    0  502 -0.83320120342E+02  0.64933889091E+02  0.42479869023E+03  0.43775569902E+03  0.41800000000E+01 0.  1.
        -11    1    1    2    0    0  0.15990229927E+02  0.16505013711E+02  0.91437696983E+02  0.94281256676E+02  0.00000000000E+00 0. -1.
         11    1    1    2    0    0  0.25153347026E+02 -0.92898694563E+02  0.30391095558E+03  0.31878633478E+03  0.00000000000E+00 0.  1.
</event>
<event>
 7    1  0.2989693E-009  0.8566635E+02  0.7561462E-02  0.1313699E+00
          1   -1    0    0  501    0  0.00000000000E+00  0.00000000000E+00  0.36518680064E+03  0.36518680064E+03  0.00000000000E+00 0. -1.
         -1   -1    0    0    0  501 -0.00000000000E+00 -0.00000000000E+00 -0.36911921565E+02  0.36911921565E+02  0.00000000000E+00 0.  1.
         25    2    1    2    0    0 -0.26962675275E+02 -0.24414787743E+02  0.15023074939E+03  0.19884572363E+03  0.12508907236E+03 0.  0.
          5    1    3    3  502    0 -0.86773571369E+01 -0.62193305945E+02  0.14275174130E+03  0.15600908908E+03  0.41800000000E+01 0.  1.
         -5    1    3    3    0  502 -0.18285318139E+02  0.37778518202E+02  0.74790080811E+01  0.42836634542E+02  0.41800000000E+01 0.  1.
        -11    1    1    2    0    0  0.40475561344E+02  0.26007501329E+01  0.17223134863E+03  0.17694256813E+03  0.00000000000E+00 0. -1.
         11    1    1    2    0    0 -0.13512886068E+02  0.21814037610E+02  0.58127810645E+01  0.26310430449E+02  0.00000000000E+00 0.  1.
</event>
<event>
 7    1  0.2989693E-009  0.2656872E+03  0.7561462E-02  0.1103774E+00
          2   -1    0    0  501    0  0.00000000000E+00  0.00000000000E+00  0.18615297566E+03  0.18615297566E+03  0.00000000000E+00 0. -1.
         -2   -1    0    0    0  501 -0.00000000000E+00 -0.00000000000E+00 -0.43205865632E+03  0.43205865632E+03  0.00000000000E+00 0.  1.
         25    2    1    2    0    0 -0.54155871756E+02  0.25313691549E+03 -0.15818067675E+03  0.32814580735E+03  0.12508951975E+03 0.  0.
          5    1    3    3  502    0 -0.65997213936E+02  0.24392095947E+03 -0.17330126536E+03  0.30643737972E+03  0.41800000000E+01 0.  1.
         -5    1    3    3    0  502  0.11841342180E+02  0.92159560230E+01  0.15120588608E+02  0.21708427623E+02  0.41800000000E+01 0.  1.
        -11    1    1    2    0    0  0.43176058362E+02 -0.92722217619E+02  0.85797195555E+01  0.10264108945E+03  0.00000000000E+00 0. -1.
         11    1    1    2    0    0  0.10979813394E+02 -0.16041469787E+03 -0.96304723467E+02  0.18742473518E+03  0.00000000000E+00 0.  1.
</event>
<event>
 7    1  0.2989693E-009  0.1004096E+03  0.7561462E-02  0.1279437E+00
         -1   -1    0    0    0  501 -0.00000000000E+00  0.00000000000E+00  0.16775473848E+03  0.16775473848E+03  0.00000000000E+00 0.  1.
          1   -1    0    0  501    0  0.00000000000E+00 -0.00000000000E+00 -0.10218191860E+03  0.10218191860E+03  0.00000000000E+00 0. -1.
         25    2    1    2    0    0 -0.12873797575E+02  0.71211984712E+02  0.46958210536E+02  0.15194336733E+03  0.12507930247E+03 0.  0.
          5    1    3    3  502    0  0.94676148341E+01  0.76135477351E+02 -0.21381314740E+02  0.79755123109E+02  0.41800000000E+01 0. -1.
         -5    1    3    3    0  502 -0.22341412410E+02 -0.49234926394E+01  0.68339525276E+02  0.72188244218E+02  0.41800000000E+01 0. -1.
        -11    1    1    2    0    0 -0.23698462817E+02 -0.56569061011E+02  0.39946048870E+02  0.73194006748E+02  0.00000000000E+00 0.  1.
         11    1    1    2    0    0  0.36572260393E+02 -0.14642923701E+02 -0.21331439528E+02  0.44799282997E+02  0.00000000000E+00 0. -1.
</event>
<event>
 7    1  0.2989693E-009  0.8012743E+02  0.7561462E-02  0.1328690E+00
          1   -1    0    0  501    0  0.00000000000E+00  0.00000000000E+00  0.25957716841E+03  0.25957716841E+03  0.00000000000E+00 0. -1.
         -1   -1    0    0    0  501 -0.00000000000E+00 -0.00000000000E+00 -0.63799318623E+02  0.63799318623E+02  0.00000000000E+00 0.  1.
         25    2    1    2    0    0  0.98989485254E+01  0.18862623617E+02  0.25903216637E+02  0.12951571046E+03  0.12509818093E+03 0.  0.
          5    1    3    3  502    0  0.25478554813E+02 -0.19659149095E+02 -0.39991259424E+02  0.51501574042E+02  0.41800000000E+01 0.  1.
         -5    1    3    3    0  502 -0.15579606288E+02  0.38521772712E+02  0.65894476061E+02  0.78014136413E+02  0.41800000000E+01 0.  1.
        -11    1    1    2    0    0 -0.35049359411E+02  0.19545240048E+02  0.11775060159E+03  0.12440127885E+03  0.00000000000E+00 0. -1.
         11    1    1    2    0    0  0.25150410885E+02 -0.38407863665E+02  0.52124031560E+02  0.69459497731E+02  0.00000000000E+00 0.  1.
</event>
<event>
 7    1  0.2989693E-009  0.9415999E+02  0.7561462E-02  0.1293079E+00
          1   -1    0    0  501    0  0.00000000000E+00  0.00000000000E+00  0.39346721484E+03  0.39346721484E+03  0.00000000000E+00 0. -1.
         -1   -1    0    0    0  501 -0.00000000000E+00 -0.00000000000E+00 -0.56268071500E+02  0.56268071500E+02  0.00000000000E+00 0.  1.
         25    2    1    2    0    0  0.39799150925E+01  0.41352329579E+02  0.32220611075E+03  0.34812265318E+03  0.12508696560E+03 0.  0.
          5    1    3    3  502    0  0.70525048419E+01 -0.36646963300E+02  0.38250002461E+02  0.53602918129E+02  0.41800000000E+01 0.  1.
         -5    1    3    3    0  502 -0.30725897494E+01  0.77999292878E+02  0.28395610829E+03  0.29451973505E+03  0.41800000000E+01 0.  1.
        -11    1    1    2    0    0  0.36501901349E+01  0.15148404324E+02  0.37274063492E+02  0.40399923895E+02  0.00000000000E+00 0. -1.
         11    1    1    2    0    0 -0.76301052274E+01 -0.56500733902E+02 -0.22281030906E+02  0.61212709264E+02  0.00000000000E+00 0.  1.
</event>
<event>
 7    1  0.2989693E-009  0.1449473E+03  0.7561462E-02  0.1206823E+00
          2   -1    0    0  501    0  0.00000000000E+00  0.00000000000E+00  0.98718948474E+03  0.98718948474E+03  0.00000000000E+00 0.  1.
         -2   -1    0    0    0  501 -0.00000000000E+00 -0.00000000000E+00 -0.27469201925E+02  0.27469201925E+02  0.00000000000E+00 0. -1.
         25    2    1    2    0    0 -0.22919310802E+01 -0.98545519021E+02  0.70348920957E+03  0.72129051814E+03  0.12508585574E+03 0.  0.
          5    1    3    3  502    0 -0.39194889364E+02  0.96686566773E+01  0.11962252594E+03  0.12632000391E+03  0.41800000000E+01 0. -1.
         -5    1    3    3    0  502  0.36902958284E+02 -0.10821417570E+03  0.58386668363E+03  0.59497051423E+03  0.41800000000E+01 0. -1.
        -11    1    1    2    0    0  0.40847718595E+02  0.16141463965E+02  0.13387206047E+03  0.14089290808E+03  0.00000000000E+00 0.  1.
         11    1    1    2    0    0 -0.38555787515E+02  0.82404055057E+02  0.12235901277E+03  0.15247526044E+03  0.00000000000E+00 0. -1.
</event>
<event>
 7    1  0.2989693E-009  0.7693924E+02  0.7561462E-02  0.1337969E+00
         -2   -1    0    0    0  501 -0.00000000000E+00  0.00000000000E+00  0.79019725836E+03  0.79019725836E+03  0.00000000000E+00 0.  1.
          2   -1    0    0  501    0  0.00000000000E+00 -0.00000000000E+00 -0.16098356006E+02  0.16098356006E+02  0.00000000000E+00 0. -1.
         25    2    1    2    0    0 -0.28061011301E+02  0.79831705179E+01  0.46888316617E+03  0.48615774055E+03  0.12508706496E+03 0.  0.
          5    1    3    3  502    0 -0.17734883140E+02  0.29454685017E+02  0.45854597456E+03  0.45985213682E+03  0.41800000000E+01 0. -1.
         -5    1    3    3    0  502 -0.10326128161E+02 -0.21471514499E+02  0.10337191607E+02  0.26305603738E+02  0.41800000000E+01 0. -1.
        -11    1    1    2    0    0  0.25379025192E+02 -0.48345917945E+02  0.20282127518E+03  0.21004259655E+03  0.00000000000E+00 0. -1.
         11    1    1    2    0    0  0.26819861087E+01  0.40362747427E+02  0.10239446101E+03  0.11009527726E+03  0.00000000000E+00 0.  1.
</event>
<event>
 7    1  0.2989693E-009  0.1368323E+03  0.7561462E-02  0.1217656E+00
          2   -1    0    0  501    0  0.00000000000E+00  0.00000000000E+00  0.25322280328E+03  0.25322280328E+03  0.00000000000E+00 0. -1.
         -2   -1    0    0    0  501 -0.00000000000E+00 -0.00000000000E+00 -0.11612125092E+03  0.11612125092E+03  0.00000000000E+00 0.  1.
         25    2    1    2    0    0 -0.38883029586E+02  0.10403341189E+03  0.15081943246E+03  0.22522925859E+03  0.12508747713E+03 0.  0.
          5    1    3    3  502    0 -0.58197727216E+02  0.17799496800E+01  0.81010514577E+02  0.99851487450E+02  0.41800000000E+01 0.  1.
         -5    1    3    3    0  502  0.19314697630E+02  0.10225346221E+03  0.69808917883E+02  0.12537777114E+03  0.41800000000E+01 0.  1.
        -11    1    1    2    0    0  0.90749947153E+01 -0.19471398229E+02 -0.44420088108E+02  0.49342021702E+02  0.00000000000E+00 0.  1.
         11    1    1    2    0    0  0.29808034871E+02 -0.84562013665E+02  0.30702208007E+02  0.94772773909E+02  0.00000000000E+00 0. -1.
</event>
<event>
 7    1  0.2989693E-009  0.2277368E+03  0.7561462E-02  0.1128243E+00
          1   -1    0    0  501    0  0.00000000000E+00  0.00000000000E+00  0.82221567755E+03  0.82221567755E+03  0.00000000000E+00 0. -1.
         -1   -1    0    0    0  501 -0.00000000000E+00 -0.00000000000E+00 -0.66575908085E+02  0.66575908085E+02  0.00000000000E+00 0.  1.
         25    2    1    2    0    0 -0.11712503709E+03  0.16871639252E+03  0.34151708725E+03  0.41769133736E+03  0.12509451230E+03 0.  0.
          5    1    3    3  502    0  0.31320874329E+00  0.10732855848E+03  0.16620010757E+03  0.19788750774E+03  0.41800000000E+01 0.  1.
         -5    1    3    3    0  502 -0.11743824583E+03  0.61387834038E+02  0.17531697968E+03  0.21980382962E+03  0.41800000000E+01 0.  1.
        -11    1    1    2    0    0  0.11650308686E+03 -0.12174779029E+03  0.25875718724E+03  0.30878920907E+03  0.00000000000E+00 0.  1.
         11    1    1    2    0    0  0.62195022079E+00 -0.46968602225E+02  0.15536549498E+03  0.16231103920E+03  0.00000000000E+00 0. -1.
</event>
<event>
 7    1  0.2989693E-009  0.2212536E+03  0.7561462E-02  0.1132952E+00
         -2   -1    0    0    0  501 -0.00000000000E+00  0.00000000000E+00  0.15722291291E+03  0.15722291291E+03  0.00000000000E+00 0.  1.
          2   -1    0    0  501    0  0.00000000000E+00 -0.00000000000E+00 -0.33820504198E+03  0.33820504198E+03  0.00000000000E+00 0. -1.
         25    2    1    2    0    0  0.30024238073E+02 -0.20058961556E+03 -0.81146328661E+02  0.25173396495E+03  0.12509042214E+03 0.  0.
          5    1    3    3  502    0  0.19686947509E+02  0.13026699071E+02 -0.38032300671E+01  0.24273601914E+02  0.41800000000E+01 0.  1.
         -5    1    3    3    0  502  0.10337290564E+02 -0.21361631463E+03 -0.77343098594E+02  0.22746036303E+03  0.41800000000E+01 0.  1.
        -11    1    1    2    0    0 -0.34683840591E+02  0.15684305997E+03 -0.33488448081E+02  0.16408592388E+03  0.00000000000E+00 0. -1.
         11    1    1    2    0    0  0.46596025179E+01  0.43746555583E+02 -0.66347352327E+02  0.79608066060E+02  0.00000000000E+00 0.  1.
</event>
<event>
 7    1  0.2989693E-009  0.1241589E+03  0.7561462E-02  0.1236390E+00
         -2   -1    0    0    0  501 -0.00000000000E+00  0.00000000000E+00  0.19394980554E+03  0.19394980554E+03  0.00000000000E+00 0. -1.
          2   -1    0    0  501    0  0.00000000000E+00 -0.00000000000E+00 -0.94438148501E+02  0.94438148501E+02  0.00000000000E+00 0.  1.
         25    2    1    2    0    0  0.86108732842E+02 -0.19879741041E+01  0.55772170746E+02  0.16179072660E+03  0.12508812202E+03 0.  0.
          5    1    3    3  502    0 -0.79120991225E+01  0.32675830576E+02 -0.16972458188E+02  0.37892584410E+02  0.41800000000E+01 0. -1.
         -5    1    3    3    0  502  0.94020831964E+02 -0.34663804680E+02  0.72744628934E+02  0.12389814218E+03  0.41800000000E+01 0. -1.
        -11    1    1    2    0    0 -0.39343716517E+02 -0.36432106223E+02  0.38167852476E+02  0.65818016954E+02  0.00000000000E+00 0.  1.
         11    1    1    2    0    0 -0.46765016325E+02  0.38420080327E+02  0.55716338157E+01  0.60779210489E+02  0.00000000000E+00 0. -1.
</event>
<event>
 7    1  0.2989693E-009  0.1830506E+03  0.7561462E-02  0.1164883E+00
          2   -1    0    0  501    0  0.00000000000E+00  0.00000000000E+00  0.25725306545E+03  0.25725306545E+03  0.00000000000E+00 0.  1.
         -2   -1    0    0    0  501 -0.00000000000E+00 -0.00000000000E+00 -0.16901281441E+03  0.16901281441E+03  0.00000000000E+00 0. -1.
         25    2    1    2    0    0  0.13352991168E+02  0.15469317990E+03 -0.42361434821E+02  0.20383223242E+03  0.12507919703E+03 0.  0.
          5    1    3    3  502    0 -0.47187570965E+02  0.87139636134E+02 -0.52909015636E+02  0.11241360849E+03  0.41800000000E+01 0.  1.
         -5    1    3    3    0  502  0.60540562133E+02  0.67553543771E+02  0.10547580815E+02  0.91418623925E+02  0.41800000000E+01 0.  1.
        -11    1    1    2    0    0  0.32323370498E+02 -0.33303514217E+02  0.56286865420E+02  0.72952968126E+02  0.00000000000E+00 0.  1.
         11    1    1    2    0    0 -0.45676361666E+02 -0.12138966569E+03  0.74314820449E+02  0.14948067932E+03  0.00000000000E+00 0. -1.
</event>
<event>
 7    1  0.2989693E-009  0.1119636E+03  0.7561462E-02  0.1256976E+00
          1   -1    0    0  501    0  0.00000000000E+00  0.00000000000E+00  0.40816446501E+03  0.40816446501E+03  0.00000000000E+00 0. -1.
         -1   -1    0    0    0  501 -0.00000000000E+00 -0.00000000000E+00 -0.38131758310E+02  0.38131758310E+02  0.00000000000E+00 0.  1.
         25    2    1    2    0    0  0.44599333246E+02 -0.39978672708E+02  0.17683497862E+03  0.22473120152E+03  0.12508440541E+03 0.  0.
          5    1    3    3  502    0  0.26490774793E+01  0.40597732829E+02  0.90613313040E+02  0.99415483816E+02  0.41800000000E+01 0.  1.
         -5    1    3    3    0  502  0.41950255766E+02 -0.80576405537E+02  0.86221665576E+02  0.12531571770E+03  0.41800000000E+01 0.  1.
        -11    1    1    2    0    0 -0.25076454348E+02 -0.18029289687E+02  0.17469997070E+02  0.35483582780E+02  0.00000000000E+00 0.  1.
         11    1    1    2    0    0 -0.19522878897E+02  0.58007962395E+02  0.17572773102E+03  0.18608143903E+03  0.00000000000E+00 0. -1.
</event>
<event>
 7    1  0.2989693E-009  0.9632971E+02  0.7561462E-02  0.1288209E+00
         -2   -1    0    0    0  501 -0.00000000000E+00  0.00000000000E+00  0.98631128114E+02  0.98631128114E+02  0.00000000000E+00 0.  1.
          2   -1    0    0  501    0  0.00000000000E+00 -0.00000000000E+00 -0.20278065916E+03  0.20278065916E+03  0.00000000000E+00 0. -1.
         25    2    1    2    0    0 -0.38131523519E+02 -0.65193232749E+02 -0.10920929741E+03  0.18242442623E+03  0.12509128651E+03 0.  0.
          5    1    3    3  502    0 -0.16894105144E+02 -0.10739323992E+02 -0.12094584983E+03  0.12266260580E+03  0.41800000000E+01 0.  1.
         -5    1    3    3    0  502 -0.21237418374E+02 -0.54453908757E+02  0.11736552425E+02  0.59761820429E+02  0.41800000000E+01 0.  1.
        -11    1    1    2    0    0 -0.30934484753E+01 -0.19326965061E+02 -0.12637894207E+02  0.23298441405E+02  0.00000000000E+00 0. -1.
         11    1    1    2    0    0  0.41224971994E+02  0.84520197809E+02  0.17697660568E+02  0.95688919647E+02  0.00000000000E+00 0.  1.
</event>
<event>
 7    1  0.2989693E-009  0.1299206E+03  0.7561462E-02  0.1227574E+00
          2   -1    0    0  501    0  0.00000000000E+00  0.00000000000E+00  0.45058763728E+03  0.45058763728E+03  0.00000000000E+00 0. -1.
         -2   -1    0    0    0  501 -0.00000000000E+00 -0.00000000000E+00 -0.56559523237E+02  0.56559523237E+02  0.00000000000E+00 0.  1.
         25    2    1    2    0    0 -0.99495622562E+02  0.46245759914E+02  0.27901593476E+03  0.32486241852E+03  0.12509056676E+03 0.  0.
          5    1    3    3  502    0 -0.34804377309E+02  0.60225425222E+02  0.48254377139E+02  0.84760862644E+02  0.41800000000E+01 0. -1.
         -5    1    3    3    0  502 -0.64691245253E+02 -0.13979665308E+02  0.23076155762E+03  0.24010155587E+03  0.41800000000E+01 0. -1.
        -11    1    1    2    0    0  0.84499281326E+02 -0.59885948873E+02  0.12273323973E+03  0.16059235209E+03  0.00000000000E+00 0. -1.
         11    1    1    2    0    0  0.14996341236E+02  0.13640188958E+02 -0.77210604510E+01  0.21692389904E+02  0.00000000000E+00 0.  1.
</event>
<event>
 7    1  0.2989693E-009  0.1442844E+03  0.7561462E-02  0.1207677E+00
          2   -1    0    0  501    0  0.00000000000E+00  0.00000000000E+00  0.72501001625E+03  0.72501001625E+03  0.00000000000E+00 0. -1.
         -2   -1    0    0    0  501 -0.00000000000E+00 -0.00000000000E+00 -0.38197125213E+02  0.38197125213E+02  0.00000000000E+00 0.  1.
         25    2    1    2    0    0 -0.93662009742E+02  0.46222927421E+02  0.21160386526E+03  0.26708508046E+03  0.12509641612E+03 0.  0.
          5    1    3    3  502    0 -0.10866265039E+03  0.13021300500E+02  0.20101644244E+03  0.22891528649E+03  0.41800000000E+01 0.  1.
         -5    1    3    3    0  502  0.15000640648E+02  0.33201626922E+02  0.10587422812E+02  0.38169793973E+02  0.41800000000E+01 0.  1.
        -11    1    1    2    0    0 -0.18173899723E+02  0.57397554875E+01  0.56258313802E+02  0.59398933459E+02  0.00000000000E+00 0.  1.
         11    1    1    2    0    0  0.11183590947E+03 -0.51962682909E+02  0.41895071198E+03  0.43672312754E+03  0.00000000000E+00 0. -1.
</event>
<event>
 7    1  0.2989693E-009  0.8509430E+02  0.7561462E-02  0.1315186E+00
         -2   -1    0    0    0  501 -0.00000000000E+00  0.00000000000E+00  0.19882387232E+03  0.19882387232E+03  0.00000000000E+00 0. -1.
          2   -1    0    0  501    0  0.00000000000E+00 -0.00000000000E+00 -0.11354764344E+03  0.11354764344E+03  0.00000000000E+00 0.  1.
         25    2    1    2    0    0  0.26632482010E+02  0.31783748421E+02 -0.52589312332E+02  0.14189157718E+03  0.12509231848E+03 0.  0.
          5    1    3    3  502    0  0.39608416375E+01  0.66928507688E+02  0.85295498824E+01  0.67715131462E+02  0.41800000000E+01 0.  1.
         -5    1    3    3    0  502  0.22671640372E+02 -0.35144759266E+02 -0.61118862215E+02  0.74176445719E+02  0.41800000000E+01 0.  1.
        -11    1    1    2    0    0 -0.28475114070E+02 -0.41921405517E+02  0.14775127475E+03  0.15620075401E+03  0.00000000000E+00 0. -1.
         11    1    1    2    0    0  0.18426320598E+01  0.10137657096E+02 -0.98857335441E+01  0.14279184571E+02  0.00000000000E+00 0.  1.
</event>
<event>
 7    1  0.2989693E-009  0.1100308E+03  0.7561462E-02  0.1260513E+00
         -2   -1    0    0    0  501 -0.00000000000E+00  0.00000000000E+00  0.18156627668E+02  0.18156627668E+02  0.00000000000E+00 0.  1.
          2   -1    0    0  501    0  0.00000000000E+00 -0.00000000000E+00 -0.19278841372E+04  0.19278841372E+04  0.00000000000E+00 0. -1.
         25    2    1    2    0    0 -0.12054357204E+02  0.24821777785E+02 -0.17840649578E+04  0.17886583019E+04  0.12509723856E+03 0.  0.
          5    1    3    3  502    0 -0.67075511048E+02  0.21043035255E+01 -0.10657656352E+04  0.10678845509E+04  0.41800000000E+01 0.  1.
         -5    1    3    3    0  502  0.55021153844E+02  0.22717474260E+02 -0.71829932255E+03  0.72077375104E+03  0.41800000000E+01 0.  1.
        -11    1    1    2    0    0 -0.31449490805E+02  0.14387421990E+02 -0.33253072417E+02  0.47977444790E+02  0.00000000000E+00 0.  1.
         11    1    1    2    0    0  0.43503848009E+02 -0.39209199775E+02 -0.92409479361E+02  0.10940501823E+03  0.00000000000E+00 0. -1.
</event>
<event>
 6    1  0.3024486E-009  0.1467543E+03  0.7561462E-02  0.1204519E+00
          1   -1    0    0  501    0  0.00000000000E+00  0.00000000000E+00  0.16130731145E+04  0.16130731145E+04  0.00000000000E+00 0. -1.
         -1   -1    0    0    0  501 -0.00000000000E+00 -0.00000000000E+00 -0.21339951839E+02  0.21339951839E+02  0.00000000000E+00 0.  1.
          5    1    1    2  502    0 -0.34660944150E+01  0.33926761710E+02  0.43625876036E+02  0.55531328370E+02  0.41800000000E+01 0. -1.
         -5    1    1    2    0  502  0.10424876997E+02  0.11213651237E+03  0.94177635170E+03  0.94849535818E+03  0.41800000000E+01 0. -1.
        -11    1    1    2    0    0 -0.39122209745E+01 -0.21574975747E+02  0.16204978045E+02  0.27265112596E+02  0.00000000000E+00 0.  1.
         11    1    1    2    0    0 -0.30465616080E+01 -0.12448829833E+03  0.59012595689E+03  0.60312126721E+03  0.00000000000E+00 0. -1.
</event>
<event>
 7    1  0.2989693E-009  0.1413813E+03  0.7561462E-02  0.1211482E+00
          1   -1    0    0  501    0  0.00000000000E+00  0.00000000000E+00  0.83708702911E+03  0.83708702911E+03  0.00000000000E+00 0. -1.
         -1   -1    0    0    0  501 -0.00000000000E+00 -0.00000000000E+00 -0.25058095035E+02  0.25058095035E+02  0.00000000000E+00 0.  1.
         25    2    1    2    0    0  0.71715604600E+02  0.67694116830E+02  0.37305225731E+03  0.40563690539E+03  0.12509073079E+03 0.  0.
          5    1    3    3  502    0  0.29177261913E+02  0.99871799441E+02  0.21751956950E+03  0.24115954149E+03  0.41800000000E+01 0. -1.
         -5    1    3    3    0  502  0.42538342688E+02 -0.32177682611E+02  0.15553268781E+03  0.16447736389E+03  0.41800000000E+01 0. -1.
        -11    1    1    2    0    0 -0.26602969802E+02 -0.74865637650E+02  0.28987238245E+03  0.30056376996E+03  0.00000000000E+00 0.  1.
         11    1    1    2    0    0 -0.45112634798E+02  0.71715208200E+01  0.14910429432E+03  0.15594444880E+03  0.00000000000E+00 0. -1.
</event>
<event>
 7    1  0.2989693E-009  0.1917777E+03  0.7561462E-02  0.1156868E+00
          2   -1    0    0  501    0  0.00000000000E+00  0.00000000000E+00  0.86723096585E+03  0.86723096585E+03  0.00000000000E+00 0.  1.
         -2   -1    0    0    0  501 -0.00000000000E+00 -0.00000000000E+00 -0.44211909754E+02  0.44211909754E+02  0.00000000000E+00 0. -1.
         25    2    1    2    0    0 -0.14062254733E+03 -0.81118100579E+02  0.41416956623E+03  0.46210150183E+03  0.12508605576E+03 0.  0.
          5    1    3    3  502    0 -0.53790352391E+02 -0.10212923720E+03  0.23237425381E+03  0.25949768657E+03  0.41800000000E+01 0.  1.
         -5    1    3    3    0  502 -0.86832194936E+02  0.21011136625E+02  0.18179531242E+03  0.20260381526E+03  0.41800000000E+01 0.  1.
        -11    1    1    2    0    0  0.62347548872E+02  0.78565868159E+02  0.29137453084E+03  0.30815406814E+03  0.00000000000E+00 0. -1.
         11    1    1    2    0    0  0.78274998455E+02  0.25522324206E+01  0.11747495902E+03  0.14118730563E+03  0.00000000000E+00 0.  1.
</event>
