<event>
 8    1  0.7075056E-009  0.1023806E+03  0.7561462E-02  0.1275368E+00
         -1   -1    0    0    0  501 -0.00000000000E+00  0.00000000000E+00  0.62705913654E+03  0.62705913654E+03  0.00000000000E+00 0.  1.
          1   -1    0    0  501    0  0.00000000000E+00 -0.00000000000E+00 -0.24678127671E+02  0.24678127671E+02  0.00000000000E+00 0. -1.
         25    2    1    2    0    0  0.77408467920E+01  0.14916428163E+02  0.50051142126E+03  0.51617926900E+03  0.12508770682E+03 0.  0.
         23    2    1    2    0    0 -0.77408467920E+01 -0.14916428163E+02  0.10186958761E+03  0.13555799521E+03  0.87841542835E+02 0.  0.
          5    1    3    3  502    0 -0.49027358016E+02  0.35474722094E+02  0.17837715418E+03  0.18840918044E+03  0.41800000000E+01 0.  1.
         -5    1    3    3    0  502  0.56768204808E+02 -0.20558293931E+02  0.32213426708E+03  0.32777008856E+03  0.41800000000E+01 0.  1.
        -11    1    4    4    0    0 -0.86811564120E+00 -0.48900740896E+02  0.34700640822E+02  0.59968079496E+02  0.00000000000E+00 0. -1.
         11    1    4    4    0    0 -0.68727311508E+01  0.33984312733E+02  0.67168946785E+02  0.75589915714E+02  0.00000000000E+00 0.  1.
</event>
<event>
 8    1  0.7075056E-009  0.1064749E+03  0.7561462E-02  0.1267241E+00
         -2   -1    0    0    0  501 -0.00000000000E+00  0.00000000000E+00  0.10781938545E+03  0.10781938545E+03  0.00000000000E+00 0.  1.
          2   -1    0    0  501    0  0.00000000000E+00 -0.00000000000E+00 -0.11529718588E+03  0.11529718588E+03  0.00000000000E+00 0. -1.
         25    2    1    2    0    0  0.23560677765E+02 -0.72808961718E+01  0.53749342676E+01  0.12760656064E+03  0.12508568029E+03 0.  0.
         23    2    1    2    0    0 -0.23560677765E+02  0.72808961718E+01 -0.12852734692E+02  0.95510010687E+02  0.91372054626E+02 0.  0.
          5    1    3    3  502    0  0.50715687332E+02 -0.48668180331E+02 -0.18039779479E+02  0.72688229872E+02  0.41800000000E+01 0.  1.
         -5    1    3    3    0  502 -0.27155009567E+02  0.41387284159E+02  0.23414713747E+02  0.54918330770E+02  0.41800000000E+01 0.  1.
        -11    1    4    4    0    0  0.34480483526E+02  0.42123673222E+01 -0.13806317339E+02  0.37379970319E+02  0.00000000000E+00 0. -1.
         11    1    4    4    0    0 -0.58041161291E+02  0.30685288496E+01  0.95358264641E+00  0.58130040368E+02  0.00000000000E+00 0.  1.
</event>
<event>
 8    1  0.7075056E-009  0.1718928E+03  0.7561462E-02  0.1175888E+00
          4   -1    0    0  501    0  0.00000000000E+00  0.00000000000E+00  0.37636254663E+02  0.37636254663E+02  0.00000000000E+00 0. -1.
         -4   -1    0    0    0  501 -0.00000000000E+00 -0.00000000000E+00 -0.12035447683E+04  0.12035447683E+04  0.00000000000E+00 0.  1.
         25    2    1    2    0    0  0.14213324440E+03 -0.66977859466E+02 -0.88657558543E+03  0.90903878069E+03  0.12508934124E+03 0.  0.
         23    2    1    2    0    0 -0.14213324440E+03  0.66977859466E+02 -0.27933292820E+03  0.33214224227E+03  0.87199148513E+02 0.  0.
          5    1    3    3  502    0  0.57238194179E+02  0.34361759228E+01 -0.10501845228E+03  0.11972621224E+03  0.41800000000E+01 0. -1.
         -5    1    3    3    0  502  0.84895050217E+02 -0.70414035389E+02 -0.78155713316E+03  0.78931256845E+03  0.41800000000E+01 0. -1.
        -11    1    4    4    0    0 -0.74270697762E+02 -0.81031985214E+01 -0.85986467094E+02  0.11390992448E+03  0.00000000000E+00 0.  1.
         11    1    4    4    0    0 -0.67862546634E+02  0.75081057987E+02 -0.19334646111E+03  0.21823231779E+03  0.00000000000E+00 0. -1.
</event>
<event>
 8    1  0.7075056E-009  0.1101520E+03  0.7561462E-02  0.1260289E+00
          2   -1    0    0  501    0  0.00000000000E+00  0.00000000000E+00  0.70578798103E+03  0.70578798103E+03  0.00000000000E+00 0. -1.
         -2   -1    0    0    0  501 -0.00000000000E+00 -0.00000000000E+00 -0.31914340604E+02  0.31914340604E+02  0.00000000000E+00 0.  1.
         25    2    1    2    0    0  0.26758686590E+02  0.37891453881E+02  0.59412519213E+03  0.60892008137E+03  0.12508849659E+03 0.  0.
         23    2    1    2    0    0 -0.26758686590E+02 -0.37891453881E+02  0.79748448289E+02  0.12878224026E+03  0.89851326188E+02 0.  0.
          5    1    3    3  502    0  0.49560949003E+02  0.74336726562E+02  0.36864130204E+03  0.37933641870E+03  0.41800000000E+01 0. -1.
         -5    1    3    3    0  502 -0.22802262413E+02 -0.36445272682E+02  0.22548389009E+03  0.22958366267E+03  0.41800000000E+01 0. -1.
        -11    1    4    4    0    0 -0.26606526605E+02 -0.59961155875E+02  0.83718225213E+02  0.10635783330E+03  0.00000000000E+00 0. -1.
         11    1    4    4    0    0 -0.15215998489E+00  0.22069701994E+02 -0.39697769243E+01  0.22424406962E+02  0.00000000000E+00 0.  1.
</event>
<event>
 8    1  0.7075056E-009  0.7909140E+02  0.7561462E-02  0.1331650E+00
          1   -1    0    0  501    0  0.00000000000E+00  0.00000000000E+00  0.29144151613E+03  0.29144151613E+03  0.00000000000E+00 0. -1.
         -1   -1    0    0    0  501 -0.00000000000E+00 -0.00000000000E+00 -0.42651659694E+02  0.42651659694E+02  0.00000000000E+00 0.  1.
         25    2    1    2    0    0 -0.18655853411E+02 -0.15382538265E+02  0.15762763480E+03  0.20267538852E+03  0.12508468535E+03 0.  0.
         23    2    1    2    0    0  0.18655853411E+02  0.15382538265E+02  0.91162221637E+02  0.13141778731E+03  0.91517325229E+02 0.  0.
          5    1    3    3  502    0 -0.37230003060E+02 -0.47648182142E+02  0.26236142812E+02  0.66047179947E+02  0.41800000000E+01 0.  1.
         -5    1    3    3    0  502  0.18574149650E+02  0.32265643878E+02  0.13139149199E+03  0.13662820857E+03  0.41800000000E+01 0.  1.
        -11    1    4    4    0    0  0.33828696627E+02  0.25068997098E+02  0.38629261481E+01  0.42281881810E+02  0.00000000000E+00 0.  1.
         11    1    4    4    0    0 -0.15172843216E+02 -0.96864588334E+01  0.87299295489E+02  0.89135905497E+02  0.00000000000E+00 0. -1.
</event>
<event>
 8    1  0.7075056E-009  0.1542783E+03  0.7561462E-02  0.1195312E+00
         -2   -1    0    0    0  501 -0.00000000000E+00  0.00000000000E+00  0.53153258050E+02  0.53153258050E+02  0.00000000000E+00 0.  1.
          2   -1    0    0  501    0  0.00000000000E+00 -0.00000000000E+00 -0.54094219613E+03  0.54094219613E+03  0.00000000000E+00 0. -1.
         25    2    1    2    0    0 -0.10953996437E+03 -0.70431507408E+02 -0.26142159554E+03  0.31772094485E+03  0.12508296109E+03 0.  0.
         23    2    1    2    0    0  0.10953996437E+03  0.70431507408E+02 -0.22636734254E+03  0.27637450933E+03  0.90449403580E+02 0.  0.
          5    1    3    3  502    0  0.10857441240E+02 -0.54046062367E+02 -0.11349092688E+03  0.12623994523E+03  0.41800000000E+01 0. -1.
         -5    1    3    3    0  502 -0.12039740561E+03 -0.16385445041E+02 -0.14793066866E+03  0.19148099962E+03  0.41800000000E+01 0. -1.
        -11    1    4    4    0    0  0.61214329645E+02  0.27720297966E+02 -0.19173403272E+03  0.20316876821E+03  0.00000000000E+00 0. -1.
         11    1    4    4    0    0  0.48325634723E+02  0.42711209442E+02 -0.34633309819E+02  0.73205741116E+02  0.00000000000E+00 0.  1.
</event>
<event>
 8    1  0.7075056E-009  0.9979625E+02  0.7561462E-02  0.1280725E+00
         -2   -1    0    0    0  501 -0.00000000000E+00  0.00000000000E+00  0.23526748004E+02  0.23526748004E+02  0.00000000000E+00 0.  1.
          2   -1    0    0  501    0  0.00000000000E+00 -0.00000000000E+00 -0.54499818080E+03  0.54499818080E+03  0.00000000000E+00 0. -1.
         25    2    1    2    0    0  0.27833349734E+02 -0.27539091522E+02 -0.31400235997E+03  0.34026559412E+03  0.12510034196E+03 0.  0.
         23    2    1    2    0    0 -0.27833349734E+02  0.27539091522E+02 -0.20746907282E+03  0.22825933468E+03  0.86751430945E+02 0.  0.
          5    1    3    3  502    0 -0.48976095556E+02 -0.99802924643E+01 -0.15217589909E+03  0.16022871415E+03  0.41800000000E+01 0. -1.
         -5    1    3    3    0  502  0.76809445290E+02 -0.17558799058E+02 -0.16182646088E+03  0.18003687998E+03  0.41800000000E+01 0. -1.
        -11    1    4    4    0    0 -0.30640874891E+02 -0.10500849430E+02 -0.22597993315E+02  0.39494307877E+02  0.00000000000E+00 0.  1.
         11    1    4    4    0    0  0.28075251576E+01  0.38039940952E+02 -0.18487107951E+03  0.18876502680E+03  0.00000000000E+00 0. -1.
</event>
<event>
 8    1  0.7075056E-009  0.2077983E+03  0.7561462E-02  0.1143321E+00
          1   -1    0    0  501    0  0.00000000000E+00  0.00000000000E+00  0.94028444883E+02  0.94028444883E+02  0.00000000000E+00 0. -1.
         -1   -1    0    0    0  501 -0.00000000000E+00 -0.00000000000E+00 -0.64300501781E+03  0.64300501781E+03  0.00000000000E+00 0.  1.
         25    2    1    2    0    0 -0.39861296615E+02  0.18523858594E+03 -0.11417734962E+03  0.25413505747E+03  0.12508358637E+03 0.  0.
         23    2    1    2    0    0  0.39861296615E+02 -0.18523858594E+03 -0.43479922330E+03  0.48289840522E+03  0.90764797666E+02 0.  0.
          5    1    3    3  502    0 -0.75274601628E+02  0.66002663094E+02 -0.32778456917E+02  0.10542540881E+03  0.41800000000E+01 0.  1.
         -5    1    3    3    0  502  0.35413305013E+02  0.11923592284E+03 -0.81398892705E+02  0.14870964865E+03  0.41800000000E+01 0.  1.
        -11    1    4    4    0    0  0.12758767035E+02 -0.11417984370E+03 -0.15493693123E+03  0.19288669084E+03  0.00000000000E+00 0.  1.
         11    1    4    4    0    0  0.27102529580E+02 -0.71058742243E+02 -0.27986229207E+03  0.29001171438E+03  0.00000000000E+00 0. -1.
</event>
<event>
 8    1  0.7075056E-009  0.7015682E+02  0.7561462E-02  0.1359561E+00
         -2   -1    0    0    0  501 -0.00000000000E+00  0.00000000000E+00  0.98723839048E+02  0.98723839048E+02  0.00000000000E+00 0.  1.
          2   -1    0    0  501    0  0.00000000000E+00 -0.00000000000E+00 -0.15173456924E+03  0.15173456924E+03  0.00000000000E+00 0. -1.
         25    2    1    2    0    0  0.38536234811E+02  0.36392195884E+02 -0.49378146776E+02  0.14455592323E+03  0.12509508483E+03 0.  0.
         23    2    1    2    0    0 -0.38536234811E+02 -0.36392195884E+02 -0.36325834149E+01  0.10590248505E+03  0.91611720668E+02 0.  0.
          5    1    3    3  502    0 -0.93381780438E+01 -0.14155700228E+02 -0.69743579989E+02  0.71897321006E+02  0.41800000000E+01 0. -1.
         -5    1    3    3    0  502  0.47874412855E+02  0.50547896112E+02  0.20365433213E+02  0.72658602226E+02  0.41800000000E+01 0. -1.
        -11    1    4    4    0    0 -0.12949117910E+02 -0.14357447963E+02  0.43684656384E+02  0.47772012414E+02  0.00000000000E+00 0.  1.
         11    1    4    4    0    0 -0.25587116901E+02 -0.22034747921E+02 -0.47317239799E+02  0.58130472641E+02  0.00000000000E+00 0. -1.
</event>
<event>
 8    1  0.7075056E-009  0.9322996E+02  0.7561462E-02  0.1295213E+00
         -2   -1    0    0    0  501 -0.00000000000E+00  0.00000000000E+00  0.45101740818E+02  0.45101740818E+02  0.00000000000E+00 0.  1.
          2   -1    0    0  501    0  0.00000000000E+00 -0.00000000000E+00 -0.38538077322E+03  0.38538077322E+03  0.00000000000E+00 0. -1.
         25    2    1    2    0    0  0.74693191752E+02 -0.32906485594E+01 -0.19196429459E+03  0.24101188814E+03  0.12508612459E+03 0.  0.
         23    2    1    2    0    0 -0.74693191752E+02  0.32906485594E+01 -0.14831473781E+03  0.18947062590E+03  0.91169925766E+02 0.  0.
          5    1    3    3  502    0  0.31889410176E+02 -0.35895164602E+02 -0.74523121056E+01  0.48768910987E+02  0.41800000000E+01 0. -1.
         -5    1    3    3    0  502  0.42803781577E+02  0.32604516042E+02 -0.18451198249E+03  0.19224297715E+03  0.41800000000E+01 0. -1.
        -11    1    4    4    0    0 -0.57806582204E+02  0.19381343325E+02 -0.28312115446E+02  0.67222119099E+02  0.00000000000E+00 0.  1.
         11    1    4    4    0    0 -0.16886609549E+02 -0.16090694765E+02 -0.12000262237E+03  0.12224850680E+03  0.00000000000E+00 0. -1.
</event>
<event>
 8    1  0.7075056E-009  0.9898536E+02  0.7561462E-02  0.1282444E+00
          2   -1    0    0  501    0  0.00000000000E+00  0.00000000000E+00  0.14996395419E+03  0.14996395419E+03  0.00000000000E+00 0. -1.
         -2   -1    0    0    0  501 -0.00000000000E+00 -0.00000000000E+00 -0.16699107807E+03  0.16699107807E+03  0.00000000000E+00 0.  1.
         25    2    1    2    0    0 -0.88010057243E+01  0.25227253204E+02 -0.12053539402E+03  0.17575534081E+03  0.12508911466E+03 0.  0.
         23    2    1    2    0    0  0.88010057243E+01 -0.25227253204E+02  0.10350827014E+03  0.14119969146E+03  0.92247053478E+02 0.  0.
          5    1    3    3  502    0  0.47091957716E+02  0.60649513489E+01 -0.76524097292E+01  0.48274919897E+02  0.41800000000E+01 0.  1.
         -5    1    3    3    0  502 -0.55892963440E+02  0.19162301855E+02 -0.11288298429E+03  0.12748042091E+03  0.41800000000E+01 0.  1.
        -11    1    4    4    0    0 -0.23598406757E+02 -0.46616359951E+02  0.36425781103E+02  0.63693071409E+02  0.00000000000E+00 0.  1.
         11    1    4    4    0    0  0.32399412481E+02  0.21389106748E+02  0.67082489033E+02  0.77506620049E+02  0.00000000000E+00 0. -1.
</event>
<event>
 8    1  0.7075056E-009  0.1043674E+03  0.7561462E-02  0.1271371E+00
         -2   -1    0    0    0  501 -0.00000000000E+00  0.00000000000E+00  0.95366062370E+02  0.95366062370E+02  0.00000000000E+00 0.  1.
          2   -1    0    0  501    0  0.00000000000E+00 -0.00000000000E+00 -0.17578380960E+03  0.17578380960E+03  0.00000000000E+00 0. -1.
         25    2    1    2    0    0  0.35827198311E+02 -0.60913058613E+02 -0.36415881531E+02  0.14821380094E+03  0.12508887045E+03 0.  0.
         23    2    1    2    0    0 -0.35827198311E+02  0.60913058613E+02 -0.44001865699E+02  0.12293607103E+03  0.90460624185E+02 0.  0.
          5    1    3    3  502    0 -0.36868212173E+02 -0.52495037679E+02  0.41844974598E+01  0.64420310996E+02  0.41800000000E+01 0. -1.
         -5    1    3    3    0  502  0.72695410485E+02 -0.84180209336E+01 -0.40600378990E+02  0.83793489939E+02  0.41800000000E+01 0. -1.
        -11    1    4    4    0    0 -0.14427909565E+02  0.16975859699E+02 -0.65766380563E+02  0.69437462507E+02  0.00000000000E+00 0. -1.
         11    1    4    4    0    0 -0.21399288746E+02  0.43937198914E+02  0.21764514864E+02  0.53498608528E+02  0.00000000000E+00 0.  1.
</event>
<event>
 8    1  0.7075056E-009  0.1152762E+03  0.7561462E-02  0.1251100E+00
         -2   -1    0    0    0  501 -0.00000000000E+00  0.00000000000E+00  0.92048359636E+02  0.92048359636E+02  0.00000000000E+00 0.  1.
          2   -1    0    0  501    0  0.00000000000E+00 -0.00000000000E+00 -0.24526485257E+03  0.24526485257E+03  0.00000000000E+00 0. -1.
         25    2    1    2    0    0 -0.66983172211E+02 -0.41580871653E+02 -0.73003001255E+01  0.14804479854E+03  0.12509298040E+03 0.  0.
         23    2    1    2    0    0  0.66983172211E+02  0.41580871653E+02 -0.14591619281E+03  0.18926841367E+03  0.91188172702E+02 0.  0.
          5    1    3    3  502    0 -0.85385897601E+02 -0.33042308813E+02 -0.47198122806E+02  0.10309064399E+03  0.41800000000E+01 0.  1.
         -5    1    3    3    0  502  0.18402725390E+02 -0.85385628403E+01  0.39897822681E+02  0.44954154556E+02  0.41800000000E+01 0.  1.
        -11    1    4    4    0    0  0.47189974820E+02 -0.21658605445E+02 -0.82937943056E+02  0.97850351618E+02  0.00000000000E+00 0. -1.
         11    1    4    4    0    0  0.19793197391E+02  0.63239477098E+02 -0.62978249755E+02  0.91418062049E+02  0.00000000000E+00 0.  1.
</event>
<event>
 8    1  0.7075056E-009  0.1166404E+03  0.7561462E-02  0.1248745E+00
         -2   -1    0    0    0  501 -0.00000000000E+00  0.00000000000E+00  0.29144327021E+02  0.29144327021E+02  0.00000000000E+00 0. -1.
          2   -1    0    0  501    0  0.00000000000E+00 -0.00000000000E+00 -0.83662475361E+03  0.83662475361E+03  0.00000000000E+00 0.  1.
         25    2    1    2    0    0  0.70522779955E+02 -0.64029416678E+02 -0.59629836336E+03  0.61667812256E+03  0.12508772924E+03 0.  0.
         23    2    1    2    0    0 -0.70522779955E+02  0.64029416678E+02 -0.21118206323E+03  0.24909095807E+03  0.91516189115E+02 0.  0.
          5    1    3    3  502    0 -0.31847737473E+00 -0.13992758852E+02 -0.41904341776E+03  0.41929793357E+03  0.41800000000E+01 0. -1.
         -5    1    3    3    0  502  0.70841257330E+02 -0.50036657825E+02 -0.17725494560E+03  0.19738018899E+03  0.41800000000E+01 0. -1.
        -11    1    4    4    0    0  0.19002229131E+02 -0.39802752200E+01 -0.36817477301E+02  0.41622757448E+02  0.00000000000E+00 0.  1.
         11    1    4    4    0    0 -0.89525009085E+02  0.68009691898E+02 -0.17436458593E+03  0.20746820062E+03  0.00000000000E+00 0. -1.
</event>
<event>
 8    1  0.7075056E-009  0.1684290E+03  0.7561462E-02  0.1179496E+00
         -1   -1    0    0    0  501 -0.00000000000E+00  0.00000000000E+00  0.34857731629E+02  0.34857731629E+02  0.00000000000E+00 0.  1.
          1   -1    0    0  501    0  0.00000000000E+00 -0.00000000000E+00 -0.89537043916E+03  0.89537043916E+03  0.00000000000E+00 0. -1.
         25    2    1    2    0    0 -0.13178338484E+03 -0.27875396423E+02 -0.35309248834E+03  0.39807679863E+03  0.12508770539E+03 0.  0.
         23    2    1    2    0    0  0.13178338484E+03  0.27875396423E+02 -0.50742021919E+03  0.53215137216E+03  0.86982215438E+02 0.  0.
          5    1    3    3  502    0 -0.20774263842E+02 -0.57738984162E+02 -0.18025391357E+03  0.19045814786E+03  0.41800000000E+01 0.  1.
         -5    1    3    3    0  502 -0.11100912100E+03  0.29863587738E+02 -0.17283857477E+03  0.20761865076E+03  0.41800000000E+01 0.  1.
        -11    1    4    4    0    0  0.82175355205E+02 -0.26856907221E+02 -0.26929419608E+03  0.28283112719E+03  0.00000000000E+00 0.  1.
         11    1    4    4    0    0  0.49608029635E+02  0.54732303644E+02 -0.23812602311E+03  0.24932024497E+03  0.00000000000E+00 0. -1.
</event>
<event>
 8    1  0.7075056E-009  0.8125300E+02  0.7561462E-02  0.1325533E+00
         -1   -1    0    0    0  501 -0.00000000000E+00  0.00000000000E+00  0.18179023455E+02  0.18179023455E+02  0.00000000000E+00 0.  1.
          1   -1    0    0  501    0  0.00000000000E+00 -0.00000000000E+00 -0.72273162642E+03  0.72273162642E+03  0.00000000000E+00 0. -1.
         25    2    1    2    0    0 -0.30768779675E+02  0.42304983899E+00 -0.46773159994E+03  0.48514568415E+03  0.12508632414E+03 0.  0.
         23    2    1    2    0    0  0.30768779675E+02 -0.42304983899E+00 -0.23682100302E+03  0.25576496573E+03  0.91567644111E+02 0.  0.
          5    1    3    3  502    0 -0.38917802498E+01 -0.27136808978E+02 -0.16527028371E+02  0.32282617951E+02  0.41800000000E+01 0. -1.
         -5    1    3    3    0  502 -0.26876999425E+02  0.27559858817E+02 -0.45120457157E+03  0.45286306620E+03  0.41800000000E+01 0. -1.
        -11    1    4    4    0    0 -0.18423026039E+02 -0.32477429971E+02 -0.79103363694E+02  0.87473044383E+02  0.00000000000E+00 0. -1.
         11    1    4    4    0    0  0.49191805714E+02  0.32054380132E+02 -0.15771763933E+03  0.16829192135E+03  0.00000000000E+00 0.  1.
</event>
<event>
 8    1  0.7075056E-009  0.1021802E+03  0.7561462E-02  0.1275777E+00
          3   -1    0    0  501    0  0.00000000000E+00  0.00000000000E+00  0.70284689047E+02  0.70284689047E+02  0.00000000000E+00 0. -1.
         -3   -1    0    0    0  501 -0.00000000000E+00 -0.00000000000E+00 -0.29095064253E+03  0.29095064253E+03  0.00000000000E+00 0.  1.
         25    2    1    2    0    0  0.75330013761E+02  0.13917662793E+02 -0.57603596113E+02  0.15758767616E+03  0.12508952427E+03 0.  0.
         23    2    1    2    0    0 -0.75330013761E+02 -0.13917662793E+02 -0.16306235737E+03  0.20364765542E+03  0.94945894357E+02 0.  0.
          5    1    3    3  502    0 -0.21805495204E+02 -0.11843779414E+02 -0.50904159117E+02  0.56784333643E+02  0.41800000000E+01 0.  1.
         -5    1    3    3    0  502  0.97135508964E+02  0.25761442207E+02 -0.66994369962E+01  0.10080334252E+03  0.41800000000E+01 0.  1.
        -11    1    4    4    0    0 -0.47922982543E+02 -0.17409595089E+02 -0.15169268318E+02  0.53195986299E+02  0.00000000000E+00 0. -1.
         11    1    4    4    0    0 -0.27407031218E+02  0.34919322958E+01 -0.14789308906E+03  0.15045166912E+03  0.00000000000E+00 0.  1.
</event>
<event>
 8    1  0.7075056E-009  0.8122925E+02  0.7561462E-02  0.1325599E+00
          2   -1    0    0  501    0  0.00000000000E+00  0.00000000000E+00  0.58504878922E+03  0.58504878922E+03  0.00000000000E+00 0. -1.
         -2   -1    0    0    0  501 -0.00000000000E+00 -0.00000000000E+00 -0.21156784411E+02  0.21156784411E+02  0.00000000000E+00 0.  1.
         25    2    1    2    0    0 -0.23252793238E+02  0.12921010146E+02  0.36502373074E+03  0.38677741954E+03  0.12508718307E+03 0.  0.
         23    2    1    2    0    0  0.23252793238E+02 -0.12921010146E+02  0.19886827407E+03  0.21942815409E+03  0.88839627861E+02 0.  0.
          5    1    3    3  502    0 -0.30554063933E+02  0.36149104291E+02  0.43858294092E+02  0.64663211523E+02  0.41800000000E+01 0. -1.
         -5    1    3    3    0  502  0.73012706946E+01 -0.23228094145E+02  0.32116543665E+03  0.32211420802E+03  0.41800000000E+01 0. -1.
        -11    1    4    4    0    0 -0.20487081358E+02  0.25018284517E+02  0.48442589628E+02  0.58243622420E+02  0.00000000000E+00 0.  1.
         11    1    4    4    0    0  0.43739874597E+02 -0.37939294663E+02  0.15042568445E+03  0.16118453167E+03  0.00000000000E+00 0. -1.
</event>
<event>
 8    1  0.7075056E-009  0.1420564E+03  0.7561462E-02  0.1210588E+00
         -3   -1    0    0    0  501 -0.00000000000E+00  0.00000000000E+00  0.72272625254E+03  0.72272625254E+03  0.00000000000E+00 0.  1.
          3   -1    0    0  501    0  0.00000000000E+00 -0.00000000000E+00 -0.38913833382E+02  0.38913833382E+02  0.00000000000E+00 0. -1.
         25    2    1    2    0    0 -0.11623747472E+03  0.57218413210E+01  0.25627270618E+03  0.30800345881E+03  0.12508613315E+03 0.  0.
         23    2    1    2    0    0  0.11623747472E+03 -0.57218413210E+01  0.42753971298E+03  0.45363662712E+03  0.97221876615E+02 0.  0.
          5    1    3    3  502    0 -0.73753926790E+02  0.34387446199E+02  0.50410735048E+02  0.95816766701E+02  0.41800000000E+01 0.  1.
         -5    1    3    3    0  502 -0.42483547929E+02 -0.28665604878E+02  0.20586197113E+03  0.21218669211E+03  0.41800000000E+01 0.  1.
        -11    1    4    4    0    0  0.60778529524E+02 -0.51213701857E+02  0.20750786356E+03  0.22220797994E+03  0.00000000000E+00 0. -1.
         11    1    4    4    0    0  0.55458945195E+02  0.45491860536E+02  0.22003184942E+03  0.23142864718E+03  0.00000000000E+00 0.  1.
</event>
<event>
 8    1  0.7075056E-009  0.1266293E+03  0.7561462E-02  0.1232545E+00
          1   -1    0    0  501    0  0.00000000000E+00  0.00000000000E+00  0.40913031594E+02  0.40913031594E+02  0.00000000000E+00 0. -1.
         -1   -1    0    0    0  501 -0.00000000000E+00 -0.00000000000E+00 -0.46634797591E+03  0.46634797591E+03  0.00000000000E+00 0.  1.
         25    2    1    2    0    0  0.75801554337E+02 -0.28728086096E+02 -0.27585836516E+03  0.31355543081E+03  0.12509193415E+03 0.  0.
         23    2    1    2    0    0 -0.75801554337E+02  0.28728086096E+02 -0.14957657915E+03  0.19370557669E+03  0.92614895346E+02 0.  0.
          5    1    3    3  502    0  0.34348890980E+02  0.48925415701E+02 -0.94106938196E+02  0.11156671022E+03  0.41800000000E+01 0.  1.
         -5    1    3    3    0  502  0.41452663357E+02 -0.77653501797E+02 -0.18175142696E+03  0.20198872059E+03  0.41800000000E+01 0.  1.
        -11    1    4    4    0    0  0.19106925217E+01 -0.15617967082E+02  0.37558129505E+01  0.16176457356E+02  0.00000000000E+00 0. -1.
         11    1    4    4    0    0 -0.77712246858E+02  0.44346053177E+02 -0.15333239210E+03  0.17752911934E+03  0.00000000000E+00 0.  1.
</event>
<event>
 8    1  0.7075056E-009  0.5969957E+02  0.7561462E-02  0.1399097E+00
          2   -1    0    0  501    0  0.00000000000E+00  0.00000000000E+00  0.43047626510E+03  0.43047626510E+03  0.00000000000E+00 0. -1.
         -2   -1    0    0    0  501 -0.00000000000E+00 -0.00000000000E+00 -0.32985067882E+02  0.32985067882E+02  0.00000000000E+00 0.  1.
         25    2    1    2    0    0  0.54637154714E+01 -0.46002968974E+02  0.28656641938E+03  0.31609037518E+03  0.12508671879E+03 0.  0.
         23    2    1    2    0    0 -0.54637154714E+01  0.46002968974E+02  0.11092477783E+03  0.14737095780E+03  0.85251202492E+02 0.  0.
          5    1    3    3  502    0  0.15093532283E+02 -0.13868729403E+02  0.28106220926E+03  0.28183966053E+03  0.41800000000E+01 0. -1.
         -5    1    3    3    0  502 -0.96298168116E+01 -0.32134239571E+02  0.55042101222E+01  0.34250714645E+02  0.41800000000E+01 0. -1.
        -11    1    4    4    0    0  0.14981495516E+02  0.73078977317E+00 -0.90506837826E+01  0.17518394290E+02  0.00000000000E+00 0.  1.
         11    1    4    4    0    0 -0.20445210987E+02  0.45272179201E+02  0.11997546161E+03  0.12985256351E+03  0.00000000000E+00 0. -1.
</event>
<event>
 8    1  0.7075056E-009  0.1374189E+03  0.7561462E-02  0.1216845E+00
         -2   -1    0    0    0  501 -0.00000000000E+00  0.00000000000E+00  0.55183235654E+02  0.55183235654E+02  0.00000000000E+00 0. -1.
          2   -1    0    0  501    0  0.00000000000E+00 -0.00000000000E+00 -0.44097286112E+03  0.44097286112E+03  0.00000000000E+00 0.  1.
         25    2    1    2    0    0 -0.47207979881E+02  0.98610054154E+02 -0.23857723599E+03  0.29072027374E+03  0.12508654559E+03 0.  0.
         23    2    1    2    0    0  0.47207979881E+02 -0.98610054154E+02 -0.14721238947E+03  0.20543582303E+03  0.92627499284E+02 0.  0.
          5    1    3    3  502    0 -0.52894628904E+02  0.12205553728E+03 -0.15841118426E+03  0.20689845733E+03  0.41800000000E+01 0. -1.
         -5    1    3    3    0  502  0.56866490233E+01 -0.23445483130E+02 -0.80166051730E+02  0.83821816411E+02  0.41800000000E+01 0. -1.
        -11    1    4    4    0    0 -0.73764512353E+01 -0.21947483049E+02  0.75089539178E+01  0.24341085308E+02  0.00000000000E+00 0. -1.
         11    1    4    4    0    0  0.54584431116E+02 -0.76662571105E+02 -0.15472134339E+03  0.18109473772E+03  0.00000000000E+00 0.  1.
</event>
<event>
 8    1  0.7075056E-009  0.1104178E+03  0.7561462E-02  0.1259798E+00
         -1   -1    0    0    0  501 -0.00000000000E+00  0.00000000000E+00  0.29705292128E+02  0.29705292128E+02  0.00000000000E+00 0.  1.
          1   -1    0    0  501    0  0.00000000000E+00 -0.00000000000E+00 -0.63183420958E+03  0.63183420958E+03  0.00000000000E+00 0. -1.
         25    2    1    2    0    0  0.78712274515E+02 -0.25820552642E+02 -0.35288832371E+03  0.38345767487E+03  0.12508915343E+03 0.  0.
         23    2    1    2    0    0 -0.78712274515E+02  0.25820552642E+02 -0.24924059373E+03  0.27808182683E+03  0.91358118156E+02 0.  0.
          5    1    3    3  502    0  0.53668876157E+02 -0.49312230848E+02 -0.33800876118E+03  0.34580260181E+03  0.41800000000E+01 0. -1.
         -5    1    3    3    0  502  0.25043398359E+02  0.23491678206E+02 -0.14879562530E+02  0.37655073063E+02  0.41800000000E+01 0. -1.
        -11    1    4    4    0    0 -0.41542646848E+02  0.52893819334E+02 -0.19859507768E+03  0.20967487334E+03  0.00000000000E+00 0.  1.
         11    1    4    4    0    0 -0.37169627667E+02 -0.27073266692E+02 -0.50645516055E+02  0.68406953497E+02  0.00000000000E+00 0. -1.
</event>
<event>
 8    1  0.7075056E-009  0.1385507E+03  0.7561462E-02  0.1215293E+00
         -1   -1    0    0    0  501 -0.00000000000E+00  0.00000000000E+00  0.30350205934E+02  0.30350205934E+02  0.00000000000E+00 0.  1.
          1   -1    0    0  501    0  0.00000000000E+00 -0.00000000000E+00 -0.77359655635E+03  0.77359655635E+03  0.00000000000E+00 0. -1.
         25    2    1    2    0    0 -0.84987700674E+02 -0.27516057979E+02 -0.55275518724E+03  0.57372995225E+03  0.12509084048E+03 0.  0.
         23    2    1    2    0    0  0.84987700674E+02  0.27516057979E+02 -0.19049116318E+03  0.23021681004E+03  0.93449738698E+02 0.  0.
          5    1    3    3  502    0 -0.63624770267E+02  0.43790739147E+02 -0.32519031893E+03  0.33426330363E+03  0.41800000000E+01 0. -1.
         -5    1    3    3    0  502 -0.21362930407E+02 -0.71306797127E+02 -0.22756486831E+03  0.23946664862E+03  0.41800000000E+01 0. -1.
        -11    1    4    4    0    0  0.47732169543E+02 -0.30211082214E+02 -0.57955477171E+02  0.80931494685E+02  0.00000000000E+00 0.  1.
         11    1    4    4    0    0  0.37255531131E+02  0.57727140194E+02 -0.13253568601E+03  0.14928531535E+03  0.00000000000E+00 0. -1.
</event>
<event>
 8    1  0.7075056E-009  0.9340622E+02  0.7561462E-02  0.1294807E+00
         -2   -1    0    0    0  501 -0.00000000000E+00  0.00000000000E+00  0.43240928945E+02  0.43240928945E+02  0.00000000000E+00 0. -1.
          2   -1    0    0  501    0  0.00000000000E+00 -0.00000000000E+00 -0.42610360274E+03  0.42610360274E+03  0.00000000000E+00 0.  1.
         25    2    1    2    0    0  0.62564423390E+02  0.50148610692E+02 -0.19244598312E+03  0.24312894063E+03  0.12508810945E+03 0.  0.
         23    2    1    2    0    0 -0.62564423390E+02 -0.50148610692E+02 -0.19041669067E+03  0.22621559105E+03  0.92118333244E+02 0.  0.
          5    1    3    3  502    0  0.17749460338E+02  0.54422206911E+02 -0.14046731923E+02  0.59089787824E+02  0.41800000000E+01 0. -1.
         -5    1    3    3    0  502  0.44814963052E+02 -0.42735962193E+01 -0.17839925120E+03  0.18403915281E+03  0.41800000000E+01 0. -1.
        -11    1    4    4    0    0 -0.48566200111E+02 -0.23168885406E+02 -0.27389724908E+02  0.60379384517E+02  0.00000000000E+00 0. -1.
         11    1    4    4    0    0 -0.13998223280E+02 -0.26979725286E+02 -0.16302696576E+03  0.16583620653E+03  0.00000000000E+00 0.  1.
</event>
<event>
 8    1  0.7075056E-009  0.9805649E+02  0.7561462E-02  0.1284437E+00
         -1   -1    0    0    0  501 -0.00000000000E+00  0.00000000000E+00  0.89133430098E+03  0.89133430098E+03  0.00000000000E+00 0.  1.
          1   -1    0    0  501    0  0.00000000000E+00 -0.00000000000E+00 -0.16676587127E+02  0.16676587127E+02  0.00000000000E+00 0. -1.
         25    2    1    2    0    0 -0.41374903348E+02 -0.14196977122E+02  0.36447359316E+03  0.38781680666E+03  0.12508972232E+03 0.  0.
         23    2    1    2    0    0  0.41374903348E+02  0.14196977122E+02  0.51018412070E+03  0.52019408145E+03  0.91654833917E+02 0.  0.
          5    1    3    3  502    0 -0.44063409662E+01 -0.46015692493E+02  0.45115101067E+02  0.64727927054E+02  0.41800000000E+01 0.  1.
         -5    1    3    3    0  502 -0.36968562382E+02  0.31818715372E+02  0.31935849209E+03  0.32308887961E+03  0.41800000000E+01 0.  1.
        -11    1    4    4    0    0  0.10007241455E+02  0.51237381647E+02  0.29708914945E+03  0.30164113923E+03  0.00000000000E+00 0. -1.
         11    1    4    4    0    0  0.31367661893E+02 -0.37040404526E+02  0.21309497125E+03  0.21855294222E+03  0.00000000000E+00 0.  1.
</event>
<event>
 8    1  0.7075056E-009  0.9981833E+02  0.7561462E-02  0.1280678E+00
         -1   -1    0    0    0  501 -0.00000000000E+00  0.00000000000E+00  0.61856039502E+02  0.61856039502E+02  0.00000000000E+00 0.  1.
          1   -1    0    0  501    0  0.00000000000E+00 -0.00000000000E+00 -0.25222398008E+03  0.25222398008E+03  0.00000000000E+00 0. -1.
         25    2    1    2    0    0 -0.31967804488E+02  0.46278675991E+02 -0.13482644033E+03  0.19232876636E+03  0.12509408053E+03 0.  0.
         23    2    1    2    0    0  0.31967804488E+02 -0.46278675991E+02 -0.55541500251E+02  0.12175125322E+03  0.92600502347E+02 0.  0.
          5    1    3    3  502    0 -0.19017490619E+02 -0.32821272824E+02 -0.33755055142E+01  0.38311451769E+02  0.41800000000E+01 0. -1.
         -5    1    3    3    0  502 -0.12950313869E+02  0.79099948815E+02 -0.13145093481E+03  0.15401731459E+03  0.41800000000E+01 0. -1.
        -11    1    4    4    0    0  0.43159626432E+02 -0.11483196861E+02  0.10852792378E+02  0.45960855805E+02  0.00000000000E+00 0.  1.
         11    1    4    4    0    0 -0.11191821944E+02 -0.34795479130E+02 -0.66394292629E+02  0.75790397413E+02  0.00000000000E+00 0. -1.
</event>
<event>
 8    1  0.7075056E-009  0.9112653E+02  0.7561462E-02  0.1300146E+00
          1   -1    0    0  501    0  0.00000000000E+00  0.00000000000E+00  0.30167440059E+03  0.30167440059E+03  0.00000000000E+00 0. -1.
         -1   -1    0    0    0  501 -0.00000000000E+00 -0.00000000000E+00 -0.59295773840E+02  0.59295773840E+02  0.00000000000E+00 0.  1.
         25    2    1    2    0    0 -0.41634682838E+02  0.18161936471E+02  0.46673127707E+02  0.14103217440E+03  0.12509352747E+03 0.  0.
         23    2    1    2    0    0  0.41634682838E+02 -0.18161936471E+02  0.19570549904E+03  0.21993800003E+03  0.89491780349E+02 0.  0.
          5    1    3    3  502    0 -0.77224822873E+02 -0.11245965326E+02  0.52736928497E+02  0.94280438221E+02  0.41800000000E+01 0. -1.
         -5    1    3    3    0  502  0.35590140035E+02  0.29407901797E+02 -0.60638007896E+01  0.46751736180E+02  0.41800000000E+01 0. -1.
        -11    1    4    4    0    0  0.10219119829E+02 -0.23732697437E+02  0.46718306750E+01  0.26258281352E+02  0.00000000000E+00 0.  1.
         11    1    4    4    0    0  0.31415563008E+02  0.55707609657E+01  0.19103366837E+03  0.19367971867E+03  0.00000000000E+00 0. -1.
</event>
<event>
 8    1  0.7075056E-009  0.9336697E+02  0.7561462E-02  0.1294897E+00
          2   -1    0    0  501    0  0.00000000000E+00  0.00000000000E+00  0.77924294775E+03  0.77924294775E+03  0.00000000000E+00 0.  1.
         -2   -1    0    0    0  501 -0.00000000000E+00 -0.00000000000E+00 -0.17838684764E+02  0.17838684764E+02  0.00000000000E+00 0. -1.
         25    2    1    2    0    0  0.41632127005E+02 -0.17858875691E+02  0.45657335431E+03  0.47556072684E+03  0.12508638459E+03 0.  0.
         23    2    1    2    0    0 -0.41632127005E+02  0.17858875691E+02  0.30483090868E+03  0.32152090567E+03  0.91660441075E+02 0.  0.
          5    1    3    3  502    0 -0.23388491830E+02  0.12373383017E+01  0.33867678635E+03  0.33951139976E+03  0.41800000000E+01 0. -1.
         -5    1    3    3    0  502  0.65020618835E+02 -0.19096213993E+02  0.11789656796E+03  0.13604932708E+03  0.41800000000E+01 0. -1.
        -11    1    4    4    0    0  0.17731319322E+02  0.29627674056E+02  0.59097497600E+02  0.68444963127E+02  0.00000000000E+00 0. -1.
         11    1    4    4    0    0 -0.59363446327E+02 -0.11768798365E+02  0.24573341107E+03  0.25307594254E+03  0.00000000000E+00 0.  1.
</event>
<event>
 8    1  0.7075056E-009  0.1483103E+03  0.7561462E-02  0.1202565E+00
          2   -1    0    0  501    0  0.00000000000E+00  0.00000000000E+00  0.13321080288E+03  0.13321080288E+03  0.00000000000E+00 0. -1.
         -2   -1    0    0    0  501 -0.00000000000E+00 -0.00000000000E+00 -0.23626772286E+03  0.23626772286E+03  0.00000000000E+00 0.  1.
         25    2    1    2    0    0 -0.93656702444E+02 -0.81692396443E+02  0.11467441560E+02  0.17670237489E+03  0.12508797515E+03 0.  0.
         23    2    1    2    0    0  0.93656702444E+02  0.81692396443E+02 -0.11452436154E+03  0.19277615084E+03  0.92744754018E+02 0.  0.
          5    1    3    3  502    0  0.64599111338E+01 -0.36977739743E+02  0.47976820977E+02  0.61060064194E+02  0.41800000000E+01 0. -1.
         -5    1    3    3    0  502 -0.10011661358E+03 -0.44714656701E+02 -0.36509379416E+02  0.11564231070E+03  0.41800000000E+01 0. -1.
        -11    1    4    4    0    0 -0.14041209479E+02  0.21689916848E+02 -0.20924431621E+01  0.25922699992E+02  0.00000000000E+00 0.  1.
         11    1    4    4    0    0  0.10769791192E+03  0.60002479595E+02 -0.11243191838E+03  0.16685345085E+03  0.00000000000E+00 0. -1.
</event>
<event>
 8    1  0.7075056E-009  0.8181073E+02  0.7561462E-02  0.1323990E+00
          1   -1    0    0  501    0  0.00000000000E+00  0.00000000000E+00  0.11336419427E+03  0.11336419427E+03  0.00000000000E+00 0. -1.
         -1   -1    0    0    0  501 -0.00000000000E+00 -0.00000000000E+00 -0.10711464387E+03  0.10711464387E+03  0.00000000000E+00 0.  1.
         25    2    1    2    0    0 -0.13260254408E+01  0.23575409043E+01 -0.19354982957E+02  0.12660661441E+03  0.12508918061E+03 0.  0.
         23    2    1    2    0    0  0.13260254408E+01 -0.23575409043E+01  0.25604533352E+02  0.93872223729E+02  0.90272287647E+02 0.  0.
          5    1    3    3  502    0 -0.82124400071E+01  0.61882484990E+02 -0.22420672609E+02  0.66460853739E+02  0.41800000000E+01 0.  1.
         -5    1    3    3    0  502  0.68864145663E+01 -0.59524944086E+02  0.30656896512E+01  0.60145760674E+02  0.41800000000E+01 0.  1.
        -11    1    4    4    0    0 -0.78427636775E+01  0.17466982841E+02  0.54433827233E+02  0.57703084656E+02  0.00000000000E+00 0. -1.
         11    1    4    4    0    0  0.91687891183E+01 -0.19824523745E+02 -0.28829293881E+02  0.36169139073E+02  0.00000000000E+00 0.  1.
</event>
<event>
 8    1  0.7075056E-009  0.2498000E+03  0.7561462E-02  0.1113431E+00
          1   -1    0    0  501    0  0.00000000000E+00  0.00000000000E+00  0.24216700642E+03  0.24216700642E+03  0.00000000000E+00 0. -1.
         -1   -1    0    0    0  501 -0.00000000000E+00 -0.00000000000E+00 -0.26105324034E+03  0.26105324034E+03  0.00000000000E+00 0.  1.
         25    2    1    2    0    0  0.73972252489E+01 -0.22604538617E+03 -0.11934936707E+02  0.25873143256E+03  0.12509306906E+03 0.  0.
         23    2    1    2    0    0 -0.73972252489E+01  0.22604538617E+03 -0.69512972159E+01  0.24448881420E+03  0.92602506363E+02 0.  0.
          5    1    3    3  502    0 -0.31441250348E+02 -0.55110189321E+01 -0.13112613690E+02  0.34761136214E+02  0.41800000000E+01 0.  1.
         -5    1    3    3    0  502  0.38838475597E+02 -0.22053436724E+03  0.11776769830E+01  0.22397029634E+03  0.41800000000E+01 0.  1.
        -11    1    4    4    0    0 -0.48680824991E+02  0.11078238098E+03 -0.14225132523E+02  0.12183970228E+03  0.00000000000E+00 0.  1.
         11    1    4    4    0    0  0.41283599742E+02  0.11526300520E+03  0.72738353074E+01  0.12264911192E+03  0.00000000000E+00 0. -1.
</event>
<event>
 8    1  0.7075056E-009  0.7779132E+02  0.7561462E-02  0.1335439E+00
         -1   -1    0    0    0  501 -0.00000000000E+00  0.00000000000E+00  0.27479496239E+02  0.27479496239E+02  0.00000000000E+00 0.  1.
          1   -1    0    0  501    0  0.00000000000E+00 -0.00000000000E+00 -0.44844913882E+03  0.44844913882E+03  0.00000000000E+00 0. -1.
         25    2    1    2    0    0  0.10023301847E+02  0.24536898067E+02 -0.23356920303E+03  0.26627892681E+03  0.12508944124E+03 0.  0.
         23    2    1    2    0    0 -0.10023301847E+02 -0.24536898067E+02 -0.18740043955E+03  0.20964970825E+03  0.90175104544E+02 0.  0.
          5    1    3    3  502    0  0.22266319242E+02 -0.21632903970E+02 -0.21095060192E+03  0.21326368738E+03  0.41800000000E+01 0.  1.
         -5    1    3    3    0  502 -0.12243017395E+02  0.46169802037E+02 -0.22618601116E+02  0.53015239427E+02  0.41800000000E+01 0.  1.
        -11    1    4    4    0    0  0.20810607426E+02 -0.37479645280E+02 -0.40443971692E+02  0.58936576402E+02  0.00000000000E+00 0.  1.
         11    1    4    4    0    0 -0.30833909273E+02  0.12942747213E+02 -0.14695646786E+03  0.15071313185E+03  0.00000000000E+00 0. -1.
</event>
<event>
 8    1  0.7075056E-009  0.2475815E+03  0.7561462E-02  0.1114843E+00
         -3   -1    0    0    0  501 -0.00000000000E+00  0.00000000000E+00  0.47283157183E+03  0.47283157183E+03  0.00000000000E+00 0.  1.
          3   -1    0    0  501    0  0.00000000000E+00 -0.00000000000E+00 -0.13575182348E+03  0.13575182348E+03  0.00000000000E+00 0. -1.
         25    2    1    2    0    0  0.18594467000E+03 -0.13112904839E+03  0.14921033673E+03  0.29946878979E+03  0.12509030274E+03 0.  0.
         23    2    1    2    0    0 -0.18594467000E+03  0.13112904839E+03  0.18786941161E+03  0.30911460552E+03  0.92123156108E+02 0.  0.
          5    1    3    3  502    0  0.71025785225E+02  0.10836062919E+02  0.69809819855E+02  0.10026447913E+03  0.41800000000E+01 0.  1.
         -5    1    3    3    0  502  0.11491888477E+03 -0.14196511131E+03  0.79400516877E+02  0.19920431067E+03  0.41800000000E+01 0.  1.
        -11    1    4    4    0    0 -0.15296909863E+03  0.64217521925E+02  0.15690455177E+03  0.22834726542E+03  0.00000000000E+00 0. -1.
         11    1    4    4    0    0 -0.32975571364E+02  0.66911526468E+02  0.30964859842E+02  0.80767340096E+02  0.00000000000E+00 0.  1.
</event>
<event>
 8    1  0.7075056E-009  0.1267429E+03  0.7561462E-02  0.1232370E+00
          2   -1    0    0  501    0  0.00000000000E+00  0.00000000000E+00  0.59278547639E+03  0.59278547639E+03  0.00000000000E+00 0. -1.
         -2   -1    0    0    0  501 -0.00000000000E+00 -0.00000000000E+00 -0.42114993595E+02  0.42114993595E+02  0.00000000000E+00 0.  1.
         25    2    1    2    0    0 -0.27785853279E+02  0.11047938341E+03  0.31806209496E+03  0.36026440896E+03  0.12509676379E+03 0.  0.
         23    2    1    2    0    0  0.27785853279E+02 -0.11047938341E+03  0.23260838784E+03  0.27463606103E+03  0.91326645198E+02 0.  0.
          5    1    3    3  502    0  0.19418677197E+02  0.13265950171E+01  0.16593670088E+03  0.16712661660E+03  0.41800000000E+01 0.  1.
         -5    1    3    3    0  502 -0.47204530476E+02  0.10915278839E+03  0.15212539408E+03  0.19313779236E+03  0.41800000000E+01 0.  1.
        -11    1    4    4    0    0  0.87342402436E+01 -0.59901469567E+02  0.35335182021E+02  0.70093138732E+02  0.00000000000E+00 0.  1.
         11    1    4    4    0    0  0.19051613035E+02 -0.50577913845E+02  0.19727320582E+03  0.20454292230E+03  0.00000000000E+00 0. -1.
</event>
<event>
 8    1  0.7075056E-009  0.1066265E+03  0.7561462E-02  0.1266948E+00
          1   -1    0    0  501    0  0.00000000000E+00  0.00000000000E+00  0.15140502460E+03  0.15140502460E+03  0.00000000000E+00 0. -1.
         -1   -1    0    0    0  501 -0.00000000000E+00 -0.00000000000E+00 -0.89399458946E+02  0.89399458946E+02  0.00000000000E+00 0.  1.
         25    2    1    2    0    0  0.14999876032E+02 -0.83395167459E+01 -0.30412804129E+01  0.12629955194E+03  0.12509110125E+03 0.  0.
         23    2    1    2    0    0 -0.14999876032E+02  0.83395167459E+01  0.65046846065E+02  0.11450493161E+03  0.92659286415E+02 0.  0.
          5    1    3    3  502    0  0.64232742582E+02 -0.30280440840E+02  0.63858596532E+01  0.71421298788E+02  0.41800000000E+01 0. -1.
         -5    1    3    3    0  502 -0.49232866550E+02  0.21940924094E+02 -0.94271400661E+01  0.54878253148E+02  0.41800000000E+01 0. -1.
        -11    1    4    4    0    0 -0.12257842820E+02  0.47369109003E+02  0.15403720045E+02  0.51296800969E+02  0.00000000000E+00 0.  1.
         11    1    4    4    0    0 -0.27420332121E+01 -0.39029592257E+02  0.49643126020E+02  0.63208130640E+02  0.00000000000E+00 0. -1.
</event>
<event>
 8    1  0.7075056E-009  0.5803815E+02  0.7561462E-02  0.1406254E+00
          2   -1    0    0  501    0  0.00000000000E+00  0.00000000000E+00  0.66610064265E+03  0.66610064265E+03  0.00000000000E+00 0. -1.
         -2   -1    0    0    0  501 -0.00000000000E+00 -0.00000000000E+00 -0.36602625163E+02  0.36602625163E+02  0.00000000000E+00 0.  1.
         25    2    1    2    0    0  0.99147497515E+00  0.32739323918E+02  0.57866754439E+03  0.59293769060E+03  0.12508449801E+03 0.  0.
         23    2    1    2    0    0 -0.99147497515E+00 -0.32739323918E+02  0.50830473098E+02  0.10976557722E+03  0.91607306444E+02 0.  0.
          5    1    3    3  502    0 -0.23998155678E+00  0.32654903642E+02  0.30896728158E+02  0.45149535256E+02  0.41800000000E+01 0.  1.
         -5    1    3    3    0  502  0.12314565319E+01  0.84420276637E-01  0.54777081624E+03  0.54778815534E+03  0.41800000000E+01 0.  1.
        -11    1    4    4    0    0  0.27647384677E+02 -0.40579796336E+02 -0.20208113743E+01  0.49144495406E+02  0.00000000000E+00 0.  1.
         11    1    4    4    0    0 -0.28638859652E+02  0.78404724175E+01  0.52851284472E+02  0.60621081814E+02  0.00000000000E+00 0. -1.
</event>
<event>
 8    1  0.7075056E-009  0.1172284E+03  0.7561462E-02  0.1247741E+00
          2   -1    0    0  501    0  0.00000000000E+00  0.00000000000E+00  0.19631378512E+03  0.19631378512E+03  0.00000000000E+00 0. -1.
         -2   -1    0    0    0  501 -0.00000000000E+00 -0.00000000000E+00 -0.97692957331E+02  0.97692957331E+02  0.00000000000E+00 0.  1.
         25    2    1    2    0    0 -0.27263451959E+01  0.65928615592E+02  0.11772958028E+03  0.18401990602E+03  0.12509618870E+03 0.  0.
         23    2    1    2    0    0  0.27263451959E+01 -0.65928615592E+02 -0.19108752490E+02  0.10998683643E+03  0.85894961756E+02 0.  0.
          5    1    3    3  502    0  0.46735199107E+02 -0.55699443075E+01  0.70841870038E+02  0.85154248664E+02  0.41800000000E+01 0.  1.
         -5    1    3    3    0  502 -0.49461544303E+02  0.71498559899E+02  0.46887710246E+02  0.98865657357E+02  0.41800000000E+01 0.  1.
        -11    1    4    4    0    0  0.39066961421E+02 -0.33826071074E+02 -0.30731949888E+02  0.60123899598E+02  0.00000000000E+00 0.  1.
         11    1    4    4    0    0 -0.36340616225E+02 -0.32102544518E+02  0.11623197398E+02  0.49862936836E+02  0.00000000000E+00 0. -1.
</event>
<event>
 8    1  0.7075056E-009  0.1115996E+03  0.7561462E-02  0.1257636E+00
          3   -1    0    0  501    0  0.00000000000E+00  0.00000000000E+00  0.24268816091E+03  0.24268816091E+03  0.00000000000E+00 0. -1.
         -3   -1    0    0    0  501 -0.00000000000E+00 -0.00000000000E+00 -0.72020574449E+02  0.72020574449E+02  0.00000000000E+00 0.  1.
         25    2    1    2    0    0  0.43827443732E+02 -0.60815802015E+02  0.73568674601E+02  0.16333114054E+03  0.12508119359E+03 0.  0.
         23    2    1    2    0    0 -0.43827443732E+02  0.60815802015E+02  0.97098911861E+02  0.15137759482E+03  0.88699328797E+02 0.  0.
          5    1    3    3  502    0  0.64589552773E+02 -0.33833884117E+02 -0.93189919819E+01  0.73626476579E+02  0.41800000000E+01 0. -1.
         -5    1    3    3    0  502 -0.20762109041E+02 -0.26981917898E+02  0.82887666583E+02  0.89704663964E+02  0.41800000000E+01 0. -1.
        -11    1    4    4    0    0  0.25183670595E+02  0.21296769772E+01  0.17045183781E+02  0.30484275927E+02  0.00000000000E+00 0.  1.
         11    1    4    4    0    0 -0.69011114327E+02  0.58686125038E+02  0.80053728080E+02  0.12089331889E+03  0.00000000000E+00 0. -1.
</event>
<event>
 8    1  0.7075056E-009  0.1945970E+03  0.7561462E-02  0.1154379E+00
          2   -1    0    0  501    0  0.00000000000E+00  0.00000000000E+00  0.99532164894E+02  0.99532164894E+02  0.00000000000E+00 0. -1.
         -2   -1    0    0    0  501 -0.00000000000E+00 -0.00000000000E+00 -0.50230872701E+03  0.50230872701E+03  0.00000000000E+00 0.  1.
         25    2    1    2    0    0 -0.14449806556E+03 -0.11383104922E+03 -0.29284304305E+03  0.36775181713E+03  0.12508857830E+03 0.  0.
         23    2    1    2    0    0  0.14449806556E+03  0.11383104922E+03 -0.10993351907E+03  0.23408907478E+03  0.94207842574E+02 0.  0.
          5    1    3    3  502    0 -0.66610153968E+02 -0.83192980651E+02 -0.25380382839E+03  0.27530317896E+03  0.41800000000E+01 0.  1.
         -5    1    3    3    0  502 -0.77887911590E+02 -0.30638068566E+02 -0.39039214664E+02  0.92448638167E+02  0.41800000000E+01 0.  1.
        -11    1    4    4    0    0  0.11422101898E+03  0.43603944216E+02 -0.97995441722E+02  0.15668711410E+03  0.00000000000E+00 0.  1.
         11    1    4    4    0    0  0.30277046577E+02  0.70227105000E+02 -0.11938077346E+02  0.77401960678E+02  0.00000000000E+00 0. -1.
</event>
<event>
 8    1  0.7075056E-009  0.1647456E+03  0.7561462E-02  0.1183441E+00
          3   -1    0    0  501    0  0.00000000000E+00  0.00000000000E+00  0.15725519371E+03  0.15725519371E+03  0.00000000000E+00 0. -1.
         -3   -1    0    0    0  501 -0.00000000000E+00 -0.00000000000E+00 -0.20606665144E+03  0.20606665144E+03  0.00000000000E+00 0.  1.
         25    2    1    2    0    0 -0.43268025044E+02 -0.13566408662E+03 -0.14922153087E+02  0.19012391028E+03  0.12509022431E+03 0.  0.
         23    2    1    2    0    0  0.43268025044E+02  0.13566408662E+03 -0.33889304639E+02  0.17319793487E+03  0.92586031797E+02 0.  0.
          5    1    3    3  502    0 -0.73374468984E+02 -0.12217557857E+03 -0.40447516323E+02  0.14820309940E+03  0.41800000000E+01 0. -1.
         -5    1    3    3    0  502  0.30106443940E+02 -0.13488508055E+02  0.25525363237E+02  0.41920810877E+02  0.41800000000E+01 0. -1.
        -11    1    4    4    0    0  0.33878073755E+02  0.23798266354E+02 -0.44083569028E+02  0.60476792416E+02  0.00000000000E+00 0.  1.
         11    1    4    4    0    0  0.93899512894E+01  0.11186582027E+03  0.10194264389E+02  0.11272114245E+03  0.00000000000E+00 0. -1.
</event>
<event>
 8    1  0.7075056E-009  0.1002107E+03  0.7561462E-02  0.1279854E+00
          2   -1    0    0  501    0  0.00000000000E+00  0.00000000000E+00  0.95624163527E+02  0.95624163527E+02  0.00000000000E+00 0. -1.
         -2   -1    0    0    0  501 -0.00000000000E+00 -0.00000000000E+00 -0.14007595043E+03  0.14007595043E+03  0.00000000000E+00 0.  1.
         25    2    1    2    0    0 -0.15847492107E+02 -0.30276929397E+00 -0.68018624168E+02  0.14326632748E+03  0.12508985843E+03 0.  0.
         23    2    1    2    0    0  0.15847492107E+02  0.30276929397E+00  0.23566837264E+02  0.92433786475E+02  0.87962346423E+02 0.  0.
          5    1    3    3  502    0  0.49969350314E+02 -0.23990987958E+02 -0.35972095865E+02  0.66211536419E+02  0.41800000000E+01 0. -1.
         -5    1    3    3    0  502 -0.65816842421E+02  0.23688218664E+02 -0.32046528303E+02  0.77054791064E+02  0.41800000000E+01 0. -1.
        -11    1    4    4    0    0  0.14297193473E+02  0.36151995476E+02  0.37429699317E+02  0.53966275664E+02  0.00000000000E+00 0.  1.
         11    1    4    4    0    0  0.15502986333E+01 -0.35849226182E+02 -0.13862862053E+02  0.38467510811E+02  0.00000000000E+00 0. -1.
</event>
<event>
 8    1  0.7075056E-009  0.1959322E+03  0.7561462E-02  0.1153217E+00
          2   -1    0    0  501    0  0.00000000000E+00  0.00000000000E+00  0.81110547421E+03  0.81110547421E+03  0.00000000000E+00 0.  1.
         -2   -1    0    0    0  501 -0.00000000000E+00 -0.00000000000E+00 -0.60156613806E+02  0.60156613806E+02  0.00000000000E+00 0. -1.
         25    2    1    2    0    0 -0.10559875601E+03 -0.14666224997E+03  0.26016932588E+03  0.34058319817E+03  0.12509166203E+03 0.  0.
         23    2    1    2    0    0  0.10559875601E+03  0.14666224997E+03  0.49077953452E+03  0.53067888985E+03  0.89970104959E+02 0.  0.
          5    1    3    3  502    0 -0.11628748995E+03 -0.12408465657E+03  0.14765584002E+03  0.22525430475E+03  0.41800000000E+01 0. -1.
         -5    1    3    3    0  502  0.10688733945E+02 -0.22577593398E+02  0.11251348586E+03  0.11532889342E+03  0.41800000000E+01 0. -1.
        -11    1    4    4    0    0  0.59380167655E+01  0.71131760136E+02  0.24096185381E+03  0.25131176322E+03  0.00000000000E+00 0.  1.
         11    1    4    4    0    0  0.99660739244E+02  0.75530489834E+02  0.24981768071E+03  0.27936712662E+03  0.00000000000E+00 0. -1.
</event>
<event>
 8    1  0.7075056E-009  0.2048399E+03  0.7561462E-02  0.1145719E+00
          2   -1    0    0  501    0  0.00000000000E+00  0.00000000000E+00  0.27295368321E+03  0.27295368321E+03  0.00000000000E+00 0. -1.
         -2   -1    0    0    0  501 -0.00000000000E+00 -0.00000000000E+00 -0.15642043631E+03  0.15642043631E+03  0.00000000000E+00 0.  1.
         25    2    1    2    0    0 -0.15803873168E+03  0.76157294601E+02  0.61033881098E+02  0.22394300613E+03  0.12509660716E+03 0.  0.
         23    2    1    2    0    0  0.15803873168E+03 -0.76157294601E+02  0.55499365799E+02  0.20543111338E+03  0.91354192622E+02 0.  0.
          5    1    3    3  502    0 -0.17926339952E+03  0.72363202141E+02  0.52333521136E+02  0.20031991730E+03  0.41800000000E+01 0. -1.
         -5    1    3    3    0  502  0.21224667842E+02  0.37940924603E+01  0.87003599621E+01  0.23623088834E+02  0.41800000000E+01 0. -1.
        -11    1    4    4    0    0  0.57243339716E+02 -0.73973205156E+02  0.45800457142E+02  0.10414661251E+03  0.00000000000E+00 0.  1.
         11    1    4    4    0    0  0.10079539197E+03 -0.21840894453E+01  0.96989086576E+01  0.10128450087E+03  0.00000000000E+00 0. -1.
</event>
<event>
 8    1  0.7075056E-009  0.1515129E+03  0.7561462E-02  0.1198626E+00
         -1   -1    0    0    0  501 -0.00000000000E+00  0.00000000000E+00  0.64344882454E+02  0.64344882454E+02  0.00000000000E+00 0.  1.
          1   -1    0    0  501    0  0.00000000000E+00 -0.00000000000E+00 -0.38394924721E+03  0.38394924721E+03  0.00000000000E+00 0. -1.
         25    2    1    2    0    0 -0.87845874992E+02  0.67221478267E+02 -0.13069547896E+03  0.21204840968E+03  0.12509034708E+03 0.  0.
         23    2    1    2    0    0  0.87845874992E+02 -0.67221478267E+02 -0.18890888580E+03  0.23624571999E+03  0.88824817404E+02 0.  0.
          5    1    3    3  502    0 -0.29375828936E+02  0.92652844411E+02 -0.10509453278E+03  0.14321250687E+03  0.41800000000E+01 0.  1.
         -5    1    3    3    0  502 -0.58470046056E+02 -0.25431366144E+02 -0.25600946177E+02  0.68835902804E+02  0.41800000000E+01 0.  1.
        -11    1    4    4    0    0  0.13957530923E+02 -0.66498718984E+02 -0.92698815330E+02  0.11493460166E+03  0.00000000000E+00 0. -1.
         11    1    4    4    0    0  0.73888344070E+02 -0.72275928346E+00 -0.96210070467E+02  0.12131111833E+03  0.00000000000E+00 0.  1.
</event>
<event>
 8    1  0.7075056E-009  0.1539141E+03  0.7561462E-02  0.1195744E+00
          1   -1    0    0  501    0  0.00000000000E+00  0.00000000000E+00  0.18009214825E+03  0.18009214825E+03  0.00000000000E+00 0. -1.
         -1   -1    0    0    0  501 -0.00000000000E+00 -0.00000000000E+00 -0.18282277759E+03  0.18282277759E+03  0.00000000000E+00 0.  1.
         25    2    1    2    0    0  0.91724500043E+02 -0.65003687722E+02 -0.92673982591E+02  0.19202617803E+03  0.12508686052E+03 0.  0.
         23    2    1    2    0    0 -0.91724500043E+02  0.65003687722E+02  0.89943353248E+02  0.17088874781E+03  0.92055928695E+02 0.  0.
          5    1    3    3  502    0  0.12141308154E+03 -0.60908359072E+02 -0.86649473467E+02  0.16117247974E+03  0.41800000000E+01 0. -1.
         -5    1    3    3    0  502 -0.29688581495E+02 -0.40953286501E+01 -0.60245091237E+01  0.30853698289E+02  0.41800000000E+01 0. -1.
        -11    1    4    4    0    0 -0.62839738874E+02  0.85603261533E+02  0.49721554786E+02  0.11725606243E+03  0.00000000000E+00 0.  1.
         11    1    4    4    0    0 -0.28884761169E+02 -0.20599573811E+02  0.40221798462E+02  0.53632685374E+02  0.00000000000E+00 0. -1.
</event>
<event>
 8    1  0.7075056E-009  0.1934353E+03  0.7561462E-02  0.1155399E+00
          1   -1    0    0  501    0  0.00000000000E+00  0.00000000000E+00  0.73553339442E+02  0.73553339442E+02  0.00000000000E+00 0. -1.
         -1   -1    0    0    0  501 -0.00000000000E+00 -0.00000000000E+00 -0.59273098305E+03  0.59273098305E+03  0.00000000000E+00 0.  1.
         25    2    1    2    0    0 -0.97746910123E+02 -0.14780826032E+03 -0.24520712008E+03  0.32737689672E+03  0.12508941005E+03 0.  0.
         23    2    1    2    0    0  0.97746910123E+02  0.14780826032E+03 -0.27397052352E+03  0.33890742577E+03  0.91633264865E+02 0.  0.
          5    1    3    3  502    0 -0.12081938932E+03 -0.11836639060E+03 -0.15429331862E+03  0.22897997255E+03  0.41800000000E+01 0.  1.
         -5    1    3    3    0  502  0.23072479192E+02 -0.29441869716E+02 -0.90913801468E+02  0.98396924169E+02  0.41800000000E+01 0.  1.
        -11    1    4    4    0    0  0.98390520114E+02  0.13412526495E+03 -0.27857169025E+03  0.32445718940E+03  0.00000000000E+00 0.  1.
         11    1    4    4    0    0 -0.64360999025E+00  0.13682995363E+02  0.46011667279E+01  0.14450236371E+02  0.00000000000E+00 0. -1.
</event>
<event>
 8    1  0.7075056E-009  0.1066704E+03  0.7561462E-02  0.1266863E+00
          2   -1    0    0  501    0  0.00000000000E+00  0.00000000000E+00  0.19688444502E+03  0.19688444502E+03  0.00000000000E+00 0. -1.
         -2   -1    0    0    0  501 -0.00000000000E+00 -0.00000000000E+00 -0.12915396025E+03  0.12915396025E+03  0.00000000000E+00 0.  1.
         25    2    1    2    0    0  0.53884295382E+01 -0.84114879857E+02  0.12358850694E+03  0.19499698162E+03  0.12508139592E+03 0.  0.
         23    2    1    2    0    0 -0.53884295382E+01  0.84114879857E+02 -0.55858022177E+02  0.13104142364E+03  0.83350992091E+02 0.  0.
          5    1    3    3  502    0 -0.44990182321E+02 -0.49958158031E+02  0.12865253684E+02  0.68577847819E+02  0.41800000000E+01 0. -1.
         -5    1    3    3    0  502  0.50378611859E+02 -0.34156721826E+02  0.11072325326E+03  0.12641913380E+03  0.41800000000E+01 0. -1.
        -11    1    4    4    0    0 -0.12438971493E+01  0.74382228464E+02 -0.20595999368E+00  0.74392913714E+02  0.00000000000E+00 0. -1.
         11    1    4    4    0    0 -0.41445323889E+01  0.97326513929E+01 -0.55652062183E+02  0.56648509928E+02  0.00000000000E+00 0.  1.
</event>
<event>
 8    1  0.7075056E-009  0.1260481E+03  0.7561462E-02  0.1233440E+00
          1   -1    0    0  501    0  0.00000000000E+00  0.00000000000E+00  0.41250533301E+03  0.41250533301E+03  0.00000000000E+00 0. -1.
         -1   -1    0    0    0  501 -0.00000000000E+00 -0.00000000000E+00 -0.57348634895E+02  0.57348634895E+02  0.00000000000E+00 0.  1.
         25    2    1    2    0    0 -0.10436340845E+03 -0.12345366987E+01  0.24078285472E+03  0.29072019828E+03  0.12509438619E+03 0.  0.
         23    2    1    2    0    0  0.10436340845E+03  0.12345366987E+01  0.11437384339E+03  0.17913376962E+03  0.90079333157E+02 0.  0.
          5    1    3    3  502    0 -0.63450127446E+01  0.13332571398E+02  0.16547968079E+03  0.16618969222E+03  0.41800000000E+01 0.  1.
         -5    1    3    3    0  502 -0.98018395707E+02 -0.14567108097E+02  0.75303173930E+02  0.12453050606E+03  0.41800000000E+01 0.  1.
        -11    1    4    4    0    0  0.18566654197E+02 -0.38706739642E+02  0.41261420200E+02  0.59543573446E+02  0.00000000000E+00 0. -1.
         11    1    4    4    0    0  0.85796754254E+02  0.39941276341E+02  0.73112423192E+02  0.11959019618E+03  0.00000000000E+00 0.  1.
</event>
<event>
 8    1  0.7075056E-009  0.1322242E+03  0.7561462E-02  0.1224192E+00
          2   -1    0    0  501    0  0.00000000000E+00  0.00000000000E+00  0.89639692417E+03  0.89639692417E+03  0.00000000000E+00 0. -1.
         -2   -1    0    0    0  501 -0.00000000000E+00 -0.00000000000E+00 -0.28115447817E+02  0.28115447817E+02  0.00000000000E+00 0.  1.
         25    2    1    2    0    0  0.70418382842E+02  0.51334504158E+02  0.68836962963E+03  0.70504911120E+03  0.12509005653E+03 0.  0.
         23    2    1    2    0    0 -0.70418382842E+02 -0.51334504158E+02  0.17991184672E+03  0.21946326079E+03  0.90564177724E+02 0.  0.
          5    1    3    3  502    0  0.10402787508E+03  0.44604983728E+02  0.44247187350E+03  0.45673869401E+03  0.41800000000E+01 0. -1.
         -5    1    3    3    0  502 -0.33609492236E+02  0.67295204295E+01  0.24589775613E+03  0.24831041719E+03  0.41800000000E+01 0. -1.
        -11    1    4    4    0    0 -0.74821303088E+02 -0.66966653774E+02  0.11554742222E+03  0.15308156942E+03  0.00000000000E+00 0.  1.
         11    1    4    4    0    0  0.44029202461E+01  0.15632149616E+02  0.64364424495E+02  0.66381691368E+02  0.00000000000E+00 0. -1.
</event>
<event>
 8    1  0.7075056E-009  0.1235411E+03  0.7561462E-02  0.1237367E+00
          1   -1    0    0  501    0  0.00000000000E+00  0.00000000000E+00  0.52587949798E+03  0.52587949798E+03  0.00000000000E+00 0. -1.
         -1   -1    0    0    0  501 -0.00000000000E+00 -0.00000000000E+00 -0.32321514060E+02  0.32321514060E+02  0.00000000000E+00 0.  1.
         25    2    1    2    0    0 -0.59473038239E+02 -0.29730915575E+02  0.34854825757E+03  0.37623963078E+03  0.12509757112E+03 0.  0.
         23    2    1    2    0    0  0.59473038239E+02  0.29730915575E+02  0.14500972635E+03  0.18196138125E+03  0.87528017873E+02 0.  0.
          5    1    3    3  502    0 -0.92379023493E+02  0.62363093732E+01  0.22292891385E+03  0.24142814369E+03  0.41800000000E+01 0.  1.
         -5    1    3    3    0  502  0.32905985255E+02 -0.35967224948E+02  0.12561934372E+03  0.13481148709E+03  0.41800000000E+01 0.  1.
        -11    1    4    4    0    0  0.32206174528E+01 -0.26051391705E+02  0.61425355633E+02  0.66799114525E+02  0.00000000000E+00 0.  1.
         11    1    4    4    0    0  0.56252420786E+02  0.55782307280E+02  0.83584370717E+02  0.11516226673E+03  0.00000000000E+00 0. -1.
</event>
<event>
 8    1  0.7075056E-009  0.1776421E+03  0.7561462E-02  0.1170105E+00
         -2   -1    0    0    0  501 -0.00000000000E+00  0.00000000000E+00  0.12836263580E+03  0.12836263580E+03  0.00000000000E+00 0.  1.
          2   -1    0    0  501    0  0.00000000000E+00 -0.00000000000E+00 -0.27792718923E+03  0.27792718923E+03  0.00000000000E+00 0. -1.
         25    2    1    2    0    0 -0.87739761635E+02  0.12146090659E+03 -0.11919292040E+03  0.22869931432E+03  0.12508159935E+03 0.  0.
         23    2    1    2    0    0  0.87739761635E+02 -0.12146090659E+03 -0.30371633026E+02  0.17759051071E+03  0.90360034302E+02 0.  0.
          5    1    3    3  502    0  0.14027950885E+01  0.10215797370E+03 -0.48206911976E+02  0.11304688491E+03  0.41800000000E+01 0. -1.
         -5    1    3    3    0  502 -0.89142556724E+02  0.19302932888E+02 -0.70986008428E+02  0.11565242942E+03  0.41800000000E+01 0. -1.
        -11    1    4    4    0    0  0.60343979596E+02 -0.32285108345E+02 -0.46741105510E+02  0.82876142759E+02  0.00000000000E+00 0. -1.
         11    1    4    4    0    0  0.27395782039E+02 -0.89175798248E+02  0.16369472485E+02  0.94714367950E+02  0.00000000000E+00 0.  1.
</event>
<event>
 8    1  0.7075056E-009  0.1011522E+03  0.7561462E-02  0.1277892E+00
          2   -1    0    0  501    0  0.00000000000E+00  0.00000000000E+00  0.10052105615E+03  0.10052105615E+03  0.00000000000E+00 0. -1.
         -2   -1    0    0    0  501 -0.00000000000E+00 -0.00000000000E+00 -0.20708463095E+03  0.20708463095E+03  0.00000000000E+00 0.  1.
         25    2    1    2    0    0  0.58408911274E+02 -0.50845970861E+02  0.46881370024E+00  0.14712116977E+03  0.12508998817E+03 0.  0.
         23    2    1    2    0    0 -0.58408911274E+02  0.50845970861E+02 -0.10703238849E+03  0.16048451733E+03  0.91117695575E+02 0.  0.
          5    1    3    3  502    0 -0.15599096332E+02 -0.50641882283E+01  0.45858779921E+02  0.48882286205E+02  0.41800000000E+01 0.  1.
         -5    1    3    3    0  502  0.74008007605E+02 -0.45781782633E+02 -0.45389966221E+02  0.98238883566E+02  0.41800000000E+01 0.  1.
        -11    1    4    4    0    0  0.93330970644E+01  0.23349154282E+02 -0.77773139024E+02  0.81737083751E+02  0.00000000000E+00 0.  1.
         11    1    4    4    0    0 -0.67742008338E+02  0.27496816579E+02 -0.29259249469E+02  0.78747433578E+02  0.00000000000E+00 0. -1.
</event>
<event>
 8    1  0.7075056E-009  0.2290387E+03  0.7561462E-02  0.1127318E+00
          1   -1    0    0  501    0  0.00000000000E+00  0.00000000000E+00  0.80105915440E+03  0.80105915440E+03  0.00000000000E+00 0. -1.
         -1   -1    0    0    0  501 -0.00000000000E+00 -0.00000000000E+00 -0.91025347962E+02  0.91025347962E+02  0.00000000000E+00 0.  1.
         25    2    1    2    0    0  0.36969018336E+02 -0.21910993795E+03  0.54256361123E+03  0.59949624074E+03  0.12507836423E+03 0.  0.
         23    2    1    2    0    0 -0.36969018336E+02  0.21910993795E+03  0.16747019521E+03  0.29258826163E+03  0.90475142073E+02 0.  0.
          5    1    3    3  502    0  0.37529039521E+02 -0.10268466405E+03  0.12563165226E+03  0.16659337768E+03  0.41800000000E+01 0.  1.
         -5    1    3    3    0  502 -0.56002118482E+00 -0.11642527390E+03  0.41693195897E+03  0.43290286305E+03  0.41800000000E+01 0.  1.
        -11    1    4    4    0    0 -0.53701310203E+02  0.11750501545E+03  0.55924585354E+02  0.14077932597E+03  0.00000000000E+00 0. -1.
         11    1    4    4    0    0  0.16732291866E+02  0.10160492250E+03  0.11154560985E+03  0.15180893566E+03  0.00000000000E+00 0.  1.
</event>
<event>
 8    1  0.7075056E-009  0.1408370E+03  0.7561462E-02  0.1212207E+00
          1   -1    0    0  501    0  0.00000000000E+00  0.00000000000E+00  0.36695691242E+03  0.36695691242E+03  0.00000000000E+00 0. -1.
         -1   -1    0    0    0  501 -0.00000000000E+00 -0.00000000000E+00 -0.64812041045E+02  0.64812041045E+02  0.00000000000E+00 0.  1.
         25    2    1    2    0    0 -0.15838865488E+02  0.10817147700E+03  0.18911568993E+03  0.25172312421E+03  0.12509136255E+03 0.  0.
         23    2    1    2    0    0  0.15838865488E+02 -0.10817147700E+03  0.11302918145E+03  0.18004582926E+03  0.87686753155E+02 0.  0.
          5    1    3    3  502    0  0.37474066649E+02  0.36357281828E+02  0.12717195160E+02  0.53901364230E+02  0.41800000000E+01 0.  1.
         -5    1    3    3    0  502 -0.53312932137E+02  0.71814195177E+02  0.17639849477E+03  0.19782175998E+03  0.41800000000E+01 0.  1.
        -11    1    4    4    0    0  0.46986382862E+02 -0.94909218238E+02  0.91240409010E+02  0.13978659491E+03  0.00000000000E+00 0.  1.
         11    1    4    4    0    0 -0.31147517373E+02 -0.13262258767E+02  0.21788772436E+02  0.40259234349E+02  0.00000000000E+00 0. -1.
</event>
<event>
 8    1  0.7075056E-009  0.1046341E+03  0.7561462E-02  0.1270842E+00
         -1   -1    0    0    0  501 -0.00000000000E+00  0.00000000000E+00  0.41485305700E+02  0.41485305700E+02  0.00000000000E+00 0.  1.
          1   -1    0    0  501    0  0.00000000000E+00 -0.00000000000E+00 -0.41005550252E+03  0.41005550252E+03  0.00000000000E+00 0. -1.
         25    2    1    2    0    0 -0.55100783786E+02  0.18428349817E+02 -0.27349333425E+03  0.30630758925E+03  0.12510009954E+03 0.  0.
         23    2    1    2    0    0  0.55100783786E+02 -0.18428349817E+02 -0.95076862574E+02  0.14523321897E+03  0.93152443040E+02 0.  0.
          5    1    3    3  502    0  0.20740333365E+02 -0.86101390150E+00  0.64820482703E+00  0.21184790359E+02  0.41800000000E+01 0.  1.
         -5    1    3    3    0  502 -0.75841117151E+02  0.19289363719E+02 -0.27414153908E+03  0.28512279890E+03  0.41800000000E+01 0.  1.
        -11    1    4    4    0    0  0.66261855466E+02 -0.45543107076E+02 -0.67511856159E+02  0.10498885090E+03  0.00000000000E+00 0. -1.
         11    1    4    4    0    0 -0.11161071681E+02  0.27114757259E+02 -0.27565006415E+02  0.40244368065E+02  0.00000000000E+00 0.  1.
</event>
<event>
 8    1  0.7075056E-009  0.1106787E+03  0.7561462E-02  0.1259318E+00
          2   -1    0    0  501    0  0.00000000000E+00  0.00000000000E+00  0.75786456102E+03  0.75786456102E+03  0.00000000000E+00 0. -1.
         -2   -1    0    0    0  501 -0.00000000000E+00 -0.00000000000E+00 -0.23710729906E+02  0.23710729906E+02  0.00000000000E+00 0.  1.
         25    2    1    2    0    0 -0.69782761070E+01 -0.73877712641E+02  0.33124937571E+03  0.36177331685E+03  0.12508865303E+03 0.  0.
         23    2    1    2    0    0  0.69782761070E+01  0.73877712641E+02  0.40290445541E+03  0.41980197407E+03  0.91624693658E+02 0.  0.
          5    1    3    3  502    0 -0.15530575934E+02 -0.89204891118E+02  0.33156107719E+03  0.34372799086E+03  0.41800000000E+01 0.  1.
         -5    1    3    3    0  502  0.85522998265E+01  0.15327178477E+02 -0.31170148790E+00  0.18045325993E+02  0.41800000000E+01 0.  1.
        -11    1    4    4    0    0  0.43424178813E+02  0.20454462744E+02  0.23545675581E+03  0.24029966336E+03  0.00000000000E+00 0.  1.
         11    1    4    4    0    0 -0.36445902706E+02  0.53423249897E+02  0.16744769959E+03  0.17950231072E+03  0.00000000000E+00 0. -1.
</event>
<event>
 8    1  0.7075056E-009  0.1095609E+03  0.7561462E-02  0.1261385E+00
          1   -1    0    0  501    0  0.00000000000E+00  0.00000000000E+00  0.25367451787E+03  0.25367451787E+03  0.00000000000E+00 0. -1.
         -1   -1    0    0    0  501 -0.00000000000E+00 -0.00000000000E+00 -0.64894609702E+02  0.64894609702E+02  0.00000000000E+00 0.  1.
         25    2    1    2    0    0 -0.47816749934E+01  0.60242272344E+02  0.14215862638E+03  0.19876794869E+03  0.12509047357E+03 0.  0.
         23    2    1    2    0    0  0.47816749934E+01 -0.60242272344E+02  0.46621281785E+02  0.11980117888E+03  0.92340580212E+02 0.  0.
          5    1    3    3  502    0 -0.60850039886E+02  0.23564248364E+02  0.10005813244E+03  0.11952867197E+03  0.41800000000E+01 0.  1.
         -5    1    3    3    0  502  0.56068364892E+02  0.36678023980E+02  0.42100493941E+02  0.79239276718E+02  0.41800000000E+01 0.  1.
        -11    1    4    4    0    0 -0.14024024595E+02  0.77754345794E+01 -0.18005400149E+02  0.24110684007E+02  0.00000000000E+00 0.  1.
         11    1    4    4    0    0  0.18805699589E+02 -0.68017706924E+02  0.64626681934E+02  0.95690494878E+02  0.00000000000E+00 0. -1.
</event>
<event>
 8    1  0.7075056E-009  0.1519515E+03  0.7561462E-02  0.1198095E+00
          2   -1    0    0  501    0  0.00000000000E+00  0.00000000000E+00  0.12701347430E+03  0.12701347430E+03  0.00000000000E+00 0. -1.
         -2   -1    0    0    0  501 -0.00000000000E+00 -0.00000000000E+00 -0.25648175773E+03  0.25648175773E+03  0.00000000000E+00 0.  1.
         25    2    1    2    0    0 -0.48324256359E+02 -0.13122771286E+03 -0.26509075714E+02  0.18948671698E+03  0.12508612410E+03 0.  0.
         23    2    1    2    0    0  0.48324256359E+02  0.13122771286E+03 -0.10295920772E+03  0.19400851504E+03  0.86502942609E+02 0.  0.
          5    1    3    3  502    0 -0.23182519372E+02 -0.66422095082E+02  0.49711988471E+02  0.86244293244E+02  0.41800000000E+01 0. -1.
         -5    1    3    3    0  502 -0.25141736988E+02 -0.64805617777E+02 -0.76221064185E+02  0.10324242374E+03  0.41800000000E+01 0. -1.
        -11    1    4    4    0    0 -0.24835894696E+02  0.34590273229E+02 -0.34495502571E+02  0.54801901108E+02  0.00000000000E+00 0.  1.
         11    1    4    4    0    0  0.73160151055E+02  0.96637439630E+02 -0.68463705148E+02  0.13920661393E+03  0.00000000000E+00 0. -1.
</event>
<event>
 8    1  0.7075056E-009  0.2222307E+03  0.7561462E-02  0.1132231E+00
          1   -1    0    0  501    0  0.00000000000E+00  0.00000000000E+00  0.48236552011E+02  0.48236552011E+02  0.00000000000E+00 0. -1.
         -1   -1    0    0    0  501 -0.00000000000E+00 -0.00000000000E+00 -0.12163350144E+04  0.12163350144E+04  0.00000000000E+00 0.  1.
         25    2    1    2    0    0  0.21109029586E+03  0.22139183063E+02 -0.49214494494E+03  0.55036620413E+03  0.12508819043E+03 0.  0.
         23    2    1    2    0    0 -0.21109029586E+03 -0.22139183063E+02 -0.67595351746E+03  0.71420536229E+03  0.90149239208E+02 0.  0.
          5    1    3    3  502    0  0.14005344964E+03  0.49964026365E+02 -0.20536030382E+03  0.25357779767E+03  0.41800000000E+01 0. -1.
         -5    1    3    3    0  502  0.71036846213E+02 -0.27824843302E+02 -0.28678464112E+03  0.29678840646E+03  0.41800000000E+01 0. -1.
        -11    1    4    4    0    0 -0.11245451183E+03  0.15915603981E+02 -0.45928428809E+03  0.47311878103E+03  0.00000000000E+00 0.  1.
         11    1    4    4    0    0 -0.98635784026E+02 -0.38054787044E+02 -0.21666922938E+03  0.24108658126E+03  0.00000000000E+00 0. -1.
</event>
<event>
 8    1  0.7075056E-009  0.1295511E+03  0.7561462E-02  0.1228123E+00
          1   -1    0    0  501    0  0.00000000000E+00  0.00000000000E+00  0.26579189941E+04  0.26579189941E+04  0.00000000000E+00 0.  1.
         -1   -1    0    0    0  501 -0.00000000000E+00 -0.00000000000E+00 -0.12783771295E+02  0.12783771295E+02  0.00000000000E+00 0. -1.
         25    2    1    2    0    0 -0.75686966863E+02 -0.16691036323E+02  0.23137410051E+04  0.23184159724E+04  0.12509226647E+03 0.  0.
         23    2    1    2    0    0  0.75686966863E+02  0.16691036323E+02  0.33139421773E+03  0.35228679293E+03  0.90976641436E+02 0.  0.
          5    1    3    3  502    0 -0.10703367496E+03 -0.13284255612E+02  0.14142902416E+04  0.14184029889E+04  0.41800000000E+01 0. -1.
         -5    1    3    3    0  502  0.31346708094E+02 -0.34067807109E+01  0.89945076346E+03  0.90001298355E+03  0.41800000000E+01 0. -1.
        -11    1    4    4    0    0  0.20281244283E+02 -0.37007990853E+02  0.12589851599E+03  0.13278311860E+03  0.00000000000E+00 0. -1.
         11    1    4    4    0    0  0.55405722579E+02  0.53699027176E+02  0.20549570174E+03  0.21950367434E+03  0.00000000000E+00 0.  1.
</event>
<event>
 8    1  0.7075056E-009  0.1148221E+03  0.7561462E-02  0.1251892E+00
          2   -1    0    0  501    0  0.00000000000E+00  0.00000000000E+00  0.31779518408E+03  0.31779518408E+03  0.00000000000E+00 0. -1.
         -2   -1    0    0    0  501 -0.00000000000E+00 -0.00000000000E+00 -0.76888432854E+02  0.76888432854E+02  0.00000000000E+00 0.  1.
         25    2    1    2    0    0 -0.49189092399E+02  0.95692911501E+02  0.88322782465E+02  0.18714969215E+03  0.12508954092E+03 0.  0.
         23    2    1    2    0    0  0.49189092399E+02 -0.95692911501E+02  0.15258396876E+03  0.20753392478E+03  0.90618774486E+02 0.  0.
          5    1    3    3  502    0 -0.22454781924E+02  0.74782413840E+02 -0.13846507687E+02  0.79409223810E+02  0.41800000000E+01 0.  1.
         -5    1    3    3    0  502 -0.26734310475E+02  0.20910497661E+02  0.10216929015E+03  0.10774046834E+03  0.41800000000E+01 0.  1.
        -11    1    4    4    0    0  0.30535070282E+02 -0.14239212569E+02  0.14296895264E+00  0.33692226579E+02  0.00000000000E+00 0.  1.
         11    1    4    4    0    0  0.18654022117E+02 -0.81453698932E+02  0.15244099981E+03  0.17384169820E+03  0.00000000000E+00 0. -1.
</event>
<event>
 8    1  0.7075056E-009  0.1125062E+03  0.7561462E-02  0.1255998E+00
         -1   -1    0    0    0  501 -0.00000000000E+00  0.00000000000E+00  0.96633740859E+02  0.96633740859E+02  0.00000000000E+00 0.  1.
          1   -1    0    0  501    0  0.00000000000E+00 -0.00000000000E+00 -0.20034588351E+03  0.20034588351E+03  0.00000000000E+00 0. -1.
         25    2    1    2    0    0 -0.61127034566E+02  0.53534873677E+02 -0.87147485136E+02  0.17275653649E+03  0.12509052595E+03 0.  0.
         23    2    1    2    0    0  0.61127034566E+02 -0.53534873677E+02 -0.16564657510E+02  0.12422308787E+03  0.92490489389E+02 0.  0.
          5    1    3    3  502    0 -0.58616786665E+02  0.88779363808E+02 -0.86489976277E+02  0.13717030114E+03  0.41800000000E+01 0. -1.
         -5    1    3    3    0  502 -0.25102479005E+01 -0.35244490131E+02 -0.65750885964E+00  0.35586235359E+02  0.41800000000E+01 0. -1.
        -11    1    4    4    0    0  0.29474159829E+02 -0.14919708268E+02  0.37939248697E+02  0.50306166462E+02  0.00000000000E+00 0.  1.
         11    1    4    4    0    0  0.31652874736E+02 -0.38615165410E+02 -0.54503906208E+02  0.73916921409E+02  0.00000000000E+00 0. -1.
</event>
<event>
 8    1  0.7075056E-009  0.1121058E+03  0.7561462E-02  0.1256719E+00
         -1   -1    0    0    0  501 -0.00000000000E+00  0.00000000000E+00  0.21653579366E+02  0.21653579366E+02  0.00000000000E+00 0. -1.
          1   -1    0    0  501    0  0.00000000000E+00 -0.00000000000E+00 -0.13190032995E+04  0.13190032995E+04  0.00000000000E+00 0.  1.
         25    2    1    2    0    0 -0.68228350772E+02 -0.74250703217E+02 -0.10134516573E+04  0.10261096810E+04  0.12509412884E+03 0.  0.
         23    2    1    2    0    0  0.68228350772E+02  0.74250703217E+02 -0.28389806287E+03  0.31454719786E+03  0.90407714283E+02 0.  0.
          5    1    3    3  502    0 -0.54969505486E+02 -0.27594839841E+02 -0.90656153594E+03  0.90865527708E+03  0.41800000000E+01 0.  1.
         -5    1    3    3    0  502 -0.13258845286E+02 -0.46655863376E+02 -0.10689012134E+03  0.11745440395E+03  0.41800000000E+01 0.  1.
        -11    1    4    4    0    0  0.27149126308E+02  0.66831881207E+02 -0.85780980534E+02  0.11208011432E+03  0.00000000000E+00 0. -1.
         11    1    4    4    0    0  0.41079224464E+02  0.74188220102E+01 -0.19811708233E+03  0.20246708354E+03  0.00000000000E+00 0.  1.
</event>
<event>
 8    1  0.7075056E-009  0.8601716E+02  0.7561462E-02  0.1312794E+00
         -2   -1    0    0    0  501 -0.00000000000E+00  0.00000000000E+00  0.33765414560E+03  0.33765414560E+03  0.00000000000E+00 0. -1.
          2   -1    0    0  501    0  0.00000000000E+00 -0.00000000000E+00 -0.37924905836E+02  0.37924905836E+02  0.00000000000E+00 0.  1.
         25    2    1    2    0    0 -0.15985519389E+02 -0.27600794858E+01  0.21580808891E+03  0.24996735119E+03  0.12508953016E+03 0.  0.
         23    2    1    2    0    0  0.15985519389E+02  0.27600794858E+01  0.83921150856E+02  0.12561170024E+03  0.92045558326E+02 0.  0.
          5    1    3    3  502    0 -0.37688959088E+02 -0.49248507176E+02  0.17019855105E+03  0.18119296972E+03  0.41800000000E+01 0. -1.
         -5    1    3    3    0  502  0.21703439698E+02  0.46488427690E+02  0.45609537860E+02  0.68774381478E+02  0.41800000000E+01 0. -1.
        -11    1    4    4    0    0 -0.32919508820E+01  0.27130948918E+02  0.89905109156E+02  0.93967302729E+02  0.00000000000E+00 0. -1.
         11    1    4    4    0    0  0.19277470271E+02 -0.24370869433E+02 -0.59839583001E+01  0.31644397512E+02  0.00000000000E+00 0.  1.
</event>
<event>
 8    1  0.7075056E-009  0.1092565E+03  0.7561462E-02  0.1261953E+00
          1   -1    0    0  501    0  0.00000000000E+00  0.00000000000E+00  0.25030206924E+03  0.25030206924E+03  0.00000000000E+00 0. -1.
         -1   -1    0    0    0  501 -0.00000000000E+00 -0.00000000000E+00 -0.49506617675E+02  0.49506617675E+02  0.00000000000E+00 0.  1.
         25    2    1    2    0    0  0.13668839052E+02 -0.15785676327E+02  0.13466373067E+03  0.18498056365E+03  0.12508982306E+03 0.  0.
         23    2    1    2    0    0 -0.13668839052E+02  0.15785676327E+02  0.66131720891E+02  0.11482812326E+03  0.91520864536E+02 0.  0.
          5    1    3    3  502    0 -0.48444418507E+02 -0.36114334247E+02  0.54612114963E+02  0.81554045413E+02  0.41800000000E+01 0.  1.
         -5    1    3    3    0  502  0.62113257559E+02  0.20328657920E+02  0.80051615707E+02  0.10342651824E+03  0.41800000000E+01 0.  1.
        -11    1    4    4    0    0  0.38159739384E+02  0.13834651098E+02  0.39021373708E+02  0.56304803409E+02  0.00000000000E+00 0. -1.
         11    1    4    4    0    0 -0.51828578436E+02  0.19510252289E+01  0.27110347184E+02  0.58523319853E+02  0.00000000000E+00 0.  1.
</event>
<event>
 8    1  0.7075056E-009  0.1421375E+03  0.7561462E-02  0.1210481E+00
         -1   -1    0    0    0  501 -0.00000000000E+00  0.00000000000E+00  0.54685241535E+02  0.54685241535E+02  0.00000000000E+00 0. -1.
          1   -1    0    0  501    0  0.00000000000E+00 -0.00000000000E+00 -0.46419715616E+03  0.46419715616E+03  0.00000000000E+00 0.  1.
         25    2    1    2    0    0  0.11123466832E+03  0.22612805234E+02 -0.17904806810E+03  0.24615167228E+03  0.12509174503E+03 0.  0.
         23    2    1    2    0    0 -0.11123466832E+03 -0.22612805234E+02 -0.23046384652E+03  0.27273072542E+03  0.91564041173E+02 0.  0.
          5    1    3    3  502    0  0.97051132090E+02 -0.27768715667E+02 -0.16204450623E+03  0.19096051479E+03  0.41800000000E+01 0.  1.
         -5    1    3    3    0  502  0.14183536234E+02  0.50381520902E+02 -0.17003561876E+02  0.55191157489E+02  0.41800000000E+01 0.  1.
        -11    1    4    4    0    0 -0.18623915533E+00 -0.19647420089E+02 -0.97537782876E+02  0.99497109956E+02  0.00000000000E+00 0.  1.
         11    1    4    4    0    0 -0.11104842917E+03 -0.29653851452E+01 -0.13292606365E+03  0.17323361546E+03  0.00000000000E+00 0. -1.
</event>
<event>
 8    1  0.7075056E-009  0.1256317E+03  0.7561462E-02  0.1234085E+00
          2   -1    0    0  501    0  0.00000000000E+00  0.00000000000E+00  0.29693484579E+03  0.29693484579E+03  0.00000000000E+00 0. -1.
         -2   -1    0    0    0  501 -0.00000000000E+00 -0.00000000000E+00 -0.65777902655E+02  0.65777902655E+02  0.00000000000E+00 0.  1.
         25    2    1    2    0    0  0.75742984696E+02  0.13573481047E+00  0.19933166172E+03  0.24722568174E+03  0.12510159149E+03 0.  0.
         23    2    1    2    0    0 -0.75742984696E+02 -0.13573481047E+00  0.31825281412E+02  0.11548706670E+03  0.81162773998E+02 0.  0.
          5    1    3    3  502    0  0.59698453982E+02 -0.56136492996E+02  0.81772735392E+02  0.11584240980E+03  0.41800000000E+01 0. -1.
         -5    1    3    3    0  502  0.16044530714E+02  0.56272227806E+02  0.11755892633E+03  0.13138327195E+03  0.41800000000E+01 0. -1.
        -11    1    4    4    0    0 -0.43283667801E+02  0.39994227026E+02  0.11666879441E+02  0.60076036567E+02  0.00000000000E+00 0. -1.
         11    1    4    4    0    0 -0.32459316895E+02 -0.40129961836E+02  0.20158401971E+02  0.55411030132E+02  0.00000000000E+00 0.  1.
</event>
<event>
 8    1  0.7075056E-009  0.1144734E+03  0.7561462E-02  0.1252503E+00
         -3   -1    0    0    0  501 -0.00000000000E+00  0.00000000000E+00  0.46078216559E+02  0.46078216559E+02  0.00000000000E+00 0.  1.
          3   -1    0    0  501    0  0.00000000000E+00 -0.00000000000E+00 -0.34340976769E+03  0.34340976769E+03  0.00000000000E+00 0. -1.
         25    2    1    2    0    0 -0.50600186296E+01 -0.54078653725E+02 -0.21545365067E+03  0.25498519629E+03  0.12508824949E+03 0.  0.
         23    2    1    2    0    0  0.50600186296E+01  0.54078653725E+02 -0.81877900457E+02  0.13450278796E+03  0.91852625483E+02 0.  0.
          5    1    3    3  502    0  0.40434157559E+02 -0.63939767912E+02 -0.73597983833E+02  0.10562836098E+03  0.41800000000E+01 0.  1.
         -5    1    3    3    0  502 -0.45494176189E+02  0.98611141865E+01 -0.14185566684E+03  0.14935683531E+03  0.41800000000E+01 0.  1.
        -11    1    4    4    0    0  0.27025768795E+02 -0.17079458701E+02 -0.29046655835E+02  0.43195003226E+02  0.00000000000E+00 0. -1.
         11    1    4    4    0    0 -0.21965750166E+02  0.71158112426E+02 -0.52831244622E+02  0.91307784732E+02  0.00000000000E+00 0.  1.
</event>
<event>
 8    1  0.7075056E-009  0.7277793E+02  0.7561462E-02  0.1350893E+00
         -2   -1    0    0    0  501 -0.00000000000E+00  0.00000000000E+00  0.44124504835E+03  0.44124504835E+03  0.00000000000E+00 0.  1.
          2   -1    0    0  501    0  0.00000000000E+00 -0.00000000000E+00 -0.34811451229E+02  0.34811451229E+02  0.00000000000E+00 0. -1.
         25    2    1    2    0    0  0.54904439598E+02  0.17099418396E+02  0.23604218545E+03  0.27325696662E+03  0.12508624584E+03 0.  0.
         23    2    1    2    0    0 -0.54904439598E+02 -0.17099418396E+02  0.17039141168E+03  0.20279953296E+03  0.93741825245E+02 0.  0.
          5    1    3    3  502    0  0.24187035655E+02 -0.35565153503E+01 -0.82521720578E+01  0.26138711500E+02  0.41800000000E+01 0.  1.
         -5    1    3    3    0  502  0.30717403943E+02  0.20655933746E+02  0.24429435751E+03  0.24711825512E+03  0.41800000000E+01 0.  1.
        -11    1    4    4    0    0  0.55677765718E+01 -0.22131308746E+02  0.12487912131E+03  0.12694719336E+03  0.00000000000E+00 0.  1.
         11    1    4    4    0    0 -0.60472216169E+02  0.50318903500E+01  0.45512290364E+02  0.75852339602E+02  0.00000000000E+00 0. -1.
</event>
<event>
 8    1  0.7075056E-009  0.8592554E+02  0.7561462E-02  0.1313030E+00
          1   -1    0    0  501    0  0.00000000000E+00  0.00000000000E+00  0.16304296586E+03  0.16304296586E+03  0.00000000000E+00 0. -1.
         -1   -1    0    0    0  501 -0.00000000000E+00 -0.00000000000E+00 -0.93274596102E+02  0.93274596102E+02  0.00000000000E+00 0.  1.
         25    2    1    2    0    0  0.11185913418E+02  0.90395709452E+01  0.98965144750E+02  0.16015054179E+03  0.12508899895E+03 0.  0.
         23    2    1    2    0    0 -0.11185913418E+02 -0.90395709452E+01 -0.29196774990E+02  0.96167020174E+02  0.90492019523E+02 0.  0.
          5    1    3    3  502    0 -0.34404899642E+02  0.24723201521E+02 -0.74766908327E+01  0.43223918363E+02  0.41800000000E+01 0. -1.
         -5    1    3    3    0  502  0.45590813061E+02 -0.15683630576E+02  0.10644183558E+03  0.11692662343E+03  0.41800000000E+01 0. -1.
        -11    1    4    4    0    0  0.18279697487E+01 -0.43763830287E+02 -0.38073860521E+02  0.58036481370E+02  0.00000000000E+00 0.  1.
         11    1    4    4    0    0 -0.13013883167E+02  0.34724259342E+02  0.88770855309E+01  0.38130538804E+02  0.00000000000E+00 0. -1.
</event>
<event>
 8    1  0.7075056E-009  0.2730313E+03  0.7561462E-02  0.1099557E+00
          2   -1    0    0  501    0  0.00000000000E+00  0.00000000000E+00  0.30611745230E+03  0.30611745230E+03  0.00000000000E+00 0. -1.
         -2   -1    0    0    0  501 -0.00000000000E+00 -0.00000000000E+00 -0.26829806218E+03  0.26829806218E+03  0.00000000000E+00 0.  1.
         25    2    1    2    0    0 -0.25726230320E+03 -0.56693825975E+02  0.47921022590E+02  0.29553842753E+03  0.12509378557E+03 0.  0.
         23    2    1    2    0    0  0.25726230320E+03  0.56693825975E+02 -0.10101632474E+02  0.27887708696E+03  0.90952207779E+02 0.  0.
          5    1    3    3  502    0 -0.21364925652E+03 -0.64582660346E+02 -0.88293155478E+01  0.22341072947E+03  0.41800000000E+01 0. -1.
         -5    1    3    3    0  502 -0.43613046675E+02  0.78888343709E+01  0.56750338137E+02  0.72127698055E+02  0.41800000000E+01 0. -1.
        -11    1    4    4    0    0  0.15828268509E+03 -0.10572911840E+02  0.14991225852E+01  0.15864249819E+03  0.00000000000E+00 0. -1.
         11    1    4    4    0    0  0.98979618105E+02  0.67266737815E+02 -0.11600755059E+02  0.12023458876E+03  0.00000000000E+00 0.  1.
</event>
<event>
 8    1  0.7075056E-009  0.2146395E+03  0.7561462E-02  0.1137944E+00
          1   -1    0    0  501    0  0.00000000000E+00  0.00000000000E+00  0.40966066565E+03  0.40966066565E+03  0.00000000000E+00 0. -1.
         -1   -1    0    0    0  501 -0.00000000000E+00 -0.00000000000E+00 -0.13852796805E+03  0.13852796805E+03  0.00000000000E+00 0.  1.
         25    2    1    2    0    0 -0.15555770320E+03 -0.12435939403E+03  0.21903556840E+03  0.32138635183E+03  0.12509655876E+03 0.  0.
         23    2    1    2    0    0  0.15555770320E+03  0.12435939403E+03  0.52097129195E+02  0.22680228186E+03  0.95192994910E+02 0.  0.
          5    1    3    3  502    0 -0.42979456943E+02  0.17520876421E+02  0.15992721913E+02  0.49269203199E+02  0.41800000000E+01 0.  1.
         -5    1    3    3    0  502 -0.11257824626E+03 -0.14188027045E+03  0.20304284649E+03  0.27211714864E+03  0.41800000000E+01 0.  1.
        -11    1    4    4    0    0  0.11291558394E+03  0.71721511991E+02 -0.11008529927E+02  0.13422031184E+03  0.00000000000E+00 0.  1.
         11    1    4    4    0    0  0.42642119259E+02  0.52637882035E+02  0.63105659122E+02  0.92581970022E+02  0.00000000000E+00 0. -1.
</event>
<event>
 8    1  0.7075056E-009  0.1250811E+03  0.7561462E-02  0.1234943E+00
          2   -1    0    0  501    0  0.00000000000E+00  0.00000000000E+00  0.42122874474E+03  0.42122874474E+03  0.00000000000E+00 0.  1.
         -2   -1    0    0    0  501 -0.00000000000E+00 -0.00000000000E+00 -0.75095300717E+02  0.75095300717E+02  0.00000000000E+00 0. -1.
         25    2    1    2    0    0 -0.70233795009E+02  0.74099314780E+02  0.48085932156E+02  0.16847234921E+03  0.12508869319E+03 0.  0.
         23    2    1    2    0    0  0.70233795009E+02 -0.74099314780E+02  0.29804751187E+03  0.32785169625E+03  0.90724423342E+02 0.  0.
          5    1    3    3  502    0 -0.77492765265E+02  0.91922984259E+02  0.42052424150E+01  0.12037491502E+03  0.41800000000E+01 0. -1.
         -5    1    3    3    0  502  0.72589702555E+01 -0.17823669479E+02  0.43880689741E+02  0.48097434184E+02  0.41800000000E+01 0. -1.
        -11    1    4    4    0    0  0.58461073537E+02 -0.32403013180E+02  0.74269656663E+02  0.99918137908E+02  0.00000000000E+00 0. -1.
         11    1    4    4    0    0  0.11772721472E+02 -0.41696301600E+02  0.22377785520E+03  0.22793355834E+03  0.00000000000E+00 0.  1.
</event>
<event>
 8    1  0.7075056E-009  0.1544432E+03  0.7561462E-02  0.1195117E+00
         -2   -1    0    0    0  501 -0.00000000000E+00  0.00000000000E+00  0.10527357692E+03  0.10527357692E+03  0.00000000000E+00 0.  1.
          2   -1    0    0  501    0  0.00000000000E+00 -0.00000000000E+00 -0.30608920738E+03  0.30608920738E+03  0.00000000000E+00 0. -1.
         25    2    1    2    0    0 -0.87371061915E+02 -0.97886919273E+02 -0.18034610158E+03  0.25571038188E+03  0.12509009401E+03 0.  0.
         23    2    1    2    0    0  0.87371061915E+02  0.97886919273E+02 -0.20469528881E+02  0.15565240242E+03  0.81198013172E+02 0.  0.
          5    1    3    3  502    0 -0.92592414648E+02 -0.16118358306E+02 -0.12621735154E+03  0.15742124684E+03  0.41800000000E+01 0. -1.
         -5    1    3    3    0  502  0.52213527331E+01 -0.81768560966E+02 -0.54128750038E+02  0.98289135043E+02  0.41800000000E+01 0. -1.
        -11    1    4    4    0    0  0.57421092483E+02  0.77837376078E+02 -0.50158536989E+02  0.10895741282E+03  0.00000000000E+00 0. -1.
         11    1    4    4    0    0  0.29949969433E+02  0.20049543195E+02  0.29689008107E+02  0.46694989600E+02  0.00000000000E+00 0.  1.
</event>
<event>
 8    1  0.7075056E-009  0.1316333E+03  0.7561462E-02  0.1225052E+00
         -1   -1    0    0    0  501 -0.00000000000E+00  0.00000000000E+00  0.46573958988E+02  0.46573958988E+02  0.00000000000E+00 0.  1.
          1   -1    0    0  501    0  0.00000000000E+00 -0.00000000000E+00 -0.39253397577E+03  0.39253397577E+03  0.00000000000E+00 0. -1.
         25    2    1    2    0    0  0.79685930570E+01 -0.76870186535E+02 -0.15486839466E+03  0.21354832120E+03  0.12508453849E+03 0.  0.
         23    2    1    2    0    0 -0.79685930570E+01  0.76870186535E+02 -0.19109162212E+03  0.22555961355E+03  0.91589339824E+02 0.  0.
          5    1    3    3  502    0 -0.55470533868E+02 -0.58670210567E+02 -0.82333305656E+02  0.11539245797E+03  0.41800000000E+01 0. -1.
         -5    1    3    3    0  502  0.63439126925E+02 -0.18199975969E+02 -0.72535089004E+02  0.98155863234E+02  0.41800000000E+01 0. -1.
        -11    1    4    4    0    0 -0.31481580577E+02  0.85599845266E+02 -0.12397561415E+03  0.15391028662E+03  0.00000000000E+00 0. -1.
         11    1    4    4    0    0  0.23512987520E+02 -0.87296587306E+01 -0.67116007970E+02  0.71649326930E+02  0.00000000000E+00 0.  1.
</event>
<event>
 8    1  0.7075056E-009  0.1539056E+03  0.7561462E-02  0.1195754E+00
         -2   -1    0    0    0  501 -0.00000000000E+00  0.00000000000E+00  0.34304554049E+03  0.34304554049E+03  0.00000000000E+00 0.  1.
          2   -1    0    0  501    0  0.00000000000E+00 -0.00000000000E+00 -0.10439508813E+03  0.10439508813E+03  0.00000000000E+00 0. -1.
         25    2    1    2    0    0 -0.51905939268E+02  0.14475800617E+03  0.13385983736E+03  0.23919639673E+03  0.12508938113E+03 0.  0.
         23    2    1    2    0    0  0.51905939268E+02 -0.14475800617E+03  0.10479061499E+03  0.20824423188E+03  0.93463791066E+02 0.  0.
          5    1    3    3  502    0 -0.30845808198E+02  0.85822232727E+02  0.14893213332E+03  0.17468592458E+03  0.41800000000E+01 0.  1.
         -5    1    3    3    0  502 -0.21060131070E+02  0.58935773440E+02 -0.15072295955E+02  0.64510472150E+02  0.41800000000E+01 0.  1.
        -11    1    4    4    0    0  0.29861205305E+02 -0.80614652387E+02  0.11070137143E+03  0.14016136200E+03  0.00000000000E+00 0. -1.
         11    1    4    4    0    0  0.22044733963E+02 -0.64143353781E+02 -0.59107564339E+01  0.68082869882E+02  0.00000000000E+00 0.  1.
</event>
<event>
 8    1  0.7075056E-009  0.1324506E+03  0.7561462E-02  0.1223864E+00
         -2   -1    0    0    0  501 -0.00000000000E+00  0.00000000000E+00  0.38862508508E+02  0.38862508508E+02  0.00000000000E+00 0.  1.
          2   -1    0    0  501    0  0.00000000000E+00 -0.00000000000E+00 -0.56004414929E+03  0.56004414929E+03  0.00000000000E+00 0. -1.
         25    2    1    2    0    0 -0.18173985343E+02  0.94455826590E+02 -0.21232809185E+03  0.26454221018E+03  0.12508863042E+03 0.  0.
         23    2    1    2    0    0  0.18173985343E+02 -0.94455826590E+02 -0.30885354894E+03  0.33436444762E+03  0.84598299160E+02 0.  0.
          5    1    3    3  502    0 -0.33068954348E+00 -0.26379987959E+02 -0.10720434648E+02  0.28782168774E+02  0.41800000000E+01 0.  1.
         -5    1    3    3    0  502 -0.17843295800E+02  0.12083581455E+03 -0.20160765720E+03  0.23576004141E+03  0.41800000000E+01 0.  1.
        -11    1    4    4    0    0 -0.16111020768E+02 -0.74669124621E+02 -0.12658786093E+03  0.14784968616E+03  0.00000000000E+00 0.  1.
         11    1    4    4    0    0  0.34285006111E+02 -0.19786701969E+02 -0.18226568801E+03  0.18651476146E+03  0.00000000000E+00 0. -1.
</event>
<event>
 8    1  0.7075056E-009  0.1221008E+03  0.7561462E-02  0.1239671E+00
         -1   -1    0    0    0  501 -0.00000000000E+00  0.00000000000E+00  0.63621309029E+02  0.63621309029E+02  0.00000000000E+00 0.  1.
          1   -1    0    0  501    0  0.00000000000E+00 -0.00000000000E+00 -0.30051544354E+03  0.30051544354E+03  0.00000000000E+00 0. -1.
         25    2    1    2    0    0 -0.79542856481E+01 -0.46956640820E+02 -0.20679359716E+03  0.24632932712E+03  0.12508536605E+03 0.  0.
         23    2    1    2    0    0  0.79542856481E+01  0.46956640820E+02 -0.30100537353E+02  0.11780742544E+03  0.10346183047E+03 0.  0.
          5    1    3    3  502    0  0.45500450763E+02  0.17510085649E+02 -0.61682249082E+02  0.78734149966E+02  0.41800000000E+01 0. -1.
         -5    1    3    3    0  502 -0.53454736412E+02 -0.64466726468E+02 -0.14511134808E+03  0.16759517716E+03  0.41800000000E+01 0. -1.
        -11    1    4    4    0    0 -0.41834597869E+02  0.45215302970E+02 -0.28727190525E+02  0.67969174462E+02  0.00000000000E+00 0. -1.
         11    1    4    4    0    0  0.49788883517E+02  0.17413378496E+01 -0.13733468273E+01  0.49838250981E+02  0.00000000000E+00 0.  1.
</event>
<event>
 8    1  0.7075056E-009  0.1377899E+03  0.7561462E-02  0.1216334E+00
         -1   -1    0    0    0  501 -0.00000000000E+00  0.00000000000E+00  0.15476816176E+03  0.15476816176E+03  0.00000000000E+00 0.  1.
          1   -1    0    0  501    0  0.00000000000E+00 -0.00000000000E+00 -0.52804429425E+03  0.52804429425E+03  0.00000000000E+00 0. -1.
         25    2    1    2    0    0 -0.99639126965E+02  0.92383216392E+02  0.80512431152E+02  0.20146483989E+03  0.12507284218E+03 0.  0.
         23    2    1    2    0    0  0.99639126965E+02 -0.92383216392E+02 -0.45378856363E+03  0.48134761612E+03  0.85491828630E+02 0.  0.
          5    1    3    3  502    0 -0.53439639770E+02  0.33882641688E+02 -0.28348267179E+02  0.69461681225E+02  0.41800000000E+01 0. -1.
         -5    1    3    3    0  502 -0.46199487195E+02  0.58500574704E+02  0.10886069833E+03  0.13200315867E+03  0.41800000000E+01 0. -1.
        -11    1    4    4    0    0  0.24359123513E+02 -0.35933652607E+02 -0.47685969891E+02  0.64486789442E+02  0.00000000000E+00 0.  1.
         11    1    4    4    0    0  0.75280003452E+02 -0.56449563785E+02 -0.40610259374E+03  0.41686082667E+03  0.00000000000E+00 0. -1.
</event>
<event>
 8    1  0.7075056E-009  0.1319607E+03  0.7561462E-02  0.1224575E+00
          1   -1    0    0  501    0  0.00000000000E+00  0.00000000000E+00  0.37225094710E+03  0.37225094710E+03  0.00000000000E+00 0. -1.
         -1   -1    0    0    0  501 -0.00000000000E+00 -0.00000000000E+00 -0.63638704927E+02  0.63638704927E+02  0.00000000000E+00 0.  1.
         25    2    1    2    0    0  0.10034081651E+02 -0.99840591690E+02  0.22534592932E+03  0.27657937414E+03  0.12508611353E+03 0.  0.
         23    2    1    2    0    0 -0.10034081651E+02  0.99840591690E+02  0.83266312852E+02  0.15931027788E+03  0.91529553912E+02 0.  0.
          5    1    3    3  502    0  0.76635043667E+01  0.25251359273E+02  0.82117422209E+02  0.86354524343E+02  0.41800000000E+01 0.  1.
         -5    1    3    3    0  502  0.23705772840E+01 -0.12509195096E+03  0.14322850711E+03  0.19022484980E+03  0.41800000000E+01 0.  1.
        -11    1    4    4    0    0 -0.29947449327E+02  0.49112607737E+02  0.87428699610E+02  0.10465503082E+03  0.00000000000E+00 0.  1.
         11    1    4    4    0    0  0.19913367677E+02  0.50727983954E+02 -0.41623867577E+01  0.54655247065E+02  0.00000000000E+00 0. -1.
</event>
<event>
 8    1  0.7075056E-009  0.8425168E+02  0.7561462E-02  0.1317401E+00
         -1   -1    0    0    0  501 -0.00000000000E+00  0.00000000000E+00  0.55661082271E+02  0.55661082271E+02  0.00000000000E+00 0.  1.
          1   -1    0    0  501    0  0.00000000000E+00 -0.00000000000E+00 -0.27149923760E+03  0.27149923760E+03  0.00000000000E+00 0. -1.
         25    2    1    2    0    0  0.36625639166E+02  0.31250946979E+02 -0.16613404471E+03  0.21346264600E+03  0.12509085216E+03 0.  0.
         23    2    1    2    0    0 -0.36625639166E+02 -0.31250946979E+02 -0.49704110615E+02  0.11369767387E+03  0.90214207860E+02 0.  0.
          5    1    3    3  502    0  0.21573225863E+01 -0.13079254560E+02  0.16947027838E+02  0.21917917171E+02  0.41800000000E+01 0.  1.
         -5    1    3    3    0  502  0.34468316579E+02  0.44330201539E+02 -0.18308107255E+03  0.19154472883E+03  0.41800000000E+01 0.  1.
        -11    1    4    4    0    0 -0.36974152201E+02 -0.59495331248E+02 -0.20314243443E+02  0.72934565591E+02  0.00000000000E+00 0. -1.
         11    1    4    4    0    0  0.34851303569E+00  0.28244384269E+02 -0.29389867171E+02  0.40763108277E+02  0.00000000000E+00 0.  1.
</event>
<event>
 8    1  0.7075056E-009  0.2243574E+03  0.7561462E-02  0.1130676E+00
         -2   -1    0    0    0  501 -0.00000000000E+00  0.00000000000E+00  0.86647679628E+03  0.86647679628E+03  0.00000000000E+00 0.  1.
          2   -1    0    0  501    0  0.00000000000E+00 -0.00000000000E+00 -0.64364492791E+02  0.64364492791E+02  0.00000000000E+00 0. -1.
         25    2    1    2    0    0 -0.19249658273E+03 -0.33958616324E+02  0.54784079633E+03  0.59496688428E+03  0.12509169945E+03 0.  0.
         23    2    1    2    0    0  0.19249658273E+03  0.33958616324E+02  0.25427150716E+03  0.33587440480E+03  0.99747152642E+02 0.  0.
          5    1    3    3  502    0 -0.95671253895E+01 -0.44770323504E+02  0.15093433380E+03  0.15778009150E+03  0.41800000000E+01 0. -1.
         -5    1    3    3    0  502 -0.18292945734E+03  0.10811707180E+02  0.39690646254E+03  0.43718679278E+03  0.41800000000E+01 0. -1.
        -11    1    4    4    0    0  0.69661938214E+02  0.62219995858E+02  0.10886187081E+03  0.14343995412E+03  0.00000000000E+00 0.  1.
         11    1    4    4    0    0  0.12283464452E+03 -0.28261379534E+02  0.14540963635E+03  0.19243445068E+03  0.00000000000E+00 0. -1.
</event>
<event>
 8    1  0.7075056E-009  0.1321033E+03  0.7561462E-02  0.1224368E+00
         -4   -1    0    0    0  501 -0.00000000000E+00  0.00000000000E+00  0.18745762127E+03  0.18745762127E+03  0.00000000000E+00 0.  1.
          4   -1    0    0  501    0  0.00000000000E+00 -0.00000000000E+00 -0.15374075855E+03  0.15374075855E+03  0.00000000000E+00 0. -1.
         25    2    1    2    0    0  0.87337513414E+02 -0.49364311755E+02  0.10080055083E+03  0.18940189780E+03  0.12509057245E+03 0.  0.
         23    2    1    2    0    0 -0.87337513414E+02  0.49364311755E+02 -0.67083688104E+02  0.15179648203E+03  0.92072114253E+02 0.  0.
          5    1    3    3  502    0  0.44545089486E+02  0.39989509209E+02  0.27050958528E+02  0.65822888127E+02  0.41800000000E+01 0. -1.
         -5    1    3    3    0  502  0.42792423928E+02 -0.89353820963E+02  0.73749592299E+02  0.12357900967E+03  0.41800000000E+01 0. -1.
        -11    1    4    4    0    0 -0.79427782551E+02  0.31398061053E+02 -0.88330492503E+02  0.12286938913E+03  0.00000000000E+00 0. -1.
         11    1    4    4    0    0 -0.79097308626E+01  0.17966250702E+02  0.21246804400E+02  0.28927092902E+02  0.00000000000E+00 0.  1.
</event>
<event>
 8    1  0.7075056E-009  0.8827827E+02  0.7561462E-02  0.1307076E+00
          1   -1    0    0  501    0  0.00000000000E+00  0.00000000000E+00  0.18946694897E+02  0.18946694897E+02  0.00000000000E+00 0. -1.
         -1   -1    0    0    0  501 -0.00000000000E+00 -0.00000000000E+00 -0.91279023903E+03  0.91279023903E+03  0.00000000000E+00 0.  1.
         25    2    1    2    0    0  0.10567201024E+01  0.20327576644E+02 -0.75107751915E+03  0.76169495222E+03  0.12508970157E+03 0.  0.
         23    2    1    2    0    0 -0.10567201024E+01 -0.20327576644E+02 -0.14276602498E+03  0.17004198171E+03  0.90098893574E+02 0.  0.
          5    1    3    3  502    0  0.81292496980E+01  0.57623427155E+02 -0.17740457002E+03  0.18675223672E+03  0.41800000000E+01 0.  1.
         -5    1    3    3    0  502 -0.70725295956E+01 -0.37295850511E+02 -0.57367294913E+03  0.57494271550E+03  0.41800000000E+01 0.  1.
        -11    1    4    4    0    0 -0.19817574435E+02  0.24450491377E+02 -0.10168402663E+03  0.10644343126E+03  0.00000000000E+00 0.  1.
         11    1    4    4    0    0  0.18760854332E+02 -0.44778068021E+02 -0.41081998350E+02  0.63598550450E+02  0.00000000000E+00 0. -1.
</event>
<event>
 8    1  0.7075056E-009  0.1803079E+03  0.7561462E-02  0.1167505E+00
         -2   -1    0    0    0  501 -0.00000000000E+00  0.00000000000E+00  0.15985515501E+03  0.15985515501E+03  0.00000000000E+00 0.  1.
          2   -1    0    0  501    0  0.00000000000E+00 -0.00000000000E+00 -0.64048754702E+03  0.64048754702E+03  0.00000000000E+00 0. -1.
         25    2    1    2    0    0  0.16639184625E+03  0.31110148789E+02  0.66454287056E+02  0.22072311274E+03  0.12509369439E+03 0.  0.
         23    2    1    2    0    0 -0.16639184625E+03 -0.31110148789E+02 -0.54708667907E+03  0.57961958928E+03  0.89448007282E+02 0.  0.
          5    1    3    3  502    0  0.19457766297E+02  0.79599079382E+01  0.68632612971E+02  0.71901827284E+02  0.41800000000E+01 0. -1.
         -5    1    3    3    0  502  0.14693407995E+03  0.23150240851E+02 -0.21783259147E+01  0.14882128546E+03  0.41800000000E+01 0. -1.
        -11    1    4    4    0    0 -0.13578936317E+02 -0.34970556325E+02 -0.85145538598E+02  0.93043484804E+02  0.00000000000E+00 0.  1.
         11    1    4    4    0    0 -0.15281290993E+03  0.38604075360E+01 -0.46194114047E+03  0.48657610448E+03  0.00000000000E+00 0. -1.
</event>
<event>
 8    1  0.7075056E-009  0.1249377E+03  0.7561462E-02  0.1235167E+00
         -2   -1    0    0    0  501 -0.00000000000E+00  0.00000000000E+00  0.34310573962E+03  0.34310573962E+03  0.00000000000E+00 0.  1.
          2   -1    0    0  501    0  0.00000000000E+00 -0.00000000000E+00 -0.51772709456E+02  0.51772709456E+02  0.00000000000E+00 0. -1.
         25    2    1    2    0    0 -0.32957600478E+02 -0.71007710963E+02  0.13214826488E+03  0.19808583710E+03  0.12508611635E+03 0.  0.
         23    2    1    2    0    0  0.32957600478E+02  0.71007710963E+02  0.15918476529E+03  0.19679261198E+03  0.85201198258E+02 0.  0.
          5    1    3    3  502    0 -0.21812199776E+02  0.29204770666E+02  0.70575352473E+01  0.37362707243E+02  0.41800000000E+01 0.  1.
         -5    1    3    3    0  502 -0.11145400702E+02 -0.10021248163E+03  0.12509072963E+03  0.16072312985E+03  0.41800000000E+01 0.  1.
        -11    1    4    4    0    0  0.30351970817E+02 -0.94340386976E+01  0.25496099105E+02  0.40746708925E+02  0.00000000000E+00 0. -1.
         11    1    4    4    0    0  0.26056296606E+01  0.80441749660E+02  0.13368866619E+03  0.15604590306E+03  0.00000000000E+00 0.  1.
</event>
<event>
 8    1  0.7075056E-009  0.1021428E+03  0.7561462E-02  0.1275853E+00
         -1   -1    0    0    0  501 -0.00000000000E+00  0.00000000000E+00  0.10916760270E+04  0.10916760270E+04  0.00000000000E+00 0.  1.
          1   -1    0    0  501    0  0.00000000000E+00 -0.00000000000E+00 -0.16414581604E+02  0.16414581604E+02  0.00000000000E+00 0. -1.
         25    2    1    2    0    0  0.26565407950E+02 -0.71408576213E+02  0.63241023379E+03  0.64914947321E+03  0.12508968428E+03 0.  0.
         23    2    1    2    0    0 -0.26565407950E+02  0.71408576213E+02  0.44285121156E+03  0.45894113534E+03  0.93299863213E+02 0.  0.
          5    1    3    3  502    0  0.82199118308E+01  0.18367333097E+01 -0.25175099392E+01  0.97340020573E+01  0.41800000000E+01 0.  1.
         -5    1    3    3    0  502  0.18345496119E+02 -0.73245309522E+02  0.63492774373E+03  0.63941547115E+03  0.41800000000E+01 0.  1.
        -11    1    4    4    0    0  0.31694142214E+02  0.45615521746E+02  0.23875752750E+03  0.24513353792E+03  0.00000000000E+00 0.  1.
         11    1    4    4    0    0 -0.58259550164E+02  0.25793054467E+02  0.20409368406E+03  0.21380759743E+03  0.00000000000E+00 0. -1.
</event>
<event>
 8    1  0.7075056E-009  0.2055559E+03  0.7561462E-02  0.1145134E+00
          2   -1    0    0  501    0  0.00000000000E+00  0.00000000000E+00  0.14584221939E+03  0.14584221939E+03  0.00000000000E+00 0. -1.
         -2   -1    0    0    0  501 -0.00000000000E+00 -0.00000000000E+00 -0.30319540300E+03  0.30319540300E+03  0.00000000000E+00 0.  1.
         25    2    1    2    0    0  0.11898469266E+03  0.13432513543E+03 -0.74212457495E+02  0.23098712722E+03  0.12508782914E+03 0.  0.
         23    2    1    2    0    0 -0.11898469266E+03 -0.13432513543E+03 -0.83140726114E+02  0.21805049517E+03  0.91831579579E+02 0.  0.
          5    1    3    3  502    0  0.10975913384E+02  0.93935890759E+02 -0.65805607438E+02  0.11529211863E+03  0.41800000000E+01 0. -1.
         -5    1    3    3    0  502  0.10800877928E+03  0.40389244675E+02 -0.84068500569E+01  0.11569500860E+03  0.41800000000E+01 0. -1.
        -11    1    4    4    0    0 -0.79677668717E+02 -0.22904333848E+02 -0.42044922162E+02  0.92956521454E+02  0.00000000000E+00 0.  1.
         11    1    4    4    0    0 -0.39307023943E+02 -0.11142080159E+03 -0.41095803952E+02  0.12509397372E+03  0.00000000000E+00 0. -1.
</event>
<event>
 8    1  0.7075056E-009  0.8400833E+02  0.7561462E-02  0.1318046E+00
         -2   -1    0    0    0  501 -0.00000000000E+00  0.00000000000E+00  0.47639323668E+02  0.47639323668E+02  0.00000000000E+00 0.  1.
          2   -1    0    0  501    0  0.00000000000E+00 -0.00000000000E+00 -0.46364638198E+03  0.46364638198E+03  0.00000000000E+00 0. -1.
         25    2    1    2    0    0  0.45977860141E+02 -0.45605811682E+02 -0.36196432219E+03  0.38840634551E+03  0.12508982778E+03 0.  0.
         23    2    1    2    0    0 -0.45977860141E+02  0.45605811682E+02 -0.54042736119E+02  0.12287936013E+03  0.89358078188E+02 0.  0.
          5    1    3    3  502    0  0.46469039902E+02 -0.65119977240E+02 -0.35947015166E+03  0.36828826405E+03  0.41800000000E+01 0.  1.
         -5    1    3    3    0  502 -0.49117976113E+00  0.19514165558E+02 -0.24941705322E+01  0.20118081460E+02  0.41800000000E+01 0.  1.
        -11    1    4    4    0    0 -0.10179600646E+02  0.24153261269E+02  0.23251650153E+02  0.35037744420E+02  0.00000000000E+00 0.  1.
         11    1    4    4    0    0 -0.35798259494E+02  0.21452550413E+02 -0.77294386272E+02  0.87841615714E+02  0.00000000000E+00 0. -1.
</event>
<event>
 8    1  0.7075056E-009  0.9625711E+02  0.7561462E-02  0.1288370E+00
          1   -1    0    0  501    0  0.00000000000E+00  0.00000000000E+00  0.22939832265E+03  0.22939832265E+03  0.00000000000E+00 0. -1.
         -1   -1    0    0    0  501 -0.00000000000E+00 -0.00000000000E+00 -0.59025906351E+02  0.59025906351E+02  0.00000000000E+00 0.  1.
         25    2    1    2    0    0 -0.20110763510E+02 -0.36623222988E+02  0.11038427198E+03  0.17198077257E+03  0.12508795050E+03 0.  0.
         23    2    1    2    0    0  0.20110763510E+02  0.36623222988E+02  0.59988144311E+02  0.11644345643E+03  0.90635521824E+02 0.  0.
          5    1    3    3  502    0  0.39483564118E+02  0.71427208467E+01  0.15898782910E+01  0.40372892014E+02  0.41800000000E+01 0. -1.
         -5    1    3    3    0  502 -0.59594327628E+02 -0.43765943834E+02  0.10879439369E+03  0.13160788056E+03  0.41800000000E+01 0. -1.
        -11    1    4    4    0    0  0.11999936308E+02 -0.18690225291E+02  0.56177376551E+02  0.60408779404E+02  0.00000000000E+00 0. -1.
         11    1    4    4    0    0  0.81108272021E+01  0.55313448279E+02  0.38107677596E+01  0.56034677025E+02  0.00000000000E+00 0.  1.
</event>
<event>
 8    1  0.7075056E-009  0.1106061E+03  0.7561462E-02  0.1259452E+00
          2   -1    0    0  501    0  0.00000000000E+00  0.00000000000E+00  0.38299640720E+03  0.38299640720E+03  0.00000000000E+00 0. -1.
         -2   -1    0    0    0  501 -0.00000000000E+00 -0.00000000000E+00 -0.45984134275E+02  0.45984134275E+02  0.00000000000E+00 0.  1.
         25    2    1    2    0    0 -0.62507545244E+02  0.42650787572E+02  0.18012931883E+03  0.23199289795E+03  0.12509136783E+03 0.  0.
         23    2    1    2    0    0  0.62507545244E+02 -0.42650787572E+02  0.15688295410E+03  0.19698764352E+03  0.92008627424E+02 0.  0.
          5    1    3    3  502    0 -0.52541814376E+02 -0.28243291253E+02  0.13396636122E+03  0.14670645554E+03  0.41800000000E+01 0.  1.
         -5    1    3    3    0  502 -0.99657308679E+01  0.70894078825E+02  0.46162957604E+02  0.85286442410E+02  0.41800000000E+01 0.  1.
        -11    1    4    4    0    0  0.72563150822E+01 -0.32781964771E+02  0.13090360451E+03  0.13514090793E+03  0.00000000000E+00 0. -1.
         11    1    4    4    0    0  0.55251230162E+02 -0.98688228017E+01  0.25979349585E+02  0.61846735587E+02  0.00000000000E+00 0.  1.
</event>
<event>
 8    1  0.7075056E-009  0.1409811E+03  0.7561462E-02  0.1212015E+00
         -1   -1    0    0    0  501 -0.00000000000E+00  0.00000000000E+00  0.71919819867E+02  0.71919819867E+02  0.00000000000E+00 0.  1.
          1   -1    0    0  501    0  0.00000000000E+00 -0.00000000000E+00 -0.35411795502E+03  0.35411795502E+03  0.00000000000E+00 0. -1.
         25    2    1    2    0    0  0.11056879978E+03  0.38846349679E+02 -0.17072710247E+03  0.24193081387E+03  0.12509307261E+03 0.  0.
         23    2    1    2    0    0 -0.11056879978E+03 -0.38846349679E+02 -0.11147103268E+03  0.18410696101E+03  0.87949324038E+02 0.  0.
          5    1    3    3  502    0  0.87696189834E+02  0.58124737309E+02 -0.18152713030E+03  0.20985394500E+03  0.41800000000E+01 0.  1.
         -5    1    3    3    0  502  0.22872609944E+02 -0.19278387630E+02  0.10800027831E+02  0.32076868869E+02  0.41800000000E+01 0.  1.
        -11    1    4    4    0    0 -0.49344273117E+02 -0.63538769832E+02 -0.63838541772E+02  0.10270049648E+03  0.00000000000E+00 0. -1.
         11    1    4    4    0    0 -0.61224526662E+02  0.24692420153E+02 -0.47632490912E+02  0.81406464537E+02  0.00000000000E+00 0.  1.
</event>
<event>
 8    1  0.7075056E-009  0.3147556E+03  0.7561462E-02  0.1078089E+00
          2   -1    0    0  501    0  0.00000000000E+00  0.00000000000E+00  0.15120491905E+04  0.15120491905E+04  0.00000000000E+00 0.  1.
         -2   -1    0    0    0  501 -0.00000000000E+00 -0.00000000000E+00 -0.71950445092E+02  0.71950445092E+02  0.00000000000E+00 0. -1.
         25    2    1    2    0    0 -0.12977317384E+03 -0.27000296191E+03  0.92146803102E+03  0.97698216561E+03  0.12509254034E+03 0.  0.
         23    2    1    2    0    0  0.12977317384E+03  0.27000296191E+03  0.51863071441E+03  0.60701747000E+03  0.98740644460E+02 0.  0.
          5    1    3    3  502    0 -0.75531291196E+02 -0.35748342190E+02  0.21519544105E+03  0.23088843663E+03  0.41800000000E+01 0. -1.
         -5    1    3    3    0  502 -0.54241882644E+02 -0.23425461972E+03  0.70627258997E+03  0.74609372898E+03  0.41800000000E+01 0. -1.
        -11    1    4    4    0    0  0.10128186212E+03  0.14324966275E+03  0.22026254353E+03  0.28159202680E+03  0.00000000000E+00 0.  1.
         11    1    4    4    0    0  0.28491311719E+02  0.12675329916E+03  0.29836817088E+03  0.32542544320E+03  0.00000000000E+00 0. -1.
</event>
<event>
 8    1  0.7075056E-009  0.9836509E+02  0.7561462E-02  0.1283772E+00
         -1   -1    0    0    0  501 -0.00000000000E+00  0.00000000000E+00  0.10065290389E+03  0.10065290389E+03  0.00000000000E+00 0.  1.
          1   -1    0    0  501    0  0.00000000000E+00 -0.00000000000E+00 -0.17165518200E+03  0.17165518200E+03  0.00000000000E+00 0. -1.
         25    2    1    2    0    0  0.50184609041E+02 -0.36317823976E+02 -0.66578909678E+02  0.15465740415E+03  0.12509469262E+03 0.  0.
         23    2    1    2    0    0 -0.50184609041E+02  0.36317823976E+02 -0.44233684342E+01  0.11765068174E+03  0.99923157487E+02 0.  0.
          5    1    3    3  502    0  0.24403844657E+02 -0.45399542577E+02  0.26111404342E+02  0.57930509552E+02  0.41800000000E+01 0.  1.
         -5    1    3    3    0  502  0.25780764384E+02  0.90817186015E+01 -0.92690314020E+02  0.96726894595E+02  0.41800000000E+01 0.  1.
        -11    1    4    4    0    0 -0.15969673793E+02 -0.34886828871E+02  0.17758802615E+01  0.38409309555E+02  0.00000000000E+00 0.  1.
         11    1    4    4    0    0 -0.34214935248E+02  0.71204652847E+02 -0.61992486956E+01  0.79241372183E+02  0.00000000000E+00 0. -1.
</event>
<event>
 8    1  0.7075056E-009  0.4788301E+02  0.7561462E-02  0.1457106E+00
          1   -1    0    0  501    0  0.00000000000E+00  0.00000000000E+00  0.35300425495E+02  0.35300425495E+02  0.00000000000E+00 0. -1.
         -1   -1    0    0    0  501 -0.00000000000E+00 -0.00000000000E+00 -0.37307525416E+03  0.37307525416E+03  0.00000000000E+00 0.  1.
         25    2    1    2    0    0  0.15806717890E+02 -0.22091377537E+02 -0.24293180202E+03  0.27459644294E+03  0.12509782073E+03 0.  0.
         23    2    1    2    0    0 -0.15806717890E+02  0.22091377537E+02 -0.94843026644E+02  0.13377923671E+03  0.90353766830E+02 0.  0.
          5    1    3    3  502    0  0.19643066161E+01 -0.30332134005E+01  0.14778751218E+02  0.15777920382E+02  0.41800000000E+01 0.  1.
         -5    1    3    3    0  502  0.13842411274E+02 -0.19058164136E+02 -0.25771055324E+03  0.25881852256E+03  0.41800000000E+01 0.  1.
        -11    1    4    4    0    0 -0.39096110126E+02  0.11650835581E+02 -0.99767534835E+02  0.10778593973E+03  0.00000000000E+00 0.  1.
         11    1    4    4    0    0  0.23289392236E+02  0.10440541956E+02  0.49245081902E+01  0.25993296981E+02  0.00000000000E+00 0. -1.
</event>
<event>
 8    1  0.7075056E-009  0.2231274E+03  0.7561462E-02  0.1131573E+00
         -1   -1    0    0    0  501 -0.00000000000E+00  0.00000000000E+00  0.18196673679E+03  0.18196673679E+03  0.00000000000E+00 0.  1.
          1   -1    0    0  501    0  0.00000000000E+00 -0.00000000000E+00 -0.28449406056E+03  0.28449406056E+03  0.00000000000E+00 0. -1.
         25    2    1    2    0    0  0.63319211833E+02 -0.18895017232E+03 -0.42097506199E+02  0.23902116991E+03  0.12508968554E+03 0.  0.
         23    2    1    2    0    0 -0.63319211833E+02  0.18895017232E+03 -0.60429817567E+02  0.22743962744E+03  0.91463277189E+02 0.  0.
          5    1    3    3  502    0 -0.19811719193E+02 -0.12740194537E+03 -0.51448932747E+01  0.12910345552E+03  0.41800000000E+01 0.  1.
         -5    1    3    3    0  502  0.83130931026E+02 -0.61548226955E+02 -0.36952612925E+02  0.10991771439E+03  0.41800000000E+01 0.  1.
        -11    1    4    4    0    0 -0.77208438778E+02  0.11515425467E+03 -0.14459608086E+02  0.13939413780E+03  0.00000000000E+00 0.  1.
         11    1    4    4    0    0  0.13889226946E+02  0.73795917654E+02 -0.45970209481E+02  0.88045489647E+02  0.00000000000E+00 0. -1.
</event>
<event>
 8    1  0.7075056E-009  0.4643772E+03  0.7561462E-02  0.1023519E+00
         -2   -1    0    0    0  501 -0.00000000000E+00  0.00000000000E+00  0.16793757992E+03  0.16793757992E+03  0.00000000000E+00 0.  1.
          2   -1    0    0  501    0  0.00000000000E+00 -0.00000000000E+00 -0.13509556553E+04  0.13509556553E+04  0.00000000000E+00 0. -1.
         25    2    1    2    0    0 -0.23110564185E+03  0.39641757953E+03 -0.50014819349E+03  0.69018242757E+03  0.12508738075E+03 0.  0.
         23    2    1    2    0    0  0.23110564185E+03 -0.39641757953E+03 -0.68286988191E+03  0.82871080767E+03  0.99466638002E+02 0.  0.
          5    1    3    3  502    0 -0.12559895381E+03  0.12161243308E+03 -0.13372059622E+03  0.22014393322E+03  0.41800000000E+01 0.  1.
         -5    1    3    3    0  502 -0.10550668804E+03  0.27480514645E+03 -0.36642759726E+03  0.47003849435E+03  0.41800000000E+01 0.  1.
        -11    1    4    4    0    0  0.11841607443E+03 -0.22665208114E+03 -0.46310577452E+03  0.52901842214E+03  0.00000000000E+00 0.  1.
         11    1    4    4    0    0  0.11268956742E+03 -0.16976549839E+03 -0.21976410739E+03  0.29969238553E+03  0.00000000000E+00 0. -1.
</event>
<event>
 8    1  0.7075056E-009  0.2232479E+03  0.7561462E-02  0.1131485E+00
          2   -1    0    0  501    0  0.00000000000E+00  0.00000000000E+00  0.65423640392E+03  0.65423640392E+03  0.00000000000E+00 0. -1.
         -2   -1    0    0    0  501 -0.00000000000E+00 -0.00000000000E+00 -0.90537332921E+02  0.90537332921E+02  0.00000000000E+00 0.  1.
         25    2    1    2    0    0  0.20569822292E+02  0.20140866323E+03  0.16959597219E+03  0.29223080425E+03  0.12508989551E+03 0.  0.
         23    2    1    2    0    0 -0.20569822292E+02 -0.20140866323E+03  0.39410309881E+03  0.45254293259E+03  0.92137322149E+02 0.  0.
          5    1    3    3  502    0  0.62032666446E+02  0.84416125463E+02  0.11772336573E+03  0.15764008749E+03  0.41800000000E+01 0. -1.
         -5    1    3    3    0  502 -0.41462844154E+02  0.11699253777E+03  0.51872606461E+02  0.13459071676E+03  0.41800000000E+01 0. -1.
        -11    1    4    4    0    0  0.29957521231E+02 -0.96058839764E+02  0.13554756633E+03  0.16881320005E+03  0.00000000000E+00 0.  1.
         11    1    4    4    0    0 -0.50527343523E+02 -0.10534982346E+03  0.25855553249E+03  0.28372973254E+03  0.00000000000E+00 0. -1.
</event>
<event>
 8    1  0.7075056E-009  0.1424687E+03  0.7561462E-02  0.1210045E+00
          2   -1    0    0  501    0  0.00000000000E+00  0.00000000000E+00  0.67872364067E+03  0.67872364067E+03  0.00000000000E+00 0. -1.
         -2   -1    0    0    0  501 -0.00000000000E+00 -0.00000000000E+00 -0.44689097408E+02  0.44689097408E+02  0.00000000000E+00 0.  1.
         25    2    1    2    0    0 -0.10516413551E+03 -0.44030570503E+02  0.18236703515E+03  0.24880550371E+03  0.12509299194E+03 0.  0.
         23    2    1    2    0    0  0.10516413551E+03  0.44030570503E+02  0.45166750811E+03  0.47460723437E+03  0.90831175761E+02 0.  0.
          5    1    3    3  502    0 -0.10192407601E+03  0.20376163969E+02  0.12254859975E+03  0.16074618823E+03  0.41800000000E+01 0. -1.
         -5    1    3    3    0  502 -0.32400595000E+01 -0.64406734472E+02  0.59818435395E+02  0.88059315487E+02  0.41800000000E+01 0. -1.
        -11    1    4    4    0    0  0.24358719652E+02  0.19564013161E+00  0.15535281595E+02  0.28891702484E+02  0.00000000000E+00 0.  1.
         11    1    4    4    0    0  0.80805415856E+02  0.43834930371E+02  0.43613222652E+03  0.44571553188E+03  0.00000000000E+00 0. -1.
</event>
<event>
 8    1  0.7075056E-009  0.1092698E+03  0.7561462E-02  0.1261928E+00
         -1   -1    0    0    0  501 -0.00000000000E+00  0.00000000000E+00  0.23866535252E+02  0.23866535252E+02  0.00000000000E+00 0.  1.
          1   -1    0    0  501    0  0.00000000000E+00 -0.00000000000E+00 -0.76130711406E+03  0.76130711406E+03  0.00000000000E+00 0. -1.
         25    2    1    2    0    0  0.63775192609E+02  0.34728625409E+02 -0.46605831710E+03  0.48798664843E+03  0.12508901430E+03 0.  0.
         23    2    1    2    0    0 -0.63775192609E+02 -0.34728625409E+02 -0.27138226171E+03  0.29718700088E+03  0.96945494506E+02 0.  0.
          5    1    3    3  502    0  0.28000649178E+02 -0.21801271463E+02 -0.36484352174E+03  0.36658914271E+03  0.41800000000E+01 0. -1.
         -5    1    3    3    0  502  0.35774543431E+02  0.56529896872E+02 -0.10121479535E+03  0.12139750572E+03  0.41800000000E+01 0. -1.
        -11    1    4    4    0    0 -0.26144496897E+02  0.30685070705E+02 -0.56259843739E+02  0.69211836414E+02  0.00000000000E+00 0.  1.
         11    1    4    4    0    0 -0.37630695711E+02 -0.65413696114E+02 -0.21512241797E+03  0.22797516446E+03  0.00000000000E+00 0. -1.
</event>
<event>
 8    1  0.7075056E-009  0.1517716E+03  0.7561462E-02  0.1198313E+00
          2   -1    0    0  501    0  0.00000000000E+00  0.00000000000E+00  0.87348544784E+02  0.87348544784E+02  0.00000000000E+00 0. -1.
         -2   -1    0    0    0  501 -0.00000000000E+00 -0.00000000000E+00 -0.39833276415E+03  0.39833276415E+03  0.00000000000E+00 0.  1.
         25    2    1    2    0    0 -0.11810599222E+03 -0.89190912374E+02 -0.12440572387E+03  0.23027814941E+03  0.12508875934E+03 0.  0.
         23    2    1    2    0    0  0.11810599222E+03  0.89190912374E+02 -0.18657849550E+03  0.25540315953E+03  0.92277812420E+02 0.  0.
          5    1    3    3  502    0 -0.74572725639E+02 -0.28284900724E+02 -0.13265808154E+03  0.15484432833E+03  0.41800000000E+01 0. -1.
         -5    1    3    3    0  502 -0.43533266584E+02 -0.60906011650E+02  0.82523576751E+01  0.75433821074E+02  0.41800000000E+01 0. -1.
        -11    1    4    4    0    0  0.56492395703E+02  0.33719637786E+02 -0.15190307144E+03  0.16553835766E+03  0.00000000000E+00 0.  1.
         11    1    4    4    0    0  0.61613596520E+02  0.55471274588E+02 -0.34675424058E+02  0.89864801865E+02  0.00000000000E+00 0. -1.
</event>
<event>
 8    1  0.7075056E-009  0.1955244E+03  0.7561462E-02  0.1153571E+00
         -2   -1    0    0    0  501 -0.00000000000E+00  0.00000000000E+00  0.19760975968E+04  0.19760975968E+04  0.00000000000E+00 0.  1.
          2   -1    0    0  501    0  0.00000000000E+00 -0.00000000000E+00 -0.24494805979E+02  0.24494805979E+02  0.00000000000E+00 0. -1.
         25    2    1    2    0    0 -0.60577082675E+02 -0.15848166025E+03  0.14061039272E+04  0.14218161332E+04  0.12508734154E+03 0.  0.
         23    2    1    2    0    0  0.60577082675E+02  0.15848166025E+03  0.54549886367E+03  0.57877626960E+03  0.92881324368E+02 0.  0.
          5    1    3    3  502    0 -0.22315461122E+01  0.14877160253E+02  0.32225711845E+03  0.32263513833E+03  0.41800000000E+01 0. -1.
         -5    1    3    3    0  502 -0.58345536563E+02 -0.17335882050E+03  0.10838468087E+04  0.10991809949E+04  0.41800000000E+01 0. -1.
        -11    1    4    4    0    0 -0.10538230913E+02 -0.68001621341E+01  0.52230210476E+02  0.53714908566E+02  0.00000000000E+00 0.  1.
         11    1    4    4    0    0  0.71115313588E+02  0.16528182238E+03  0.49326865319E+03  0.52506136104E+03  0.00000000000E+00 0. -1.
</event>
<event>
 8    1  0.7075056E-009  0.1157427E+03  0.7561462E-02  0.1250290E+00
         -2   -1    0    0    0  501 -0.00000000000E+00  0.00000000000E+00  0.29925636463E+03  0.29925636463E+03  0.00000000000E+00 0.  1.
          2   -1    0    0  501    0  0.00000000000E+00 -0.00000000000E+00 -0.50663092809E+02  0.50663092809E+02  0.00000000000E+00 0. -1.
         25    2    1    2    0    0 -0.27943628062E+02 -0.42597871966E+02  0.18794834479E+03  0.23144071274E+03  0.12507916757E+03 0.  0.
         23    2    1    2    0    0  0.27943628062E+02  0.42597871966E+02  0.60644927031E+02  0.11847874470E+03  0.88113453711E+02 0.  0.
          5    1    3    3  502    0 -0.57652734409E+02 -0.72286623255E+02  0.12187465588E+03  0.15303626313E+03  0.41800000000E+01 0. -1.
         -5    1    3    3    0  502  0.29709106347E+02  0.29688751289E+02  0.66073688901E+02  0.78404449606E+02  0.41800000000E+01 0. -1.
        -11    1    4    4    0    0  0.24262235251E+02  0.67406825098E+02  0.59907002096E+02  0.93387285159E+02  0.00000000000E+00 0.  1.
         11    1    4    4    0    0  0.36813928108E+01 -0.24808953132E+02  0.73792493523E+00  0.25091459538E+02  0.00000000000E+00 0. -1.
</event>
<event>
 8    1  0.7075056E-009  0.8962111E+02  0.7561462E-02  0.1303772E+00
          2   -1    0    0  501    0  0.00000000000E+00  0.00000000000E+00  0.34721819470E+03  0.34721819470E+03  0.00000000000E+00 0. -1.
         -2   -1    0    0    0  501 -0.00000000000E+00 -0.00000000000E+00 -0.40527633720E+02  0.40527633720E+02  0.00000000000E+00 0.  1.
         25    2    1    2    0    0 -0.14106791000E+02  0.12067591087E+02  0.98082403392E+02  0.16003824099E+03  0.12508977743E+03 0.  0.
         23    2    1    2    0    0  0.14106791000E+02 -0.12067591087E+02  0.20860815758E+03  0.22770758743E+03  0.89379828010E+02 0.  0.
          5    1    3    3  502    0 -0.31351434388E+02 -0.42600643472E+02  0.86393993511E+02  0.10138600385E+03  0.41800000000E+01 0. -1.
         -5    1    3    3    0  502  0.17244643388E+02  0.54668234560E+02  0.11688409881E+02  0.58652237135E+02  0.41800000000E+01 0. -1.
        -11    1    4    4    0    0  0.16717701987E+02  0.25804167396E+02  0.17282746605E+03  0.17554107678E+03  0.00000000000E+00 0. -1.
         11    1    4    4    0    0 -0.26109109871E+01 -0.37871758483E+02  0.35780691529E+02  0.52166510647E+02  0.00000000000E+00 0.  1.
</event>
<event>
 8    1  0.7075056E-009  0.2160165E+03  0.7561462E-02  0.1136888E+00
         -2   -1    0    0    0  501 -0.00000000000E+00  0.00000000000E+00  0.13358954116E+03  0.13358954116E+03  0.00000000000E+00 0.  1.
          2   -1    0    0  501    0  0.00000000000E+00 -0.00000000000E+00 -0.84830449158E+03  0.84830449158E+03  0.00000000000E+00 0. -1.
         25    2    1    2    0    0  0.47004033550E+02 -0.19520103850E+03 -0.25279322395E+01  0.23657340960E+03  0.12509101920E+03 0.  0.
         23    2    1    2    0    0 -0.47004033550E+02  0.19520103850E+03 -0.71218701818E+03  0.74532062314E+03  0.89328930408E+02 0.  0.
          5    1    3    3  502    0 -0.32501401169E+01 -0.15616128682E+03 -0.41713378677E+02  0.16172318719E+03  0.41800000000E+01 0.  1.
         -5    1    3    3    0  502  0.50254173667E+02 -0.39039751680E+02  0.39185446437E+02  0.74850222409E+02  0.41800000000E+01 0.  1.
        -11    1    4    4    0    0 -0.34568647162E+02  0.19648893925E+03 -0.69994635435E+03  0.72782401278E+03  0.00000000000E+00 0. -1.
         11    1    4    4    0    0 -0.12435386388E+02 -0.12879007473E+01 -0.12240663832E+02  0.17496610357E+02  0.00000000000E+00 0.  1.
</event>
<event>
 8    1  0.7075056E-009  0.1042917E+03  0.7561462E-02  0.1271521E+00
         -2   -1    0    0    0  501 -0.00000000000E+00  0.00000000000E+00  0.15226727290E+02  0.15226727290E+02  0.00000000000E+00 0. -1.
          2   -1    0    0  501    0  0.00000000000E+00 -0.00000000000E+00 -0.86171321485E+03  0.86171321485E+03  0.00000000000E+00 0.  1.
         25    2    1    2    0    0  0.48133387927E+01 -0.31271309112E+02 -0.41606483171E+03  0.43561177055E+03  0.12508639996E+03 0.  0.
         23    2    1    2    0    0 -0.48133387927E+01  0.31271309112E+02 -0.43042165585E+03  0.44132817159E+03  0.92231720181E+02 0.  0.
          5    1    3    3  502    0  0.32437481171E+02 -0.62630827685E+02 -0.35190089993E+03  0.35892412364E+03  0.41800000000E+01 0. -1.
         -5    1    3    3    0  502 -0.27624142378E+02  0.31359518573E+02 -0.64163931782E+02  0.76687646912E+02  0.41800000000E+01 0. -1.
        -11    1    4    4    0    0 -0.22386296062E+02  0.58997219086E+02 -0.31856046842E+03  0.32475004258E+03  0.00000000000E+00 0.  1.
         11    1    4    4    0    0  0.17572957269E+02 -0.27725909974E+02 -0.11186118743E+03  0.11657812901E+03  0.00000000000E+00 0. -1.
</event>
<event>
 8    1  0.7075056E-009  0.1111867E+03  0.7561462E-02  0.1258388E+00
         -1   -1    0    0    0  501 -0.00000000000E+00  0.00000000000E+00  0.47317685044E+02  0.47317685044E+02  0.00000000000E+00 0.  1.
          1   -1    0    0  501    0  0.00000000000E+00 -0.00000000000E+00 -0.84692724611E+03  0.84692724611E+03  0.00000000000E+00 0. -1.
         25    2    1    2    0    0 -0.12504569437E+02  0.80177148845E+02 -0.74925257835E+03  0.76394460893E+03  0.12508876802E+03 0.  0.
         23    2    1    2    0    0  0.12504569437E+02 -0.80177148845E+02 -0.50356982717E+02  0.13030032223E+03  0.88643154344E+02 0.  0.
          5    1    3    3  502    0  0.21192246340E+02 -0.60419289286E+01 -0.24204990187E+02  0.32999547877E+02  0.41800000000E+01 0.  1.
         -5    1    3    3    0  502 -0.33696815778E+02  0.86219077773E+02 -0.72504758817E+03  0.73094506105E+03  0.41800000000E+01 0.  1.
        -11    1    4    4    0    0 -0.76651781330E+01  0.11272553566E+02  0.11694268463E+02  0.17960549396E+02  0.00000000000E+00 0.  1.
         11    1    4    4    0    0  0.20169747570E+02 -0.91449702411E+02 -0.62051251180E+02  0.11233977284E+03  0.00000000000E+00 0. -1.
</event>
<event>
 8    1  0.7075056E-009  0.1004347E+03  0.7561462E-02  0.1279384E+00
         -1   -1    0    0    0  501 -0.00000000000E+00  0.00000000000E+00  0.13642629331E+03  0.13642629331E+03  0.00000000000E+00 0.  1.
          1   -1    0    0  501    0  0.00000000000E+00 -0.00000000000E+00 -0.98513079236E+02  0.98513079236E+02  0.00000000000E+00 0. -1.
         25    2    1    2    0    0 -0.16855728115E+02  0.20407712829E+02 -0.14961671039E+02  0.12872870782E+03  0.12508652327E+03 0.  0.
         23    2    1    2    0    0  0.16855728115E+02 -0.20407712829E+02  0.52874885113E+02  0.10621066473E+03  0.88229028745E+02 0.  0.
          5    1    3    3  502    0 -0.29525715265E+02  0.67229224711E+02  0.96495279143E+01  0.74176292076E+02  0.41800000000E+01 0. -1.
         -5    1    3    3    0  502  0.12669987149E+02 -0.46821511883E+02 -0.24611198953E+02  0.54552415742E+02  0.41800000000E+01 0. -1.
        -11    1    4    4    0    0 -0.17219603155E+02 -0.36945840467E+02  0.54785519768E+02  0.68285891931E+02  0.00000000000E+00 0. -1.
         11    1    4    4    0    0  0.34075331270E+02  0.16538127639E+02 -0.19106346546E+01  0.37924772798E+02  0.00000000000E+00 0.  1.
</event>
<event>
 8    1  0.7075056E-009  0.1014077E+03  0.7561462E-02  0.1277363E+00
         -2   -1    0    0    0  501 -0.00000000000E+00  0.00000000000E+00  0.16180640460E+03  0.16180640460E+03  0.00000000000E+00 0.  1.
          2   -1    0    0  501    0  0.00000000000E+00 -0.00000000000E+00 -0.10732367998E+03  0.10732367998E+03  0.00000000000E+00 0. -1.
         25    2    1    2    0    0 -0.64913909007E+02 -0.17240218028E+02  0.64638680616E+02  0.15600264076E+03  0.12509046404E+03 0.  0.
         23    2    1    2    0    0  0.64913909007E+02  0.17240218028E+02 -0.10155955999E+02  0.11312744382E+03  0.90463442357E+02 0.  0.
          5    1    3    3  502    0 -0.15176146705E+02 -0.51356953296E+02  0.77398761216E+02  0.94211956345E+02  0.41800000000E+01 0.  1.
         -5    1    3    3    0  502 -0.49737762302E+02  0.34116735267E+02 -0.12760080600E+02  0.61790684419E+02  0.41800000000E+01 0.  1.
        -11    1    4    4    0    0  0.39036020274E+02 -0.19552922171E+02 -0.39945250223E+02  0.59175591756E+02  0.00000000000E+00 0. -1.
         11    1    4    4    0    0  0.25877888732E+02  0.36793140199E+02  0.29789294224E+02  0.53951852065E+02  0.00000000000E+00 0.  1.
</event>
<event>
 8    1  0.7075056E-009  0.3170876E+03  0.7561462E-02  0.1076998E+00
         -2   -1    0    0    0  501 -0.00000000000E+00  0.00000000000E+00  0.65500880658E+02  0.65500880658E+02  0.00000000000E+00 0.  1.
          2   -1    0    0  501    0  0.00000000000E+00 -0.00000000000E+00 -0.16749349641E+04  0.16749349641E+04  0.00000000000E+00 0. -1.
         25    2    1    2    0    0 -0.19815584371E+03 -0.22676319215E+03 -0.59737463618E+03  0.68058143575E+03  0.12508937215E+03 0.  0.
         23    2    1    2    0    0  0.19815584371E+03  0.22676319215E+03 -0.10120594473E+04  0.10598544090E+04  0.91322285297E+02 0.  0.
          5    1    3    3  502    0 -0.20146869898E+03 -0.17301289691E+03 -0.43726888393E+03  0.51160985958E+03  0.41800000000E+01 0.  1.
         -5    1    3    3    0  502  0.33128552769E+01 -0.53750295240E+02 -0.16010575225E+03  0.16897157617E+03  0.41800000000E+01 0.  1.
        -11    1    4    4    0    0  0.93434406951E+02  0.42548610400E+02 -0.31675698705E+03  0.33297952114E+03  0.00000000000E+00 0. -1.
         11    1    4    4    0    0  0.10472143676E+03  0.18421458175E+03 -0.69530246022E+03  0.72687488789E+03  0.00000000000E+00 0.  1.
</event>
<event>
 8    1  0.7075056E-009  0.9059355E+02  0.7561462E-02  0.1301421E+00
         -1   -1    0    0    0  501 -0.00000000000E+00  0.00000000000E+00  0.18051055560E+03  0.18051055560E+03  0.00000000000E+00 0.  1.
          1   -1    0    0  501    0  0.00000000000E+00 -0.00000000000E+00 -0.17329596255E+03  0.17329596255E+03  0.00000000000E+00 0. -1.
         25    2    1    2    0    0  0.40921953848E+02  0.79488221444E+01 -0.12916211846E+03  0.18457493362E+03  0.12508902109E+03 0.  0.
         23    2    1    2    0    0 -0.40921953848E+02 -0.79488221444E+01  0.13637671151E+03  0.16923158452E+03  0.91120424041E+02 0.  0.
          5    1    3    3  502    0 -0.12997700395E+02 -0.24417263861E+02 -0.11711158789E+03  0.12040655883E+03  0.41800000000E+01 0.  1.
         -5    1    3    3    0  502  0.53919654243E+02  0.32366086005E+02 -0.12050530572E+02  0.64168374797E+02  0.41800000000E+01 0.  1.
        -11    1    4    4    0    0  0.17171630425E+02  0.19457777444E+02  0.78823642542E+02  0.82985761538E+02  0.00000000000E+00 0. -1.
         11    1    4    4    0    0 -0.58093584273E+02 -0.27406599588E+02  0.57553068970E+02  0.86245822986E+02  0.00000000000E+00 0.  1.
</event>
<event>
 8    1  0.7075056E-009  0.1447403E+03  0.7561462E-02  0.1207089E+00
          2   -1    0    0  501    0  0.00000000000E+00  0.00000000000E+00  0.70399692106E+03  0.70399692106E+03  0.00000000000E+00 0.  1.
         -2   -1    0    0    0  501 -0.00000000000E+00 -0.00000000000E+00 -0.31061407063E+02  0.31061407063E+02  0.00000000000E+00 0. -1.
         25    2    1    2    0    0 -0.65681604477E+02  0.74407555771E+02  0.40769340813E+03  0.43785086308E+03  0.12509558643E+03 0.  0.
         23    2    1    2    0    0  0.65681604477E+02 -0.74407555771E+02  0.26524210588E+03  0.29720746505E+03  0.90157334868E+02 0.  0.
          5    1    3    3  502    0  0.11555079903E+01 -0.30570240768E+02  0.46689955844E+02  0.55975880485E+02  0.41800000000E+01 0. -1.
         -5    1    3    3    0  502 -0.66837112468E+02  0.10497779654E+03  0.36100345228E+03  0.38187498259E+03  0.41800000000E+01 0. -1.
        -11    1    4    4    0    0  0.63473921692E+02 -0.39539230785E+01  0.12550991443E+03  0.14070291703E+03  0.00000000000E+00 0. -1.
         11    1    4    4    0    0  0.22076827856E+01 -0.70453632693E+02  0.13973219145E+03  0.15650454802E+03  0.00000000000E+00 0.  1.
</event>
<event>
 8    1  0.7075056E-009  0.1354654E+03  0.7561462E-02  0.1219564E+00
          1   -1    0    0  501    0  0.00000000000E+00  0.00000000000E+00  0.47152741658E+03  0.47152741658E+03  0.00000000000E+00 0. -1.
         -1   -1    0    0    0  501 -0.00000000000E+00 -0.00000000000E+00 -0.55661169879E+02  0.55661169879E+02  0.00000000000E+00 0.  1.
         25    2    1    2    0    0 -0.10060814521E+03  0.59829190123E+02  0.26782302523E+03  0.31792817884E+03  0.12509045999E+03 0.  0.
         23    2    1    2    0    0  0.10060814521E+03 -0.59829190123E+02  0.14804322147E+03  0.20926040762E+03  0.90396857808E+02 0.  0.
          5    1    3    3  502    0 -0.10665818189E+03  0.45518192312E+02  0.27634587421E+03  0.29972051680E+03  0.41800000000E+01 0.  1.
         -5    1    3    3    0  502  0.60500366810E+01  0.14310997811E+02 -0.85228489801E+01  0.18207662039E+02  0.41800000000E+01 0.  1.
        -11    1    4    4    0    0  0.33160999177E+02 -0.63090800754E+02  0.39668892906E+02  0.81570350438E+02  0.00000000000E+00 0.  1.
         11    1    4    4    0    0  0.67447146035E+02  0.32616106311E+01  0.10837432857E+03  0.12769005719E+03  0.00000000000E+00 0. -1.
</event>
<event>
 8    1  0.7075056E-009  0.2269456E+03  0.7561462E-02  0.1128808E+00
         -2   -1    0    0    0  501 -0.00000000000E+00  0.00000000000E+00  0.24464962330E+03  0.24464962330E+03  0.00000000000E+00 0.  1.
          2   -1    0    0  501    0  0.00000000000E+00 -0.00000000000E+00 -0.31293819574E+03  0.31293819574E+03  0.00000000000E+00 0. -1.
         25    2    1    2    0    0 -0.21738845204E+03 -0.18920824887E+02  0.96565252381E+02  0.26942056901E+03  0.12508740281E+03 0.  0.
         23    2    1    2    0    0  0.21738845204E+03  0.18920824887E+02 -0.16485382483E+03  0.28816725003E+03  0.90817639995E+02 0.  0.
          5    1    3    3  502    0 -0.16670168805E+03 -0.10314405772E+01  0.95166247162E+01  0.16702860598E+03  0.41800000000E+01 0. -1.
         -5    1    3    3    0  502 -0.50686763990E+02 -0.17889384310E+02  0.87048627665E+02  0.10239196303E+03  0.41800000000E+01 0. -1.
        -11    1    4    4    0    0  0.11158903486E+03 -0.31601058126E+02 -0.58605020728E+02  0.12994340318E+03  0.00000000000E+00 0.  1.
         11    1    4    4    0    0  0.10579941718E+03  0.50521883013E+02 -0.10624880410E+03  0.15822384685E+03  0.00000000000E+00 0. -1.
</event>
<event>
 8    1  0.7075056E-009  0.8998823E+02  0.7561462E-02  0.1302880E+00
         -1   -1    0    0    0  501 -0.00000000000E+00  0.00000000000E+00  0.85932467619E+03  0.85932467619E+03  0.00000000000E+00 0. -1.
          1   -1    0    0  501    0  0.00000000000E+00 -0.00000000000E+00 -0.22604538660E+02  0.22604538660E+02  0.00000000000E+00 0.  1.
         25    2    1    2    0    0  0.13680391179E+02 -0.63990000744E+02  0.64497010347E+03  0.66023847619E+03  0.12508612147E+03 0.  0.
         23    2    1    2    0    0 -0.13680391179E+02  0.63990000744E+02  0.19175003406E+03  0.22169073865E+03  0.89982413526E+02 0.  0.
          5    1    3    3  502    0 -0.30591520863E+02 -0.11002981470E+02  0.48305468362E+03  0.48416547432E+03  0.41800000000E+01 0. -1.
         -5    1    3    3    0  502  0.44271912042E+02 -0.52987019274E+02  0.16191541984E+03  0.17607300188E+03  0.41800000000E+01 0. -1.
        -11    1    4    4    0    0 -0.15744417311E+02  0.18530332137E+01 -0.39623727060E+01  0.16340771279E+02  0.00000000000E+00 0.  1.
         11    1    4    4    0    0  0.20640261313E+01  0.62136967530E+02  0.19571240677E+03  0.20534996737E+03  0.00000000000E+00 0. -1.
</event>
<event>
 8    1  0.7075056E-009  0.1287838E+03  0.7561462E-02  0.1229272E+00
          2   -1    0    0  501    0  0.00000000000E+00  0.00000000000E+00  0.21936214660E+03  0.21936214660E+03  0.00000000000E+00 0. -1.
         -2   -1    0    0    0  501 -0.00000000000E+00 -0.00000000000E+00 -0.10184428980E+03  0.10184428980E+03  0.00000000000E+00 0.  1.
         25    2    1    2    0    0  0.26712662582E+02 -0.95800878366E+02  0.80843962931E+02  0.17909166785E+03  0.12508678793E+03 0.  0.
         23    2    1    2    0    0 -0.26712662582E+02  0.95800878366E+02  0.36673893866E+02  0.14211476855E+03  0.94658640971E+02 0.  0.
          5    1    3    3  502    0  0.65676786377E+02 -0.78264162280E+02  0.88796161148E+02  0.13542876357E+03  0.41800000000E+01 0. -1.
         -5    1    3    3    0  502 -0.38964123795E+02 -0.17536716087E+02 -0.79521982174E+01  0.43662904286E+02  0.41800000000E+01 0. -1.
        -11    1    4    4    0    0 -0.42702591426E+02  0.71836479484E+02 -0.13113611443E+02  0.84592895117E+02  0.00000000000E+00 0.  1.
         11    1    4    4    0    0  0.15989928844E+02  0.23964398882E+02  0.49787505309E+02  0.57521873432E+02  0.00000000000E+00 0. -1.
</event>
<event>
 8    1  0.7075056E-009  0.2707453E+03  0.7561462E-02  0.1100854E+00
         -2   -1    0    0    0  501 -0.00000000000E+00  0.00000000000E+00  0.24249057345E+03  0.24249057345E+03  0.00000000000E+00 0. -1.
          2   -1    0    0  501    0  0.00000000000E+00 -0.00000000000E+00 -0.54738106611E+03  0.54738106611E+03  0.00000000000E+00 0.  1.
         25    2    1    2    0    0  0.15118214611E+03 -0.20442835442E+03 -0.41153427185E+03  0.49965593322E+03  0.12509436960E+03 0.  0.
         23    2    1    2    0    0 -0.15118214611E+03  0.20442835442E+03  0.10664377919E+03  0.29021570634E+03  0.90582929806E+02 0.  0.
          5    1    3    3  502    0  0.12991871721E+02  0.14089654823E+02 -0.98805540855E+01  0.21963716736E+02  0.41800000000E+01 0. -1.
         -5    1    3    3    0  502  0.13819027439E+03 -0.21851800925E+03 -0.40165371776E+03  0.47769221649E+03  0.41800000000E+01 0. -1.
        -11    1    4    4    0    0 -0.15544378723E+02  0.72250481054E+02  0.59931195911E+02  0.95149923624E+02  0.00000000000E+00 0. -1.
         11    1    4    4    0    0 -0.13563776739E+03  0.13217787337E+03  0.46712583279E+02  0.19506578272E+03  0.00000000000E+00 0.  1.
</event>
<event>
 8    1  0.7075056E-009  0.9336938E+02  0.7561462E-02  0.1294891E+00
          3   -1    0    0  501    0  0.00000000000E+00  0.00000000000E+00  0.44146284440E+02  0.44146284440E+02  0.00000000000E+00 0. -1.
         -3   -1    0    0    0  501 -0.00000000000E+00 -0.00000000000E+00 -0.33134652831E+03  0.33134652831E+03  0.00000000000E+00 0.  1.
         25    2    1    2    0    0  0.20651918100E+02  0.18737316420E+02 -0.23288000456E+03  0.26581599489E+03  0.12508979921E+03 0.  0.
         23    2    1    2    0    0 -0.20651918100E+02 -0.18737316420E+02 -0.54320239307E+02  0.10967681786E+03  0.91108326895E+02 0.  0.
          5    1    3    3  502    0  0.48579740657E+02 -0.38696675320E+02 -0.92008945357E+02  0.11108799354E+03  0.41800000000E+01 0.  1.
         -5    1    3    3    0  502 -0.27927822556E+02  0.57433991740E+02 -0.14087105920E+03  0.15472800135E+03  0.41800000000E+01 0.  1.
        -11    1    4    4    0    0  0.16590482504E+02 -0.16156431050E+02 -0.66493359229E+02  0.70410519069E+02  0.00000000000E+00 0.  1.
         11    1    4    4    0    0 -0.37242400605E+02 -0.25808853703E+01  0.12173119922E+02  0.39266298791E+02  0.00000000000E+00 0. -1.
</event>
<event>
 8    1  0.7075056E-009  0.1418807E+03  0.7561462E-02  0.1210821E+00
         -2   -1    0    0    0  501 -0.00000000000E+00  0.00000000000E+00  0.44663031306E+02  0.44663031306E+02  0.00000000000E+00 0.  1.
          2   -1    0    0  501    0  0.00000000000E+00 -0.00000000000E+00 -0.55741922088E+03  0.55741922088E+03  0.00000000000E+00 0. -1.
         25    2    1    2    0    0  0.61007979575E+02  0.96828704298E+02 -0.25334644154E+03  0.30484997755E+03  0.12510522701E+03 0.  0.
         23    2    1    2    0    0 -0.61007979575E+02 -0.96828704298E+02 -0.25940974803E+03  0.29723227463E+03  0.89195494051E+02 0.  0.
          5    1    3    3  502    0 -0.66372489161E+01 -0.13658808146E+02 -0.11187210231E+03  0.11297546542E+03  0.41800000000E+01 0. -1.
         -5    1    3    3    0  502  0.67645228491E+02  0.11048751244E+03 -0.14147433923E+03  0.19187451213E+03  0.41800000000E+01 0. -1.
        -11    1    4    4    0    0  0.64078780140E+01 -0.62337001855E+02 -0.74091021214E+02  0.97038353889E+02  0.00000000000E+00 0.  1.
         11    1    4    4    0    0 -0.67415857589E+02 -0.34491702444E+02 -0.18531872682E+03  0.20019392074E+03  0.00000000000E+00 0. -1.
</event>
<event>
 8    1  0.7075056E-009  0.9644108E+02  0.7561462E-02  0.1287963E+00
         -1   -1    0    0    0  501 -0.00000000000E+00  0.00000000000E+00  0.18589992152E+03  0.18589992152E+03  0.00000000000E+00 0.  1.
          1   -1    0    0  501    0  0.00000000000E+00 -0.00000000000E+00 -0.24542046743E+03  0.24542046743E+03  0.00000000000E+00 0. -1.
         25    2    1    2    0    0  0.25994421397E+02 -0.54281573106E+01 -0.21452840800E+03  0.24975022425E+03  0.12509021480E+03 0.  0.
         23    2    1    2    0    0 -0.25994421397E+02  0.54281573106E+01  0.15500786209E+03  0.18157016471E+03  0.90747520984E+02 0.  0.
          5    1    3    3  502    0  0.67000652617E+02  0.24332937806E+02 -0.15993149022E+03  0.17514774699E+03  0.41800000000E+01 0. -1.
         -5    1    3    3    0  502 -0.41006231220E+02 -0.29761095116E+02 -0.54596917785E+02  0.74602477258E+02  0.41800000000E+01 0. -1.
        -11    1    4    4    0    0 -0.40999065087E+02  0.23414551326E+02  0.15048033938E+03  0.15771333835E+03  0.00000000000E+00 0.  1.
         11    1    4    4    0    0  0.15004643691E+02 -0.17986394016E+02  0.45275227105E+01  0.23856826358E+02  0.00000000000E+00 0. -1.
</event>
<event>
 8    1  0.7075056E-009  0.8951022E+02  0.7561462E-02  0.1304042E+00
          2   -1    0    0  501    0  0.00000000000E+00  0.00000000000E+00  0.52294704450E+03  0.52294704450E+03  0.00000000000E+00 0. -1.
         -2   -1    0    0    0  501 -0.00000000000E+00 -0.00000000000E+00 -0.28863305676E+02  0.28863305676E+02  0.00000000000E+00 0.  1.
         25    2    1    2    0    0  0.19558142929E+01 -0.45792987979E+02  0.35423659055E+03  0.37846033713E+03  0.12509133359E+03 0.  0.
         23    2    1    2    0    0 -0.19558142929E+01  0.45792987979E+02  0.13984714827E+03  0.17335001304E+03  0.91608837916E+02 0.  0.
          5    1    3    3  502    0 -0.10102130782E+02  0.14780811395E+02 -0.47179879492E+00  0.18390770129E+02  0.41800000000E+01 0.  1.
         -5    1    3    3    0  502  0.12057945075E+02 -0.60573799374E+02  0.35470838935E+03  0.36006956700E+03  0.41800000000E+01 0.  1.
        -11    1    4    4    0    0  0.41709251145E+02  0.11657562532E+02  0.39019064543E+02  0.58292776509E+02  0.00000000000E+00 0.  1.
         11    1    4    4    0    0 -0.43665065438E+02  0.34135425447E+02  0.10082808373E+03  0.11505723654E+03  0.00000000000E+00 0. -1.
</event>
<event>
 8    1  0.7075056E-009  0.9905855E+02  0.7561462E-02  0.1282288E+00
          1   -1    0    0  501    0  0.00000000000E+00  0.00000000000E+00  0.11103387350E+03  0.11103387350E+03  0.00000000000E+00 0. -1.
         -1   -1    0    0    0  501 -0.00000000000E+00 -0.00000000000E+00 -0.12865133632E+03  0.12865133632E+03  0.00000000000E+00 0.  1.
         25    2    1    2    0    0 -0.10844905608E+02  0.23366538124E+02  0.31790110457E+02  0.13160959368E+03  0.12508743720E+03 0.  0.
         23    2    1    2    0    0  0.10844905608E+02 -0.23366538124E+02 -0.49407573279E+02  0.10807561615E+03  0.92604662014E+02 0.  0.
          5    1    3    3  502    0 -0.52430251295E+02 -0.14305726612E+02  0.48449922195E+02  0.72927720556E+02  0.41800000000E+01 0. -1.
         -5    1    3    3    0  502  0.41585345687E+02  0.37672264736E+02 -0.16659811738E+02  0.58681873124E+02  0.41800000000E+01 0. -1.
        -11    1    4    4    0    0 -0.34689609294E+02 -0.23335062085E+02 -0.12890259472E+01  0.41827690629E+02  0.00000000000E+00 0. -1.
         11    1    4    4    0    0  0.45534514902E+02 -0.31476038836E-01 -0.48118547332E+02  0.66247925518E+02  0.00000000000E+00 0.  1.
</event>
<event>
 8    1  0.7075056E-009  0.1208539E+03  0.7561462E-02  0.1241695E+00
         -1   -1    0    0    0  501 -0.00000000000E+00  0.00000000000E+00  0.29572010597E+03  0.29572010597E+03  0.00000000000E+00 0. -1.
          1   -1    0    0  501    0  0.00000000000E+00 -0.00000000000E+00 -0.79966014451E+02  0.79966014451E+02  0.00000000000E+00 0.  1.
         25    2    1    2    0    0 -0.81541040931E+02 -0.21280523189E+02  0.34320691280E+02  0.15468701271E+03  0.12509340522E+03 0.  0.
         23    2    1    2    0    0  0.81541040931E+02  0.21280523189E+02  0.18143340024E+03  0.22099910771E+03  0.93918714122E+02 0.  0.
          5    1    3    3  502    0 -0.47099831583E+02 -0.73577932816E+02  0.26818637529E+02  0.91481244260E+02  0.41800000000E+01 0.  1.
         -5    1    3    3    0  502 -0.34441209349E+02  0.52297409627E+02  0.75020537504E+01  0.63205768452E+02  0.41800000000E+01 0.  1.
        -11    1    4    4    0    0  0.40134545298E+02  0.28806064521E+02  0.18555317360E+02  0.52771875860E+02  0.00000000000E+00 0.  1.
         11    1    4    4    0    0  0.41406495633E+02 -0.75255413324E+01  0.16287808288E+03  0.16822723185E+03  0.00000000000E+00 0. -1.
</event>
<event>
 8    1  0.7075056E-009  0.1022193E+03  0.7561462E-02  0.1275697E+00
         -2   -1    0    0    0  501 -0.00000000000E+00  0.00000000000E+00  0.37573387436E+02  0.37573387436E+02  0.00000000000E+00 0.  1.
          2   -1    0    0  501    0  0.00000000000E+00 -0.00000000000E+00 -0.48560185185E+03  0.48560185185E+03  0.00000000000E+00 0. -1.
         25    2    1    2    0    0  0.31510972084E+02  0.17542161281E+01 -0.10468813294E+03  0.16614455525E+03  0.12509352272E+03 0.  0.
         23    2    1    2    0    0 -0.31510972084E+02 -0.17542161281E+01 -0.34334033148E+03  0.35703068404E+03  0.92694700442E+02 0.  0.
          5    1    3    3  502    0  0.64661129022E+02 -0.22351401235E+02 -0.10446401600E+03  0.12494338631E+03  0.41800000000E+01 0. -1.
         -5    1    3    3    0  502 -0.33150156938E+02  0.24105617363E+02 -0.22411693445E+00  0.41201168938E+02  0.41800000000E+01 0. -1.
        -11    1    4    4    0    0  0.31368123465E+02 -0.48459547389E+01 -0.16181255995E+03  0.16489617038E+03  0.00000000000E+00 0. -1.
         11    1    4    4    0    0 -0.62879095549E+02  0.30917386108E+01 -0.18152777153E+03  0.19213451366E+03  0.00000000000E+00 0.  1.
</event>
<event>
 8    1  0.7075056E-009  0.1638617E+03  0.7561462E-02  0.1184405E+00
          2   -1    0    0  501    0  0.00000000000E+00  0.00000000000E+00  0.13685773987E+04  0.13685773987E+04  0.00000000000E+00 0. -1.
         -2   -1    0    0    0  501 -0.00000000000E+00 -0.00000000000E+00 -0.25018300290E+02  0.25018300290E+02  0.00000000000E+00 0.  1.
         25    2    1    2    0    0  0.13969367036E+03 -0.30738447802E+02  0.84156539359E+03  0.86275050439E+03  0.12508775889E+03 0.  0.
         23    2    1    2    0    0 -0.13969367036E+03  0.30738447802E+02  0.50199370483E+03  0.53084519462E+03  0.96642471197E+02 0.  0.
          5    1    3    3  502    0  0.49588991240E+02  0.44819310190E+02  0.21349416022E+03  0.22375224573E+03  0.41800000000E+01 0.  1.
         -5    1    3    3    0  502  0.90104679124E+02 -0.75557757992E+02  0.62807123337E+03  0.63899825866E+03  0.41800000000E+01 0.  1.
        -11    1    4    4    0    0 -0.41726624027E+02  0.10948190475E+02  0.42319966510E+02  0.60431395754E+02  0.00000000000E+00 0.  1.
         11    1    4    4    0    0 -0.97967046337E+02  0.19790257327E+02  0.45967373833E+03  0.47041379886E+03  0.00000000000E+00 0. -1.
</event>
<event>
 8    1  0.7075056E-009  0.1023310E+03  0.7561462E-02  0.1275469E+00
         -3   -1    0    0    0  501 -0.00000000000E+00  0.00000000000E+00  0.52120630040E+02  0.52120630040E+02  0.00000000000E+00 0.  1.
          3   -1    0    0  501    0  0.00000000000E+00 -0.00000000000E+00 -0.35181852651E+03  0.35181852651E+03  0.00000000000E+00 0. -1.
         25    2    1    2    0    0  0.28825137166E+02 -0.26765759102E+02 -0.27026532750E+03  0.30039482367E+03  0.12508560445E+03 0.  0.
         23    2    1    2    0    0 -0.28825137166E+02  0.26765759102E+02 -0.29432568964E+02  0.10354433288E+03  0.91147453959E+02 0.  0.
          5    1    3    3  502    0 -0.39471149365E+02 -0.18796139425E+02 -0.37822868154E+02  0.57959539723E+02  0.41800000000E+01 0. -1.
         -5    1    3    3    0  502  0.68296286531E+02 -0.79696196768E+01 -0.23244245935E+03  0.24243528394E+03  0.41800000000E+01 0. -1.
        -11    1    4    4    0    0  0.24325271264E+02  0.29983747894E+02  0.67101916411E+01  0.39188909550E+02  0.00000000000E+00 0.  1.
         11    1    4    4    0    0 -0.53150408430E+02 -0.32179887916E+01 -0.36142760605E+02  0.64355423332E+02  0.00000000000E+00 0. -1.
</event>
<event>
 8    1  0.7075056E-009  0.1179212E+03  0.7561462E-02  0.1246566E+00
         -1   -1    0    0    0  501 -0.00000000000E+00  0.00000000000E+00  0.21433699652E+03  0.21433699652E+03  0.00000000000E+00 0.  1.
          1   -1    0    0  501    0  0.00000000000E+00 -0.00000000000E+00 -0.71686133190E+02  0.71686133190E+02  0.00000000000E+00 0. -1.
         25    2    1    2    0    0 -0.43037013470E+02  0.33754383117E+02  0.10680030622E+03  0.17334079721E+03  0.12509669725E+03 0.  0.
         23    2    1    2    0    0  0.43037013470E+02 -0.33754383117E+02  0.35850557111E+02  0.11268233249E+03  0.91763297146E+02 0.  0.
          5    1    3    3  502    0 -0.76581357875E+02  0.50320382577E+02  0.48018163568E+02  0.10353773085E+03  0.41800000000E+01 0. -1.
         -5    1    3    3    0  502  0.33544344405E+02 -0.16565999460E+02  0.58782142648E+02  0.69803066365E+02  0.41800000000E+01 0. -1.
        -11    1    4    4    0    0  0.58882651474E+02  0.10186552814E+02  0.24688866158E+02  0.64656574414E+02  0.00000000000E+00 0. -1.
         11    1    4    4    0    0 -0.15845638004E+02 -0.43940935931E+02  0.11161690953E+02  0.48025758080E+02  0.00000000000E+00 0.  1.
</event>
<event>
 8    1  0.7075056E-009  0.6954457E+02  0.7561462E-02  0.1361649E+00
         -2   -1    0    0    0  501 -0.00000000000E+00  0.00000000000E+00  0.46673650464E+02  0.46673650464E+02  0.00000000000E+00 0.  1.
          2   -1    0    0  501    0  0.00000000000E+00 -0.00000000000E+00 -0.35351836087E+03  0.35351836087E+03  0.00000000000E+00 0. -1.
         25    2    1    2    0    0  0.26226831152E+02  0.17164238434E+02 -0.80090011084E+02  0.15180439859E+03  0.12509079823E+03 0.  0.
         23    2    1    2    0    0 -0.26226831152E+02 -0.17164238434E+02 -0.22675469933E+03  0.24838761275E+03  0.96417087419E+02 0.  0.
          5    1    3    3  502    0 -0.39815981467E+01 -0.15292324036E+02  0.29380482563E+02  0.33621324391E+02  0.41800000000E+01 0.  1.
         -5    1    3    3    0  502  0.30208429299E+02  0.32456562469E+02 -0.10947049365E+03  0.11818307420E+03  0.41800000000E+01 0.  1.
        -11    1    4    4    0    0 -0.40597475467E+02  0.14760449339E+02 -0.41667556866E+02  0.60018423622E+02  0.00000000000E+00 0.  1.
         11    1    4    4    0    0  0.14370644314E+02 -0.31924687773E+02 -0.18508714246E+03  0.18836918912E+03  0.00000000000E+00 0. -1.
</event>
<event>
 8    1  0.7075056E-009  0.1251627E+03  0.7561462E-02  0.1234815E+00
          3   -1    0    0  501    0  0.00000000000E+00  0.00000000000E+00  0.69651927530E+02  0.69651927530E+02  0.00000000000E+00 0. -1.
         -3   -1    0    0    0  501 -0.00000000000E+00 -0.00000000000E+00 -0.31078823381E+03  0.31078823381E+03  0.00000000000E+00 0.  1.
         25    2    1    2    0    0 -0.79377567163E+02 -0.57739913689E+02 -0.12106104149E+03  0.19984809296E+03  0.12509511859E+03 0.  0.
         23    2    1    2    0    0  0.79377567163E+02  0.57739913689E+02 -0.12007526479E+03  0.18059206838E+03  0.92524213822E+02 0.  0.
          5    1    3    3  502    0 -0.65907336967E+02  0.36014555132E+01 -0.31783403976E+01  0.66214211432E+02  0.41800000000E+01 0. -1.
         -5    1    3    3    0  502 -0.13470230196E+02 -0.61341369202E+02 -0.11788270109E+03  0.13363388153E+03  0.41800000000E+01 0. -1.
        -11    1    4    4    0    0 -0.12811844811E+02  0.68746500167E+00 -0.49720929504E+02  0.51349652446E+02  0.00000000000E+00 0.  1.
         11    1    4    4    0    0  0.92189411974E+02  0.57052448687E+02 -0.70354335288E+02  0.12924241593E+03  0.00000000000E+00 0. -1.
</event>
<event>
 8    1  0.7075056E-009  0.7412228E+02  0.7561462E-02  0.1346611E+00
          3   -1    0    0  501    0  0.00000000000E+00  0.00000000000E+00  0.12142859816E+03  0.12142859816E+03  0.00000000000E+00 0. -1.
         -3   -1    0    0    0  501 -0.00000000000E+00 -0.00000000000E+00 -0.12900152120E+03  0.12900152120E+03  0.00000000000E+00 0.  1.
         25    2    1    2    0    0  0.26263146323E+02 -0.61861766802E+01 -0.60638217476E+02  0.14160732436E+03  0.12509044431E+03 0.  0.
         23    2    1    2    0    0 -0.26263146323E+02  0.61861766802E+01  0.53065294429E+02  0.10882279500E+03  0.91095848434E+02 0.  0.
          5    1    3    3  502    0 -0.19782063121E+02  0.19180258743E+02 -0.80551926613E+02  0.85236715257E+02  0.41800000000E+01 0.  1.
         -5    1    3    3    0  502  0.46045209444E+02 -0.25366435423E+02  0.19913709137E+02  0.56370609101E+02  0.41800000000E+01 0.  1.
        -11    1    4    4    0    0  0.10771648188E+02 -0.19701396987E+02  0.59113353204E+02  0.63234183595E+02  0.00000000000E+00 0. -1.
         11    1    4    4    0    0 -0.37034794510E+02  0.25887573667E+02 -0.60480587747E+01  0.45588611404E+02  0.00000000000E+00 0.  1.
</event>
<event>
 8    1  0.7075056E-009  0.2409554E+03  0.7561462E-02  0.1119158E+00
          1   -1    0    0  501    0  0.00000000000E+00  0.00000000000E+00  0.82127704118E+02  0.82127704118E+02  0.00000000000E+00 0. -1.
         -1   -1    0    0    0  501 -0.00000000000E+00 -0.00000000000E+00 -0.80644509397E+03  0.80644509397E+03  0.00000000000E+00 0.  1.
         25    2    1    2    0    0 -0.13503433280E+03 -0.18279178228E+03 -0.45853827136E+03  0.52683268419E+03  0.12509286197E+03 0.  0.
         23    2    1    2    0    0  0.13503433280E+03  0.18279178228E+03 -0.26577911849E+03  0.36174011390E+03  0.92575717526E+02 0.  0.
          5    1    3    3  502    0 -0.12156660748E+01 -0.91488002928E+02 -0.11521490308E+03  0.14718518545E+03  0.41800000000E+01 0.  1.
         -5    1    3    3    0  502 -0.13381866673E+03 -0.91303779357E+02 -0.34332336828E+03  0.37964749874E+03  0.41800000000E+01 0.  1.
        -11    1    4    4    0    0  0.96079502048E+02  0.11287653926E+03 -0.10347272788E+03  0.18077330899E+03  0.00000000000E+00 0. -1.
         11    1    4    4    0    0  0.38954830752E+02  0.69915243025E+02 -0.16230639061E+03  0.18096680491E+03  0.00000000000E+00 0.  1.
</event>
<event>
 8    1  0.7075056E-009  0.9095836E+02  0.7561462E-02  0.1300547E+00
          2   -1    0    0  501    0  0.00000000000E+00  0.00000000000E+00  0.27213339455E+03  0.27213339455E+03  0.00000000000E+00 0. -1.
         -2   -1    0    0    0  501 -0.00000000000E+00 -0.00000000000E+00 -0.91939583863E+02  0.91939583863E+02  0.00000000000E+00 0.  1.
         25    2    1    2    0    0 -0.82924882724E+01  0.18115817750E+01 -0.34707779074E+02  0.13010300582E+03  0.12510041968E+03 0.  0.
         23    2    1    2    0    0  0.82924882724E+01 -0.18115817750E+01  0.21490158976E+03  0.23396997259E+03  0.92126041937E+02 0.  0.
          5    1    3    3  502    0 -0.53538062872E+02 -0.77780640388E+01  0.20460766128E+02  0.57990842439E+02  0.41800000000E+01 0.  1.
         -5    1    3    3    0  502  0.45245574600E+02  0.95896458138E+01 -0.55168545203E+02  0.72112163381E+02  0.41800000000E+01 0.  1.
        -11    1    4    4    0    0 -0.94539607365E+01 -0.38936464689E+02  0.50326402813E+02  0.64328628745E+02  0.00000000000E+00 0.  1.
         11    1    4    4    0    0  0.17746449009E+02  0.37124882914E+02  0.16457518695E+03  0.16964134385E+03  0.00000000000E+00 0. -1.
</event>
<event>
 8    1  0.7075056E-009  0.1217295E+03  0.7561462E-02  0.1240271E+00
          1   -1    0    0  501    0  0.00000000000E+00  0.00000000000E+00  0.48382261830E+03  0.48382261830E+03  0.00000000000E+00 0. -1.
         -1   -1    0    0    0  501 -0.00000000000E+00 -0.00000000000E+00 -0.52669618065E+02  0.52669618065E+02  0.00000000000E+00 0.  1.
         25    2    1    2    0    0  0.93956590584E+01  0.94301155075E+02  0.34726171754E+03  0.38107434683E+03  0.12508385624E+03 0.  0.
         23    2    1    2    0    0 -0.93956590584E+01 -0.94301155075E+02  0.83891282697E+02  0.15541788953E+03  0.90199705183E+02 0.  0.
          5    1    3    3  502    0  0.62015867665E+00  0.12005304575E+03  0.32213736183E+03  0.34380673448E+03  0.41800000000E+01 0. -1.
         -5    1    3    3    0  502  0.87755003818E+01 -0.25751890679E+02  0.25124355711E+02  0.37267612352E+02  0.41800000000E+01 0. -1.
        -11    1    4    4    0    0 -0.13153224467E+02 -0.74261020816E+02  0.68535857906E+01  0.75727657859E+02  0.00000000000E+00 0.  1.
         11    1    4    4    0    0  0.37575654090E+01 -0.20040134259E+02  0.77037696906E+02  0.79690231669E+02  0.00000000000E+00 0. -1.
</event>
<event>
 8    1  0.7075056E-009  0.1618738E+03  0.7561462E-02  0.1186597E+00
          2   -1    0    0  501    0  0.00000000000E+00  0.00000000000E+00  0.65701330712E+03  0.65701330712E+03  0.00000000000E+00 0. -1.
         -2   -1    0    0    0  501 -0.00000000000E+00 -0.00000000000E+00 -0.58448015357E+02  0.58448015357E+02  0.00000000000E+00 0.  1.
         25    2    1    2    0    0  0.12012373224E+03 -0.38761222089E+02  0.12550954745E+03  0.21755802154E+03  0.12508678127E+03 0.  0.
         23    2    1    2    0    0 -0.12012373224E+03  0.38761222089E+02  0.47305574431E+03  0.49790330094E+03  0.90519702132E+02 0.  0.
          5    1    3    3  502    0 -0.18642698129E+02 -0.32911906182E+02  0.19343746460E+02  0.42689538404E+02  0.41800000000E+01 0. -1.
         -5    1    3    3    0  502  0.13876643037E+03 -0.58493159069E+01  0.10616580099E+03  0.17486848314E+03  0.41800000000E+01 0. -1.
        -11    1    4    4    0    0 -0.70101822980E+02  0.60117842794E+02  0.21198912249E+03  0.23123107200E+03  0.00000000000E+00 0.  1.
         11    1    4    4    0    0 -0.50021909260E+02 -0.21356620705E+02  0.26106662182E+03  0.26667222893E+03  0.00000000000E+00 0. -1.
</event>
<event>
 8    1  0.7075056E-009  0.9425279E+02  0.7561462E-02  0.1292868E+00
         -1   -1    0    0    0  501 -0.00000000000E+00  0.00000000000E+00  0.39386916203E+03  0.39386916203E+03  0.00000000000E+00 0.  1.
          1   -1    0    0  501    0  0.00000000000E+00 -0.00000000000E+00 -0.36468804856E+02  0.36468804856E+02  0.00000000000E+00 0. -1.
         25    2    1    2    0    0 -0.14519968538E+01  0.40973811830E+02  0.26001009202E+03  0.29143482499E+03  0.12509215689E+03 0.  0.
         23    2    1    2    0    0  0.14519968538E+01 -0.40973811830E+02  0.97390265155E+02  0.13890314190E+03  0.90156849605E+02 0.  0.
          5    1    3    3  502    0 -0.28633022691E+02 -0.31020975967E+02  0.15793469282E+03  0.16353284238E+03  0.41800000000E+01 0. -1.
         -5    1    3    3    0  502  0.27181025837E+02  0.71994787797E+02  0.10207539919E+03  0.12790198261E+03  0.41800000000E+01 0. -1.
        -11    1    4    4    0    0  0.27440910545E+02 -0.30412229673E+02  0.37298186712E+01  0.41131725377E+02  0.00000000000E+00 0. -1.
         11    1    4    4    0    0 -0.25988913691E+02 -0.10561582158E+02  0.93660446484E+02  0.97771416518E+02  0.00000000000E+00 0.  1.
</event>
<event>
 8    1  0.7075056E-009  0.1185140E+03  0.7561462E-02  0.1245569E+00
         -2   -1    0    0    0  501 -0.00000000000E+00  0.00000000000E+00  0.23850215882E+02  0.23850215882E+02  0.00000000000E+00 0.  1.
          2   -1    0    0  501    0  0.00000000000E+00 -0.00000000000E+00 -0.89326972256E+03  0.89326972256E+03  0.00000000000E+00 0. -1.
         25    2    1    2    0    0  0.60001164242E+02  0.77052728410E+02 -0.47692322076E+03  0.50263574133E+03  0.12509863028E+03 0.  0.
         23    2    1    2    0    0 -0.60001164242E+02 -0.77052728410E+02 -0.39249628592E+03  0.41448419711E+03  0.90590024445E+02 0.  0.
          5    1    3    3  502    0  0.71903555002E+01  0.41358466700E+02 -0.40187148888E+03  0.40407968268E+03  0.41800000000E+01 0. -1.
         -5    1    3    3    0  502  0.52810808742E+02  0.35694261710E+02 -0.75051731881E+02  0.98556058654E+02  0.41800000000E+01 0. -1.
        -11    1    4    4    0    0 -0.82906193262E+02 -0.62502727931E+02 -0.27636476640E+03  0.29522451116E+03  0.00000000000E+00 0.  1.
         11    1    4    4    0    0  0.22905029020E+02 -0.14550000479E+02 -0.11613151952E+03  0.11925968595E+03  0.00000000000E+00 0. -1.
</event>
<event>
 8    1  0.7075056E-009  0.6145217E+02  0.7561462E-02  0.1391837E+00
         -2   -1    0    0    0  501 -0.00000000000E+00  0.00000000000E+00  0.13150964399E+03  0.13150964399E+03  0.00000000000E+00 0.  1.
          2   -1    0    0  501    0  0.00000000000E+00 -0.00000000000E+00 -0.10845000014E+03  0.10845000014E+03  0.00000000000E+00 0. -1.
         25    2    1    2    0    0  0.66291726550E+01  0.39302043202E+02  0.46114076354E+00  0.13128698860E+03  0.12508982450E+03 0.  0.
         23    2    1    2    0    0 -0.66291726550E+01 -0.39302043202E+02  0.22598503094E+02  0.10867265553E+03  0.98541652048E+02 0.  0.
          5    1    3    3  502    0  0.33196170719E+02  0.13152231543E+01  0.51996490197E+02  0.61845153045E+02  0.41800000000E+01 0.  1.
         -5    1    3    3    0  502 -0.26566998064E+02  0.37986820047E+02 -0.51535349433E+02  0.69441835551E+02  0.41800000000E+01 0.  1.
        -11    1    4    4    0    0  0.43624034106E+01 -0.21629669205E+02  0.61069312953E+02  0.64933305306E+02  0.00000000000E+00 0.  1.
         11    1    4    4    0    0 -0.10991576066E+02 -0.17672373997E+02 -0.38470809858E+02  0.43739350227E+02  0.00000000000E+00 0. -1.
</event>
<event>
 8    1  0.7075056E-009  0.1077174E+03  0.7561462E-02  0.1264856E+00
         -3   -1    0    0    0  501 -0.00000000000E+00  0.00000000000E+00  0.10903250248E+03  0.10903250248E+03  0.00000000000E+00 0.  1.
          3   -1    0    0  501    0  0.00000000000E+00 -0.00000000000E+00 -0.11613460736E+03  0.11613460736E+03  0.00000000000E+00 0. -1.
         25    2    1    2    0    0  0.30660244490E+02 -0.14980113272E+02 -0.32535146835E+01  0.12971460826E+03  0.12510331671E+03 0.  0.
         23    2    1    2    0    0 -0.30660244490E+02  0.14980113272E+02 -0.38485901940E+01  0.95452501573E+02  0.89061293637E+02 0.  0.
          5    1    3    3  502    0 -0.31596248885E+02 -0.47770521556E+02 -0.12057967607E+02  0.58678894470E+02  0.41800000000E+01 0. -1.
         -5    1    3    3    0  502  0.62256493375E+02  0.32790408284E+02  0.88044529235E+01  0.71035713793E+02  0.41800000000E+01 0. -1.
        -11    1    4    4    0    0  0.12999293271E+02  0.36571782893E+02 -0.20605375855E+02  0.43943810072E+02  0.00000000000E+00 0. -1.
         11    1    4    4    0    0 -0.43659537760E+02 -0.21591669621E+02  0.16756785661E+02  0.51508691501E+02  0.00000000000E+00 0.  1.
</event>
<event>
 8    1  0.7075056E-009  0.1644960E+03  0.7561462E-02  0.1183712E+00
          1   -1    0    0  501    0  0.00000000000E+00  0.00000000000E+00  0.54374692066E+03  0.54374692066E+03  0.00000000000E+00 0. -1.
         -1   -1    0    0    0  501 -0.00000000000E+00 -0.00000000000E+00 -0.64082500470E+02  0.64082500470E+02  0.00000000000E+00 0.  1.
         25    2    1    2    0    0 -0.71950989995E+02 -0.12934569891E+03  0.30726398013E+03  0.36327070318E+03  0.12508875055E+03 0.  0.
         23    2    1    2    0    0  0.71950989995E+02  0.12934569891E+03  0.17240044006E+03  0.24455871796E+03  0.90442246813E+02 0.  0.
          5    1    3    3  502    0 -0.94208000331E+02 -0.86851087708E+02  0.27995575730E+03  0.30791387953E+03  0.41800000000E+01 0. -1.
         -5    1    3    3    0  502  0.22257010337E+02 -0.42494611198E+02  0.27308222834E+02  0.55356823647E+02  0.41800000000E+01 0. -1.
        -11    1    4    4    0    0  0.65752584997E+02  0.83044433145E+02  0.57497513912E+02  0.12052279625E+03  0.00000000000E+00 0.  1.
         11    1    4    4    0    0  0.61984049975E+01  0.46301265761E+02  0.11490292615E+03  0.12403592170E+03  0.00000000000E+00 0. -1.
</event>
<event>
 8    1  0.7075056E-009  0.1183532E+03  0.7561462E-02  0.1245839E+00
         -2   -1    0    0    0  501 -0.00000000000E+00  0.00000000000E+00  0.57056992874E+02  0.57056992874E+02  0.00000000000E+00 0.  1.
          2   -1    0    0  501    0  0.00000000000E+00 -0.00000000000E+00 -0.24883995841E+03  0.24883995841E+03  0.00000000000E+00 0. -1.
         25    2    1    2    0    0  0.44764009113E+02 -0.32551430954E+01 -0.96003759604E+02  0.16394122495E+03  0.12508233653E+03 0.  0.
         23    2    1    2    0    0 -0.44764009113E+02  0.32551430954E+01 -0.95779205927E+02  0.14195572633E+03  0.94675020362E+02 0.  0.
          5    1    3    3  502    0  0.30539495577E+02 -0.63290642468E+02 -0.42971722098E+02  0.82476708920E+02  0.41800000000E+01 0.  1.
         -5    1    3    3    0  502  0.14224513536E+02  0.60035499373E+02 -0.53032037506E+02  0.81464516032E+02  0.41800000000E+01 0.  1.
        -11    1    4    4    0    0 -0.48805488661E+02 -0.38720561912E+02 -0.51749942740E+02  0.80989593232E+02  0.00000000000E+00 0. -1.
         11    1    4    4    0    0  0.40414795479E+01  0.41975705008E+02 -0.44029263187E+02  0.60966133095E+02  0.00000000000E+00 0.  1.
</event>
<event>
 8    1  0.7075056E-009  0.1050441E+03  0.7561462E-02  0.1270033E+00
          2   -1    0    0  501    0  0.00000000000E+00  0.00000000000E+00  0.39055215671E+03  0.39055215671E+03  0.00000000000E+00 0. -1.
         -2   -1    0    0    0  501 -0.00000000000E+00 -0.00000000000E+00 -0.38813653409E+02  0.38813653409E+02  0.00000000000E+00 0.  1.
         25    2    1    2    0    0 -0.61597813125E+02  0.43969033872E+01  0.17869137427E+03  0.22669786374E+03  0.12509073045E+03 0.  0.
         23    2    1    2    0    0  0.61597813125E+02 -0.43969033872E+01  0.17304712903E+03  0.20266794638E+03  0.85529902857E+02 0.  0.
          5    1    3    3  502    0 -0.79027059347E+02  0.47575469600E+02  0.11019073527E+03  0.14376429305E+03  0.41800000000E+01 0. -1.
         -5    1    3    3    0  502  0.17429246221E+02 -0.43178566213E+02  0.68500638999E+02  0.82933570689E+02  0.41800000000E+01 0. -1.
        -11    1    4    4    0    0  0.20404841553E+02  0.15140736844E+02  0.18185063825E+01  0.25473641994E+02  0.00000000000E+00 0.  1.
         11    1    4    4    0    0  0.41192971573E+02 -0.19537640231E+02  0.17122862265E+03  0.17719430439E+03  0.00000000000E+00 0. -1.
</event>
<event>
 8    1  0.7075056E-009  0.1870836E+03  0.7561462E-02  0.1161118E+00
         -1   -1    0    0    0  501 -0.00000000000E+00  0.00000000000E+00  0.49151857063E+02  0.49151857063E+02  0.00000000000E+00 0.  1.
          1   -1    0    0  501    0  0.00000000000E+00 -0.00000000000E+00 -0.96122909484E+03  0.96122909484E+03  0.00000000000E+00 0. -1.
         25    2    1    2    0    0  0.10660482139E+03  0.14454664605E+03 -0.34857434693E+03  0.41159501950E+03  0.12509222161E+03 0.  0.
         23    2    1    2    0    0 -0.10660482139E+03 -0.14454664605E+03 -0.56350289085E+03  0.59878593241E+03  0.93545518489E+02 0.  0.
          5    1    3    3  502    0 -0.32988494238E+01  0.14501115569E+02 -0.14652660458E+03  0.14733866774E+03  0.41800000000E+01 0.  1.
         -5    1    3    3    0  502  0.10990367082E+03  0.13004553048E+03 -0.20204774235E+03  0.26425635176E+03  0.41800000000E+01 0.  1.
        -11    1    4    4    0    0 -0.81907475110E+02 -0.63394635591E+02 -0.19670797286E+03  0.22231001077E+03  0.00000000000E+00 0.  1.
         11    1    4    4    0    0 -0.24697346285E+02 -0.81152010456E+02 -0.36679491799E+03  0.37647592164E+03  0.00000000000E+00 0. -1.
</event>
<event>
 8    1  0.7075056E-009  0.1134679E+03  0.7561462E-02  0.1254279E+00
         -1   -1    0    0    0  501 -0.00000000000E+00  0.00000000000E+00  0.12631183004E+03  0.12631183004E+03  0.00000000000E+00 0.  1.
          1   -1    0    0  501    0  0.00000000000E+00 -0.00000000000E+00 -0.13386516114E+03  0.13386516114E+03  0.00000000000E+00 0. -1.
         25    2    1    2    0    0 -0.16788103624E+02  0.70412770289E+02  0.14851543783E+02  0.14528645562E+03  0.12509111555E+03 0.  0.
         23    2    1    2    0    0  0.16788103624E+02 -0.70412770289E+02 -0.22404874887E+02  0.11489053556E+03  0.86360049216E+02 0.  0.
          5    1    3    3  502    0  0.33489150560E+02 -0.17122125829E+02  0.22392540628E+02  0.43972590030E+02  0.41800000000E+01 0. -1.
         -5    1    3    3    0  502 -0.50277254184E+02  0.87534896119E+02 -0.75409968453E+01  0.10131386559E+03  0.41800000000E+01 0. -1.
        -11    1    4    4    0    0 -0.17499684400E+02 -0.32708830124E+02  0.25445472282E+02  0.44984203692E+02  0.00000000000E+00 0.  1.
         11    1    4    4    0    0  0.34287788024E+02 -0.37703940166E+02 -0.47850347169E+02  0.69906331872E+02  0.00000000000E+00 0. -1.
</event>
<event>
 8    1  0.7075056E-009  0.1351982E+03  0.7561462E-02  0.1219940E+00
         -1   -1    0    0    0  501 -0.00000000000E+00  0.00000000000E+00  0.56057303125E+02  0.56057303125E+02  0.00000000000E+00 0.  1.
          1   -1    0    0  501    0  0.00000000000E+00 -0.00000000000E+00 -0.35638579806E+03  0.35638579806E+03  0.00000000000E+00 0. -1.
         25    2    1    2    0    0 -0.75846193451E+02  0.46917969987E+02 -0.17990978425E+03  0.23657979347E+03  0.12509407356E+03 0.  0.
         23    2    1    2    0    0  0.75846193451E+02 -0.46917969987E+02 -0.12041871069E+03  0.17586330772E+03  0.92050508684E+02 0.  0.
          5    1    3    3  502    0  0.12686719972E+02 -0.32136101915E+02 -0.37944197255E+02  0.51487050947E+02  0.41800000000E+01 0.  1.
         -5    1    3    3    0  502 -0.88532913423E+02  0.79054071902E+02 -0.14196558699E+03  0.18509274252E+03  0.41800000000E+01 0.  1.
        -11    1    4    4    0    0  0.22664433791E+02 -0.58206409788E+02 -0.27588503604E+02  0.68284611961E+02  0.00000000000E+00 0.  1.
         11    1    4    4    0    0  0.53181759660E+02  0.11288439801E+02 -0.92830207081E+02  0.10757869576E+03  0.00000000000E+00 0. -1.
</event>
<event>
 8    1  0.7075056E-009  0.1319344E+03  0.7561462E-02  0.1224613E+00
          2   -1    0    0  501    0  0.00000000000E+00  0.00000000000E+00  0.13968512203E+03  0.13968512203E+03  0.00000000000E+00 0. -1.
         -2   -1    0    0    0  501 -0.00000000000E+00 -0.00000000000E+00 -0.13652693422E+03  0.13652693422E+03  0.00000000000E+00 0.  1.
         25    2    1    2    0    0  0.25842701177E+02 -0.72952698910E+02  0.32750591001E+02  0.15069948213E+03  0.12509113166E+03 0.  0.
         23    2    1    2    0    0 -0.25842701177E+02  0.72952698910E+02 -0.29592403191E+02  0.12551257413E+03  0.94274887724E+02 0.  0.
          5    1    3    3  502    0  0.34714214468E+02  0.25499007692E+02 -0.74379513966E+01  0.43909812119E+02  0.41800000000E+01 0. -1.
         -5    1    3    3    0  502 -0.88715132914E+01 -0.98451706601E+02  0.40188542397E+02  0.10678967001E+03  0.41800000000E+01 0. -1.
        -11    1    4    4    0    0  0.93060207132E+01  0.84228833101E+02 -0.16406378881E+02  0.86314932746E+02  0.00000000000E+00 0. -1.
         11    1    4    4    0    0 -0.35148721890E+02 -0.11276134191E+02 -0.13186024311E+02  0.39197641382E+02  0.00000000000E+00 0.  1.
</event>
<event>
 8    1  0.7075056E-009  0.1613919E+03  0.7561462E-02  0.1187134E+00
          1   -1    0    0  501    0  0.00000000000E+00  0.00000000000E+00  0.71820404180E+03  0.71820404180E+03  0.00000000000E+00 0. -1.
         -1   -1    0    0    0  501 -0.00000000000E+00 -0.00000000000E+00 -0.56042815080E+02  0.56042815080E+02  0.00000000000E+00 0.  1.
         25    2    1    2    0    0  0.14019919495E+03  0.17255397655E+02  0.17075039547E+03  0.25447256486E+03  0.12508807180E+03 0.  0.
         23    2    1    2    0    0 -0.14019919495E+03 -0.17255397655E+02  0.49141083126E+03  0.51977429202E+03  0.93419197997E+02 0.  0.
          5    1    3    3  502    0  0.13747941618E+03  0.21710461487E+01  0.73561739225E+02  0.15599392678E+03  0.41800000000E+01 0. -1.
         -5    1    3    3    0  502  0.27197787639E+01  0.15084351507E+02  0.97188656240E+02  0.98478638083E+02  0.41800000000E+01 0. -1.
        -11    1    4    4    0    0 -0.10307862646E+03 -0.54629713674E+02  0.34197860275E+03  0.36132945297E+03  0.00000000000E+00 0.  1.
         11    1    4    4    0    0 -0.37120568484E+02  0.37374316018E+02  0.14943222851E+03  0.15844483904E+03  0.00000000000E+00 0. -1.
</event>
<event>
 8    1  0.7075056E-009  0.6314939E+02  0.7561462E-02  0.1385071E+00
          1   -1    0    0  501    0  0.00000000000E+00  0.00000000000E+00  0.62208106645E+03  0.62208106645E+03  0.00000000000E+00 0. -1.
         -1   -1    0    0    0  501 -0.00000000000E+00 -0.00000000000E+00 -0.20958217452E+02  0.20958217452E+02  0.00000000000E+00 0.  1.
         25    2    1    2    0    0 -0.82997334148E+01  0.34532335137E+02  0.36799632184E+03  0.39029568307E+03  0.12509220437E+03 0.  0.
         23    2    1    2    0    0  0.82997334148E+01 -0.34532335137E+02  0.23312652716E+03  0.25274360083E+03  0.90939443314E+02 0.  0.
          5    1    3    3  502    0 -0.83226269836E+01  0.47135976937E+00  0.35253265505E+03  0.35265597056E+03  0.41800000000E+01 0. -1.
         -5    1    3    3    0  502  0.22893568828E-01  0.34060975367E+02  0.15463666793E+02  0.37639712509E+02  0.41800000000E+01 0. -1.
        -11    1    4    4    0    0 -0.75228355969E+01  0.22367231764E+02  0.18061777899E+02  0.29717232931E+02  0.00000000000E+00 0.  1.
         11    1    4    4    0    0  0.15822569012E+02 -0.56899566901E+02  0.21506474926E+03  0.22302636790E+03  0.00000000000E+00 0. -1.
</event>
<event>
 8    1  0.7075056E-009  0.1380547E+03  0.7561462E-02  0.1215971E+00
         -2   -1    0    0    0  501 -0.00000000000E+00  0.00000000000E+00  0.18653027193E+03  0.18653027193E+03  0.00000000000E+00 0.  1.
          2   -1    0    0  501    0  0.00000000000E+00 -0.00000000000E+00 -0.13889235534E+03  0.13889235534E+03  0.00000000000E+00 0. -1.
         25    2    1    2    0    0 -0.97494328115E+02 -0.36027849713E+02  0.82587262297E+02  0.18240297711E+03  0.12508812972E+03 0.  0.
         23    2    1    2    0    0  0.97494328115E+02  0.36027849713E+02 -0.34949345713E+02  0.14301965015E+03  0.91815105482E+02 0.  0.
          5    1    3    3  502    0  0.15331209064E+02  0.21226684297E+02 -0.68732695253E+01  0.27392194720E+02  0.41800000000E+01 0. -1.
         -5    1    3    3    0  502 -0.11282553718E+03 -0.57254534010E+02  0.89460531822E+02  0.15501078239E+03  0.41800000000E+01 0. -1.
        -11    1    4    4    0    0  0.65627629831E+02 -0.10648731914E+02  0.14356077787E+02  0.68018220044E+02  0.00000000000E+00 0.  1.
         11    1    4    4    0    0  0.31866698285E+02  0.46676581627E+02 -0.49305423499E+02  0.75001430109E+02  0.00000000000E+00 0. -1.
</event>
<event>
 8    1  0.7075056E-009  0.1560260E+03  0.7561462E-02  0.1193258E+00
          2   -1    0    0  501    0  0.00000000000E+00  0.00000000000E+00  0.98700012822E+03  0.98700012822E+03  0.00000000000E+00 0. -1.
         -2   -1    0    0    0  501 -0.00000000000E+00 -0.00000000000E+00 -0.30278376534E+02  0.30278376534E+02  0.00000000000E+00 0.  1.
         25    2    1    2    0    0  0.12690603297E+03  0.38833061035E+02  0.52437827302E+03  0.55518769361E+03  0.12509058356E+03 0.  0.
         23    2    1    2    0    0 -0.12690603297E+03 -0.38833061035E+02  0.43234347867E+03  0.46209081114E+03  0.94836102606E+02 0.  0.
          5    1    3    3  502    0  0.13453146151E+03  0.66610033261E+02  0.47136033205E+03  0.49470561518E+03  0.41800000000E+01 0.  1.
         -5    1    3    3    0  502 -0.76254285403E+01 -0.27776972226E+02  0.53017940969E+02  0.60482078429E+02  0.41800000000E+01 0.  1.
        -11    1    4    4    0    0 -0.61999490711E+02 -0.16986285743E+02  0.34581849008E+03  0.35174265996E+03  0.00000000000E+00 0. -1.
         11    1    4    4    0    0 -0.64906542260E+02 -0.21846775292E+02  0.86524988582E+02  0.11034815118E+03  0.00000000000E+00 0.  1.
</event>
<event>
 8    1  0.7075056E-009  0.8762799E+02  0.7561462E-02  0.1308700E+00
         -1   -1    0    0    0  501 -0.00000000000E+00  0.00000000000E+00  0.25314768672E+03  0.25314768672E+03  0.00000000000E+00 0.  1.
          1   -1    0    0  501    0  0.00000000000E+00 -0.00000000000E+00 -0.47921174883E+02  0.47921174883E+02  0.00000000000E+00 0. -1.
         25    2    1    2    0    0  0.14866919634E+02  0.53684937312E+01  0.13562817020E+03  0.18518299306E+03  0.12509154385E+03 0.  0.
         23    2    1    2    0    0 -0.14866919634E+02 -0.53684937312E+01  0.69598341630E+02  0.11588586854E+03  0.91300379760E+02 0.  0.
          5    1    3    3  502    0  0.29260159768E+02 -0.47672085300E+02  0.24645055996E+02  0.61266922981E+02  0.41800000000E+01 0. -1.
         -5    1    3    3    0  502 -0.14393240135E+02  0.53040579032E+02  0.11098311421E+03  0.12391607008E+03  0.41800000000E+01 0. -1.
        -11    1    4    4    0    0 -0.23555645573E+02  0.23875407583E+02  0.77436316915E+02  0.84387716541E+02  0.00000000000E+00 0.  1.
         11    1    4    4    0    0  0.86887259390E+01 -0.29243901314E+02 -0.78379752853E+01  0.31498151995E+02  0.00000000000E+00 0. -1.
</event>
<event>
 8    1  0.7075056E-009  0.1340339E+03  0.7561462E-02  0.1221590E+00
         -4   -1    0    0    0  501 -0.00000000000E+00  0.00000000000E+00  0.29595756504E+03  0.29595756504E+03  0.00000000000E+00 0.  1.
          4   -1    0    0  501    0  0.00000000000E+00 -0.00000000000E+00 -0.65117721578E+02  0.65117721578E+02  0.00000000000E+00 0. -1.
         25    2    1    2    0    0  0.74537489153E+02  0.33928281232E+02  0.84329064228E+02  0.17165182247E+03  0.12508393793E+03 0.  0.
         23    2    1    2    0    0 -0.74537489153E+02 -0.33928281232E+02  0.14651077924E+03  0.18942346415E+03  0.87800198071E+02 0.  0.
          5    1    3    3  502    0  0.28240437576E+02  0.79459354084E+02  0.46745716333E+02  0.96508785410E+02  0.41800000000E+01 0. -1.
         -5    1    3    3    0  502  0.46297051577E+02 -0.45531072852E+02  0.37583347895E+02  0.75143037062E+02  0.41800000000E+01 0. -1.
        -11    1    4    4    0    0 -0.82626398571E+02 -0.52785255558E+02  0.13136061589E+03  0.16391771214E+03  0.00000000000E+00 0.  1.
         11    1    4    4    0    0  0.80889094182E+01  0.18856974326E+02  0.15150163347E+02  0.25505752013E+02  0.00000000000E+00 0. -1.
</event>
<event>
 8    1  0.7075056E-009  0.1338548E+03  0.7561462E-02  0.1221845E+00
         -1   -1    0    0    0  501 -0.00000000000E+00  0.00000000000E+00  0.40041311885E+02  0.40041311885E+02  0.00000000000E+00 0.  1.
          1   -1    0    0  501    0  0.00000000000E+00 -0.00000000000E+00 -0.50881723177E+03  0.50881723177E+03  0.00000000000E+00 0. -1.
         25    2    1    2    0    0  0.32964056676E+02  0.82950667068E+02 -0.29502035572E+03  0.33264362327E+03  0.12508927856E+03 0.  0.
         23    2    1    2    0    0 -0.32964056676E+02 -0.82950667068E+02 -0.17375556416E+03  0.21621492038E+03  0.92684699492E+02 0.  0.
          5    1    3    3  502    0 -0.12726513921E+02  0.97090888130E+02 -0.24211812610E+03  0.26120349174E+03  0.41800000000E+01 0. -1.
         -5    1    3    3    0  502  0.45690570597E+02 -0.14140221062E+02 -0.52902229629E+02  0.71440131529E+02  0.41800000000E+01 0. -1.
        -11    1    4    4    0    0 -0.56334261158E+02 -0.80410270308E+02 -0.16317684145E+03  0.19043645170E+03  0.00000000000E+00 0. -1.
         11    1    4    4    0    0  0.23370204482E+02 -0.25403967601E+01 -0.10578722705E+02  0.25778468677E+02  0.00000000000E+00 0.  1.
</event>
<event>
 8    1  0.7075056E-009  0.1026505E+03  0.7561462E-02  0.1274819E+00
          2   -1    0    0  501    0  0.00000000000E+00  0.00000000000E+00  0.41846481229E+02  0.41846481229E+02  0.00000000000E+00 0. -1.
         -2   -1    0    0    0  501 -0.00000000000E+00 -0.00000000000E+00 -0.34448635167E+03  0.34448635167E+03  0.00000000000E+00 0.  1.
         25    2    1    2    0    0  0.74765587506E+00 -0.14544125577E+02 -0.24048249641E+03  0.27146121130E+03  0.12508903861E+03 0.  0.
         23    2    1    2    0    0 -0.74765587506E+00  0.14544125577E+02 -0.62157374031E+02  0.11487162160E+03  0.95497956655E+02 0.  0.
          5    1    3    3  502    0  0.25600544338E+02  0.50147761494E+02 -0.10417234595E+03  0.11848854761E+03  0.41800000000E+01 0. -1.
         -5    1    3    3    0  502 -0.24852888463E+02 -0.64691887071E+02 -0.13631015046E+03  0.15297266369E+03  0.41800000000E+01 0. -1.
        -11    1    4    4    0    0 -0.38024307062E+02  0.17822052446E+02  0.37778145982E+00  0.41995430701E+02  0.00000000000E+00 0. -1.
         11    1    4    4    0    0  0.37276651187E+02 -0.32779268695E+01 -0.62535155491E+02  0.72876190903E+02  0.00000000000E+00 0.  1.
</event>
<event>
 8    1  0.7075056E-009  0.8134931E+02  0.7561462E-02  0.1325265E+00
          1   -1    0    0  501    0  0.00000000000E+00  0.00000000000E+00  0.49397535557E+03  0.49397535557E+03  0.00000000000E+00 0. -1.
         -1   -1    0    0    0  501 -0.00000000000E+00 -0.00000000000E+00 -0.46073357241E+02  0.46073357241E+02  0.00000000000E+00 0.  1.
         25    2    1    2    0    0 -0.59532263093E+02 -0.87401835285E+00  0.39677478584E+03  0.42026436194E+03  0.12508816484E+03 0.  0.
         23    2    1    2    0    0  0.59532263093E+02  0.87401835285E+00  0.51127212489E+02  0.11978435087E+03  0.90495550160E+02 0.  0.
          5    1    3    3  502    0 -0.68925972354E+02  0.21012846423E+02  0.38781746189E+03  0.39447710393E+03  0.41800000000E+01 0.  1.
         -5    1    3    3    0  502  0.93937092607E+01 -0.21886864776E+02  0.89573239504E+01  0.25787258011E+02  0.41800000000E+01 0.  1.
        -11    1    4    4    0    0  0.27570707657E+02 -0.14185902172E+02 -0.22371478996E+02  0.38234366918E+02  0.00000000000E+00 0.  1.
         11    1    4    4    0    0  0.31961555436E+02  0.15059920525E+02  0.73498691485E+02  0.81549983949E+02  0.00000000000E+00 0. -1.
</event>
<event>
 8    1  0.7075056E-009  0.1116818E+03  0.7561462E-02  0.1257487E+00
          1   -1    0    0  501    0  0.00000000000E+00  0.00000000000E+00  0.85186316490E+02  0.85186316490E+02  0.00000000000E+00 0. -1.
         -1   -1    0    0    0  501 -0.00000000000E+00 -0.00000000000E+00 -0.23246481232E+03  0.23246481232E+03  0.00000000000E+00 0.  1.
         25    2    1    2    0    0 -0.16194679528E+02 -0.61568299922E+02 -0.98819650153E+01  0.14070876712E+03  0.12509348789E+03 0.  0.
         23    2    1    2    0    0  0.16194679528E+02  0.61568299922E+02 -0.13739653082E+03  0.17694236169E+03  0.91530702393E+02 0.  0.
          5    1    3    3  502    0  0.41025877739E+01 -0.90297526706E+02 -0.35279417588E+02  0.97121492272E+02  0.41800000000E+01 0. -1.
         -5    1    3    3    0  502 -0.20297267302E+02  0.28729226785E+02  0.25397452572E+02  0.43587274849E+02  0.41800000000E+01 0. -1.
        -11    1    4    4    0    0  0.45792637766E+02  0.40370062464E+02 -0.12388581136E+03  0.13811010779E+03  0.00000000000E+00 0.  1.
         11    1    4    4    0    0 -0.29597958238E+02  0.21198237457E+02 -0.13510719461E+02  0.38832253907E+02  0.00000000000E+00 0. -1.
</event>
<event>
 8    1  0.7075056E-009  0.1051639E+03  0.7561462E-02  0.1269797E+00
         -2   -1    0    0    0  501 -0.00000000000E+00  0.00000000000E+00  0.27348610815E+02  0.27348610815E+02  0.00000000000E+00 0.  1.
          2   -1    0    0  501    0  0.00000000000E+00 -0.00000000000E+00 -0.93300780498E+03  0.93300780498E+03  0.00000000000E+00 0. -1.
         25    2    1    2    0    0 -0.33051532062E+02 -0.17572887188E+02 -0.82204364041E+03  0.83234846330E+03  0.12508799896E+03 0.  0.
         23    2    1    2    0    0  0.33051532062E+02  0.17572887188E+02 -0.83615553748E+02  0.12800795249E+03  0.89405061018E+02 0.  0.
          5    1    3    3  502    0  0.19905987178E+02  0.43600573985E+02 -0.36817074998E+03  0.37130099908E+03  0.41800000000E+01 0. -1.
         -5    1    3    3    0  502 -0.52957519240E+02 -0.61173461173E+02 -0.45387289043E+03  0.46104746422E+03  0.41800000000E+01 0. -1.
        -11    1    4    4    0    0  0.52388113274E+02 -0.36135991364E+01 -0.16538758933E+02  0.55055454391E+02  0.00000000000E+00 0.  1.
         11    1    4    4    0    0 -0.19336581212E+02  0.21186486325E+02 -0.67076794815E+02  0.72952498096E+02  0.00000000000E+00 0. -1.
</event>
<event>
 8    1  0.7075056E-009  0.1205651E+03  0.7561462E-02  0.1242168E+00
         -2   -1    0    0    0  501 -0.00000000000E+00  0.00000000000E+00  0.36710724179E+02  0.36710724179E+02  0.00000000000E+00 0.  1.
          2   -1    0    0  501    0  0.00000000000E+00 -0.00000000000E+00 -0.40419205041E+03  0.40419205041E+03  0.00000000000E+00 0. -1.
         25    2    1    2    0    0  0.32857884268E+02 -0.46180778783E+02 -0.19584219307E+03  0.23919352189E+03  0.12508825460E+03 0.  0.
         23    2    1    2    0    0 -0.32857884268E+02  0.46180778783E+02 -0.17163913316E+03  0.20170925270E+03  0.89522766408E+02 0.  0.
          5    1    3    3  502    0  0.55187501704E+02 -0.79053802980E+02 -0.12574562344E+03  0.15850740779E+03  0.41800000000E+01 0. -1.
         -5    1    3    3    0  502 -0.22329617435E+02  0.32873024197E+02 -0.70096569624E+02  0.80686114095E+02  0.41800000000E+01 0. -1.
        -11    1    4    4    0    0 -0.72069453633E+01 -0.26569311508E+02 -0.32279701141E+02  0.42424609382E+02  0.00000000000E+00 0.  1.
         11    1    4    4    0    0 -0.25650938905E+02  0.72750090291E+02 -0.13935943202E+03  0.15928464332E+03  0.00000000000E+00 0. -1.
</event>
<event>
 8    1  0.7075056E-009  0.1376886E+03  0.7561462E-02  0.1216473E+00
          1   -1    0    0  501    0  0.00000000000E+00  0.00000000000E+00  0.85404510814E+03  0.85404510814E+03  0.00000000000E+00 0. -1.
         -1   -1    0    0    0  501 -0.00000000000E+00 -0.00000000000E+00 -0.27579893399E+02  0.27579893399E+02  0.00000000000E+00 0.  1.
         25    2    1    2    0    0  0.92786310932E+02  0.50085015334E+01  0.31188673021E+03  0.34865224210E+03  0.12510263329E+03 0.  0.
         23    2    1    2    0    0 -0.92786310932E+02 -0.50085015334E+01  0.51457848453E+03  0.53297275944E+03  0.10312400777E+03 0.  0.
          5    1    3    3  502    0  0.99514910943E+02  0.48125674517E+02  0.24307880054E+03  0.26706567305E+03  0.41800000000E+01 0. -1.
         -5    1    3    3    0  502 -0.67286000110E+01 -0.43117172983E+02  0.68807929669E+02  0.81586569051E+02  0.41800000000E+01 0. -1.
        -11    1    4    4    0    0 -0.19721554354E+02  0.33087003597E+02  0.62274536472E+02  0.73224363473E+02  0.00000000000E+00 0.  1.
         11    1    4    4    0    0 -0.73064756578E+02 -0.38095505131E+02  0.45230394806E+03  0.45974839597E+03  0.00000000000E+00 0. -1.
</event>
<event>
 8    1  0.7075056E-009  0.1184605E+03  0.7561462E-02  0.1245659E+00
         -2   -1    0    0    0  501 -0.00000000000E+00  0.00000000000E+00  0.93479883106E+02  0.93479883106E+02  0.00000000000E+00 0.  1.
          2   -1    0    0  501    0  0.00000000000E+00 -0.00000000000E+00 -0.34918570649E+03  0.34918570649E+03  0.00000000000E+00 0. -1.
         25    2    1    2    0    0  0.44022500776E+02  0.93720570577E+02 -0.12238771035E+02  0.16284497313E+03  0.12508865589E+03 0.  0.
         23    2    1    2    0    0 -0.44022500776E+02 -0.93720570577E+02 -0.24346705235E+03  0.27982061647E+03  0.91114465901E+02 0.  0.
          5    1    3    3  502    0 -0.39981172327E+01  0.76655826383E+02  0.42581195360E+02  0.87879071787E+02  0.41800000000E+01 0. -1.
         -5    1    3    3    0  502  0.48020618009E+02  0.17064744194E+02 -0.54819966395E+02  0.74965901341E+02  0.41800000000E+01 0. -1.
        -11    1    4    4    0    0 -0.56128592662E+01 -0.51620570933E+02 -0.20398828956E+03  0.21049325360E+03  0.00000000000E+00 0. -1.
         11    1    4    4    0    0 -0.38409641510E+02 -0.42099999644E+02 -0.39478762789E+02  0.69327362868E+02  0.00000000000E+00 0.  1.
</event>
<event>
 8    1  0.7075056E-009  0.1038058E+03  0.7561462E-02  0.1272490E+00
          1   -1    0    0  501    0  0.00000000000E+00  0.00000000000E+00  0.29410197094E+03  0.29410197094E+03  0.00000000000E+00 0. -1.
         -1   -1    0    0    0  501 -0.00000000000E+00 -0.00000000000E+00 -0.49206034717E+02  0.49206034717E+02  0.00000000000E+00 0.  1.
         25    2    1    2    0    0 -0.21164197563E+00  0.51845265388E+02  0.13806201884E+03  0.19338125144E+03  0.12508881257E+03 0.  0.
         23    2    1    2    0    0  0.21164197563E+00 -0.51845265388E+02  0.10683391739E+03  0.14992675421E+03  0.91523600175E+02 0.  0.
          5    1    3    3  502    0 -0.13773915911E+02  0.81316428538E+02  0.43532248898E+02  0.93352083018E+02  0.41800000000E+01 0.  1.
         -5    1    3    3    0  502  0.13562273935E+02 -0.29471163149E+02  0.94529769938E+02  0.10002916843E+03  0.41800000000E+01 0.  1.
        -11    1    4    4    0    0  0.25794006499E+02  0.81893785486E+01  0.29186040213E+01  0.27219752786E+02  0.00000000000E+00 0.  1.
         11    1    4    4    0    0 -0.25582364524E+02 -0.60034643937E+02  0.10391531336E+03  0.12270700143E+03  0.00000000000E+00 0. -1.
</event>
<event>
 8    1  0.7075056E-009  0.5417604E+02  0.7561462E-02  0.1424036E+00
         -2   -1    0    0    0  501 -0.00000000000E+00  0.00000000000E+00  0.24571590929E+03  0.24571590929E+03  0.00000000000E+00 0.  1.
          2   -1    0    0  501    0  0.00000000000E+00 -0.00000000000E+00 -0.58626138702E+02  0.58626138702E+02  0.00000000000E+00 0. -1.
         25    2    1    2    0    0  0.27614216784E+02 -0.29418264426E+01  0.16104565751E+03  0.20580644107E+03  0.12509751425E+03 0.  0.
         23    2    1    2    0    0 -0.27614216784E+02  0.29418264426E+01  0.26044113069E+02  0.98535606917E+02  0.90883280605E+02 0.  0.
          5    1    3    3  502    0 -0.75374014483E+01 -0.14446795413E+02  0.16723021107E+03  0.16807420448E+03  0.41800000000E+01 0.  1.
         -5    1    3    3    0  502  0.35151618232E+02  0.11504968970E+02 -0.61845535543E+01  0.37732236589E+02  0.41800000000E+01 0.  1.
        -11    1    4    4    0    0 -0.23710859006E+02  0.23499282609E+02  0.54078966732E+02  0.63552779331E+02  0.00000000000E+00 0.  1.
         11    1    4    4    0    0 -0.39033577784E+01 -0.20557456167E+02 -0.28034853662E+02  0.34982827585E+02  0.00000000000E+00 0. -1.
</event>
<event>
 8    1  0.7075056E-009  0.1292531E+03  0.7561462E-02  0.1228568E+00
         -2   -1    0    0    0  501 -0.00000000000E+00  0.00000000000E+00  0.56548540045E+02  0.56548540045E+02  0.00000000000E+00 0.  1.
          2   -1    0    0  501    0  0.00000000000E+00 -0.00000000000E+00 -0.35485485482E+03  0.35485485482E+03  0.00000000000E+00 0. -1.
         25    2    1    2    0    0  0.82597803425E+02  0.23477606310E+02 -0.20949923977E+03  0.25867185265E+03  0.12509037036E+03 0.  0.
         23    2    1    2    0    0 -0.82597803425E+02 -0.23477606310E+02 -0.88807075000E+02  0.15273154222E+03  0.89814432524E+02 0.  0.
          5    1    3    3  502    0  0.72397936992E+02 -0.40100511543E+02 -0.86585061471E+02  0.11984972915E+03  0.41800000000E+01 0. -1.
         -5    1    3    3    0  502  0.10199866432E+02  0.63578117853E+02 -0.12291417830E+03  0.13882212350E+03  0.41800000000E+01 0. -1.
        -11    1    4    4    0    0  0.38377147649E+01 -0.24371925298E+02 -0.54329478563E+02  0.59669179970E+02  0.00000000000E+00 0.  1.
         11    1    4    4    0    0 -0.86435518189E+02  0.89431898748E+00 -0.34477596437E+02  0.93062362248E+02  0.00000000000E+00 0. -1.
</event>
<event>
 8    1  0.7075056E-009  0.1186222E+03  0.7561462E-02  0.1245387E+00
         -2   -1    0    0    0  501 -0.00000000000E+00  0.00000000000E+00  0.93295316021E+02  0.93295316021E+02  0.00000000000E+00 0.  1.
          2   -1    0    0  501    0  0.00000000000E+00 -0.00000000000E+00 -0.22973084612E+03  0.22973084612E+03  0.00000000000E+00 0. -1.
         25    2    1    2    0    0 -0.87410421326E+02 -0.44949844133E+02 -0.67317243380E+02  0.17274344554E+03  0.12509043320E+03 0.  0.
         23    2    1    2    0    0  0.87410421326E+02  0.44949844133E+02 -0.69118286716E+02  0.15028271659E+03  0.90257892200E+02 0.  0.
          5    1    3    3  502    0 -0.22968611639E+02 -0.29132075875E+02  0.34703179633E+02  0.50970756734E+02  0.41800000000E+01 0. -1.
         -5    1    3    3    0  502 -0.64441809687E+02 -0.15817768258E+02 -0.10202042301E+03  0.12177268881E+03  0.41800000000E+01 0. -1.
        -11    1    4    4    0    0  0.10120164278E+03  0.17496236324E+02 -0.52126963168E+02  0.11517426395E+03  0.00000000000E+00 0.  1.
         11    1    4    4    0    0 -0.13791221458E+02  0.27453607809E+02 -0.16991323547E+02  0.35108452642E+02  0.00000000000E+00 0. -1.
</event>
<event>
 8    1  0.7075056E-009  0.1294351E+03  0.7561462E-02  0.1228296E+00
         -1   -1    0    0    0  501 -0.00000000000E+00  0.00000000000E+00  0.28159018423E+03  0.28159018423E+03  0.00000000000E+00 0.  1.
          1   -1    0    0  501    0  0.00000000000E+00 -0.00000000000E+00 -0.91563647119E+02  0.91563647119E+02  0.00000000000E+00 0. -1.
         25    2    1    2    0    0 -0.72216092738E+02 -0.33771752112E+02  0.91376315423E+00  0.14832731840E+03  0.12507782829E+03 0.  0.
         23    2    1    2    0    0  0.72216092738E+02  0.33771752112E+02  0.18911277396E+03  0.22482651295E+03  0.91802093448E+02 0.  0.
          5    1    3    3  502    0 -0.48013301198E+01 -0.66320013126E+02  0.22471232086E+02  0.70312343037E+02  0.41800000000E+01 0. -1.
         -5    1    3    3    0  502 -0.67414762618E+02  0.32548261014E+02 -0.21557468931E+02  0.78014975361E+02  0.41800000000E+01 0. -1.
        -11    1    4    4    0    0  0.30831283083E+02 -0.28838396057E+02  0.98519293853E+02  0.10718335862E+03  0.00000000000E+00 0.  1.
         11    1    4    4    0    0  0.41384809656E+02  0.62610148169E+02  0.90593480107E+02  0.11764315434E+03  0.00000000000E+00 0. -1.
</event>
<event>
 8    1  0.7075056E-009  0.7803923E+02  0.7561462E-02  0.1334710E+00
         -2   -1    0    0    0  501 -0.00000000000E+00  0.00000000000E+00  0.62226526549E+02  0.62226526549E+02  0.00000000000E+00 0.  1.
          2   -1    0    0  501    0  0.00000000000E+00 -0.00000000000E+00 -0.31006584569E+03  0.31006584569E+03  0.00000000000E+00 0. -1.
         25    2    1    2    0    0 -0.65314861227E+02 -0.42045975803E+02 -0.19413725539E+03  0.24366023967E+03  0.12508854178E+03 0.  0.
         23    2    1    2    0    0  0.65314861227E+02  0.42045975803E+02 -0.53702063742E+02  0.12863213257E+03  0.87340819208E+02 0.  0.
          5    1    3    3  502    0 -0.27882147030E+02 -0.16867408128E+02  0.10168136958E+02  0.34391670346E+02  0.41800000000E+01 0. -1.
         -5    1    3    3    0  502 -0.37432714198E+02 -0.25178567675E+02 -0.20430539235E+03  0.20926856932E+03  0.41800000000E+01 0. -1.
        -11    1    4    4    0    0  0.26364651017E+02  0.13444967617E+02  0.23338720534E+02  0.37690288585E+02  0.00000000000E+00 0.  1.
         11    1    4    4    0    0  0.38950210211E+02  0.28601008186E+02 -0.77040784276E+02  0.90941843981E+02  0.00000000000E+00 0. -1.
</event>
<event>
 8    1  0.7075056E-009  0.1387433E+03  0.7561462E-02  0.1215030E+00
          1   -1    0    0  501    0  0.00000000000E+00  0.00000000000E+00  0.59986972536E+03  0.59986972536E+03  0.00000000000E+00 0. -1.
         -1   -1    0    0    0  501 -0.00000000000E+00 -0.00000000000E+00 -0.73562817678E+02  0.73562817678E+02  0.00000000000E+00 0.  1.
         25    2    1    2    0    0  0.87331820585E+02  0.44711633591E+02  0.32976810352E+02  0.16235980991E+03  0.12508901146E+03 0.  0.
         23    2    1    2    0    0 -0.87331820585E+02 -0.44711633591E+02  0.49333009733E+03  0.51107273313E+03  0.90525005124E+02 0.  0.
          5    1    3    3  502    0  0.11234941386E+03  0.36340827767E+02  0.52481989203E+02  0.12928603230E+03  0.41800000000E+01 0. -1.
         -5    1    3    3    0  502 -0.25017593272E+02  0.83708058242E+01 -0.19505178851E+02  0.33073777608E+02  0.41800000000E+01 0. -1.
        -11    1    4    4    0    0 -0.74123742975E+02 -0.71352990745E+02  0.35654827610E+03  0.37109601419E+03  0.00000000000E+00 0. -1.
         11    1    4    4    0    0 -0.13208077610E+02  0.26641357154E+02  0.13678182124E+03  0.13997671894E+03  0.00000000000E+00 0.  1.
</event>
<event>
 8    1  0.7075056E-009  0.1064687E+03  0.7561462E-02  0.1267253E+00
         -2   -1    0    0    0  501 -0.00000000000E+00  0.00000000000E+00  0.50387124599E+02  0.50387124599E+02  0.00000000000E+00 0.  1.
          2   -1    0    0  501    0  0.00000000000E+00 -0.00000000000E+00 -0.26365529229E+03  0.26365529229E+03  0.00000000000E+00 0. -1.
         25    2    1    2    0    0  0.58542004993E+01 -0.36667824393E+02 -0.95232518382E+02  0.16154323613E+03  0.12509269992E+03 0.  0.
         23    2    1    2    0    0 -0.58542004993E+01  0.36667824393E+02 -0.11803564930E+03  0.15249918075E+03  0.89133521275E+02 0.  0.
          5    1    3    3  502    0 -0.49241849817E+02 -0.52323556168E+02 -0.63212525414E+02  0.95790448755E+02  0.41800000000E+01 0. -1.
         -5    1    3    3    0  502  0.55096050317E+02  0.15655731775E+02 -0.32019992968E+02  0.65752787375E+02  0.41800000000E+01 0. -1.
        -11    1    4    4    0    0  0.32742076577E+02  0.29920764374E+02 -0.23565016829E+02  0.50225548652E+02  0.00000000000E+00 0.  1.
         11    1    4    4    0    0 -0.38596277077E+02  0.67470600194E+01 -0.94470632475E+02  0.10227363210E+03  0.00000000000E+00 0. -1.
</event>
<event>
 8    1  0.7075056E-009  0.1869400E+03  0.7561462E-02  0.1161251E+00
          1   -1    0    0  501    0  0.00000000000E+00  0.00000000000E+00  0.14816962770E+03  0.14816962770E+03  0.00000000000E+00 0. -1.
         -1   -1    0    0    0  501 -0.00000000000E+00 -0.00000000000E+00 -0.32501354602E+03  0.32501354602E+03  0.00000000000E+00 0.  1.
         25    2    1    2    0    0 -0.14427767393E+03 -0.94386968277E+02 -0.50580108068E+01  0.21307016648E+03  0.12509342665E+03 0.  0.
         23    2    1    2    0    0  0.14427767393E+03  0.94386968277E+02 -0.17178590751E+03  0.26011300725E+03  0.91779254435E+02 0.  0.
          5    1    3    3  502    0 -0.10825969512E+03 -0.41194141395E+02 -0.58102949692E+02  0.12965548209E+03  0.41800000000E+01 0. -1.
         -5    1    3    3    0  502 -0.36017978810E+02 -0.53192826882E+02  0.53044938885E+02  0.83414684382E+02  0.41800000000E+01 0. -1.
        -11    1    4    4    0    0  0.94733782358E+02  0.93688722065E+01 -0.10171372676E+03  0.13931240971E+03  0.00000000000E+00 0.  1.
         11    1    4    4    0    0  0.49543891576E+02  0.85018096071E+02 -0.70072180750E+02  0.12080059754E+03  0.00000000000E+00 0. -1.
</event>
<event>
 8    1  0.7075056E-009  0.1218316E+03  0.7561462E-02  0.1240106E+00
          1   -1    0    0  501    0  0.00000000000E+00  0.00000000000E+00  0.10119171875E+03  0.10119171875E+03  0.00000000000E+00 0. -1.
         -1   -1    0    0    0  501 -0.00000000000E+00 -0.00000000000E+00 -0.22105166714E+03  0.22105166714E+03  0.00000000000E+00 0.  1.
         25    2    1    2    0    0  0.15868485172E+02  0.58552229176E+02  0.23492955677E+02  0.14099792925E+03  0.12509326410E+03 0.  0.
         23    2    1    2    0    0 -0.15868485172E+02 -0.58552229176E+02 -0.14335290407E+03  0.18124545664E+03  0.92842275312E+02 0.  0.
          5    1    3    3  502    0 -0.10690540534E+02  0.92484306192E+02  0.33637559126E+01  0.93254607407E+02  0.41800000000E+01 0.  1.
         -5    1    3    3    0  502  0.26559025706E+02 -0.33932077016E+02  0.20129199764E+02  0.47743321839E+02  0.41800000000E+01 0.  1.
        -11    1    4    4    0    0  0.18349384962E+02 -0.69000998211E+02 -0.71860150622E+02  0.10130014279E+03  0.00000000000E+00 0.  1.
         11    1    4    4    0    0 -0.34217870134E+02  0.10448769035E+02 -0.71492753447E+02  0.79945313848E+02  0.00000000000E+00 0. -1.
</event>
<event>
 8    1  0.7075056E-009  0.2022947E+03  0.7561462E-02  0.1147817E+00
         -2   -1    0    0    0  501 -0.00000000000E+00  0.00000000000E+00  0.38144967915E+02  0.38144967915E+02  0.00000000000E+00 0.  1.
          2   -1    0    0  501    0  0.00000000000E+00 -0.00000000000E+00 -0.14036367018E+04  0.14036367018E+04  0.00000000000E+00 0. -1.
         25    2    1    2    0    0 -0.17478763363E+03 -0.77258851825E+02 -0.49981598828E+03  0.54952985459E+03  0.12508953548E+03 0.  0.
         23    2    1    2    0    0  0.17478763363E+03  0.77258851825E+02 -0.86567574564E+03  0.89225181517E+03  0.10099088085E+03 0.  0.
          5    1    3    3  502    0  0.48973595512E+01  0.78435254164E+01  0.14566383251E+01  0.10251790904E+02  0.41800000000E+01 0. -1.
         -5    1    3    3    0  502 -0.17968499318E+03 -0.85102377241E+02 -0.50127262660E+03  0.53927806368E+03  0.41800000000E+01 0. -1.
        -11    1    4    4    0    0  0.95705283364E+02  0.64654961772E+02 -0.68437933348E+03  0.69405679699E+03  0.00000000000E+00 0. -1.
         11    1    4    4    0    0  0.79082350269E+02  0.12603890053E+02 -0.18129641216E+03  0.19819501818E+03  0.00000000000E+00 0.  1.
</event>
<event>
 8    1  0.7075056E-009  0.1385093E+03  0.7561462E-02  0.1215349E+00
         -2   -1    0    0    0  501 -0.00000000000E+00  0.00000000000E+00  0.43163651166E+02  0.43163651166E+02  0.00000000000E+00 0.  1.
          2   -1    0    0  501    0  0.00000000000E+00 -0.00000000000E+00 -0.56869419550E+03  0.56869419550E+03  0.00000000000E+00 0. -1.
         25    2    1    2    0    0 -0.86663267318E+02  0.68277495996E+02 -0.32921220381E+03  0.36905313382E+03  0.12508877678E+03 0.  0.
         23    2    1    2    0    0  0.86663267318E+02 -0.68277495996E+02 -0.19631834052E+03  0.24280471285E+03  0.90779399628E+02 0.  0.
          5    1    3    3  502    0 -0.10073288311E+03  0.93497657384E+02 -0.27655829332E+03  0.30885415277E+03  0.41800000000E+01 0.  1.
         -5    1    3    3    0  502  0.14069615796E+02 -0.25220161388E+02 -0.52653910490E+02  0.60198981046E+02  0.41800000000E+01 0.  1.
        -11    1    4    4    0    0  0.45568243489E+02 -0.34981920543E+02 -0.23489720399E+02  0.62064213070E+02  0.00000000000E+00 0.  1.
         11    1    4    4    0    0  0.41095023829E+02 -0.33295575453E+02 -0.17282862012E+03  0.18074049978E+03  0.00000000000E+00 0. -1.
</event>
<event>
 8    1  0.7075056E-009  0.1107082E+03  0.7561462E-02  0.1259264E+00
         -2   -1    0    0    0  501 -0.00000000000E+00  0.00000000000E+00  0.31559087437E+02  0.31559087437E+02  0.00000000000E+00 0.  1.
          2   -1    0    0  501    0  0.00000000000E+00 -0.00000000000E+00 -0.50736651340E+03  0.50736651340E+03  0.00000000000E+00 0. -1.
         25    2    1    2    0    0 -0.45083434675E+02 -0.94734290204E+01 -0.16745514986E+03  0.21403509313E+03  0.12509009528E+03 0.  0.
         23    2    1    2    0    0  0.45083434675E+02  0.94734290204E+01 -0.30835227610E+03  0.32489050771E+03  0.91380817899E+02 0.  0.
          5    1    3    3  502    0  0.21951823119E+02 -0.49713708907E+02 -0.77959710379E+02  0.95123731182E+02  0.41800000000E+01 0. -1.
         -5    1    3    3    0  502 -0.67035257794E+02  0.40240279887E+02 -0.89495439484E+02  0.11891136195E+03  0.41800000000E+01 0. -1.
        -11    1    4    4    0    0 -0.16400215132E+02 -0.15203208523E+02 -0.23518535537E+02  0.32453445419E+02  0.00000000000E+00 0.  1.
         11    1    4    4    0    0  0.61483649806E+02  0.24676637544E+02 -0.28483374057E+03  0.29243706229E+03  0.00000000000E+00 0. -1.
</event>
<event>
 8    1  0.7075056E-009  0.1036009E+03  0.7561462E-02  0.1272901E+00
          1   -1    0    0  501    0  0.00000000000E+00  0.00000000000E+00  0.12863558135E+03  0.12863558135E+03  0.00000000000E+00 0. -1.
         -1   -1    0    0    0  501 -0.00000000000E+00 -0.00000000000E+00 -0.14426334982E+03  0.14426334982E+03  0.00000000000E+00 0.  1.
         25    2    1    2    0    0  0.25350120227E+01  0.43353701089E+02 -0.78993577790E+02  0.15418632574E+03  0.12508983983E+03 0.  0.
         23    2    1    2    0    0 -0.25350120227E+01 -0.43353701089E+02  0.63365809321E+02  0.11871260543E+03  0.90506835178E+02 0.  0.
          5    1    3    3  502    0  0.52105396229E+02 -0.16243529549E+02 -0.34644636915E+02  0.64780767481E+02  0.41800000000E+01 0.  1.
         -5    1    3    3    0  502 -0.49570384207E+02  0.59597230637E+02 -0.44348940875E+02  0.89405558254E+02  0.41800000000E+01 0.  1.
        -11    1    4    4    0    0  0.28927079835E+02 -0.26040326202E+02  0.71938290531E+02  0.81792372389E+02  0.00000000000E+00 0. -1.
         11    1    4    4    0    0 -0.31462091858E+02 -0.17313374887E+02 -0.85724812092E+01  0.36920233045E+02  0.00000000000E+00 0.  1.
</event>
<event>
 8    1  0.7075056E-009  0.1044433E+03  0.7561462E-02  0.1271220E+00
          2   -1    0    0  501    0  0.00000000000E+00  0.00000000000E+00  0.26193837981E+03  0.26193837981E+03  0.00000000000E+00 0. -1.
         -2   -1    0    0    0  501 -0.00000000000E+00 -0.00000000000E+00 -0.71372443555E+02  0.71372443555E+02  0.00000000000E+00 0.  1.
         25    2    1    2    0    0  0.79516846956E+01 -0.56041763400E+02  0.31562465927E+02  0.14087979709E+03  0.12508804675E+03 0.  0.
         23    2    1    2    0    0 -0.79516846956E+01  0.56041763400E+02  0.15900347033E+03  0.19243102627E+03  0.92432071062E+02 0.  0.
          5    1    3    3  502    0  0.55210105139E+02  0.79053714486E+01  0.24117584633E+02  0.60907970708E+02  0.41800000000E+01 0.  1.
         -5    1    3    3    0  502 -0.47258420443E+02 -0.63947134848E+02  0.74448812940E+01  0.79971826387E+02  0.41800000000E+01 0.  1.
        -11    1    4    4    0    0  0.18882024709E+02  0.32733646160E+02  0.97817251465E+01  0.39034658893E+02  0.00000000000E+00 0.  1.
         11    1    4    4    0    0 -0.26833709404E+02  0.23308117239E+02  0.14922174518E+03  0.15339636738E+03  0.00000000000E+00 0. -1.
</event>
<event>
 8    1  0.7075056E-009  0.1297921E+03  0.7561462E-02  0.1227764E+00
         -3   -1    0    0    0  501 -0.00000000000E+00  0.00000000000E+00  0.17789226460E+03  0.17789226460E+03  0.00000000000E+00 0. -1.
          3   -1    0    0  501    0  0.00000000000E+00 -0.00000000000E+00 -0.21689643984E+03  0.21689643984E+03  0.00000000000E+00 0.  1.
         25    2    1    2    0    0  0.10747062318E+03  0.36885786068E+02 -0.13745399351E+03  0.21783565522E+03  0.12509307054E+03 0.  0.
         23    2    1    2    0    0 -0.10747062318E+03 -0.36885786068E+02  0.98449818265E+02  0.17695304922E+03  0.93324802982E+02 0.  0.
          5    1    3    3  502    0 -0.14868013897E+02  0.14544235121E+02  0.11189316409E+02  0.23984699585E+02  0.41800000000E+01 0.  1.
         -5    1    3    3    0  502  0.12233863707E+03  0.22341550947E+02 -0.14864330991E+03  0.19385095564E+03  0.41800000000E+01 0.  1.
        -11    1    4    4    0    0 -0.27041085009E+02 -0.13212057203E+02  0.87338734620E+02  0.92378749174E+02  0.00000000000E+00 0. -1.
         11    1    4    4    0    0 -0.80429538169E+02 -0.23673728866E+02  0.11111083645E+02  0.84574300046E+02  0.00000000000E+00 0.  1.
</event>
<event>
 8    1  0.7075056E-009  0.1105077E+03  0.7561462E-02  0.1259633E+00
          2   -1    0    0  501    0  0.00000000000E+00  0.00000000000E+00  0.12288900873E+04  0.12288900873E+04  0.00000000000E+00 0. -1.
         -2   -1    0    0    0  501 -0.00000000000E+00 -0.00000000000E+00 -0.10878521718E+02  0.10878521718E+02  0.00000000000E+00 0.  1.
         25    2    1    2    0    0  0.33608242140E+02  0.26912082673E+01  0.72801889157E+03  0.73945625023E+03  0.12508910014E+03 0.  0.
         23    2    1    2    0    0 -0.33608242140E+02 -0.26912082673E+01  0.48999267405E+03  0.50031235883E+03  0.95304140694E+02 0.  0.
          5    1    3    3  502    0  0.13837860453E+02  0.58814588234E+02  0.22857278922E+03  0.23646064057E+03  0.41800000000E+01 0. -1.
         -5    1    3    3    0  502  0.19770381687E+02 -0.56123379967E+02  0.49944610236E+03  0.50299560965E+03  0.41800000000E+01 0. -1.
        -11    1    4    4    0    0 -0.63082730780E+02 -0.20540025876E+02  0.34008023442E+03  0.34649082156E+03  0.00000000000E+00 0.  1.
         11    1    4    4    0    0  0.29474488641E+02  0.17848817609E+02  0.14991243963E+03  0.15382153726E+03  0.00000000000E+00 0. -1.
</event>
<event>
 8    1  0.7075056E-009  0.1535198E+03  0.7561462E-02  0.1196213E+00
         -2   -1    0    0    0  501 -0.00000000000E+00  0.00000000000E+00  0.40169881525E+02  0.40169881525E+02  0.00000000000E+00 0.  1.
          2   -1    0    0  501    0  0.00000000000E+00 -0.00000000000E+00 -0.68306103412E+03  0.68306103412E+03  0.00000000000E+00 0. -1.
         25    2    1    2    0    0 -0.56489634186E+02 -0.10326041637E+03 -0.26779720120E+03  0.31814478059E+03  0.12508784149E+03 0.  0.
         23    2    1    2    0    0  0.56489634186E+02  0.10326041637E+03 -0.37509395139E+03  0.40508613505E+03  0.97701136533E+02 0.  0.
          5    1    3    3  502    0 -0.62397277261E+02 -0.40113281923E+01 -0.55612992568E+02  0.83784176942E+02  0.41800000000E+01 0.  1.
         -5    1    3    3    0  502  0.59076430747E+01 -0.99249088176E+02 -0.21218420863E+03  0.23436060365E+03  0.41800000000E+01 0.  1.
        -11    1    4    4    0    0  0.75373300464E+02  0.10073123760E+03 -0.26490216202E+03  0.29325939387E+03  0.00000000000E+00 0. -1.
         11    1    4    4    0    0 -0.18883666277E+02  0.25291787645E+01 -0.11019178937E+03  0.11182674118E+03  0.00000000000E+00 0.  1.
</event>
<event>
 8    1  0.7075056E-009  0.1431868E+03  0.7561462E-02  0.1209104E+00
         -1   -1    0    0    0  501 -0.00000000000E+00  0.00000000000E+00  0.31455708582E+03  0.31455708582E+03  0.00000000000E+00 0.  1.
          1   -1    0    0  501    0  0.00000000000E+00 -0.00000000000E+00 -0.12710635165E+03  0.12710635165E+03  0.00000000000E+00 0. -1.
         25    2    1    2    0    0  0.13358308552E+03 -0.27227054869E+02  0.19710842270E+03  0.27034147224E+03  0.12508808121E+03 0.  0.
         23    2    1    2    0    0 -0.13358308552E+03  0.27227054869E+02 -0.96576885230E+01  0.17132196523E+03  0.10330629975E+03 0.  0.
          5    1    3    3  502    0  0.11662720703E+03 -0.17981226810E+02  0.61186201866E+02  0.13299042686E+03  0.41800000000E+01 0. -1.
         -5    1    3    3    0  502  0.16955878489E+02 -0.92458280586E+01  0.13592222083E+03  0.13735104538E+03  0.41800000000E+01 0. -1.
        -11    1    4    4    0    0 -0.15741477620E+02 -0.16534402800E+02  0.31631874080E+02  0.39009691763E+02  0.00000000000E+00 0.  1.
         11    1    4    4    0    0 -0.11784160790E+03  0.43761457669E+02 -0.41289562603E+02  0.13231227347E+03  0.00000000000E+00 0. -1.
</event>
<event>
 8    1  0.7075056E-009  0.1091240E+03  0.7561462E-02  0.1262201E+00
          2   -1    0    0  501    0  0.00000000000E+00  0.00000000000E+00  0.28199894524E+03  0.28199894524E+03  0.00000000000E+00 0.  1.
         -2   -1    0    0    0  501 -0.00000000000E+00 -0.00000000000E+00 -0.72927015503E+02  0.72927015503E+02  0.00000000000E+00 0. -1.
         25    2    1    2    0    0  0.56084853467E+02  0.58007357125E+02  0.15775340704E+03  0.21689475003E+03  0.12508729307E+03 0.  0.
         23    2    1    2    0    0 -0.56084853467E+02 -0.58007357125E+02  0.51318522698E+02  0.13803121071E+03  0.99542252788E+02 0.  0.
          5    1    3    3  502    0  0.68029794627E+02  0.75809629274E+02  0.16493931036E+03  0.19390100915E+03  0.41800000000E+01 0.  1.
         -5    1    3    3    0  502 -0.11944941160E+02 -0.17802272149E+02 -0.71859033212E+01  0.22993740877E+02  0.41800000000E+01 0.  1.
        -11    1    4    4    0    0 -0.12610026001E+02 -0.48296425925E+02 -0.20139659699E+02  0.53825304510E+02  0.00000000000E+00 0. -1.
         11    1    4    4    0    0 -0.43474827466E+02 -0.97109312008E+01  0.71458182397E+02  0.84205906203E+02  0.00000000000E+00 0.  1.
</event>
<event>
 8    1  0.7075056E-009  0.1179346E+03  0.7561462E-02  0.1246544E+00
         -2   -1    0    0    0  501 -0.00000000000E+00  0.00000000000E+00  0.18207036309E+03  0.18207036309E+03  0.00000000000E+00 0. -1.
          2   -1    0    0  501    0  0.00000000000E+00 -0.00000000000E+00 -0.96883751881E+02  0.96883751881E+02  0.00000000000E+00 0.  1.
         25    2    1    2    0    0  0.46164005827E+02  0.55319013173E+02  0.18152342609E+02  0.14549248063E+03  0.12508895125E+03 0.  0.
         23    2    1    2    0    0 -0.46164005827E+02 -0.55319013173E+02  0.67034268604E+02  0.13346163435E+03  0.90150463247E+02 0.  0.
          5    1    3    3  502    0  0.59398010343E+02 -0.39012378387E+01  0.49073350419E+02  0.77259364550E+02  0.41800000000E+01 0.  1.
         -5    1    3    3    0  502 -0.13234004516E+02  0.59220251012E+02 -0.30921007809E+02  0.68233116076E+02  0.41800000000E+01 0.  1.
        -11    1    4    4    0    0  0.48671797633E+01 -0.63502450690E+02  0.35402419291E+02  0.72866878444E+02  0.00000000000E+00 0. -1.
         11    1    4    4    0    0 -0.51031185590E+02  0.81834375170E+01  0.31631849313E+02  0.60594755906E+02  0.00000000000E+00 0.  1.
</event>
<event>
 8    1  0.7075056E-009  0.1659571E+03  0.7561462E-02  0.1182131E+00
         -2   -1    0    0    0  501 -0.00000000000E+00  0.00000000000E+00  0.83077846801E+03  0.83077846801E+03  0.00000000000E+00 0.  1.
          2   -1    0    0  501    0  0.00000000000E+00 -0.00000000000E+00 -0.39593073822E+02  0.39593073822E+02  0.00000000000E+00 0. -1.
         25    2    1    2    0    0 -0.63725543552E+02 -0.12790695399E+03  0.47223988934E+03  0.50899732652E+03  0.12508649626E+03 0.  0.
         23    2    1    2    0    0  0.63725543552E+02  0.12790695399E+03  0.31894550486E+03  0.36137421531E+03  0.91890993277E+02 0.  0.
          5    1    3    3  502    0  0.27238481963E+02 -0.59912166002E+02  0.99925167889E+02  0.11972432548E+03  0.41800000000E+01 0.  1.
         -5    1    3    3    0  502 -0.90964025515E+02 -0.67994787989E+02  0.37231472145E+03  0.38927300104E+03  0.41800000000E+01 0.  1.
        -11    1    4    4    0    0  0.14828695503E+02 -0.58657820867E+00  0.87909553717E+00  0.14866307318E+02  0.00000000000E+00 0. -1.
         11    1    4    4    0    0  0.48896848049E+02  0.12849353220E+03  0.31806640932E+03  0.34650790800E+03  0.00000000000E+00 0.  1.
</event>
<event>
 8    1  0.7075056E-009  0.1331757E+03  0.7561462E-02  0.1222818E+00
         -2   -1    0    0    0  501 -0.00000000000E+00  0.00000000000E+00  0.23805728517E+02  0.23805728517E+02  0.00000000000E+00 0.  1.
          2   -1    0    0  501    0  0.00000000000E+00 -0.00000000000E+00 -0.79779214117E+03  0.79779214117E+03  0.00000000000E+00 0. -1.
         25    2    1    2    0    0  0.75869584689E+02  0.19767693121E+02 -0.49672530526E+03  0.51820076179E+03  0.12509614324E+03 0.  0.
         23    2    1    2    0    0 -0.75869584689E+02 -0.19767693121E+02 -0.27726110739E+03  0.30339710790E+03  0.95021722989E+02 0.  0.
          5    1    3    3  502    0  0.37061113334E+02 -0.53105465530E+02 -0.22654056271E+03  0.23565189485E+03  0.41800000000E+01 0. -1.
         -5    1    3    3    0  502  0.38808471355E+02  0.72873158651E+02 -0.27018474255E+03  0.28254886694E+03  0.41800000000E+01 0. -1.
        -11    1    4    4    0    0 -0.96243920749E+02 -0.12019664164E+02 -0.18839048514E+03  0.21189228278E+03  0.00000000000E+00 0.  1.
         11    1    4    4    0    0  0.20374336060E+02 -0.77480289571E+01 -0.88870622245E+02  0.91504825123E+02  0.00000000000E+00 0. -1.
</event>
<event>
 8    1  0.7075056E-009  0.6510450E+02  0.7561462E-02  0.1377579E+00
          1   -1    0    0  501    0  0.00000000000E+00  0.00000000000E+00  0.74651295147E+02  0.74651295147E+02  0.00000000000E+00 0. -1.
         -1   -1    0    0    0  501 -0.00000000000E+00 -0.00000000000E+00 -0.17117586334E+03  0.17117586334E+03  0.00000000000E+00 0.  1.
         25    2    1    2    0    0  0.27943044457E+02  0.17379577748E-01 -0.52155164802E+02  0.13837051176E+03  0.12508166642E+03 0.  0.
         23    2    1    2    0    0 -0.27943044457E+02 -0.17379577748E-01 -0.44369403392E+02  0.10745664673E+03  0.93794844916E+02 0.  0.
          5    1    3    3  502    0  0.41716723422E+02  0.24311350981E+02  0.26192486740E+02  0.55089432391E+02  0.41800000000E+01 0.  1.
         -5    1    3    3    0  502 -0.13773678965E+02 -0.24293971403E+02 -0.78347651542E+02  0.83281079370E+02  0.41800000000E+01 0.  1.
        -11    1    4    4    0    0 -0.21957256597E+01 -0.20492922045E+02  0.23969634178E+02  0.31612093062E+02  0.00000000000E+00 0.  1.
         11    1    4    4    0    0 -0.25747318797E+02  0.20475542467E+02 -0.68339037570E+02  0.75844553665E+02  0.00000000000E+00 0. -1.
</event>
<event>
 8    1  0.7075056E-009  0.1241808E+03  0.7561462E-02  0.1236355E+00
          2   -1    0    0  501    0  0.00000000000E+00  0.00000000000E+00  0.30750830486E+03  0.30750830486E+03  0.00000000000E+00 0. -1.
         -2   -1    0    0    0  501 -0.00000000000E+00 -0.00000000000E+00 -0.78322849091E+02  0.78322849091E+02  0.00000000000E+00 0.  1.
         25    2    1    2    0    0 -0.10548198759E+03 -0.32179184406E+02  0.14448707555E+03  0.22064994880E+03  0.12509170753E+03 0.  0.
         23    2    1    2    0    0  0.10548198759E+03  0.32179184406E+02  0.84698380227E+02  0.16518120515E+03  0.89157530842E+02 0.  0.
          5    1    3    3  502    0 -0.54700145004E+02 -0.78955093519E+01  0.15376419097E+03  0.16344829077E+03  0.41800000000E+01 0.  1.
         -5    1    3    3    0  502 -0.50781842589E+02 -0.24283675054E+02 -0.92771154268E+01  0.57201658031E+02  0.41800000000E+01 0.  1.
        -11    1    4    4    0    0  0.46968430315E+02 -0.26245980367E+02  0.55988999032E+02  0.77650839946E+02  0.00000000000E+00 0. -1.
         11    1    4    4    0    0  0.58513557278E+02  0.58425164773E+02  0.28709381195E+02  0.87530365203E+02  0.00000000000E+00 0.  1.
</event>
<event>
 8    1  0.7075056E-009  0.3971312E+03  0.7561462E-02  0.1044778E+00
         -1   -1    0    0    0  501 -0.00000000000E+00  0.00000000000E+00  0.24501485593E+03  0.24501485593E+03  0.00000000000E+00 0.  1.
          1   -1    0    0  501    0  0.00000000000E+00 -0.00000000000E+00 -0.65001210859E+03  0.65001210859E+03  0.00000000000E+00 0. -1.
         25    2    1    2    0    0  0.15113684134E+03  0.35265026449E+03 -0.20356242304E+03  0.45198572701E+03  0.12509549747E+03 0.  0.
         23    2    1    2    0    0 -0.15113684134E+03 -0.35265026449E+03 -0.20143482961E+03  0.44304123751E+03  0.92222522723E+02 0.  0.
          5    1    3    3  502    0 -0.21102183467E+02  0.35278562919E+02 -0.11129895676E+02  0.42792827979E+02  0.41800000000E+01 0. -1.
         -5    1    3    3    0  502  0.17223902481E+03  0.31737170158E+03 -0.19243252736E+03  0.40919289903E+03  0.41800000000E+01 0. -1.
        -11    1    4    4    0    0 -0.38860874262E+02 -0.19157471594E+03 -0.12674306047E+03  0.23296961758E+03  0.00000000000E+00 0. -1.
         11    1    4    4    0    0 -0.11227596708E+03 -0.16107554855E+03 -0.74691769143E+02  0.21007161993E+03  0.00000000000E+00 0.  1.
</event>
<event>
 8    1  0.7075056E-009  0.6770610E+02  0.7561462E-02  0.1368072E+00
          3   -1    0    0  501    0  0.00000000000E+00  0.00000000000E+00  0.46712894464E+02  0.46712894464E+02  0.00000000000E+00 0. -1.
         -3   -1    0    0    0  501 -0.00000000000E+00 -0.00000000000E+00 -0.31326854741E+03  0.31326854741E+03  0.00000000000E+00 0.  1.
         25    2    1    2    0    0  0.33310198699E+02 -0.41480995049E+02 -0.15536286033E+03  0.20643554788E+03  0.12509106591E+03 0.  0.
         23    2    1    2    0    0 -0.33310198699E+02  0.41480995049E+02 -0.11119279261E+03  0.15354589399E+03  0.91554694829E+02 0.  0.
          5    1    3    3  502    0 -0.70981489578E+01 -0.69953264346E+01 -0.15269948795E+03  0.15308143039E+03  0.41800000000E+01 0.  1.
         -5    1    3    3    0  502  0.40408347657E+02 -0.34485668614E+02 -0.26633723796E+01  0.53354117485E+02  0.41800000000E+01 0.  1.
        -11    1    4    4    0    0  0.49298911642E+01  0.31381441914E+02 -0.10943859059E+03  0.11395570997E+03  0.00000000000E+00 0.  1.
         11    1    4    4    0    0 -0.38240089864E+02  0.10099553135E+02 -0.17542020188E+01  0.39590184024E+02  0.00000000000E+00 0. -1.
</event>
<event>
 8    1  0.7075056E-009  0.9177669E+02  0.7561462E-02  0.1298605E+00
          2   -1    0    0  501    0  0.00000000000E+00  0.00000000000E+00  0.52813411638E+02  0.52813411638E+02  0.00000000000E+00 0. -1.
         -2   -1    0    0    0  501 -0.00000000000E+00 -0.00000000000E+00 -0.26111277831E+03  0.26111277831E+03  0.00000000000E+00 0.  1.
         25    2    1    2    0    0  0.10925400908E+02 -0.15226532954E+02 -0.16988977758E+03  0.21180460102E+03  0.12508973098E+03 0.  0.
         23    2    1    2    0    0 -0.10925400908E+02  0.15226532954E+02 -0.38409589091E+02  0.10212158893E+03  0.92748642578E+02 0.  0.
          5    1    3    3  502    0  0.31801091363E+02  0.49061530058E+02 -0.83950249554E+02  0.10238876864E+03  0.41800000000E+01 0.  1.
         -5    1    3    3    0  502 -0.20875690454E+02 -0.64288063012E+02 -0.85939528024E+02  0.10941583238E+03  0.41800000000E+01 0.  1.
        -11    1    4    4    0    0 -0.11695202900E+02 -0.19361352010E+02  0.22606607803E+02  0.31979656641E+02  0.00000000000E+00 0. -1.
         11    1    4    4    0    0  0.76980199146E+00  0.34587884964E+02 -0.61016196894E+02  0.70141932286E+02  0.00000000000E+00 0.  1.
</event>
<event>
 8    1  0.7075056E-009  0.9741893E+02  0.7561462E-02  0.1285819E+00
         -2   -1    0    0    0  501 -0.00000000000E+00  0.00000000000E+00  0.55860992976E+03  0.55860992976E+03  0.00000000000E+00 0.  1.
          2   -1    0    0  501    0  0.00000000000E+00 -0.00000000000E+00 -0.24548599024E+02  0.24548599024E+02  0.00000000000E+00 0. -1.
         25    2    1    2    0    0 -0.32746909081E+02 -0.20028437160E+02  0.24046688170E+03  0.27376251972E+03  0.12509235651E+03 0.  0.
         23    2    1    2    0    0  0.32746909081E+02  0.20028437160E+02  0.29359444903E+03  0.30939600906E+03  0.89747933522E+02 0.  0.
          5    1    3    3  502    0  0.90253864648E+01  0.39794226427E+02  0.29581487248E+02  0.50572471223E+02  0.41800000000E+01 0. -1.
         -5    1    3    3    0  502 -0.41772295546E+02 -0.59822663588E+02  0.21088539446E+03  0.22319004850E+03  0.41800000000E+01 0. -1.
        -11    1    4    4    0    0  0.27866081850E+02 -0.23794231034E+02  0.50836468101E+02  0.62666022988E+02  0.00000000000E+00 0. -1.
         11    1    4    4    0    0  0.48808272313E+01  0.43822668195E+02  0.24275798093E+03  0.24672998607E+03  0.00000000000E+00 0.  1.
</event>
<event>
 8    1  0.7075056E-009  0.9506192E+02  0.7561462E-02  0.1291037E+00
         -2   -1    0    0    0  501 -0.00000000000E+00  0.00000000000E+00  0.21811536544E+02  0.21811536544E+02  0.00000000000E+00 0.  1.
          2   -1    0    0  501    0  0.00000000000E+00 -0.00000000000E+00 -0.53110393083E+03  0.53110393083E+03  0.00000000000E+00 0. -1.
         25    2    1    2    0    0  0.32443973790E+00  0.83022403305E+01 -0.31988703005E+03  0.34357457326E+03  0.12508694153E+03 0.  0.
         23    2    1    2    0    0 -0.32443973790E+00 -0.83022403305E+01 -0.18940536424E+03  0.20934089411E+03  0.88770408871E+02 0.  0.
          5    1    3    3  502    0  0.54123932692E+02  0.35028013409E+02 -0.18143620655E+03  0.19259525243E+03  0.41800000000E+01 0.  1.
         -5    1    3    3    0  502 -0.53799492954E+02 -0.26725773079E+02 -0.13845082350E+03  0.15097932083E+03  0.41800000000E+01 0.  1.
        -11    1    4    4    0    0 -0.21199001252E+02 -0.28988659434E+02 -0.17085281063E+03  0.17458643398E+03  0.00000000000E+00 0. -1.
         11    1    4    4    0    0  0.20874561514E+02  0.20686419103E+02 -0.18552553603E+02  0.34754460130E+02  0.00000000000E+00 0.  1.
</event>
<event>
 8    1  0.7075056E-009  0.1027627E+03  0.7561462E-02  0.1274591E+00
         -1   -1    0    0    0  501 -0.00000000000E+00  0.00000000000E+00  0.30492654277E+03  0.30492654277E+03  0.00000000000E+00 0.  1.
          1   -1    0    0  501    0  0.00000000000E+00 -0.00000000000E+00 -0.44144886829E+02  0.44144886829E+02  0.00000000000E+00 0. -1.
         25    2    1    2    0    0 -0.29468488605E+02  0.12910480169E+00  0.17509706797E+03  0.21719423091E+03  0.12508374091E+03 0.  0.
         23    2    1    2    0    0  0.29468488605E+02 -0.12910480169E+00  0.85684587965E+02  0.13187719869E+03  0.95819300925E+02 0.  0.
          5    1    3    3  502    0 -0.41574967687E+02 -0.49829561653E+02  0.14126234825E+03  0.15551201428E+03  0.41800000000E+01 0. -1.
         -5    1    3    3    0  502  0.12106479082E+02  0.49958666455E+02  0.33834719727E+02  0.61682216633E+02  0.41800000000E+01 0. -1.
        -11    1    4    4    0    0 -0.26683702162E+02 -0.15295203308E+02  0.61740698565E+02  0.68977366321E+02  0.00000000000E+00 0.  1.
         11    1    4    4    0    0  0.56152190767E+02  0.15166098506E+02  0.23943889400E+02  0.62899832365E+02  0.00000000000E+00 0. -1.
</event>
<event>
 8    1  0.7075056E-009  0.1148638E+03  0.7561462E-02  0.1251819E+00
         -2   -1    0    0    0  501 -0.00000000000E+00  0.00000000000E+00  0.24617294616E+02  0.24617294616E+02  0.00000000000E+00 0.  1.
          2   -1    0    0  501    0  0.00000000000E+00 -0.00000000000E+00 -0.69805531689E+03  0.69805531689E+03  0.00000000000E+00 0. -1.
         25    2    1    2    0    0 -0.53341612450E+02 -0.36739534925E+02 -0.46857926239E+03  0.48929603182E+03  0.12509580554E+03 0.  0.
         23    2    1    2    0    0  0.53341612450E+02  0.36739534925E+02 -0.20485875988E+03  0.23337657969E+03  0.91117481311E+02 0.  0.
          5    1    3    3  502    0  0.87767999839E+01  0.32931544656E+02 -0.23864573764E+03  0.24110325453E+03  0.41800000000E+01 0.  1.
         -5    1    3    3    0  502 -0.62118412434E+02 -0.69671079581E+02 -0.22993352475E+03  0.24819277729E+03  0.41800000000E+01 0.  1.
        -11    1    4    4    0    0  0.30715658189E+02 -0.22805728295E+02 -0.34562616956E+02  0.51557030480E+02  0.00000000000E+00 0.  1.
         11    1    4    4    0    0  0.22625954260E+02  0.59545263220E+02 -0.17029614293E+03  0.18181954921E+03  0.00000000000E+00 0. -1.
</event>
<event>
 8    1  0.7075056E-009  0.1295112E+03  0.7561462E-02  0.1228183E+00
         -2   -1    0    0    0  501 -0.00000000000E+00  0.00000000000E+00  0.13050920920E+03  0.13050920920E+03  0.00000000000E+00 0.  1.
          2   -1    0    0  501    0  0.00000000000E+00 -0.00000000000E+00 -0.14317683586E+03  0.14317683586E+03  0.00000000000E+00 0. -1.
         25    2    1    2    0    0  0.14050979015E+02  0.72668295004E+02 -0.43039727571E+02  0.15158437865E+03  0.12508914658E+03 0.  0.
         23    2    1    2    0    0 -0.14050979015E+02 -0.72668295004E+02  0.30372100912E+02  0.12210166640E+03  0.92240128546E+02 0.  0.
          5    1    3    3  502    0  0.56685771422E+02 -0.19787384149E+01 -0.30721725706E+02  0.64641232335E+02  0.41800000000E+01 0.  1.
         -5    1    3    3    0  502 -0.42634792406E+02  0.74647033418E+02 -0.12318001864E+02  0.86943146318E+02  0.41800000000E+01 0.  1.
        -11    1    4    4    0    0  0.26174395587E+02  0.67736193633E+01 -0.25690272451E+01  0.27158438921E+02  0.00000000000E+00 0.  1.
         11    1    4    4    0    0 -0.40225374602E+02 -0.79441914367E+02  0.32941128157E+02  0.94943227480E+02  0.00000000000E+00 0. -1.
</event>
<event>
 8    1  0.7075056E-009  0.4710383E+03  0.7561462E-02  0.1021628E+00
         -1   -1    0    0    0  501 -0.00000000000E+00  0.00000000000E+00  0.17577669983E+03  0.17577669983E+03  0.00000000000E+00 0.  1.
          1   -1    0    0  501    0  0.00000000000E+00 -0.00000000000E+00 -0.13273810648E+04  0.13273810648E+04  0.00000000000E+00 0. -1.
         25    2    1    2    0    0  0.26571983394E+03 -0.37672944823E+03 -0.44254282261E+03  0.65117030058E+03  0.12508598323E+03 0.  0.
         23    2    1    2    0    0 -0.26571983394E+03  0.37672944823E+03 -0.70906154240E+03  0.85198746409E+03  0.10287011592E+03 0.  0.
          5    1    3    3  502    0  0.18317826828E+03 -0.15438021470E+03 -0.24206472972E+03  0.34058821828E+03  0.41800000000E+01 0.  1.
         -5    1    3    3    0  502  0.82541565659E+02 -0.22234923353E+03 -0.20047809289E+03  0.31058208229E+03  0.41800000000E+01 0.  1.
        -11    1    4    4    0    0 -0.24088627833E+03  0.30069729692E+03 -0.52418005782E+03  0.65054576817E+03  0.00000000000E+00 0. -1.
         11    1    4    4    0    0 -0.24833555604E+02  0.76032151310E+02 -0.18488148458E+03  0.20144169593E+03  0.00000000000E+00 0.  1.
</event>
<event>
 8    1  0.7075056E-009  0.1051748E+03  0.7561462E-02  0.1269776E+00
         -2   -1    0    0    0  501 -0.00000000000E+00  0.00000000000E+00  0.34624078279E+02  0.34624078279E+02  0.00000000000E+00 0.  1.
          2   -1    0    0  501    0  0.00000000000E+00 -0.00000000000E+00 -0.46815852182E+03  0.46815852182E+03  0.00000000000E+00 0. -1.
         25    2    1    2    0    0  0.37590787152E+02  0.51576704478E+02 -0.20089613338E+03  0.24511141542E+03  0.12508847204E+03 0.  0.
         23    2    1    2    0    0 -0.37590787152E+02 -0.51576704478E+02 -0.23263831017E+03  0.25767118468E+03  0.90557342808E+02 0.  0.
          5    1    3    3  502    0  0.56169646873E+02 -0.20833500078E+02 -0.12404439468E+03  0.13781708242E+03  0.41800000000E+01 0. -1.
         -5    1    3    3    0  502 -0.18578859721E+02  0.72410204556E+02 -0.76851738701E+02  0.10729433300E+03  0.41800000000E+01 0. -1.
        -11    1    4    4    0    0 -0.21662369781E+02 -0.23164206055E+00 -0.30552018936E+01  0.21877983937E+02  0.00000000000E+00 0.  1.
         11    1    4    4    0    0 -0.15928417371E+02 -0.51345062417E+02 -0.22958310827E+03  0.23579320075E+03  0.00000000000E+00 0. -1.
</event>
<event>
 8    1  0.7075056E-009  0.9446796E+02  0.7561462E-02  0.1292379E+00
         -1   -1    0    0    0  501 -0.00000000000E+00  0.00000000000E+00  0.22286549987E+02  0.22286549987E+02  0.00000000000E+00 0.  1.
          1   -1    0    0  501    0  0.00000000000E+00 -0.00000000000E+00 -0.56734419214E+03  0.56734419214E+03  0.00000000000E+00 0. -1.
         25    2    1    2    0    0 -0.26158235299E+02  0.15839203810E+02 -0.29221438620E+03  0.31933204967E+03  0.12509427162E+03 0.  0.
         23    2    1    2    0    0  0.26158235299E+02 -0.15839203810E+02 -0.25284325595E+03  0.27029869246E+03  0.90534730423E+02 0.  0.
          5    1    3    3  502    0  0.36892192018E+02  0.14288075214E+02 -0.30598808241E+02  0.50189066449E+02  0.41800000000E+01 0. -1.
         -5    1    3    3    0  502 -0.63050427317E+02  0.15511285961E+01 -0.26161557796E+03  0.26914298322E+03  0.41800000000E+01 0. -1.
        -11    1    4    4    0    0  0.30893028591E+02 -0.46002350676E+02 -0.98983125370E+02  0.11343832946E+03  0.00000000000E+00 0.  1.
         11    1    4    4    0    0 -0.47347932918E+01  0.30163146866E+02 -0.15386013058E+03  0.15686036300E+03  0.00000000000E+00 0. -1.
</event>
<event>
 8    1  0.7075056E-009  0.1061906E+03  0.7561462E-02  0.1267791E+00
          1   -1    0    0  501    0  0.00000000000E+00  0.00000000000E+00  0.34086459694E+03  0.34086459694E+03  0.00000000000E+00 0. -1.
         -1   -1    0    0    0  501 -0.00000000000E+00 -0.00000000000E+00 -0.44379367286E+02  0.44379367286E+02  0.00000000000E+00 0.  1.
         25    2    1    2    0    0 -0.15977341099E+02  0.53662947022E+02  0.12166938397E+03  0.18326321412E+03  0.12508788648E+03 0.  0.
         23    2    1    2    0    0  0.15977341099E+02 -0.53662947022E+02  0.17481584569E+03  0.20198075011E+03  0.84265391463E+02 0.  0.
          5    1    3    3  502    0  0.40428462390E+02  0.45817852294E+02  0.16240473822E+02  0.63363724243E+02  0.41800000000E+01 0.  1.
         -5    1    3    3    0  502 -0.56405803488E+02  0.78450947283E+01  0.10542891014E+03  0.11989948988E+03  0.41800000000E+01 0.  1.
        -11    1    4    4    0    0  0.38287272529E+02 -0.26793376705E+01  0.11025713543E+03  0.11674643464E+03  0.00000000000E+00 0. -1.
         11    1    4    4    0    0 -0.22309931430E+02 -0.50983609351E+02  0.64558710261E+02  0.85234315469E+02  0.00000000000E+00 0.  1.
</event>
<event>
 8    1  0.7075056E-009  0.8580615E+02  0.7561462E-02  0.1313338E+00
         -3   -1    0    0    0  501 -0.00000000000E+00  0.00000000000E+00  0.44920552159E+03  0.44920552159E+03  0.00000000000E+00 0.  1.
          3   -1    0    0  501    0  0.00000000000E+00 -0.00000000000E+00 -0.33010862160E+02  0.33010862160E+02  0.00000000000E+00 0. -1.
         25    2    1    2    0    0  0.32997805472E+02  0.37041402454E+02  0.29428973100E+03  0.32359646758E+03  0.12508919776E+03 0.  0.
         23    2    1    2    0    0 -0.32997805472E+02 -0.37041402454E+02  0.12190492844E+03  0.15861991618E+03  0.88535561041E+02 0.  0.
          5    1    3    3  502    0  0.48706746818E+02  0.69892645113E+02  0.25913035195E+03  0.27280641621E+03  0.41800000000E+01 0.  1.
         -5    1    3    3    0  502 -0.15708941346E+02 -0.32851242659E+02  0.35159379051E+02  0.50790051366E+02  0.41800000000E+01 0.  1.
        -11    1    4    4    0    0 -0.16805994765E+02 -0.20681493475E+02 -0.70992333597E+01  0.27578338359E+02  0.00000000000E+00 0. -1.
         11    1    4    4    0    0 -0.16191810707E+02 -0.16359908979E+02  0.12900416180E+03  0.13104157782E+03  0.00000000000E+00 0.  1.
</event>
<event>
 8    1  0.7075056E-009  0.1715156E+03  0.7561462E-02  0.1176276E+00
         -1   -1    0    0    0  501 -0.00000000000E+00  0.00000000000E+00  0.75489875173E+02  0.75489875173E+02  0.00000000000E+00 0.  1.
          1   -1    0    0  501    0  0.00000000000E+00 -0.00000000000E+00 -0.67095359517E+03  0.67095359517E+03  0.00000000000E+00 0. -1.
         25    2    1    2    0    0 -0.94476583028E+02 -0.10285823480E+03 -0.77495880378E+02  0.20287503880E+03  0.12508808370E+03 0.  0.
         23    2    1    2    0    0  0.94476583028E+02  0.10285823480E+03 -0.51796783962E+03  0.54356843155E+03  0.87580338487E+02 0.  0.
          5    1    3    3  502    0 -0.99587752385E+02 -0.22209889866E+02 -0.64859488855E+02  0.12097613536E+03  0.41800000000E+01 0. -1.
         -5    1    3    3    0  502  0.51111693567E+01 -0.80648344934E+02 -0.12636391523E+02  0.81898903432E+02  0.41800000000E+01 0. -1.
        -11    1    4    4    0    0  0.89913672643E+02  0.42481269115E+02 -0.38193284067E+03  0.39466672210E+03  0.00000000000E+00 0. -1.
         11    1    4    4    0    0  0.45629103845E+01  0.60376965685E+02 -0.13603499895E+03  0.14890170945E+03  0.00000000000E+00 0.  1.
</event>
<event>
 8    1  0.7075056E-009  0.1397851E+03  0.7561462E-02  0.1213618E+00
         -1   -1    0    0    0  501 -0.00000000000E+00  0.00000000000E+00  0.17107065053E+03  0.17107065053E+03  0.00000000000E+00 0.  1.
          1   -1    0    0  501    0  0.00000000000E+00 -0.00000000000E+00 -0.15579219442E+03  0.15579219442E+03  0.00000000000E+00 0. -1.
         25    2    1    2    0    0 -0.65675547792E+01 -0.91708972556E+02 -0.71588025135E+02  0.17095836711E+03  0.12509296351E+03 0.  0.
         23    2    1    2    0    0  0.65675547792E+01  0.91708972556E+02  0.86866481244E+02  0.15590447783E+03  0.91141385882E+02 0.  0.
          5    1    3    3  502    0 -0.30176383941E+02  0.19737243906E+02  0.91137095960E-01  0.36299499318E+02  0.41800000000E+01 0. -1.
         -5    1    3    3    0  502  0.23608829162E+02 -0.11144621646E+03 -0.71679162231E+02  0.13465886780E+03  0.41800000000E+01 0. -1.
        -11    1    4    4    0    0 -0.42022058050E+02  0.35819221105E+02  0.32974366209E+02  0.64313130776E+02  0.00000000000E+00 0. -1.
         11    1    4    4    0    0  0.48589612829E+02  0.55889751451E+02  0.53892115035E+02  0.91591347054E+02  0.00000000000E+00 0.  1.
</event>
<event>
 8    1  0.7075056E-009  0.1215676E+03  0.7561462E-02  0.1240533E+00
          2   -1    0    0  501    0  0.00000000000E+00  0.00000000000E+00  0.68600816622E+03  0.68600816622E+03  0.00000000000E+00 0. -1.
         -2   -1    0    0    0  501 -0.00000000000E+00 -0.00000000000E+00 -0.32268140648E+02  0.32268140648E+02  0.00000000000E+00 0.  1.
         25    2    1    2    0    0  0.56298687204E+02  0.49835012764E+02  0.52002246123E+03  0.54011484472E+03  0.12509042583E+03 0.  0.
         23    2    1    2    0    0 -0.56298687204E+02 -0.49835012764E+02  0.13371756434E+03  0.17816146214E+03  0.90598283098E+02 0.  0.
          5    1    3    3  502    0 -0.34655187609E+02  0.41740130706E+02  0.20502214180E+03  0.21211971047E+03  0.41800000000E+01 0. -1.
         -5    1    3    3    0  502  0.90953874813E+02  0.80948820585E+01  0.31500031942E+03  0.32799513426E+03  0.41800000000E+01 0. -1.
        -11    1    4    4    0    0 -0.20784043304E+02 -0.57361255030E+02  0.29434030979E+02  0.67739591188E+02  0.00000000000E+00 0.  1.
         11    1    4    4    0    0 -0.35514643900E+02  0.75262422656E+01  0.10428353336E+03  0.11042187095E+03  0.00000000000E+00 0. -1.
</event>
<event>
 8    1  0.7075056E-009  0.1269484E+03  0.7561462E-02  0.1232055E+00
          2   -1    0    0  501    0  0.00000000000E+00  0.00000000000E+00  0.98037437429E+03  0.98037437429E+03  0.00000000000E+00 0. -1.
         -2   -1    0    0    0  501 -0.00000000000E+00 -0.00000000000E+00 -0.18340114025E+02  0.18340114025E+02  0.00000000000E+00 0.  1.
         25    2    1    2    0    0 -0.30892235279E+02  0.71814379780E+02  0.56207819425E+03  0.58111153211E+03  0.12508829265E+03 0.  0.
         23    2    1    2    0    0  0.30892235279E+02 -0.71814379780E+02  0.39995606602E+03  0.41760295621E+03  0.91190673564E+02 0.  0.
          5    1    3    3  502    0  0.12393956179E+02  0.91473796203E+02  0.44839199045E+03  0.45781428007E+03  0.41800000000E+01 0.  1.
         -5    1    3    3    0  502 -0.43286191458E+02 -0.19659416423E+02  0.11368620380E+03  0.12329725204E+03  0.41800000000E+01 0.  1.
        -11    1    4    4    0    0 -0.24995722357E+02 -0.30879073769E+01  0.43122021934E+02  0.49938262723E+02  0.00000000000E+00 0.  1.
         11    1    4    4    0    0  0.55887957637E+02 -0.68726472403E+02  0.35683404409E+03  0.36766469349E+03  0.00000000000E+00 0. -1.
</event>
<event>
 8    1  0.7075056E-009  0.1311553E+03  0.7561462E-02  0.1225751E+00
          3   -1    0    0  501    0  0.00000000000E+00  0.00000000000E+00  0.47724697761E+02  0.47724697761E+02  0.00000000000E+00 0. -1.
         -3   -1    0    0    0  501 -0.00000000000E+00 -0.00000000000E+00 -0.38640480698E+03  0.38640480698E+03  0.00000000000E+00 0.  1.
         25    2    1    2    0    0  0.77088720711E+02  0.28864006409E+02 -0.19785881103E+03  0.24813611110E+03  0.12509044249E+03 0.  0.
         23    2    1    2    0    0 -0.77088720711E+02 -0.28864006409E+02 -0.14082129819E+03  0.18599339364E+03  0.89370592073E+02 0.  0.
          5    1    3    3  502    0 -0.25433518761E+02  0.31724869533E+02 -0.92054988719E+02  0.10072201632E+03  0.41800000000E+01 0. -1.
         -5    1    3    3    0  502  0.10252223947E+03 -0.28608631240E+01 -0.10580382231E+03  0.14741409478E+03  0.41800000000E+01 0. -1.
        -11    1    4    4    0    0 -0.60589072034E+02  0.22658994295E+02 -0.95883129099E+02  0.11566347789E+03  0.00000000000E+00 0.  1.
         11    1    4    4    0    0 -0.16499648677E+02 -0.51523000703E+02 -0.44938169087E+02  0.70329915746E+02  0.00000000000E+00 0. -1.
</event>
<event>
 8    1  0.7075056E-009  0.1071602E+03  0.7561462E-02  0.1265921E+00
          1   -1    0    0  501    0  0.00000000000E+00  0.00000000000E+00  0.11445818080E+03  0.11445818080E+03  0.00000000000E+00 0. -1.
         -1   -1    0    0    0  501 -0.00000000000E+00 -0.00000000000E+00 -0.16914422009E+03  0.16914422009E+03  0.00000000000E+00 0.  1.
         25    2    1    2    0    0  0.67951980527E+02  0.39030790268E+02 -0.64679496777E+02  0.16115738888E+03  0.12508953769E+03 0.  0.
         23    2    1    2    0    0 -0.67951980527E+02 -0.39030790268E+02  0.99934574878E+01  0.12244501200E+03  0.93552325069E+02 0.  0.
          5    1    3    3  502    0  0.30708313798E+00  0.22021452401E+02  0.33707956845E+02  0.40481321872E+02  0.41800000000E+01 0.  1.
         -5    1    3    3    0  502  0.67644897389E+02  0.17009337867E+02 -0.98387453622E+02  0.12067606700E+03  0.41800000000E+01 0.  1.
        -11    1    4    4    0    0  0.22294899376E+02  0.29594421413E+01  0.24102874092E+01  0.22619246702E+02  0.00000000000E+00 0.  1.
         11    1    4    4    0    0 -0.90246879902E+02 -0.41990232410E+02  0.75831700786E+01  0.99825765303E+02  0.00000000000E+00 0. -1.
</event>
<event>
 8    1  0.7075056E-009  0.1268874E+03  0.7561462E-02  0.1232149E+00
          1   -1    0    0  501    0  0.00000000000E+00  0.00000000000E+00  0.15782773664E+03  0.15782773664E+03  0.00000000000E+00 0. -1.
         -1   -1    0    0    0  501 -0.00000000000E+00 -0.00000000000E+00 -0.12939349997E+03  0.12939349997E+03  0.00000000000E+00 0.  1.
         25    2    1    2    0    0 -0.90381330580E+02  0.16802888238E+02  0.10591569030E+02  0.15559757482E+03  0.12508917613E+03 0.  0.
         23    2    1    2    0    0  0.90381330580E+02 -0.16802888238E+02  0.17842667645E+02  0.13162366179E+03  0.92494894907E+02 0.  0.
          5    1    3    3  502    0 -0.10478641132E+03  0.34744465639E+02 -0.24755198732E+02  0.11321511451E+03  0.41800000000E+01 0.  1.
         -5    1    3    3    0  502  0.14405080735E+02 -0.17941577401E+02  0.35346767762E+02  0.42382460309E+02  0.41800000000E+01 0.  1.
        -11    1    4    4    0    0  0.87589076119E+02 -0.40183762593E+02  0.34960059708E+02  0.10251237392E+03  0.00000000000E+00 0. -1.
         11    1    4    4    0    0  0.27922544610E+01  0.23380874355E+02 -0.17117392062E+02  0.29111287873E+02  0.00000000000E+00 0.  1.
</event>
<event>
 8    1  0.7075056E-009  0.1199337E+03  0.7561462E-02  0.1243207E+00
          2   -1    0    0  501    0  0.00000000000E+00  0.00000000000E+00  0.14775629092E+04  0.14775629092E+04  0.00000000000E+00 0. -1.
         -2   -1    0    0    0  501 -0.00000000000E+00 -0.00000000000E+00 -0.11838252002E+02  0.11838252002E+02  0.00000000000E+00 0.  1.
         25    2    1    2    0    0  0.47542855565E+02 -0.21838966780E+02  0.10972186254E+04  0.11055641511E+04  0.12508443849E+03 0.  0.
         23    2    1    2    0    0 -0.47542855565E+02  0.21838966780E+02  0.36850603184E+03  0.38383701012E+03  0.93791744018E+02 0.  0.
          5    1    3    3  502    0  0.38838119342E+02 -0.71729586781E+02  0.78493598608E+03  0.78917394012E+03  0.41800000000E+01 0.  1.
         -5    1    3    3    0  502  0.87047362231E+01  0.49890620002E+02  0.31228263931E+03  0.31639021099E+03  0.41800000000E+01 0.  1.
        -11    1    4    4    0    0  0.23114009464E+02  0.28164843281E+02  0.12879857036E+03  0.13385285786E+03  0.00000000000E+00 0.  1.
         11    1    4    4    0    0 -0.70656865029E+02 -0.63258765012E+01  0.23970746148E+03  0.24998415226E+03  0.00000000000E+00 0. -1.
</event>
<event>
 8    1  0.7075056E-009  0.1061288E+03  0.7561462E-02  0.1267911E+00
          1   -1    0    0  501    0  0.00000000000E+00  0.00000000000E+00  0.51917624261E+02  0.51917624261E+02  0.00000000000E+00 0. -1.
         -1   -1    0    0    0  501 -0.00000000000E+00 -0.00000000000E+00 -0.39837549748E+03  0.39837549748E+03  0.00000000000E+00 0.  1.
         25    2    1    2    0    0 -0.32822563302E+02  0.79750830377E+02 -0.13183329780E+03  0.20115788180E+03  0.12508780673E+03 0.  0.
         23    2    1    2    0    0  0.32822563302E+02 -0.79750830377E+02 -0.21462457542E+03  0.24913523995E+03  0.92558866688E+02 0.  0.
          5    1    3    3  502    0 -0.12528468819E+02  0.54683140345E+02  0.86877569938E+01  0.56922384793E+02  0.41800000000E+01 0. -1.
         -5    1    3    3    0  502 -0.20294094483E+02  0.25067690031E+02 -0.14052105480E+03  0.14423549700E+03  0.41800000000E+01 0. -1.
        -11    1    4    4    0    0  0.47199273300E+02 -0.51193770012E+01 -0.11009430744E+03  0.11989468692E+03  0.00000000000E+00 0.  1.
         11    1    4    4    0    0 -0.14376709999E+02 -0.74631453375E+02 -0.10453026798E+03  0.12924055303E+03  0.00000000000E+00 0. -1.
</event>
<event>
 8    1  0.7075056E-009  0.1147201E+03  0.7561462E-02  0.1252071E+00
          2   -1    0    0  501    0  0.00000000000E+00  0.00000000000E+00  0.39215500068E+03  0.39215500068E+03  0.00000000000E+00 0. -1.
         -2   -1    0    0    0  501 -0.00000000000E+00 -0.00000000000E+00 -0.34180427261E+02  0.34180427261E+02  0.00000000000E+00 0.  1.
         25    2    1    2    0    0  0.17306057200E+02  0.36898340095E+02  0.20422298913E+03  0.24292227003E+03  0.12507283027E+03 0.  0.
         23    2    1    2    0    0 -0.17306057200E+02 -0.36898340095E+02  0.15375158429E+03  0.18341315790E+03  0.91322777573E+02 0.  0.
          5    1    3    3  502    0  0.62444997109E+02  0.54423533399E+02  0.12770788249E+03  0.15227630906E+03  0.41800000000E+01 0.  1.
         -5    1    3    3    0  502 -0.45138939909E+02 -0.17525193304E+02  0.76515106642E+02  0.90645960974E+02  0.41800000000E+01 0.  1.
        -11    1    4    4    0    0 -0.52407340531E+02 -0.34444115869E+02  0.11558097893E+03  0.13149862794E+03  0.00000000000E+00 0. -1.
         11    1    4    4    0    0  0.35101283330E+02 -0.24542242263E+01  0.38170605352E+02  0.51914529960E+02  0.00000000000E+00 0.  1.
</event>
<event>
 8    1  0.7075056E-009  0.1301447E+03  0.7561462E-02  0.1227241E+00
         -2   -1    0    0    0  501 -0.00000000000E+00  0.00000000000E+00  0.29777219390E+02  0.29777219390E+02  0.00000000000E+00 0.  1.
          2   -1    0    0  501    0  0.00000000000E+00 -0.00000000000E+00 -0.10553018924E+04  0.10553018924E+04  0.00000000000E+00 0. -1.
         25    2    1    2    0    0 -0.10447829102E+03 -0.17353609752E+00 -0.82867249628E+03  0.84454786602E+03  0.12508896229E+03 0.  0.
         23    2    1    2    0    0  0.10447829102E+03  0.17353609752E+00 -0.19685217674E+03  0.24053124578E+03  0.90491752680E+02 0.  0.
          5    1    3    3  502    0 -0.13261754959E+02 -0.45255833026E+02 -0.44782311435E+03  0.45031875235E+03  0.41800000000E+01 0.  1.
         -5    1    3    3    0  502 -0.91216536061E+02  0.45082296928E+02 -0.38084938193E+03  0.39422911367E+03  0.41800000000E+01 0.  1.
        -11    1    4    4    0    0  0.27670328500E+02  0.17007887895E+02 -0.13943552497E+03  0.14316836576E+03  0.00000000000E+00 0. -1.
         11    1    4    4    0    0  0.76807962520E+02 -0.16834351797E+02 -0.57416651766E+02  0.97362880026E+02  0.00000000000E+00 0.  1.
</event>
<event>
 8    1  0.7075056E-009  0.1267881E+03  0.7561462E-02  0.1232301E+00
          3   -1    0    0  501    0  0.00000000000E+00  0.00000000000E+00  0.21720815541E+03  0.21720815541E+03  0.00000000000E+00 0. -1.
         -3   -1    0    0    0  501 -0.00000000000E+00 -0.00000000000E+00 -0.10335046665E+03  0.10335046665E+03  0.00000000000E+00 0.  1.
         25    2    1    2    0    0 -0.64820930370E+02  0.53125880997E+02  0.10007501127E+01  0.15057380612E+03  0.12508939740E+03 0.  0.
         23    2    1    2    0    0  0.64820930370E+02 -0.53125880997E+02  0.11285693865E+03  0.16998481595E+03  0.95572154972E+02 0.  0.
          5    1    3    3  502    0 -0.98490749831E+02  0.39496443016E+02  0.21938557772E+02  0.10843970458E+03  0.41800000000E+01 0.  1.
         -5    1    3    3    0  502  0.33669819461E+02  0.13629437982E+02 -0.20937807660E+02  0.42134101531E+02  0.41800000000E+01 0.  1.
        -11    1    4    4    0    0  0.11405959914E+02 -0.56167505128E+02  0.99523472170E+02  0.11484688096E+03  0.00000000000E+00 0. -1.
         11    1    4    4    0    0  0.53414970456E+02  0.30416241301E+01  0.13333466478E+02  0.55137934986E+02  0.00000000000E+00 0.  1.
</event>
<event>
 8    1  0.7075056E-009  0.1509570E+03  0.7561462E-02  0.1199302E+00
         -2   -1    0    0    0  501 -0.00000000000E+00  0.00000000000E+00  0.55471057609E+03  0.55471057609E+03  0.00000000000E+00 0.  1.
          2   -1    0    0  501    0  0.00000000000E+00 -0.00000000000E+00 -0.69972860949E+02  0.69972860949E+02  0.00000000000E+00 0. -1.
         25    2    1    2    0    0 -0.90571646223E+02  0.75086889907E+02  0.72635628492E+02  0.18644284237E+03  0.12507491678E+03 0.  0.
         23    2    1    2    0    0  0.90571646223E+02 -0.75086889907E+02  0.41210208665E+03  0.43824059467E+03  0.91571965483E+02 0.  0.
          5    1    3    3  502    0  0.84032258285E+01 -0.20858815104E+02  0.37832535706E+02  0.44209473304E+02  0.41800000000E+01 0. -1.
         -5    1    3    3    0  502 -0.98974872051E+02  0.95945705012E+02  0.34803092786E+02  0.14223336906E+03  0.41800000000E+01 0. -1.
        -11    1    4    4    0    0  0.89422991851E+02 -0.27536082886E+02  0.33341117959E+03  0.34629138310E+03  0.00000000000E+00 0.  1.
         11    1    4    4    0    0  0.11486543718E+01 -0.47550807021E+02  0.78690907054E+02  0.91949211569E+02  0.00000000000E+00 0. -1.
</event>
<event>
 8    1  0.7075056E-009  0.1350919E+03  0.7561462E-02  0.1220090E+00
         -2   -1    0    0    0  501 -0.00000000000E+00  0.00000000000E+00  0.21669471565E+03  0.21669471565E+03  0.00000000000E+00 0.  1.
          2   -1    0    0  501    0  0.00000000000E+00 -0.00000000000E+00 -0.10391693165E+03  0.10391693165E+03  0.00000000000E+00 0. -1.
         25    2    1    2    0    0 -0.74941662248E+02 -0.66157008655E+02  0.25863274476E+02  0.16220163649E+03  0.12508980526E+03 0.  0.
         23    2    1    2    0    0  0.74941662248E+02  0.66157008655E+02  0.86914509523E+02  0.15841001082E+03  0.86871151868E+02 0.  0.
          5    1    3    3  502    0  0.96934700795E+01 -0.73828728431E+02  0.18228233632E+02  0.76774900881E+02  0.41800000000E+01 0.  1.
         -5    1    3    3    0  502 -0.84635132327E+02  0.76717197764E+01  0.76350408443E+01  0.85426735610E+02  0.41800000000E+01 0.  1.
        -11    1    4    4    0    0  0.61354113251E+02  0.23416380679E+02  0.92258441539E+02  0.11324431170E+03  0.00000000000E+00 0.  1.
         11    1    4    4    0    0  0.13587548996E+02  0.42740627976E+02 -0.53439320155E+01  0.45165699118E+02  0.00000000000E+00 0. -1.
</event>
<event>
 8    1  0.7075056E-009  0.2511984E+03  0.7561462E-02  0.1112550E+00
          2   -1    0    0  501    0  0.00000000000E+00  0.00000000000E+00  0.80167367419E+02  0.80167367419E+02  0.00000000000E+00 0. -1.
         -2   -1    0    0    0  501 -0.00000000000E+00 -0.00000000000E+00 -0.12224638830E+04  0.12224638830E+04  0.00000000000E+00 0.  1.
         25    2    1    2    0    0 -0.22390050428E+03 -0.51255002913E+02 -0.20202856763E+03  0.33048415748E+03  0.12508287278E+03 0.  0.
         23    2    1    2    0    0  0.22390050428E+03  0.51255002913E+02 -0.94026794798E+03  0.97214709297E+03  0.90596055338E+02 0.  0.
          5    1    3    3  502    0  0.13768136765E+01  0.23452506536E+02 -0.23226006681E+02  0.33299181147E+02  0.41800000000E+01 0.  1.
         -5    1    3    3    0  502 -0.22527731795E+03 -0.74707509449E+02 -0.17880256095E+03  0.29718497633E+03  0.41800000000E+01 0.  1.
        -11    1    4    4    0    0  0.98778805738E+02 -0.14453275095E+02 -0.49583151233E+03  0.50578161122E+03  0.00000000000E+00 0.  1.
         11    1    4    4    0    0  0.12512169854E+03  0.65708278007E+02 -0.44443643564E+03  0.46636548175E+03  0.00000000000E+00 0. -1.
</event>
<event>
 8    1  0.7075056E-009  0.1215586E+03  0.7561462E-02  0.1240548E+00
          1   -1    0    0  501    0  0.00000000000E+00  0.00000000000E+00  0.77571179135E+03  0.77571179135E+03  0.00000000000E+00 0. -1.
         -1   -1    0    0    0  501 -0.00000000000E+00 -0.00000000000E+00 -0.21644977385E+02  0.21644977385E+02  0.00000000000E+00 0.  1.
         25    2    1    2    0    0  0.34494728520E+02  0.44164947560E+02  0.55347839804E+03  0.57019847572E+03  0.12509011043E+03 0.  0.
         23    2    1    2    0    0 -0.34494728520E+02 -0.44164947560E+02  0.20058841592E+03  0.22715829301E+03  0.90690399675E+02 0.  0.
          5    1    3    3  502    0  0.14082178241E+02 -0.43958951613E+02  0.20092326708E+03  0.20619973042E+03  0.41800000000E+01 0.  1.
         -5    1    3    3    0  502  0.20412550279E+02  0.88123899173E+02  0.35255513096E+03  0.36399874530E+03  0.41800000000E+01 0.  1.
        -11    1    4    4    0    0  0.73551068439E+01 -0.60753848290E+02  0.12508249104E+03  0.13925069925E+03  0.00000000000E+00 0. -1.
         11    1    4    4    0    0 -0.41849835364E+02  0.16588900730E+02  0.75505924885E+02  0.87907593757E+02  0.00000000000E+00 0.  1.
</event>
<event>
 8    1  0.7075056E-009  0.9295997E+02  0.7561462E-02  0.1295838E+00
         -1   -1    0    0    0  501 -0.00000000000E+00  0.00000000000E+00  0.33110646169E+02  0.33110646169E+02  0.00000000000E+00 0.  1.
          1   -1    0    0  501    0  0.00000000000E+00 -0.00000000000E+00 -0.35893240043E+03  0.35893240043E+03  0.00000000000E+00 0. -1.
         25    2    1    2    0    0  0.16409235519E-01 -0.18807395850E+02 -0.18004662527E+03  0.22004068798E+03  0.12508956268E+03 0.  0.
         23    2    1    2    0    0 -0.16409235519E-01  0.18807395850E+02 -0.14577512899E+03  0.17200235861E+03  0.89334790130E+02 0.  0.
          5    1    3    3  502    0 -0.22303848583E+02 -0.59908410331E+02 -0.48458993407E+02  0.80325747628E+02  0.41800000000E+01 0. -1.
         -5    1    3    3    0  502  0.22320257818E+02  0.41101014481E+02 -0.13158763186E+03  0.13971494036E+03  0.41800000000E+01 0. -1.
        -11    1    4    4    0    0  0.15039274729E+02 -0.24668744052E+02 -0.10997206502E+03  0.11370392167E+03  0.00000000000E+00 0. -1.
         11    1    4    4    0    0 -0.15055683964E+02  0.43476139902E+02 -0.35803063968E+02  0.58298436943E+02  0.00000000000E+00 0.  1.
</event>
<event>
 8    1  0.7075056E-009  0.9531866E+02  0.7561462E-02  0.1290460E+00
         -1   -1    0    0    0  501 -0.00000000000E+00  0.00000000000E+00  0.18286919022E+04  0.18286919022E+04  0.00000000000E+00 0.  1.
          1   -1    0    0  501    0  0.00000000000E+00 -0.00000000000E+00 -0.80896474575E+01  0.80896474575E+01  0.00000000000E+00 0. -1.
         25    2    1    2    0    0 -0.20199004728E+02  0.22460767143E+02  0.13538899105E+04  0.13599920450E+04  0.12509191360E+03 0.  0.
         23    2    1    2    0    0  0.20199004728E+02 -0.22460767143E+02  0.46671234424E+03  0.47678950466E+03  0.92711022180E+02 0.  0.
          5    1    3    3  502    0 -0.55968458558E+02  0.19118248158E+02  0.12157813062E+04  0.12172262044E+04  0.41800000000E+01 0.  1.
         -5    1    3    3    0  502  0.35769453830E+02  0.33425189851E+01  0.13810860432E+03  0.14276584062E+03  0.41800000000E+01 0.  1.
        -11    1    4    4    0    0  0.53533782838E+02 -0.29477907497E+02  0.34630665557E+03  0.35165766397E+03  0.00000000000E+00 0.  1.
         11    1    4    4    0    0 -0.33334778111E+02  0.70171403543E+01  0.12040568867E+03  0.12513184069E+03  0.00000000000E+00 0. -1.
</event>
<event>
 8    1  0.7075056E-009  0.1065375E+03  0.7561462E-02  0.1267120E+00
          2   -1    0    0  501    0  0.00000000000E+00  0.00000000000E+00  0.60003861203E+03  0.60003861203E+03  0.00000000000E+00 0.  1.
         -2   -1    0    0    0  501 -0.00000000000E+00 -0.00000000000E+00 -0.21379942965E+02  0.21379942965E+02  0.00000000000E+00 0. -1.
         25    2    1    2    0    0 -0.24723225735E+02  0.39659733344E+02  0.37009614989E+03  0.39344611335E+03  0.12507818198E+03 0.  0.
         23    2    1    2    0    0  0.24723225735E+02 -0.39659733344E+02  0.20856251917E+03  0.22797244164E+03  0.79303073116E+02 0.  0.
          5    1    3    3  502    0  0.41984255566E+02 -0.24618817105E+01  0.21795989387E+03  0.22201965299E+03  0.41800000000E+01 0. -1.
         -5    1    3    3    0  502 -0.66707481301E+02  0.42121615054E+02  0.15213625602E+03  0.17142646036E+03  0.41800000000E+01 0. -1.
        -11    1    4    4    0    0  0.19266136285E+02 -0.64013534910E+02  0.15896791636E+03  0.17245206606E+03  0.00000000000E+00 0.  1.
         11    1    4    4    0    0  0.54570894497E+01  0.24353801566E+02  0.49594602816E+02  0.55520375579E+02  0.00000000000E+00 0. -1.
</event>
<event>
 8    1  0.7075056E-009  0.1623468E+03  0.7561462E-02  0.1186072E+00
         -1   -1    0    0    0  501 -0.00000000000E+00  0.00000000000E+00  0.18957124961E+03  0.18957124961E+03  0.00000000000E+00 0.  1.
          1   -1    0    0  501    0  0.00000000000E+00 -0.00000000000E+00 -0.22820951640E+03  0.22820951640E+03  0.00000000000E+00 0. -1.
         25    2    1    2    0    0  0.12963274026E+03 -0.57634529318E+02 -0.12625235247E+03  0.22740679170E+03  0.12509119109E+03 0.  0.
         23    2    1    2    0    0 -0.12963274026E+03  0.57634529318E+02  0.87614085680E+02  0.19037397431E+03  0.91867490270E+02 0.  0.
          5    1    3    3  502    0  0.68252480854E+02  0.29165835156E+02 -0.85943650431E+02  0.11363463615E+03  0.41800000000E+01 0.  1.
         -5    1    3    3    0  502  0.61380259408E+02 -0.86800364474E+02 -0.40308702040E+02  0.11377215555E+03  0.41800000000E+01 0.  1.
        -11    1    4    4    0    0 -0.60101391397E+02  0.40105608882E+02 -0.59427647560E+01  0.72497955589E+02  0.00000000000E+00 0. -1.
         11    1    4    4    0    0 -0.69531348865E+02  0.17528920436E+02  0.93556850436E+02  0.11787601872E+03  0.00000000000E+00 0.  1.
</event>
<event>
 8    1  0.7075056E-009  0.1831500E+03  0.7561462E-02  0.1164789E+00
          1   -1    0    0  501    0  0.00000000000E+00  0.00000000000E+00  0.15855371655E+03  0.15855371655E+03  0.00000000000E+00 0. -1.
         -1   -1    0    0    0  501 -0.00000000000E+00 -0.00000000000E+00 -0.24628907927E+03  0.24628907927E+03  0.00000000000E+00 0.  1.
         25    2    1    2    0    0 -0.10025833827E+03  0.12453193645E+03 -0.86466146189E+00  0.20299814842E+03  0.12509021957E+03 0.  0.
         23    2    1    2    0    0  0.10025833827E+03 -0.12453193645E+03 -0.86870701253E+02  0.20184464740E+03  0.87377373265E+02 0.  0.
          5    1    3    3  502    0 -0.16149660770E+02  0.95157884680E+02  0.40412670186E+02  0.10472101447E+03  0.41800000000E+01 0. -1.
         -5    1    3    3    0  502 -0.84108677505E+02  0.29374051773E+02 -0.41277331648E+02  0.98277133949E+02  0.41800000000E+01 0. -1.
        -11    1    4    4    0    0  0.10405958362E+02 -0.79166258788E+02 -0.24889558556E+02  0.83636538816E+02  0.00000000000E+00 0. -1.
         11    1    4    4    0    0  0.89852379912E+02 -0.45365677665E+02 -0.61981142696E+02  0.11820810859E+03  0.00000000000E+00 0.  1.
</event>
<event>
 8    1  0.7075056E-009  0.2559329E+03  0.7561462E-02  0.1109612E+00
          1   -1    0    0  501    0  0.00000000000E+00  0.00000000000E+00  0.28142102617E+04  0.28142102617E+04  0.00000000000E+00 0. -1.
         -1   -1    0    0    0  501 -0.00000000000E+00 -0.00000000000E+00 -0.68150797186E+02  0.68150797186E+02  0.00000000000E+00 0.  1.
         25    2    1    2    0    0  0.58530794844E+00  0.24023460485E+03  0.25347294034E+04  0.25491594204E+04  0.12509034314E+03 0.  0.
         23    2    1    2    0    0 -0.58530794844E+00 -0.24023460485E+03  0.21133006106E+03  0.33320163848E+03  0.93004995706E+02 0.  0.
          5    1    3    3  502    0  0.50046562570E+02  0.39980873937E+02  0.54839108097E+03  0.55213529030E+03  0.41800000000E+01 0.  1.
         -5    1    3    3    0  502 -0.49461254621E+02  0.20025373091E+03  0.19863383225E+04  0.19970241301E+04  0.41800000000E+01 0.  1.
        -11    1    4    4    0    0 -0.11855808720E+02 -0.13691687161E+03  0.60798446997E+02  0.15027721414E+03  0.00000000000E+00 0.  1.
         11    1    4    4    0    0  0.11270500771E+02 -0.10331773324E+03  0.15053161406E+03  0.18292442434E+03  0.00000000000E+00 0. -1.
</event>
<event>
 8    1  0.7075056E-009  0.1102725E+03  0.7561462E-02  0.1260066E+00
         -2   -1    0    0    0  501 -0.00000000000E+00  0.00000000000E+00  0.10407125621E+02  0.10407125621E+02  0.00000000000E+00 0.  1.
          2   -1    0    0  501    0  0.00000000000E+00 -0.00000000000E+00 -0.13759864282E+04  0.13759864282E+04  0.00000000000E+00 0. -1.
         25    2    1    2    0    0  0.43814454918E+02  0.27014563755E+02 -0.79759007462E+03  0.80897887368E+03  0.12508955919E+03 0.  0.
         23    2    1    2    0    0 -0.43814454918E+02 -0.27014563755E+02 -0.56798922797E+03  0.57741468014E+03  0.90257723465E+02 0.  0.
          5    1    3    3  502    0  0.57971098737E+02  0.58458260984E+02 -0.70973192056E+03  0.71450324564E+03  0.41800000000E+01 0. -1.
         -5    1    3    3    0  502 -0.14156643819E+02 -0.31443697229E+02 -0.87858154054E+02  0.94475628039E+02  0.41800000000E+01 0. -1.
        -11    1    4    4    0    0 -0.46739141674E+02 -0.56736335698E+02 -0.42908877591E+03  0.43533979460E+03  0.00000000000E+00 0.  1.
         11    1    4    4    0    0  0.29246867558E+01  0.29721771943E+02 -0.13890045206E+03  0.14207488554E+03  0.00000000000E+00 0. -1.
</event>
<event>
 8    1  0.7075056E-009  0.1156114E+03  0.7561462E-02  0.1250518E+00
         -1   -1    0    0    0  501 -0.00000000000E+00  0.00000000000E+00  0.15948202579E+02  0.15948202579E+02  0.00000000000E+00 0.  1.
          1   -1    0    0  501    0  0.00000000000E+00 -0.00000000000E+00 -0.10169533744E+04  0.10169533744E+04  0.00000000000E+00 0. -1.
         25    2    1    2    0    0  0.56427618722E+02 -0.72938951451E-01 -0.71398045177E+03  0.72704886818E+03  0.12509152545E+03 0.  0.
         23    2    1    2    0    0 -0.56427618722E+02  0.72938951451E-01 -0.28702472005E+03  0.30585270879E+03  0.89323054607E+02 0.  0.
          5    1    3    3  502    0  0.63094432974E+02  0.51091766523E+02 -0.51831302989E+03  0.52464954534E+03  0.41800000000E+01 0. -1.
         -5    1    3    3    0  502 -0.66668142525E+01 -0.51164705474E+02 -0.19566742188E+03  0.20239932284E+03  0.41800000000E+01 0. -1.
        -11    1    4    4    0    0 -0.64770083517E+02  0.26850756034E+02 -0.24848422485E+03  0.25818701908E+03  0.00000000000E+00 0. -1.
         11    1    4    4    0    0  0.83424647949E+01 -0.26777817083E+02 -0.38540495191E+02  0.47665689717E+02  0.00000000000E+00 0.  1.
</event>
<event>
 8    1  0.7075056E-009  0.1072802E+03  0.7561462E-02  0.1265691E+00
          1   -1    0    0  501    0  0.00000000000E+00  0.00000000000E+00  0.51336492452E+03  0.51336492452E+03  0.00000000000E+00 0. -1.
         -1   -1    0    0    0  501 -0.00000000000E+00 -0.00000000000E+00 -0.48922550660E+02  0.48922550660E+02  0.00000000000E+00 0.  1.
         25    2    1    2    0    0  0.88374864154E+02  0.59139348472E+02  0.32969351845E+03  0.36830950130E+03  0.12508594441E+03 0.  0.
         23    2    1    2    0    0 -0.88374864154E+02 -0.59139348472E+02  0.13474885541E+03  0.19397797388E+03  0.90347225549E+02 0.  0.
          5    1    3    3  502    0  0.36018528904E+02  0.14599043341E+02  0.87440375452E+01  0.40054925833E+02  0.41800000000E+01 0.  1.
         -5    1    3    3    0  502  0.52356335250E+02  0.44540305131E+02  0.32094948091E+03  0.32825457547E+03  0.41800000000E+01 0.  1.
        -11    1    4    4    0    0 -0.67033833270E+02 -0.40850620448E+02  0.27610430123E+02  0.83214444933E+02  0.00000000000E+00 0.  1.
         11    1    4    4    0    0 -0.21341030884E+02 -0.18288728024E+02  0.10713842529E+03  0.11076352895E+03  0.00000000000E+00 0. -1.
</event>
<event>
 8    1  0.7075056E-009  0.1189487E+03  0.7561462E-02  0.1244841E+00
         -4   -1    0    0    0  501 -0.00000000000E+00  0.00000000000E+00  0.29135975939E+02  0.29135975939E+02  0.00000000000E+00 0.  1.
          4   -1    0    0  501    0  0.00000000000E+00 -0.00000000000E+00 -0.64944859764E+03  0.64944859764E+03  0.00000000000E+00 0. -1.
         25    2    1    2    0    0 -0.50160808200E+02 -0.11491463776E+02 -0.50082671585E+03  0.51877070503E+03  0.12508990638E+03 0.  0.
         23    2    1    2    0    0  0.50160808200E+02  0.11491463776E+02 -0.11948590586E+03  0.15981386855E+03  0.92819343149E+02 0.  0.
          5    1    3    3  502    0 -0.57383731400E+02  0.47409510145E+02 -0.31259144317E+03  0.32135873572E+03  0.41800000000E+01 0. -1.
         -5    1    3    3    0  502  0.72229231997E+01 -0.58900973921E+02 -0.18823527268E+03  0.19741196931E+03  0.41800000000E+01 0. -1.
        -11    1    4    4    0    0  0.44393878487E+02 -0.35295552444E+02 -0.48631378685E+02  0.74710129582E+02  0.00000000000E+00 0. -1.
         11    1    4    4    0    0  0.57669297132E+01  0.46787016219E+02 -0.70854527172E+02  0.85103738964E+02  0.00000000000E+00 0.  1.
</event>
<event>
 8    1  0.7075056E-009  0.9533262E+02  0.7561462E-02  0.1290429E+00
          2   -1    0    0  501    0  0.00000000000E+00  0.00000000000E+00  0.85895987533E+02  0.85895987533E+02  0.00000000000E+00 0. -1.
         -2   -1    0    0    0  501 -0.00000000000E+00 -0.00000000000E+00 -0.27930964659E+03  0.27930964659E+03  0.00000000000E+00 0.  1.
         25    2    1    2    0    0  0.38667622616E+02  0.26305551774E+02 -0.22208809647E+03  0.25914630300E+03  0.12508603708E+03 0.  0.
         23    2    1    2    0    0 -0.38667622616E+02 -0.26305551774E+02  0.28674437416E+02  0.10605933112E+03  0.90769990989E+02 0.  0.
          5    1    3    3  502    0 -0.19259300167E+02  0.28057686686E+02 -0.52851896830E+01  0.34692363066E+02  0.41800000000E+01 0. -1.
         -5    1    3    3    0  502  0.57926922783E+02 -0.17521349116E+01 -0.21680290679E+03  0.22445393994E+03  0.41800000000E+01 0. -1.
        -11    1    4    4    0    0 -0.53195773938E+02 -0.48341521774E+02  0.33374581454E+02  0.79249957600E+02  0.00000000000E+00 0. -1.
         11    1    4    4    0    0  0.14528151323E+02  0.22035970000E+02 -0.47001440375E+01  0.26809373522E+02  0.00000000000E+00 0.  1.
</event>
<event>
 8    1  0.7075056E-009  0.1102043E+03  0.7561462E-02  0.1260192E+00
         -1   -1    0    0    0  501 -0.00000000000E+00  0.00000000000E+00  0.81135413805E+02  0.81135413805E+02  0.00000000000E+00 0.  1.
          1   -1    0    0  501    0  0.00000000000E+00 -0.00000000000E+00 -0.27127571650E+03  0.27127571650E+03  0.00000000000E+00 0. -1.
         25    2    1    2    0    0  0.19528889790E+02 -0.76082090774E+02 -0.17842682912E+03  0.23163372468E+03  0.12509271356E+03 0.  0.
         23    2    1    2    0    0 -0.19528889790E+02  0.76082090774E+02 -0.11713473571E+02  0.12077740562E+03  0.90995132689E+02 0.  0.
          5    1    3    3  502    0  0.31523290888E+02 -0.87068080451E+02 -0.56499359395E+02  0.10855514043E+03  0.41800000000E+01 0.  1.
         -5    1    3    3    0  502 -0.11994401098E+02  0.10985989676E+02 -0.12192746973E+03  0.12307858425E+03  0.41800000000E+01 0.  1.
        -11    1    4    4    0    0 -0.49537723730E+02  0.37983381693E+02 -0.29600323261E+02  0.69086196120E+02  0.00000000000E+00 0. -1.
         11    1    4    4    0    0  0.30008833940E+02  0.38098709081E+02  0.17886849691E+02  0.51691209503E+02  0.00000000000E+00 0.  1.
</event>
<event>
 8    1  0.7075056E-009  0.8764449E+02  0.7561462E-02  0.1308658E+00
         -1   -1    0    0    0  501 -0.00000000000E+00  0.00000000000E+00  0.13447605685E+03  0.13447605685E+03  0.00000000000E+00 0.  1.
          1   -1    0    0  501    0  0.00000000000E+00 -0.00000000000E+00 -0.12209364297E+03  0.12209364297E+03  0.00000000000E+00 0. -1.
         25    2    1    2    0    0 -0.24567069735E+02  0.51629792776E+02  0.39880468937E+02  0.14320139470E+03  0.12508801391E+03 0.  0.
         23    2    1    2    0    0  0.24567069735E+02 -0.51629792776E+02 -0.27498055053E+02  0.11336830511E+03  0.93952398348E+02 0.  0.
          5    1    3    3  502    0 -0.98808831572E+01 -0.13888858964E+02  0.68043147131E+02  0.70270011575E+02  0.41800000000E+01 0.  1.
         -5    1    3    3    0  502 -0.14686186578E+02  0.65518651740E+02 -0.28162678194E+02  0.72931383129E+02  0.41800000000E+01 0.  1.
        -11    1    4    4    0    0  0.27446633720E+02  0.96675934671E+01  0.20387531653E+02  0.35530712249E+02  0.00000000000E+00 0.  1.
         11    1    4    4    0    0 -0.28795639848E+01 -0.61297386244E+02 -0.47885586705E+02  0.77837592866E+02  0.00000000000E+00 0. -1.
</event>
<event>
 8    1  0.7075056E-009  0.9836689E+02  0.7561462E-02  0.1283768E+00
          2   -1    0    0  501    0  0.00000000000E+00  0.00000000000E+00  0.24690941015E+03  0.24690941015E+03  0.00000000000E+00 0. -1.
         -2   -1    0    0    0  501 -0.00000000000E+00 -0.00000000000E+00 -0.52329128183E+02  0.52329128183E+02  0.00000000000E+00 0.  1.
         25    2    1    2    0    0 -0.25336604198E+02 -0.16016673804E+02  0.13508035590E+03  0.18652735591E+03  0.12508906667E+03 0.  0.
         23    2    1    2    0    0  0.25336604198E+02  0.16016673804E+02  0.59499926065E+02  0.11271118242E+03  0.90912551880E+02 0.  0.
          5    1    3    3  502    0  0.47648944359E+02 -0.23230442293E+02  0.73212930047E+02  0.90485804819E+02  0.41800000000E+01 0.  1.
         -5    1    3    3    0  502 -0.72985548557E+02  0.72137684888E+01  0.61867425851E+02  0.96041551088E+02  0.41800000000E+01 0.  1.
        -11    1    4    4    0    0 -0.18464252990E+02  0.18617379598E+02 -0.11988100799E+02  0.28831406874E+02  0.00000000000E+00 0.  1.
         11    1    4    4    0    0  0.43800857188E+02 -0.26007057939E+01  0.71488026864E+02  0.83879775548E+02  0.00000000000E+00 0. -1.
</event>
<event>
 8    1  0.7075056E-009  0.8819354E+02  0.7561462E-02  0.1307286E+00
          1   -1    0    0  501    0  0.00000000000E+00  0.00000000000E+00  0.18842965597E+03  0.18842965597E+03  0.00000000000E+00 0. -1.
         -1   -1    0    0    0  501 -0.00000000000E+00 -0.00000000000E+00 -0.76689595724E+02  0.76689595724E+02  0.00000000000E+00 0.  1.
         25    2    1    2    0    0 -0.48922834432E+02  0.14003867060E+02  0.47366115082E+02  0.14310986812E+03  0.12508930199E+03 0.  0.
         23    2    1    2    0    0  0.48922834432E+02 -0.14003867060E+02  0.64373945159E+02  0.12200938357E+03  0.90292484973E+02 0.  0.
          5    1    3    3  502    0  0.10089498729E+02 -0.38271493295E+01  0.74666913213E+02  0.75558357482E+02  0.41800000000E+01 0.  1.
         -5    1    3    3    0  502 -0.59012333162E+02  0.17831016389E+02 -0.27300798131E+02  0.67551510636E+02  0.41800000000E+01 0.  1.
        -11    1    4    4    0    0  0.28713898337E+02 -0.52334515185E+02  0.43812455277E+02  0.74046746551E+02  0.00000000000E+00 0.  1.
         11    1    4    4    0    0  0.20208936095E+02  0.38330648125E+02  0.20561489883E+02  0.47962637021E+02  0.00000000000E+00 0. -1.
</event>
<event>
 8    1  0.7075056E-009  0.1674894E+03  0.7561462E-02  0.1180492E+00
         -1   -1    0    0    0  501 -0.00000000000E+00  0.00000000000E+00  0.91055242160E+02  0.91055242160E+02  0.00000000000E+00 0.  1.
          1   -1    0    0  501    0  0.00000000000E+00 -0.00000000000E+00 -0.37914097188E+03  0.37914097188E+03  0.00000000000E+00 0. -1.
         25    2    1    2    0    0 -0.13643076635E+03 -0.50910557546E+02 -0.10542924349E+03  0.21901422429E+03  0.12508663472E+03 0.  0.
         23    2    1    2    0    0  0.13643076635E+03  0.50910557546E+02 -0.18265648624E+03  0.25118198975E+03  0.92324217493E+02 0.  0.
          5    1    3    3  502    0  0.56349389232E+00  0.29192824730E+02 -0.33777940003E+02  0.44843730576E+02  0.41800000000E+01 0. -1.
         -5    1    3    3    0  502 -0.13699426024E+03 -0.80103382276E+02 -0.71651303483E+02  0.17417049372E+03  0.41800000000E+01 0. -1.
        -11    1    4    4    0    0  0.10040644275E+03  0.28761960696E+02 -0.18086446885E+03  0.20885559657E+03  0.00000000000E+00 0. -1.
         11    1    4    4    0    0  0.36024323597E+02  0.22148596851E+02 -0.17920173890E+01  0.42326393178E+02  0.00000000000E+00 0.  1.
</event>
<event>
 8    1  0.7075056E-009  0.1392879E+03  0.7561462E-02  0.1214290E+00
         -1   -1    0    0    0  501 -0.00000000000E+00  0.00000000000E+00  0.17608194846E+03  0.17608194846E+03  0.00000000000E+00 0.  1.
          1   -1    0    0  501    0  0.00000000000E+00 -0.00000000000E+00 -0.15758680633E+03  0.15758680633E+03  0.00000000000E+00 0. -1.
         25    2    1    2    0    0  0.88925643124E+02  0.76576874456E+02 -0.36770405567E+02  0.17541699026E+03  0.12508904844E+03 0.  0.
         23    2    1    2    0    0 -0.88925643124E+02 -0.76576874456E+02  0.55265547697E+02  0.15825176453E+03  0.90650717088E+02 0.  0.
          5    1    3    3  502    0  0.11471663376E+03  0.65806799338E+02 -0.43228138753E+01  0.13238806600E+03  0.41800000000E+01 0.  1.
         -5    1    3    3    0  502 -0.25790990637E+02  0.10770075118E+02 -0.32447591691E+02  0.43028924256E+02  0.41800000000E+01 0.  1.
        -11    1    4    4    0    0 -0.62783099073E+02 -0.46376216979E+02 -0.13028552325E+02  0.79134153222E+02  0.00000000000E+00 0. -1.
         11    1    4    4    0    0 -0.26142544051E+02 -0.30200657477E+02  0.68294100022E+02  0.79117611309E+02  0.00000000000E+00 0.  1.
</event>
<event>
 8    1  0.7075056E-009  0.1110126E+03  0.7561462E-02  0.1258706E+00
          1   -1    0    0  501    0  0.00000000000E+00  0.00000000000E+00  0.52708554010E+03  0.52708554010E+03  0.00000000000E+00 0. -1.
         -1   -1    0    0    0  501 -0.00000000000E+00 -0.00000000000E+00 -0.39347631942E+02  0.39347631942E+02  0.00000000000E+00 0.  1.
         25    2    1    2    0    0  0.72822023062E+01 -0.87218729876E+02  0.32650809035E+03  0.36043710154E+03  0.12508890355E+03 0.  0.
         23    2    1    2    0    0 -0.72822023062E+01  0.87218729876E+02  0.16122981781E+03  0.20599607051E+03  0.93697329741E+02 0.  0.
          5    1    3    3  502    0  0.19433316381E+02 -0.24119821115E+02  0.27816638457E+03  0.27991682597E+03  0.41800000000E+01 0. -1.
         -5    1    3    3    0  502 -0.12151114075E+02 -0.63098908761E+02  0.48341705780E+02  0.80520275570E+02  0.41800000000E+01 0. -1.
        -11    1    4    4    0    0  0.20599374607E+02  0.95176996493E+02  0.13770262296E+03  0.16865647709E+03  0.00000000000E+00 0. -1.
         11    1    4    4    0    0 -0.27881576913E+02 -0.79582666161E+01  0.23527194856E+02  0.37339593416E+02  0.00000000000E+00 0.  1.
</event>
<event>
 8    1  0.7075056E-009  0.2130279E+03  0.7561462E-02  0.1139190E+00
         -3   -1    0    0    0  501 -0.00000000000E+00  0.00000000000E+00  0.21123328942E+03  0.21123328942E+03  0.00000000000E+00 0.  1.
          3   -1    0    0  501    0  0.00000000000E+00 -0.00000000000E+00 -0.24702622973E+03  0.24702622973E+03  0.00000000000E+00 0. -1.
         25    2    1    2    0    0  0.90430899977E+02  0.17809118720E+03 -0.35461305253E+02  0.23832617018E+03  0.12509052959E+03 0.  0.
         23    2    1    2    0    0 -0.90430899977E+02 -0.17809118720E+03 -0.33163505463E+00  0.21993334897E+03  0.92067091730E+02 0.  0.
          5    1    3    3  502    0  0.10140299174E+03  0.87095759279E+02  0.13346915507E+02  0.13440182504E+03  0.41800000000E+01 0. -1.
         -5    1    3    3    0  502 -0.10972091768E+02  0.90995427919E+02 -0.48808220759E+02  0.10392434514E+03  0.41800000000E+01 0. -1.
        -11    1    4    4    0    0 -0.91463321653E+01 -0.84215485936E+01 -0.27182986988E+02  0.29891347484E+02  0.00000000000E+00 0. -1.
         11    1    4    4    0    0 -0.81284567811E+02 -0.16966963861E+03  0.26851351934E+02  0.19004200149E+03  0.00000000000E+00 0.  1.
</event>
<event>
 8    1  0.7075056E-009  0.1073162E+03  0.7561462E-02  0.1265622E+00
         -2   -1    0    0    0  501 -0.00000000000E+00  0.00000000000E+00  0.37307671125E+02  0.37307671125E+02  0.00000000000E+00 0. -1.
          2   -1    0    0  501    0  0.00000000000E+00 -0.00000000000E+00 -0.44531487714E+03  0.44531487714E+03  0.00000000000E+00 0.  1.
         25    2    1    2    0    0  0.27942243200E+01  0.56860244560E+02 -0.30249341353E+03  0.33225075288E+03  0.12508957775E+03 0.  0.
         23    2    1    2    0    0 -0.27942243200E+01 -0.56860244560E+02 -0.10551379249E+03  0.15037179538E+03  0.90761342764E+02 0.  0.
          5    1    3    3  502    0  0.48813786629E+02  0.65198628919E+02 -0.12985731405E+03  0.15334288829E+03  0.41800000000E+01 0.  1.
         -5    1    3    3    0  502 -0.46019562309E+02 -0.83383843591E+01 -0.17263609948E+03  0.17890786459E+03  0.41800000000E+01 0.  1.
        -11    1    4    4    0    0  0.30865677305E+02 -0.30215217003E+02 -0.81383613994E+01  0.43953183051E+02  0.00000000000E+00 0. -1.
         11    1    4    4    0    0 -0.33659901625E+02 -0.26645027557E+02 -0.97375431089E+02  0.10641861233E+03  0.00000000000E+00 0.  1.
</event>
<event>
 8    1  0.7075056E-009  0.9718169E+02  0.7561462E-02  0.1286337E+00
          1   -1    0    0  501    0  0.00000000000E+00  0.00000000000E+00  0.18100710230E+03  0.18100710230E+03  0.00000000000E+00 0. -1.
         -1   -1    0    0    0  501 -0.00000000000E+00 -0.00000000000E+00 -0.88013085152E+02  0.88013085152E+02  0.00000000000E+00 0.  1.
         25    2    1    2    0    0 -0.34087149360E+02 -0.45576063560E+02  0.84803786002E+02  0.16147796725E+03  0.12507733793E+03 0.  0.
         23    2    1    2    0    0  0.34087149360E+02  0.45576063560E+02  0.81902311486E+01  0.10754222021E+03  0.90879799295E+02 0.  0.
          5    1    3    3  502    0  0.39200438249E+02  0.10598954367E+02  0.45230127234E+02  0.60928228287E+02  0.41800000000E+01 0.  1.
         -5    1    3    3    0  502 -0.73287587608E+02 -0.56175017927E+02  0.39573658768E+02  0.10054973896E+03  0.41800000000E+01 0.  1.
        -11    1    4    4    0    0  0.12661204656E+02  0.34984602867E+02 -0.39459873718E+02  0.54233847134E+02  0.00000000000E+00 0.  1.
         11    1    4    4    0    0  0.21425944703E+02  0.10591460692E+02  0.47650104866E+02  0.53308373074E+02  0.00000000000E+00 0. -1.
</event>
<event>
 8    1  0.7075056E-009  0.1060261E+03  0.7561462E-02  0.1268111E+00
          4   -1    0    0  501    0  0.00000000000E+00  0.00000000000E+00  0.14485432093E+03  0.14485432093E+03  0.00000000000E+00 0.  1.
         -4   -1    0    0    0  501 -0.00000000000E+00 -0.00000000000E+00 -0.92597082755E+02  0.92597082755E+02  0.00000000000E+00 0. -1.
         25    2    1    2    0    0  0.12255488296E+01 -0.79074774708E+01 -0.10330601991E+02  0.12577080627E+03  0.12509014431E+03 0.  0.
         23    2    1    2    0    0 -0.12255488296E+01  0.79074774708E+01  0.62587840167E+02  0.11168059742E+03  0.92148184641E+02 0.  0.
          5    1    3    3  502    0  0.61800063656E+02 -0.23377808765E+01 -0.17419750526E+02  0.64386591739E+02  0.41800000000E+01 0.  1.
         -5    1    3    3    0  502 -0.60574514826E+02 -0.55696965943E+01  0.70891485351E+01  0.61384214531E+02  0.41800000000E+01 0.  1.
        -11    1    4    4    0    0 -0.15012795467E+02  0.46102937229E+02  0.48811038489E+02  0.68799580865E+02  0.00000000000E+00 0.  1.
         11    1    4    4    0    0  0.13787246638E+02 -0.38195459758E+02  0.13776801679E+02  0.42881016552E+02  0.00000000000E+00 0. -1.
</event>
<event>
 8    1  0.7075056E-009  0.1487955E+03  0.7561462E-02  0.1201961E+00
         -2   -1    0    0    0  501 -0.00000000000E+00  0.00000000000E+00  0.11209474329E+03  0.11209474329E+03  0.00000000000E+00 0.  1.
          2   -1    0    0  501    0  0.00000000000E+00 -0.00000000000E+00 -0.24526464878E+03  0.24526464878E+03  0.00000000000E+00 0. -1.
         25    2    1    2    0    0  0.70168162943E+02 -0.10262837663E+03 -0.86480397779E+02  0.19642681298E+03  0.12509388026E+03 0.  0.
         23    2    1    2    0    0 -0.70168162943E+02  0.10262837663E+03 -0.46689507709E+02  0.16093257909E+03  0.90902310762E+02 0.  0.
          5    1    3    3  502    0  0.96223412116E+02 -0.10757519774E+03 -0.53696945225E+02  0.15405259665E+03  0.41800000000E+01 0. -1.
         -5    1    3    3    0  502 -0.26055249173E+02  0.49468211077E+01 -0.32783452553E+02  0.42374216333E+02  0.41800000000E+01 0. -1.
        -11    1    4    4    0    0 -0.42102827598E+01  0.20940438790E+02 -0.51578878207E+02  0.55826598810E+02  0.00000000000E+00 0. -1.
         11    1    4    4    0    0 -0.65957880183E+02  0.81687937838E+02  0.48893704979E+01  0.10510598028E+03  0.00000000000E+00 0.  1.
</event>
<event>
 8    1  0.7075056E-009  0.7462928E+02  0.7561462E-02  0.1345023E+00
          1   -1    0    0  501    0  0.00000000000E+00  0.00000000000E+00  0.77995018548E+02  0.77995018548E+02  0.00000000000E+00 0. -1.
         -1   -1    0    0    0  501 -0.00000000000E+00 -0.00000000000E+00 -0.17694524330E+03  0.17694524330E+03  0.00000000000E+00 0.  1.
         25    2    1    2    0    0 -0.14915820684E+02 -0.41568278984E+02 -0.65357786520E+02  0.14788548077E+03  0.12509225251E+03 0.  0.
         23    2    1    2    0    0  0.14915820684E+02  0.41568278984E+02 -0.33592438232E+02  0.10705478108E+03  0.91552557154E+02 0.  0.
          5    1    3    3  502    0  0.73947475876E+01  0.91039315756E+01 -0.87299761274E+02  0.88183244330E+02  0.41800000000E+01 0. -1.
         -5    1    3    3    0  502 -0.22310568272E+02 -0.50672210559E+02  0.21941974754E+02  0.59702236438E+02  0.41800000000E+01 0. -1.
        -11    1    4    4    0    0 -0.24303302059E+02  0.23488781029E+00  0.17956363183E+02  0.30218150871E+02  0.00000000000E+00 0. -1.
         11    1    4    4    0    0  0.39219122743E+02  0.41333391173E+02 -0.51548801415E+02  0.76836630210E+02  0.00000000000E+00 0.  1.
</event>
<event>
 8    1  0.7075056E-009  0.1977724E+03  0.7561462E-02  0.1151632E+00
          2   -1    0    0  501    0  0.00000000000E+00  0.00000000000E+00  0.12266618578E+04  0.12266618578E+04  0.00000000000E+00 0. -1.
         -2   -1    0    0    0  501 -0.00000000000E+00 -0.00000000000E+00 -0.59781170864E+02  0.59781170864E+02  0.00000000000E+00 0.  1.
         25    2    1    2    0    0  0.16696951319E+03 -0.72878029345E+02  0.99749070581E+03  0.10216780463E+04  0.12509315166E+03 0.  0.
         23    2    1    2    0    0 -0.16696951319E+03  0.72878029345E+02  0.16938998112E+03  0.26476498237E+03  0.90650453327E+02 0.  0.
          5    1    3    3  502    0  0.15993061779E+03 -0.23929827999E+02  0.86916128731E+03  0.88408667841E+03  0.41800000000E+01 0. -1.
         -5    1    3    3    0  502  0.70388954063E+01 -0.48948201347E+02  0.12832941850E+03  0.13759136788E+03  0.41800000000E+01 0. -1.
        -11    1    4    4    0    0 -0.11352994579E+03  0.35548475957E+02  0.50629939033E+02  0.12929088700E+03  0.00000000000E+00 0.  1.
         11    1    4    4    0    0 -0.53439567402E+02  0.37329553388E+02  0.11876004209E+03  0.13547409537E+03  0.00000000000E+00 0. -1.
</event>
<event>
 8    1  0.7075056E-009  0.1472629E+03  0.7561462E-02  0.1203877E+00
          1   -1    0    0  501    0  0.00000000000E+00  0.00000000000E+00  0.11876209630E+03  0.11876209630E+03  0.00000000000E+00 0. -1.
         -1   -1    0    0    0  501 -0.00000000000E+00 -0.00000000000E+00 -0.54334088364E+03  0.54334088364E+03  0.00000000000E+00 0.  1.
         25    2    1    2    0    0 -0.12769369904E+03 -0.24660804535E+02 -0.46447686310E+03  0.49829759252E+03  0.12509155965E+03 0.  0.
         23    2    1    2    0    0  0.12769369904E+03  0.24660804535E+02  0.39898075763E+02  0.16380538743E+03  0.91249725733E+02 0.  0.
          5    1    3    3  502    0 -0.12337940175E+03 -0.52910488479E+02 -0.26866253240E+03  0.30036482031E+03  0.41800000000E+01 0.  1.
         -5    1    3    3    0  502 -0.43142972955E+01  0.28249683945E+02 -0.19581433070E+03  0.19793277220E+03  0.41800000000E+01 0.  1.
        -11    1    4    4    0    0  0.10397370137E+03  0.12633412109E+02 -0.12065939751E+02  0.10543111770E+03  0.00000000000E+00 0.  1.
         11    1    4    4    0    0  0.23719997676E+02  0.12027392426E+02  0.51964015514E+02  0.58374269731E+02  0.00000000000E+00 0. -1.
</event>
<event>
 8    1  0.7075056E-009  0.8967442E+02  0.7561462E-02  0.1303642E+00
         -2   -1    0    0    0  501 -0.00000000000E+00  0.00000000000E+00  0.10636204816E+02  0.10636204816E+02  0.00000000000E+00 0. -1.
          2   -1    0    0  501    0  0.00000000000E+00 -0.00000000000E+00 -0.13936582819E+04  0.13936582819E+04  0.00000000000E+00 0.  1.
         25    2    1    2    0    0  0.27475737055E+02  0.41505104314E+01 -0.10542482789E+04  0.10620070677E+04  0.12508970872E+03 0.  0.
         23    2    1    2    0    0 -0.27475737055E+02 -0.41505104314E+01 -0.32877379812E+03  0.34228741904E+03  0.91084159110E+02 0.  0.
          5    1    3    3  502    0 -0.23740477260E+02  0.31325970576E+02 -0.80895198513E+03  0.80991710276E+03  0.41800000000E+01 0.  1.
         -5    1    3    3    0  502  0.51216214315E+02 -0.27175460145E+02 -0.24529629382E+03  0.25208996490E+03  0.41800000000E+01 0.  1.
        -11    1    4    4    0    0  0.19231090528E+01  0.33705833305E+02 -0.56430994042E+02  0.65758943390E+02  0.00000000000E+00 0. -1.
         11    1    4    4    0    0 -0.29398846108E+02 -0.37856343736E+02 -0.27234280408E+03  0.27652847565E+03  0.00000000000E+00 0.  1.
</event>
<event>
 8    1  0.7075056E-009  0.1172832E+03  0.7561462E-02  0.1247647E+00
         -1   -1    0    0    0  501 -0.00000000000E+00  0.00000000000E+00  0.12275284225E+02  0.12275284225E+02  0.00000000000E+00 0.  1.
          1   -1    0    0  501    0  0.00000000000E+00 -0.00000000000E+00 -0.12981237281E+04  0.12981237281E+04  0.00000000000E+00 0. -1.
         25    2    1    2    0    0 -0.21102237894E+01  0.46388378653E+02 -0.94022265068E+03  0.94964358034E+03  0.12509181470E+03 0.  0.
         23    2    1    2    0    0  0.21102237894E+01 -0.46388378653E+02 -0.34562579316E+03  0.36075543195E+03  0.92363185678E+02 0.  0.
          5    1    3    3  502    0 -0.23315751950E+02 -0.37877631045E+02 -0.24999322163E+03  0.25395358333E+03  0.41800000000E+01 0.  1.
         -5    1    3    3    0  502  0.21205528160E+02  0.84266009699E+02 -0.69022942905E+03  0.69568999701E+03  0.41800000000E+01 0.  1.
        -11    1    4    4    0    0  0.42745642204E+02 -0.21068736397E+01 -0.16116079451E+03  0.16674660576E+03  0.00000000000E+00 0. -1.
         11    1    4    4    0    0 -0.40635418415E+02 -0.44281505014E+02 -0.18446499865E+03  0.19400882620E+03  0.00000000000E+00 0.  1.
</event>
<event>
 8    1  0.7075056E-009  0.3427077E+03  0.7561462E-02  0.1065649E+00
         -4   -1    0    0    0  501 -0.00000000000E+00  0.00000000000E+00  0.38532313511E+03  0.38532313511E+03  0.00000000000E+00 0.  1.
          4   -1    0    0  501    0  0.00000000000E+00 -0.00000000000E+00 -0.36666031501E+03  0.36666031501E+03  0.00000000000E+00 0. -1.
         25    2    1    2    0    0 -0.10022929158E+03 -0.31231525185E+03  0.15719486205E+03  0.38463701398E+03  0.12509468590E+03 0.  0.
         23    2    1    2    0    0  0.10022929158E+03  0.31231525185E+03 -0.13853204195E+03  0.36734643614E+03  0.90363433242E+02 0.  0.
          5    1    3    3  502    0  0.25855347608E+02 -0.60881911413E+02  0.52236806578E+02  0.84387573129E+02  0.41800000000E+01 0. -1.
         -5    1    3    3    0  502 -0.12608463919E+03 -0.25143334044E+03  0.10495805547E+03  0.30024944085E+03  0.41800000000E+01 0. -1.
        -11    1    4    4    0    0  0.11416949910E+03  0.26604913099E+03 -0.13335863632E+03  0.31874965177E+03  0.00000000000E+00 0.  1.
         11    1    4    4    0    0 -0.13940207512E+02  0.46266120858E+02 -0.51734056312E+01  0.48596784365E+02  0.00000000000E+00 0. -1.
</event>
<event>
 8    1  0.7075056E-009  0.1219309E+03  0.7561462E-02  0.1239945E+00
          2   -1    0    0  501    0  0.00000000000E+00  0.00000000000E+00  0.15696682666E+04  0.15696682666E+04  0.00000000000E+00 0. -1.
         -2   -1    0    0    0  501 -0.00000000000E+00 -0.00000000000E+00 -0.13955527572E+02  0.13955527572E+02  0.00000000000E+00 0.  1.
         25    2    1    2    0    0 -0.74036300146E+02  0.21310528773E+02  0.11824201061E+04  0.11915119101E+04  0.12509121557E+03 0.  0.
         23    2    1    2    0    0  0.74036300146E+02 -0.21310528773E+02  0.37329263293E+03  0.39211188408E+03  0.92026232451E+02 0.  0.
          5    1    3    3  502    0  0.21341597727E+02  0.18330875407E+02  0.64795299149E+03  0.64857693173E+03  0.41800000000E+01 0. -1.
         -5    1    3    3    0  502 -0.95377897873E+02  0.29796533667E+01  0.53446711459E+03  0.54293497835E+03  0.41800000000E+01 0. -1.
        -11    1    4    4    0    0  0.65050420475E+02  0.27243628502E+02  0.21107485897E+03  0.22254520571E+03  0.00000000000E+00 0.  1.
         11    1    4    4    0    0  0.89858796715E+01 -0.48554157275E+02  0.16221777396E+03  0.16956667836E+03  0.00000000000E+00 0. -1.
</event>
<event>
 8    1  0.7075056E-009  0.3629755E+03  0.7561462E-02  0.1057412E+00
          2   -1    0    0  501    0  0.00000000000E+00  0.00000000000E+00  0.49712835723E+03  0.49712835723E+03  0.00000000000E+00 0. -1.
         -2   -1    0    0    0  501 -0.00000000000E+00 -0.00000000000E+00 -0.32407150488E+03  0.32407150488E+03  0.00000000000E+00 0.  1.
         25    2    1    2    0    0 -0.35993958474E+03 -0.44573411657E+02 -0.48815254622E+02  0.38675106719E+03  0.12510062029E+03 0.  0.
         23    2    1    2    0    0  0.35993958474E+03  0.44573411657E+02  0.22187210697E+03  0.43444879491E+03  0.89304142437E+02 0.  0.
          5    1    3    3  502    0 -0.73312840715E+02 -0.76299514927E+01  0.40540235897E+02  0.84225719944E+02  0.41800000000E+01 0. -1.
         -5    1    3    3    0  502 -0.28662674403E+03 -0.36943460164E+02 -0.89355490519E+02  0.30252534725E+03  0.41800000000E+01 0. -1.
        -11    1    4    4    0    0  0.15301228506E+03  0.27515746419E+02  0.14634179768E+03  0.21350830764E+03  0.00000000000E+00 0.  1.
         11    1    4    4    0    0  0.20692729968E+03  0.17057665238E+02  0.75530309293E+02  0.22094048728E+03  0.00000000000E+00 0. -1.
</event>
<event>
 8    1  0.7075056E-009  0.1449183E+03  0.7561462E-02  0.1206860E+00
          1   -1    0    0  501    0  0.00000000000E+00  0.00000000000E+00  0.48252709371E+03  0.48252709371E+03  0.00000000000E+00 0. -1.
         -1   -1    0    0    0  501 -0.00000000000E+00 -0.00000000000E+00 -0.48461612633E+02  0.48461612633E+02  0.00000000000E+00 0.  1.
         25    2    1    2    0    0 -0.93632607535E+02 -0.48338720141E+02  0.20038130543E+03  0.25865167390E+03  0.12507727126E+03 0.  0.
         23    2    1    2    0    0  0.93632607535E+02  0.48338720141E+02  0.23368417564E+03  0.27233703244E+03  0.91953620025E+02 0.  0.
          5    1    3    3  502    0  0.30636508644E+02 -0.11281742754E+02  0.52053214159E+02  0.61586385555E+02  0.41800000000E+01 0. -1.
         -5    1    3    3    0  502 -0.12426911618E+03 -0.37056977387E+02  0.14832809128E+03  0.19706528835E+03  0.41800000000E+01 0. -1.
        -11    1    4    4    0    0  0.46850459796E+02 -0.14312566185E+02  0.15005320062E+03  0.15784732544E+03  0.00000000000E+00 0. -1.
         11    1    4    4    0    0  0.46782147739E+02  0.62651286326E+02  0.83630975021E+02  0.11448970700E+03  0.00000000000E+00 0.  1.
</event>
<event>
 8    1  0.7075056E-009  0.9618909E+02  0.7561462E-02  0.1288520E+00
          1   -1    0    0  501    0  0.00000000000E+00  0.00000000000E+00  0.55512556527E+03  0.55512556527E+03  0.00000000000E+00 0. -1.
         -1   -1    0    0    0  501 -0.00000000000E+00 -0.00000000000E+00 -0.26853766075E+02  0.26853766075E+02  0.00000000000E+00 0.  1.
         25    2    1    2    0    0  0.39346930744E+02  0.51619617863E+00  0.38683580525E+03  0.40845632518E+03  0.12508469905E+03 0.  0.
         23    2    1    2    0    0 -0.39346930744E+02 -0.51619617863E+00  0.14143599394E+03  0.17352300616E+03  0.92507544927E+02 0.  0.
          5    1    3    3  502    0  0.74551192749E+02  0.34107603327E+02  0.23147239328E+03  0.24559753703E+03  0.41800000000E+01 0.  1.
         -5    1    3    3    0  502 -0.35204262005E+02 -0.33591407148E+02  0.15536341198E+03  0.16285878815E+03  0.41800000000E+01 0.  1.
        -11    1    4    4    0    0 -0.40313901725E+02  0.17112150367E+02  0.14826152281E+03  0.15459468137E+03  0.00000000000E+00 0. -1.
         11    1    4    4    0    0  0.96697098113E+00 -0.17628346546E+02 -0.68255288748E+01  0.18928324787E+02  0.00000000000E+00 0.  1.
</event>
<event>
 8    1  0.7075056E-009  0.1080782E+03  0.7561462E-02  0.1264171E+00
         -2   -1    0    0    0  501 -0.00000000000E+00  0.00000000000E+00  0.21085508187E+03  0.21085508187E+03  0.00000000000E+00 0. -1.
          2   -1    0    0  501    0  0.00000000000E+00 -0.00000000000E+00 -0.64846557187E+02  0.64846557187E+02  0.00000000000E+00 0.  1.
         25    2    1    2    0    0 -0.33277382477E+02 -0.28511029312E+02  0.67923244243E+02  0.14893384334E+03  0.12508980617E+03 0.  0.
         23    2    1    2    0    0  0.33277382477E+02  0.28511029312E+02  0.78085280437E+02  0.12676779571E+03  0.89735723278E+02 0.  0.
          5    1    3    3  502    0 -0.67775619325E+02 -0.43371918220E+02  0.75463575735E+02  0.11039420967E+03  0.41800000000E+01 0. -1.
         -5    1    3    3    0  502  0.34498236848E+02  0.14860888908E+02 -0.75403314917E+01  0.38539633674E+02  0.41800000000E+01 0. -1.
        -11    1    4    4    0    0  0.43410101866E+02  0.54627112134E+02  0.43352531038E+02  0.82146212764E+02  0.00000000000E+00 0. -1.
         11    1    4    4    0    0 -0.10132719389E+02 -0.26116082822E+02  0.34732749398E+02  0.44621582949E+02  0.00000000000E+00 0.  1.
</event>
<event>
 8    1  0.7075056E-009  0.8850954E+02  0.7561462E-02  0.1306502E+00
          1   -1    0    0  501    0  0.00000000000E+00  0.00000000000E+00  0.55105341924E+03  0.55105341924E+03  0.00000000000E+00 0. -1.
         -1   -1    0    0    0  501 -0.00000000000E+00 -0.00000000000E+00 -0.35770131999E+02  0.35770131999E+02  0.00000000000E+00 0.  1.
         25    2    1    2    0    0 -0.62003884058E+02 -0.24226278825E+02  0.15914905501E+03  0.21308905537E+03  0.12508848701E+03 0.  0.
         23    2    1    2    0    0  0.62003884058E+02  0.24226278825E+02  0.35613423223E+03  0.37373449587E+03  0.91730517348E+02 0.  0.
          5    1    3    3  502    0 -0.19055295495E+02 -0.12062926708E+02 -0.18751540739E+02  0.29626190563E+02  0.41800000000E+01 0. -1.
         -5    1    3    3    0  502 -0.42948588563E+02 -0.12163352117E+02  0.17790059575E+03  0.18346286481E+03  0.41800000000E+01 0. -1.
        -11    1    4    4    0    0 -0.10404465664E+01  0.43354583561E+02  0.95213119593E+02  0.10462428297E+03  0.00000000000E+00 0.  1.
         11    1    4    4    0    0  0.63044330625E+02 -0.19128304736E+02  0.26092111264E+03  0.26911021290E+03  0.00000000000E+00 0. -1.
</event>
<event>
 8    1  0.7075056E-009  0.1577434E+03  0.7561462E-02  0.1191268E+00
         -3   -1    0    0    0  501 -0.00000000000E+00  0.00000000000E+00  0.15929501209E+04  0.15929501209E+04  0.00000000000E+00 0.  1.
          3   -1    0    0  501    0  0.00000000000E+00 -0.00000000000E+00 -0.21402011888E+02  0.21402011888E+02  0.00000000000E+00 0. -1.
         25    2    1    2    0    0  0.26111523494E+02 -0.14485388218E+03  0.93813988691E+03  0.95782015091E+03  0.12509410552E+03 0.  0.
         23    2    1    2    0    0 -0.26111523494E+02  0.14485388218E+03  0.63340822215E+03  0.65653198193E+03  0.90353796615E+02 0.  0.
          5    1    3    3  502    0  0.67706329330E-01 -0.17567450513E+02  0.10040512658E+02  0.20661660052E+02  0.41800000000E+01 0.  1.
         -5    1    3    3    0  502  0.26043817164E+02 -0.12728643167E+03  0.92809937425E+03  0.93715849086E+03  0.41800000000E+01 0.  1.
        -11    1    4    4    0    0 -0.50941706522E+02  0.58433151964E+02  0.37493668540E+03  0.38286682903E+03  0.00000000000E+00 0.  1.
         11    1    4    4    0    0  0.24830183028E+02  0.86420730217E+02  0.25847153675E+03  0.27366515290E+03  0.00000000000E+00 0. -1.
</event>
<event>
 8    1  0.7075056E-009  0.1113389E+03  0.7561462E-02  0.1258110E+00
         -3   -1    0    0    0  501 -0.00000000000E+00  0.00000000000E+00  0.22601334711E+03  0.22601334711E+03  0.00000000000E+00 0.  1.
          3   -1    0    0  501    0  0.00000000000E+00 -0.00000000000E+00 -0.78834081498E+02  0.78834081498E+02  0.00000000000E+00 0. -1.
         25    2    1    2    0    0  0.24062197330E+02 -0.73594596706E+02  0.69758684690E+02  0.16281634034E+03  0.12509089729E+03 0.  0.
         23    2    1    2    0    0 -0.24062197330E+02  0.73594596706E+02  0.77420580923E+02  0.14203108827E+03  0.90463968964E+02 0.  0.
          5    1    3    3  502    0 -0.17353627168E+02 -0.95962472674E+02  0.59965645963E+02  0.11455695367E+03  0.41800000000E+01 0.  1.
         -5    1    3    3    0  502  0.41415824498E+02  0.22367875968E+02  0.97930387266E+01  0.48259386669E+02  0.41800000000E+01 0.  1.
        -11    1    4    4    0    0 -0.10632846105E+02  0.21084543232E+02 -0.19738297765E+02  0.30776870833E+02  0.00000000000E+00 0. -1.
         11    1    4    4    0    0 -0.13429351225E+02  0.52510053474E+02  0.97158878688E+02  0.11125421744E+03  0.00000000000E+00 0.  1.
</event>
<event>
 8    1  0.7075056E-009  0.8904158E+02  0.7561462E-02  0.1305189E+00
         -1   -1    0    0    0  501 -0.00000000000E+00  0.00000000000E+00  0.16744164735E+03  0.16744164735E+03  0.00000000000E+00 0.  1.
          1   -1    0    0  501    0  0.00000000000E+00 -0.00000000000E+00 -0.10040122582E+03  0.10040122582E+03  0.00000000000E+00 0. -1.
         25    2    1    2    0    0 -0.16494380023E+02  0.64185154457E+02  0.13582951417E+02  0.14221555723E+03  0.12509584135E+03 0.  0.
         23    2    1    2    0    0  0.16494380023E+02 -0.64185154457E+02  0.53457470110E+02  0.12562731594E+03  0.92372738266E+02 0.  0.
          5    1    3    3  502    0 -0.22928447186E+02  0.26853336142E+01 -0.48882661713E+02  0.54220952805E+02  0.41800000000E+01 0.  1.
         -5    1    3    3    0  502  0.64340671635E+01  0.61499820843E+02  0.62465613129E+02  0.87994604423E+02  0.41800000000E+01 0.  1.
        -11    1    4    4    0    0 -0.17544229823E+02 -0.54503083661E+02 -0.48058489272E+01  0.57458526892E+02  0.00000000000E+00 0.  1.
         11    1    4    4    0    0  0.34038609846E+02 -0.96820707961E+01  0.58263319037E+02  0.68168789049E+02  0.00000000000E+00 0. -1.
</event>
<event>
 8    1  0.7075056E-009  0.1141246E+03  0.7561462E-02  0.1253117E+00
         -3   -1    0    0    0  501 -0.00000000000E+00  0.00000000000E+00  0.30431426907E+02  0.30431426907E+02  0.00000000000E+00 0.  1.
          3   -1    0    0  501    0  0.00000000000E+00 -0.00000000000E+00 -0.59245437641E+03  0.59245437641E+03  0.00000000000E+00 0. -1.
         25    2    1    2    0    0 -0.59909918026E+02 -0.31807670293E+02 -0.41192805929E+03  0.43581355401E+03  0.12509117339E+03 0.  0.
         23    2    1    2    0    0  0.59909918026E+02  0.31807670293E+02 -0.15009489021E+03  0.18707224931E+03  0.88693992051E+02 0.  0.
          5    1    3    3  502    0 -0.95556417450E+02 -0.16892343596E+02 -0.22804185437E+03  0.24786476137E+03  0.41800000000E+01 0.  1.
         -5    1    3    3    0  502  0.35646499424E+02 -0.14915326697E+02 -0.18388620493E+03  0.18794879264E+03  0.41800000000E+01 0.  1.
        -11    1    4    4    0    0 -0.63101043335E+01  0.24886271058E+02 -0.33016310579E+01  0.25885221102E+02  0.00000000000E+00 0.  1.
         11    1    4    4    0    0  0.66220022359E+02  0.69213992359E+01 -0.14679325915E+03  0.16118702821E+03  0.00000000000E+00 0. -1.
</event>
<event>
 8    1  0.7075056E-009  0.1413454E+03  0.7561462E-02  0.1211530E+00
         -2   -1    0    0    0  501 -0.00000000000E+00  0.00000000000E+00  0.17286175469E+03  0.17286175469E+03  0.00000000000E+00 0.  1.
          2   -1    0    0  501    0  0.00000000000E+00 -0.00000000000E+00 -0.16707892876E+03  0.16707892876E+03  0.00000000000E+00 0. -1.
         25    2    1    2    0    0 -0.93464496243E+02 -0.77859733670E+02  0.52737402857E+02  0.18227903546E+03  0.12508662168E+03 0.  0.
         23    2    1    2    0    0  0.93464496243E+02  0.77859733670E+02 -0.46954576919E+02  0.15766164799E+03  0.88626817428E+02 0.  0.
          5    1    3    3  502    0 -0.98623429397E+02 -0.61976558115E+02 -0.10227452576E+02  0.11700319555E+03  0.41800000000E+01 0.  1.
         -5    1    3    3    0  502  0.51589331540E+01 -0.15883175554E+02  0.62964855433E+02  0.65275839916E+02  0.41800000000E+01 0.  1.
        -11    1    4    4    0    0  0.45263672805E+02  0.88640462310E+02 -0.41981212666E+02  0.10802015484E+03  0.00000000000E+00 0. -1.
         11    1    4    4    0    0  0.48200823439E+02 -0.10780728640E+02 -0.49733642531E+01  0.49641493150E+02  0.00000000000E+00 0.  1.
</event>
<event>
 8    1  0.7075056E-009  0.1142225E+03  0.7561462E-02  0.1252944E+00
          1   -1    0    0  501    0  0.00000000000E+00  0.00000000000E+00  0.71968776187E+03  0.71968776187E+03  0.00000000000E+00 0. -1.
         -1   -1    0    0    0  501 -0.00000000000E+00 -0.00000000000E+00 -0.49433308086E+02  0.49433308086E+02  0.00000000000E+00 0.  1.
         25    2    1    2    0    0 -0.86235343153E+02 -0.20347750885E+02  0.61495054317E+03  0.63376810656E+03  0.12508907614E+03 0.  0.
         23    2    1    2    0    0  0.86235343153E+02  0.20347750885E+02  0.55303910609E+02  0.13535296339E+03  0.86089121240E+02 0.  0.
          5    1    3    3  502    0  0.16840440083E+02  0.21417716782E+02  0.26777219976E+03  0.26918718836E+03  0.41800000000E+01 0.  1.
         -5    1    3    3    0  502 -0.10307578324E+03 -0.41765467667E+02  0.34717834341E+03  0.36458091820E+03  0.41800000000E+01 0.  1.
        -11    1    4    4    0    0  0.54395883108E+02  0.62105797736E+01  0.76875060137E+02  0.94378272241E+02  0.00000000000E+00 0. -1.
         11    1    4    4    0    0  0.31839460045E+02  0.14137171112E+02 -0.21571149528E+02  0.40974691152E+02  0.00000000000E+00 0.  1.
</event>
<event>
 8    1  0.7075056E-009  0.8474261E+02  0.7561462E-02  0.1316107E+00
         -2   -1    0    0    0  501 -0.00000000000E+00  0.00000000000E+00  0.98205312575E+02  0.98205312575E+02  0.00000000000E+00 0. -1.
          2   -1    0    0  501    0  0.00000000000E+00 -0.00000000000E+00 -0.21429093169E+03  0.21429093169E+03  0.00000000000E+00 0.  1.
         25    2    1    2    0    0  0.13057171594E+02  0.63531631470E+02 -0.13669590389E+03  0.19631628594E+03  0.12509019169E+03 0.  0.
         23    2    1    2    0    0 -0.13057171594E+02 -0.63531631470E+02  0.20610284777E+02  0.11617995832E+03  0.94160718719E+02 0.  0.
          5    1    3    3  502    0  0.32755125339E+01 -0.50232482301E+01  0.21965861344E+02  0.23150236926E+02  0.41800000000E+01 0. -1.
         -5    1    3    3    0  502  0.97816590597E+01  0.68554879700E+02 -0.15866176523E+03  0.17316604902E+03  0.41800000000E+01 0. -1.
        -11    1    4    4    0    0 -0.24563969519E+02  0.34786247595E+01 -0.24274652405E+02  0.34709482539E+02  0.00000000000E+00 0.  1.
         11    1    4    4    0    0  0.11506797925E+02 -0.67010256229E+02  0.44884937182E+02  0.81470475782E+02  0.00000000000E+00 0. -1.
</event>
<event>
 8    1  0.7075056E-009  0.1197853E+03  0.7561462E-02  0.1243452E+00
         -2   -1    0    0    0  501 -0.00000000000E+00  0.00000000000E+00  0.59410691884E+02  0.59410691884E+02  0.00000000000E+00 0.  1.
          2   -1    0    0  501    0  0.00000000000E+00 -0.00000000000E+00 -0.29921127173E+03  0.29921127173E+03  0.00000000000E+00 0. -1.
         25    2    1    2    0    0  0.39801862346E+02 -0.60423133977E+02 -0.98580496337E+02  0.17493112456E+03  0.12509053008E+03 0.  0.
         23    2    1    2    0    0 -0.39801862346E+02  0.60423133977E+02 -0.14122008351E+03  0.18369083905E+03  0.92542255215E+02 0.  0.
          5    1    3    3  502    0 -0.87759673382E+01  0.26595558583E+02  0.75276790652E+01  0.29299824081E+02  0.41800000000E+01 0.  1.
         -5    1    3    3    0  502  0.48577829684E+02 -0.87018692561E+02 -0.10610817540E+03  0.14563130048E+03  0.41800000000E+01 0.  1.
        -11    1    4    4    0    0  0.26828366994E+02  0.13671372153E+02 -0.67340136431E+02  0.73765585924E+02  0.00000000000E+00 0.  1.
         11    1    4    4    0    0 -0.66630229340E+02  0.46751761824E+02 -0.73879947075E+02  0.10992525313E+03  0.00000000000E+00 0. -1.
</event>
<event>
 8    1  0.7075056E-009  0.9700837E+02  0.7561462E-02  0.1286716E+00
          3   -1    0    0  501    0  0.00000000000E+00  0.00000000000E+00  0.16440401846E+03  0.16440401846E+03  0.00000000000E+00 0. -1.
         -3   -1    0    0    0  501 -0.00000000000E+00 -0.00000000000E+00 -0.91747446760E+02  0.91747446760E+02  0.00000000000E+00 0.  1.
         25    2    1    2    0    0 -0.39599045214E+02 -0.47627886657E+02  0.40432111191E+02  0.14531517951E+03  0.12508095703E+03 0.  0.
         23    2    1    2    0    0  0.39599045214E+02  0.47627886657E+02  0.32224460509E+02  0.11083628571E+03  0.86080000035E+02 0.  0.
          5    1    3    3  502    0  0.81864044322E+00 -0.47343923878E+02  0.77104255461E+02  0.90579555698E+02  0.41800000000E+01 0.  1.
         -5    1    3    3    0  502 -0.40417685657E+02 -0.28396277910E+00 -0.36672144270E+02  0.54735623812E+02  0.41800000000E+01 0.  1.
        -11    1    4    4    0    0  0.65949668888E+02  0.43922989072E+02  0.21131592104E+02  0.82006902028E+02  0.00000000000E+00 0.  1.
         11    1    4    4    0    0 -0.26350623674E+02  0.37048975847E+01  0.11092868406E+02  0.28829383684E+02  0.00000000000E+00 0. -1.
</event>
<event>
 8    1  0.7075056E-009  0.1263962E+03  0.7561462E-02  0.1232903E+00
          1   -1    0    0  501    0  0.00000000000E+00  0.00000000000E+00  0.13465819654E+04  0.13465819654E+04  0.00000000000E+00 0. -1.
         -1   -1    0    0    0  501 -0.00000000000E+00 -0.00000000000E+00 -0.11898068344E+02  0.11898068344E+02  0.00000000000E+00 0.  1.
         25    2    1    2    0    0  0.55282303856E+02 -0.32817983766E+02  0.73141281450E+03  0.74481247551E+03  0.12509102800E+03 0.  0.
         23    2    1    2    0    0 -0.55282303856E+02  0.32817983766E+02  0.60327108255E+03  0.61366755823E+03  0.92296911098E+02 0.  0.
          5    1    3    3  502    0 -0.74609404627E+01  0.41867395530E+02  0.20160230238E+03  0.20608130717E+03  0.41800000000E+01 0. -1.
         -5    1    3    3    0  502  0.62743244319E+02 -0.74685379296E+02  0.52981051213E+03  0.53873116835E+03  0.41800000000E+01 0. -1.
        -11    1    4    4    0    0 -0.14789541836E+02  0.61211280598E+02  0.34716888940E+03  0.35283393996E+03  0.00000000000E+00 0.  1.
         11    1    4    4    0    0 -0.40492762020E+02 -0.28393296832E+02  0.25610219315E+03  0.26083361827E+03  0.00000000000E+00 0. -1.
</event>
<event>
 8    1  0.7075056E-009  0.1494483E+03  0.7561462E-02  0.1201153E+00
          1   -1    0    0  501    0  0.00000000000E+00  0.00000000000E+00  0.53827055364E+03  0.53827055364E+03  0.00000000000E+00 0. -1.
         -1   -1    0    0    0  501 -0.00000000000E+00 -0.00000000000E+00 -0.65435778054E+02  0.65435778054E+02  0.00000000000E+00 0.  1.
         25    2    1    2    0    0  0.92011865693E+02  0.82092850737E+02  0.98495725363E+02  0.20137946522E+03  0.12508741554E+03 0.  0.
         23    2    1    2    0    0 -0.92011865693E+02 -0.82092850737E+02  0.37433905023E+03  0.40232686648E+03  0.80819325627E+02 0.  0.
          5    1    3    3  502    0 -0.28826384736E+02  0.34099331220E+02  0.17513211414E+02  0.48144675932E+02  0.41800000000E+01 0.  1.
         -5    1    3    3    0  502  0.12083825043E+03  0.47993519518E+02  0.80982513948E+02  0.15323478929E+03  0.41800000000E+01 0.  1.
        -11    1    4    4    0    0 -0.53125499796E+02 -0.55655938945E+02  0.11246986733E+03  0.13626948787E+03  0.00000000000E+00 0.  1.
         11    1    4    4    0    0 -0.38886365897E+02 -0.26436911792E+02  0.26186918290E+03  0.26605737861E+03  0.00000000000E+00 0. -1.
</event>
<event>
 8    1  0.7075056E-009  0.9655516E+02  0.7561462E-02  0.1287711E+00
          2   -1    0    0  501    0  0.00000000000E+00  0.00000000000E+00  0.46295940034E+03  0.46295940034E+03  0.00000000000E+00 0. -1.
         -2   -1    0    0    0  501 -0.00000000000E+00 -0.00000000000E+00 -0.34005943278E+02  0.34005943278E+02  0.00000000000E+00 0.  1.
         25    2    1    2    0    0 -0.52663343347E+02 -0.21731916330E+02  0.17698709185E+03  0.22409570354E+03  0.12509496291E+03 0.  0.
         23    2    1    2    0    0  0.52663343347E+02  0.21731916330E+02  0.25196636521E+03  0.27286964007E+03  0.87892476109E+02 0.  0.
          5    1    3    3  502    0 -0.29526243436E+02  0.29014962146E+02  0.34283017395E+01  0.41747966808E+02  0.41800000000E+01 0.  1.
         -5    1    3    3    0  502 -0.23137099911E+02 -0.50746878477E+02  0.17355879011E+03  0.18234773673E+03  0.41800000000E+01 0.  1.
        -11    1    4    4    0    0 -0.89906215843E+01 -0.19452858217E+02  0.19893245150E+02  0.29240146578E+02  0.00000000000E+00 0.  1.
         11    1    4    4    0    0  0.61653964931E+02  0.41184774548E+02  0.23207312006E+03  0.24362949350E+03  0.00000000000E+00 0. -1.
</event>
<event>
 8    1  0.7075056E-009  0.1242498E+03  0.7561462E-02  0.1236246E+00
          1   -1    0    0  501    0  0.00000000000E+00  0.00000000000E+00  0.21321024689E+02  0.21321024689E+02  0.00000000000E+00 0. -1.
         -1   -1    0    0    0  501 -0.00000000000E+00 -0.00000000000E+00 -0.11002071153E+04  0.11002071153E+04  0.00000000000E+00 0.  1.
         25    2    1    2    0    0  0.94495437165E+02  0.31583416942E+02 -0.72623239924E+03  0.74363203253E+03  0.12509277448E+03 0.  0.
         23    2    1    2    0    0 -0.94495437165E+02 -0.31583416942E+02 -0.35265369140E+03  0.37789610749E+03  0.92271025388E+02 0.  0.
          5    1    3    3  502    0  0.98006138877E+02  0.41670456782E+02 -0.32087116055E+03  0.33810856880E+03  0.41800000000E+01 0. -1.
         -5    1    3    3    0  502 -0.35107017124E+01 -0.10087039840E+02 -0.40536123869E+03  0.40552346373E+03  0.41800000000E+01 0. -1.
        -11    1    4    4    0    0 -0.40833999685E+02 -0.57767238599E+02 -0.13776900451E+03  0.15487016495E+03  0.00000000000E+00 0.  1.
         11    1    4    4    0    0 -0.53661437479E+02  0.26183821656E+02 -0.21488468689E+03  0.22302594254E+03  0.00000000000E+00 0. -1.
</event>
<event>
 8    1  0.7075056E-009  0.9822880E+02  0.7561462E-02  0.1284065E+00
         -1   -1    0    0    0  501 -0.00000000000E+00  0.00000000000E+00  0.13095262449E+03  0.13095262449E+03  0.00000000000E+00 0.  1.
          1   -1    0    0  501    0  0.00000000000E+00 -0.00000000000E+00 -0.10052402388E+03  0.10052402388E+03  0.00000000000E+00 0. -1.
         25    2    1    2    0    0  0.34776341420E+02 -0.46870213183E+00  0.75186524331E+01  0.13005703383E+03  0.12509471736E+03 0.  0.
         23    2    1    2    0    0 -0.34776341420E+02  0.46870213183E+00  0.22909948171E+02  0.10141961454E+03  0.92474098444E+02 0.  0.
          5    1    3    3  502    0  0.14809691740E+02  0.47545773674E+02  0.43849607778E+02  0.66484494929E+02  0.41800000000E+01 0.  1.
         -5    1    3    3    0  502  0.19966649680E+02 -0.48014475806E+02 -0.36330955345E+02  0.63572538903E+02  0.41800000000E+01 0.  1.
        -11    1    4    4    0    0  0.59252343297E+01  0.38294905306E+02  0.24475302511E+02  0.45832833289E+02  0.00000000000E+00 0.  1.
         11    1    4    4    0    0 -0.40701575750E+02 -0.37826203174E+02 -0.15653543394E+01  0.55586781247E+02  0.00000000000E+00 0. -1.
</event>
<event>
 8    1  0.7075056E-009  0.2250376E+03  0.7561462E-02  0.1130182E+00
         -1   -1    0    0    0  501 -0.00000000000E+00  0.00000000000E+00  0.21189232919E+03  0.21189232919E+03  0.00000000000E+00 0.  1.
          1   -1    0    0  501    0  0.00000000000E+00 -0.00000000000E+00 -0.34691730926E+03  0.34691730926E+03  0.00000000000E+00 0. -1.
         25    2    1    2    0    0 -0.10544510512E+03 -0.17072671400E+03 -0.21985166474E+03  0.32287488591E+03  0.12508859420E+03 0.  0.
         23    2    1    2    0    0  0.10544510512E+03  0.17072671400E+03  0.84826684674E+02  0.23593475253E+03  0.90572401723E+02 0.  0.
          5    1    3    3  502    0 -0.82148985373E+02 -0.18488005718E+03 -0.16355287244E+03  0.26018475325E+03  0.41800000000E+01 0. -1.
         -5    1    3    3    0  502 -0.23296119752E+02  0.14153343185E+02 -0.56298792298E+02  0.62690132660E+02  0.41800000000E+01 0. -1.
        -11    1    4    4    0    0 -0.67269904163E+01  0.67089611192E+02  0.24811935114E+02  0.71846367020E+02  0.00000000000E+00 0.  1.
         11    1    4    4    0    0  0.11217209554E+03  0.10363710281E+03  0.60014749560E+02  0.16408838551E+03  0.00000000000E+00 0. -1.
</event>
<event>
 8    1  0.7075056E-009  0.6484546E+02  0.7561462E-02  0.1378554E+00
         -1   -1    0    0    0  501 -0.00000000000E+00  0.00000000000E+00  0.99177374564E+02  0.99177374564E+02  0.00000000000E+00 0.  1.
          1   -1    0    0  501    0  0.00000000000E+00 -0.00000000000E+00 -0.13538403138E+03  0.13538403138E+03  0.00000000000E+00 0. -1.
         25    2    1    2    0    0  0.11808513966E+02  0.16723691612E+02 -0.37331109355E+02  0.13212111565E+03  0.12507299713E+03 0.  0.
         23    2    1    2    0    0 -0.11808513966E+02 -0.16723691612E+02  0.11244525347E+01  0.10244029030E+03  0.10036745399E+03 0.  0.
          5    1    3    3  502    0  0.31675658330E+02  0.21791714319E+02  0.37830944872E+02  0.54100637090E+02  0.41800000000E+01 0. -1.
         -5    1    3    3    0  502 -0.19867144363E+02 -0.50680227066E+01 -0.75162054228E+02  0.78020478562E+02  0.41800000000E+01 0. -1.
        -11    1    4    4    0    0 -0.33694249579E+02  0.10378110160E+02 -0.36787573326E+02  0.50954226286E+02  0.00000000000E+00 0. -1.
         11    1    4    4    0    0  0.21885735613E+02 -0.27101801772E+02  0.37912025860E+02  0.51486064012E+02  0.00000000000E+00 0.  1.
</event>
<event>
 8    1  0.7075056E-009  0.1097780E+03  0.7561462E-02  0.1260982E+00
         -3   -1    0    0    0  501 -0.00000000000E+00  0.00000000000E+00  0.35841744157E+03  0.35841744157E+03  0.00000000000E+00 0.  1.
          3   -1    0    0  501    0  0.00000000000E+00 -0.00000000000E+00 -0.59865193151E+02  0.59865193151E+02  0.00000000000E+00 0. -1.
         25    2    1    2    0    0  0.33262566665E+02 -0.64688401960E+02  0.25624135851E+03  0.29428063303E+03  0.12510183643E+03 0.  0.
         23    2    1    2    0    0 -0.33262566665E+02  0.64688401960E+02  0.42310889904E+02  0.12400200168E+03  0.91078522869E+02 0.  0.
          5    1    3    3  502    0  0.25664932699E+02 -0.83880710904E+02  0.86595580653E+02  0.12333259675E+03  0.41800000000E+01 0.  1.
         -5    1    3    3    0  502  0.75976339656E+01  0.19192308944E+02  0.16964577786E+03  0.17094803629E+03  0.41800000000E+01 0.  1.
        -11    1    4    4    0    0 -0.27705550309E+02  0.85113513903E+02  0.17177840648E+02  0.91142668252E+02  0.00000000000E+00 0. -1.
         11    1    4    4    0    0 -0.55570163561E+01 -0.20425111943E+02  0.25133049256E+02  0.32859333432E+02  0.00000000000E+00 0.  1.
</event>
<event>
 8    1  0.7075056E-009  0.9585049E+02  0.7561462E-02  0.1289272E+00
         -2   -1    0    0    0  501 -0.00000000000E+00  0.00000000000E+00  0.22638270637E+02  0.22638270637E+02  0.00000000000E+00 0.  1.
          2   -1    0    0  501    0  0.00000000000E+00 -0.00000000000E+00 -0.67851255490E+03  0.67851255490E+03  0.00000000000E+00 0. -1.
         25    2    1    2    0    0 -0.23693845072E+02 -0.56929276679E+02 -0.37596880540E+03  0.40100459901E+03  0.12509918047E+03 0.  0.
         23    2    1    2    0    0  0.23693845072E+02  0.56929276679E+02 -0.27990547886E+03  0.30014622652E+03  0.89097358908E+02 0.  0.
          5    1    3    3  502    0  0.35451460531E+02  0.17984525045E+01 -0.23085120582E+03  0.23360178105E+03  0.41800000000E+01 0. -1.
         -5    1    3    3    0  502 -0.59145305604E+02 -0.58727729183E+02 -0.14511759959E+03  0.16740281796E+03  0.41800000000E+01 0. -1.
        -11    1    4    4    0    0 -0.10591998650E+02  0.12492948958E+02 -0.18501729026E+01  0.16482941147E+02  0.00000000000E+00 0.  1.
         11    1    4    4    0    0  0.34285843722E+02  0.44436327720E+02 -0.27805530595E+03  0.28366328538E+03  0.00000000000E+00 0. -1.
</event>
<event>
 8    1  0.7075056E-009  0.1325961E+03  0.7561462E-02  0.1223654E+00
         -1   -1    0    0    0  501 -0.00000000000E+00  0.00000000000E+00  0.11109234661E+03  0.11109234661E+03  0.00000000000E+00 0.  1.
          1   -1    0    0  501    0  0.00000000000E+00 -0.00000000000E+00 -0.18682613029E+03  0.18682613029E+03  0.00000000000E+00 0. -1.
         25    2    1    2    0    0 -0.84802171426E+02  0.21572545410E+02 -0.77979690744E+01  0.15285654494E+03  0.12509009560E+03 0.  0.
         23    2    1    2    0    0  0.84802171426E+02 -0.21572545410E+02 -0.67935814605E+02  0.14506193195E+03  0.93653116348E+02 0.  0.
          5    1    3    3  502    0 -0.38895012223E+02  0.70645892029E+02  0.14267920386E+02  0.82004329083E+02  0.41800000000E+01 0.  1.
         -5    1    3    3    0  502 -0.45907159203E+02 -0.49073346619E+02 -0.22065889460E+02  0.70852215859E+02  0.41800000000E+01 0.  1.
        -11    1    4    4    0    0 -0.96073877559E+01  0.13350804932E+02 -0.35795264040E+02  0.39393487019E+02  0.00000000000E+00 0. -1.
         11    1    4    4    0    0  0.94409559182E+02 -0.34923350342E+02 -0.32140550565E+02  0.10566844493E+03  0.00000000000E+00 0.  1.
</event>
<event>
 8    1  0.7075056E-009  0.9657873E+02  0.7561462E-02  0.1287659E+00
         -2   -1    0    0    0  501 -0.00000000000E+00  0.00000000000E+00  0.10699053423E+03  0.10699053423E+03  0.00000000000E+00 0. -1.
          2   -1    0    0  501    0  0.00000000000E+00 -0.00000000000E+00 -0.15002527012E+03  0.15002527012E+03  0.00000000000E+00 0.  1.
         25    2    1    2    0    0  0.36371000387E+02  0.43049266345E+02 -0.56421208124E+02  0.14834656819E+03  0.12508901857E+03 0.  0.
         23    2    1    2    0    0 -0.36371000387E+02 -0.43049266345E+02  0.13386472236E+02  0.10866923616E+03  0.91944093050E+02 0.  0.
          5    1    3    3  502    0  0.53364387273E+02  0.41592044897E+02 -0.88678038474E+02  0.11161954549E+03  0.41800000000E+01 0.  1.
         -5    1    3    3    0  502 -0.16993386886E+02  0.14572214486E+01  0.32256830350E+02  0.36727022701E+02  0.41800000000E+01 0.  1.
        -11    1    4    4    0    0 -0.60240962557E+02 -0.19392770792E+01  0.61693937262E+01  0.60587092555E+02  0.00000000000E+00 0.  1.
         11    1    4    4    0    0  0.23869962170E+02 -0.41109989266E+02  0.72170785095E+01  0.48082143605E+02  0.00000000000E+00 0. -1.
</event>
<event>
 8    1  0.7075056E-009  0.3840163E+03  0.7561462E-02  0.1049459E+00
         -2   -1    0    0    0  501 -0.00000000000E+00  0.00000000000E+00  0.91351243490E+03  0.91351243490E+03  0.00000000000E+00 0.  1.
          2   -1    0    0  501    0  0.00000000000E+00 -0.00000000000E+00 -0.17758196678E+03  0.17758196678E+03  0.00000000000E+00 0. -1.
         25    2    1    2    0    0 -0.33747289928E+03  0.17596628614E+03  0.27430885678E+03  0.48553646976E+03  0.12509285733E+03 0.  0.
         23    2    1    2    0    0  0.33747289928E+03 -0.17596628614E+03  0.46162161134E+03  0.60555793193E+03  0.93561772419E+02 0.  0.
          5    1    3    3  502    0 -0.29287119122E+03  0.16480522673E+03  0.18169438050E+03  0.38205316084E+03  0.41800000000E+01 0. -1.
         -5    1    3    3    0  502 -0.44601708063E+02  0.11161059413E+02  0.92614476279E+02  0.10348330892E+03  0.41800000000E+01 0. -1.
        -11    1    4    4    0    0  0.23171998859E+03 -0.86757555093E+02  0.24275225794E+03  0.34662614617E+03  0.00000000000E+00 0. -1.
         11    1    4    4    0    0  0.10575291069E+03 -0.89208731047E+02  0.21886935340E+03  0.25893178575E+03  0.00000000000E+00 0.  1.
</event>
<event>
 8    1  0.7075056E-009  0.9460696E+02  0.7561462E-02  0.1292064E+00
         -1   -1    0    0    0  501 -0.00000000000E+00  0.00000000000E+00  0.44287333164E+02  0.44287333164E+02  0.00000000000E+00 0.  1.
          1   -1    0    0  501    0  0.00000000000E+00 -0.00000000000E+00 -0.40705675466E+03  0.40705675466E+03  0.00000000000E+00 0. -1.
         25    2    1    2    0    0 -0.12763640235E+01 -0.11837316732E+02 -0.34242281360E+03  0.36475246735E+03  0.12509687443E+03 0.  0.
         23    2    1    2    0    0  0.12763640235E+01  0.11837316732E+02 -0.20346607905E+02  0.86591620481E+02  0.83320904410E+02 0.  0.
          5    1    3    3  502    0 -0.26898823681E+02 -0.53947179336E+02 -0.96156775591E+02  0.11356690876E+03  0.41800000000E+01 0. -1.
         -5    1    3    3    0  502  0.25622459657E+02  0.42109862604E+02 -0.24626603800E+03  0.25118555859E+03  0.41800000000E+01 0. -1.
        -11    1    4    4    0    0 -0.38569100362E+02  0.66119809317E+01 -0.24535139300E+02  0.46187301881E+02  0.00000000000E+00 0. -1.
         11    1    4    4    0    0  0.39845464385E+02  0.52253358008E+01  0.41885313946E+01  0.40404318600E+02  0.00000000000E+00 0.  1.
</event>
<event>
 8    1  0.7075056E-009  0.1283641E+03  0.7561462E-02  0.1229904E+00
         -4   -1    0    0    0  501 -0.00000000000E+00  0.00000000000E+00  0.87866845715E+02  0.87866845715E+02  0.00000000000E+00 0.  1.
          4   -1    0    0  501    0  0.00000000000E+00 -0.00000000000E+00 -0.26545373507E+03  0.26545373507E+03  0.00000000000E+00 0. -1.
         25    2    1    2    0    0  0.24458578849E+02 -0.64839835740E+02 -0.26393832209E+01  0.14302794207E+03  0.12509036530E+03 0.  0.
         23    2    1    2    0    0 -0.24458578849E+02  0.64839835740E+02 -0.17494750614E+03  0.21029263872E+03  0.93882573563E+02 0.  0.
          5    1    3    3  502    0  0.51850617532E+02 -0.89629125213E+02  0.91249131260E+01  0.10403174066E+03  0.41800000000E+01 0.  1.
         -5    1    3    3    0  502 -0.27392038683E+02  0.24789289473E+02 -0.11764296347E+02  0.38996201409E+02  0.41800000000E+01 0.  1.
        -11    1    4    4    0    0 -0.51651579584E+02  0.71547430981E+01 -0.90822483509E+02  0.10472726261E+03  0.00000000000E+00 0. -1.
         11    1    4    4    0    0  0.27193000736E+02  0.57685092641E+02 -0.84125022629E+02  0.10556537612E+03  0.00000000000E+00 0.  1.
</event>
<event>
 8    1  0.7075056E-009  0.2226914E+03  0.7561462E-02  0.1131892E+00
         -1   -1    0    0    0  501 -0.00000000000E+00  0.00000000000E+00  0.26372826799E+02  0.26372826799E+02  0.00000000000E+00 0.  1.
          1   -1    0    0  501    0  0.00000000000E+00 -0.00000000000E+00 -0.22089902415E+04  0.22089902415E+04  0.00000000000E+00 0. -1.
         25    2    1    2    0    0 -0.21573747146E+03  0.10707946560E+02 -0.12304701560E+04  0.12555325905E+04  0.12509182368E+03 0.  0.
         23    2    1    2    0    0  0.21573747146E+03 -0.10707946560E+02 -0.95214725876E+03  0.97983047783E+03  0.82619889948E+02 0.  0.
          5    1    3    3  502    0 -0.10164483323E+03  0.73743154642E+01 -0.27584116262E+03  0.29409500514E+03  0.41800000000E+01 0. -1.
         -5    1    3    3    0  502 -0.11409263823E+03  0.33336310956E+01 -0.95462899337E+03  0.96143758538E+03  0.41800000000E+01 0. -1.
        -11    1    4    4    0    0  0.95282664799E+02  0.33286723321E+02 -0.35499661353E+03  0.36906556028E+03  0.00000000000E+00 0.  1.
         11    1    4    4    0    0  0.12045480666E+03 -0.43994669881E+02 -0.59715064522E+03  0.61076491756E+03  0.00000000000E+00 0. -1.
</event>
<event>
 8    1  0.7075056E-009  0.1002156E+03  0.7561462E-02  0.1279843E+00
         -4   -1    0    0    0  501 -0.00000000000E+00  0.00000000000E+00  0.33821780615E+02  0.33821780615E+02  0.00000000000E+00 0.  1.
          4   -1    0    0  501    0  0.00000000000E+00 -0.00000000000E+00 -0.34447358403E+03  0.34447358403E+03  0.00000000000E+00 0. -1.
         25    2    1    2    0    0  0.19702663056E+01 -0.18052117751E+01 -0.17649905431E+03  0.21634533848E+03  0.12508496541E+03 0.  0.
         23    2    1    2    0    0 -0.19702663056E+01  0.18052117751E+01 -0.13415274911E+03  0.16195002617E+03  0.90684674251E+02 0.  0.
          5    1    3    3  502    0 -0.18903020588E+02  0.56719480269E+02 -0.63463879286E+02  0.87290091095E+02  0.41800000000E+01 0. -1.
         -5    1    3    3    0  502  0.20873286894E+02 -0.58524692044E+02 -0.11303517503E+03  0.12905524739E+03  0.41800000000E+01 0. -1.
        -11    1    4    4    0    0  0.19976576395E+02  0.33896210576E+02 -0.10839197904E+03  0.11531191532E+03  0.00000000000E+00 0.  1.
         11    1    4    4    0    0 -0.21946842701E+02 -0.32090998801E+02 -0.25760770069E+02  0.46638110844E+02  0.00000000000E+00 0. -1.
</event>
<event>
 8    1  0.7075056E-009  0.1047651E+03  0.7561462E-02  0.1270583E+00
         -1   -1    0    0    0  501 -0.00000000000E+00  0.00000000000E+00  0.50167120739E+02  0.50167120739E+02  0.00000000000E+00 0.  1.
          1   -1    0    0  501    0  0.00000000000E+00 -0.00000000000E+00 -0.24280971748E+03  0.24280971748E+03  0.00000000000E+00 0. -1.
         25    2    1    2    0    0  0.20589734055E+02 -0.26218457111E+01 -0.13922788049E+03  0.18831546275E+03  0.12508996595E+03 0.  0.
         23    2    1    2    0    0 -0.20589734055E+02  0.26218457111E+01 -0.53414716251E+02  0.10466137547E+03  0.87578880902E+02 0.  0.
          5    1    3    3  502    0 -0.34568083329E+01  0.59130694882E+02 -0.53887067530E+02  0.80185267026E+02  0.41800000000E+01 0.  1.
         -5    1    3    3    0  502  0.24046542388E+02 -0.61752540593E+02 -0.85340812964E+02  0.10813019573E+03  0.41800000000E+01 0.  1.
        -11    1    4    4    0    0  0.24089637587E+02 -0.22096704943E+02 -0.40398088090E+02  0.51967110077E+02  0.00000000000E+00 0. -1.
         11    1    4    4    0    0 -0.44679371642E+02  0.24718550654E+02 -0.13016628161E+02  0.52694265395E+02  0.00000000000E+00 0.  1.
</event>
<event>
 8    1  0.7075056E-009  0.7746051E+02  0.7561462E-02  0.1336417E+00
          2   -1    0    0  501    0  0.00000000000E+00  0.00000000000E+00  0.78852646599E+03  0.78852646599E+03  0.00000000000E+00 0. -1.
         -2   -1    0    0    0  501 -0.00000000000E+00 -0.00000000000E+00 -0.20378290733E+02  0.20378290733E+02  0.00000000000E+00 0.  1.
         25    2    1    2    0    0 -0.30809179112E+02 -0.13539952567E+02  0.24997016851E+03  0.28154045128E+03  0.12508958682E+03 0.  0.
         23    2    1    2    0    0  0.30809179112E+02  0.13539952567E+02  0.51817800675E+03  0.52736430544E+03  0.92044164084E+02 0.  0.
          5    1    3    3  502    0  0.12175080146E+02 -0.19602173211E+01 -0.10829360361E+02  0.16935834031E+02  0.41800000000E+01 0.  1.
         -5    1    3    3    0  502 -0.42984259257E+02 -0.11579735246E+02  0.26079952887E+03  0.26460461725E+03  0.41800000000E+01 0.  1.
        -11    1    4    4    0    0 -0.22824975143E+02  0.33006476289E+02  0.18126627352E+03  0.18565524200E+03  0.00000000000E+00 0. -1.
         11    1    4    4    0    0  0.53634154255E+02 -0.19466523722E+02  0.33691173323E+03  0.34170906344E+03  0.00000000000E+00 0.  1.
</event>
<event>
 8    1  0.7075056E-009  0.1006656E+03  0.7561462E-02  0.1278902E+00
          1   -1    0    0  501    0  0.00000000000E+00  0.00000000000E+00  0.17332009293E+03  0.17332009293E+03  0.00000000000E+00 0. -1.
         -1   -1    0    0    0  501 -0.00000000000E+00 -0.00000000000E+00 -0.97475135115E+02  0.97475135115E+02  0.00000000000E+00 0.  1.
         25    2    1    2    0    0 -0.34933913552E+02  0.67944173001E+02  0.42447215091E+02  0.15259673286E+03  0.12508879985E+03 0.  0.
         23    2    1    2    0    0  0.34933913552E+02 -0.67944173001E+02  0.33397742721E+02  0.11819849519E+03  0.83777598942E+02 0.  0.
          5    1    3    3  502    0 -0.48747193522E+02  0.44854330855E+02 -0.31737532246E+02  0.73572707071E+02  0.41800000000E+01 0. -1.
         -5    1    3    3    0  502  0.13813279971E+02  0.23089842146E+02  0.74184747337E+02  0.79024025785E+02  0.41800000000E+01 0. -1.
        -11    1    4    4    0    0  0.56553674748E+02 -0.64588034008E+02  0.40868056233E+02  0.95079599730E+02  0.00000000000E+00 0. -1.
         11    1    4    4    0    0 -0.21619761196E+02 -0.33561389935E+01 -0.74703135124E+01  0.23118895456E+02  0.00000000000E+00 0.  1.
</event>
<event>
 8    1  0.7075056E-009  0.1047908E+03  0.7561462E-02  0.1270532E+00
          2   -1    0    0  501    0  0.00000000000E+00  0.00000000000E+00  0.18489815167E+02  0.18489815167E+02  0.00000000000E+00 0.  1.
         -2   -1    0    0    0  501 -0.00000000000E+00 -0.00000000000E+00 -0.74885591247E+03  0.74885591247E+03  0.00000000000E+00 0. -1.
         25    2    1    2    0    0  0.34342730524E+01 -0.35317183888E+02 -0.50204585283E+03  0.51861008173E+03  0.12508909152E+03 0.  0.
         23    2    1    2    0    0 -0.34342730524E+01  0.35317183888E+02 -0.22832024447E+03  0.24873564591E+03  0.92087946008E+02 0.  0.
          5    1    3    3  502    0  0.55703952870E+02 -0.17694127413E+02 -0.38154406849E+03  0.38601730675E+03  0.41800000000E+01 0.  1.
         -5    1    3    3    0  502 -0.52269679817E+02 -0.17623056475E+02 -0.12050178435E+03  0.13259277499E+03  0.41800000000E+01 0.  1.
        -11    1    4    4    0    0  0.27360127136E+02 -0.18942610365E+02 -0.11069251972E+03  0.11558647398E+03  0.00000000000E+00 0. -1.
         11    1    4    4    0    0 -0.30794400189E+02  0.54259794254E+02 -0.11762772475E+03  0.13314917193E+03  0.00000000000E+00 0.  1.
</event>
<event>
 8    1  0.7075056E-009  0.1243248E+03  0.7561462E-02  0.1236128E+00
          2   -1    0    0  501    0  0.00000000000E+00  0.00000000000E+00  0.82784666574E+03  0.82784666574E+03  0.00000000000E+00 0. -1.
         -2   -1    0    0    0  501 -0.00000000000E+00 -0.00000000000E+00 -0.22799088530E+02  0.22799088530E+02  0.00000000000E+00 0.  1.
         25    2    1    2    0    0  0.49667796735E+02 -0.58074920733E+02  0.56853423606E+03  0.58712665467E+03  0.12508774764E+03 0.  0.
         23    2    1    2    0    0 -0.49667796735E+02  0.58074920733E+02  0.23651334116E+03  0.26351909960E+03  0.87545238922E+02 0.  0.
          5    1    3    3  502    0  0.29603789928E+02  0.33244206504E+02  0.10312077444E+03  0.11239629961E+03  0.41800000000E+01 0.  1.
         -5    1    3    3    0  502  0.20064006807E+02 -0.91319127237E+02  0.46541346161E+03  0.47473035507E+03  0.41800000000E+01 0.  1.
        -11    1    4    4    0    0  0.16501255211E+02 -0.66461307529E+01  0.14384230021E+02  0.22877249634E+02  0.00000000000E+00 0.  1.
         11    1    4    4    0    0 -0.66169051945E+02  0.64721051486E+02  0.22212911114E+03  0.24064184997E+03  0.00000000000E+00 0. -1.
</event>
<event>
 8    1  0.7075056E-009  0.1287459E+03  0.7561462E-02  0.1229329E+00
         -1   -1    0    0    0  501 -0.00000000000E+00  0.00000000000E+00  0.13553993993E+03  0.13553993993E+03  0.00000000000E+00 0.  1.
          1   -1    0    0  501    0  0.00000000000E+00 -0.00000000000E+00 -0.18993252606E+03  0.18993252606E+03  0.00000000000E+00 0. -1.
         25    2    1    2    0    0  0.26099392519E+02 -0.11316591841E+03 -0.52592856055E+02  0.17861438087E+03  0.12509750263E+03 0.  0.
         23    2    1    2    0    0 -0.26099392519E+02  0.11316591841E+03 -0.17997300718E+01  0.14685808512E+03  0.89868541532E+02 0.  0.
          5    1    3    3  502    0  0.96652754974E+01 -0.53136653152E+02  0.39741122561E+02  0.67184452673E+02  0.41800000000E+01 0. -1.
         -5    1    3    3    0  502  0.16434117022E+02 -0.60029265262E+02 -0.92333978615E+02  0.11142992819E+03  0.41800000000E+01 0. -1.
        -11    1    4    4    0    0 -0.48412701904E+02  0.35225384735E+02 -0.21170513301E+02  0.63504394090E+02  0.00000000000E+00 0. -1.
         11    1    4    4    0    0  0.22313309385E+02  0.77940533679E+02  0.19370783229E+02  0.83353691032E+02  0.00000000000E+00 0.  1.
</event>
<event>
 8    1  0.7075056E-009  0.1151631E+03  0.7561462E-02  0.1251297E+00
         -1   -1    0    0    0  501 -0.00000000000E+00  0.00000000000E+00  0.35599661963E+02  0.35599661963E+02  0.00000000000E+00 0.  1.
          1   -1    0    0  501    0  0.00000000000E+00 -0.00000000000E+00 -0.67459418050E+03  0.67459418050E+03  0.00000000000E+00 0. -1.
         25    2    1    2    0    0  0.61014285155E+02  0.89820444593E+02 -0.39183249162E+03  0.42540741937E+03  0.12509322806E+03 0.  0.
         23    2    1    2    0    0 -0.61014285155E+02 -0.89820444593E+02 -0.24716202692E+03  0.28478642309E+03  0.90685081289E+02 0.  0.
          5    1    3    3  502    0  0.44828153993E+02  0.61852628399E+02 -0.75787217470E+02  0.10768698047E+03  0.41800000000E+01 0.  1.
         -5    1    3    3    0  502  0.16186131162E+02  0.27967816193E+02 -0.31604527415E+03  0.31772043890E+03  0.41800000000E+01 0.  1.
        -11    1    4    4    0    0 -0.44824320669E+02 -0.19159231013E+02 -0.33465751602E+02  0.59129116235E+02  0.00000000000E+00 0.  1.
         11    1    4    4    0    0 -0.16189964486E+02 -0.70661213580E+02 -0.21369627532E+03  0.22565730686E+03  0.00000000000E+00 0. -1.
</event>
<event>
 8    1  0.7075056E-009  0.1280995E+03  0.7561462E-02  0.1230303E+00
          1   -1    0    0  501    0  0.00000000000E+00  0.00000000000E+00  0.15465099912E+04  0.15465099912E+04  0.00000000000E+00 0. -1.
         -1   -1    0    0    0  501 -0.00000000000E+00 -0.00000000000E+00 -0.17139338773E+02  0.17139338773E+02  0.00000000000E+00 0.  1.
         25    2    1    2    0    0 -0.95514291893E+02 -0.50758624547E+02  0.10736973988E+04  0.10863575919E+04  0.12508914919E+03 0.  0.
         23    2    1    2    0    0  0.95514291893E+02  0.50758624547E+02  0.45567325356E+03  0.47729173807E+03  0.92031903656E+02 0.  0.
          5    1    3    3  502    0 -0.86413864150E+02  0.92328726631E+01  0.85322216852E+03  0.85764686387E+03  0.41800000000E+01 0. -1.
         -5    1    3    3    0  502 -0.91004277428E+01 -0.59991497210E+02  0.22047523030E+03  0.22871072799E+03  0.41800000000E+01 0. -1.
        -11    1    4    4    0    0  0.21822906338E+02  0.14852830258E+02  0.17863620187E+02  0.31874044831E+02  0.00000000000E+00 0.  1.
         11    1    4    4    0    0  0.73691385555E+02  0.35905794289E+02  0.43780963338E+03  0.44541769323E+03  0.00000000000E+00 0. -1.
</event>
<event>
 8    1  0.7075056E-009  0.1762071E+03  0.7561462E-02  0.1171525E+00
         -2   -1    0    0    0  501 -0.00000000000E+00  0.00000000000E+00  0.70701333840E+03  0.70701333840E+03  0.00000000000E+00 0.  1.
          2   -1    0    0  501    0  0.00000000000E+00 -0.00000000000E+00 -0.57817413051E+02  0.57817413051E+02  0.00000000000E+00 0. -1.
         25    2    1    2    0    0 -0.15889908014E+03 -0.25353155379E+02  0.23436315360E+03  0.31058765557E+03  0.12508758480E+03 0.  0.
         23    2    1    2    0    0  0.15889908014E+03  0.25353155379E+02  0.41483277175E+03  0.45424309588E+03  0.91426809409E+02 0.  0.
          5    1    3    3  502    0 -0.15613968337E+03 -0.45423932652E+02  0.23926964881E+03  0.28932744706E+03  0.41800000000E+01 0. -1.
         -5    1    3    3    0  502 -0.27593967731E+01  0.20070777273E+02 -0.49064952078E+01  0.21260208516E+02  0.41800000000E+01 0. -1.
        -11    1    4    4    0    0  0.51632849580E+02 -0.16068392068E+02  0.23230711272E+03  0.23851779598E+03  0.00000000000E+00 0.  1.
         11    1    4    4    0    0  0.10726623056E+03  0.41421547447E+02  0.18252565903E+03  0.21572529990E+03  0.00000000000E+00 0. -1.
</event>
<event>
 8    1  0.7075056E-009  0.1037617E+03  0.7561462E-02  0.1272579E+00
          1   -1    0    0  501    0  0.00000000000E+00  0.00000000000E+00  0.70820023637E+02  0.70820023637E+02  0.00000000000E+00 0. -1.
         -1   -1    0    0    0  501 -0.00000000000E+00 -0.00000000000E+00 -0.21624448848E+03  0.21624448848E+03  0.00000000000E+00 0.  1.
         25    2    1    2    0    0 -0.22786543385E+02 -0.13020087402E+02 -0.13972110878E+03  0.18936366092E+03  0.12509140100E+03 0.  0.
         23    2    1    2    0    0  0.22786543385E+02  0.13020087402E+02 -0.57033560635E+01  0.97700851192E+02  0.93937100327E+02 0.  0.
          5    1    3    3  502    0 -0.32253885872E+02 -0.65375025143E+02 -0.66533175493E+02  0.98784325211E+02  0.41800000000E+01 0.  1.
         -5    1    3    3    0  502  0.94673424869E+01  0.52354937741E+02 -0.73187933285E+02  0.90579335713E+02  0.41800000000E+01 0.  1.
        -11    1    4    4    0    0 -0.16699244312E+02  0.32925143364E+02 -0.29707610298E+02  0.47386410876E+02  0.00000000000E+00 0.  1.
         11    1    4    4    0    0  0.39485787697E+02 -0.19905055962E+02  0.24004254235E+02  0.50314440315E+02  0.00000000000E+00 0. -1.
</event>
<event>
 8    1  0.7075056E-009  0.7527698E+02  0.7561462E-02  0.1343015E+00
          2   -1    0    0  501    0  0.00000000000E+00  0.00000000000E+00  0.24869839491E+03  0.24869839491E+03  0.00000000000E+00 0. -1.
         -2   -1    0    0    0  501 -0.00000000000E+00 -0.00000000000E+00 -0.56338168186E+02  0.56338168186E+02  0.00000000000E+00 0.  1.
         25    2    1    2    0    0  0.27893990105E+02 -0.90398667204E+01  0.15857556449E+03  0.20409305964E+03  0.12509186011E+03 0.  0.
         23    2    1    2    0    0 -0.27893990105E+02  0.90398667204E+01  0.33784662235E+02  0.10094350346E+03  0.90489743139E+02 0.  0.
          5    1    3    3  502    0 -0.28667748091E+02 -0.19985357219E+02  0.13856134096E+03  0.14296143498E+03  0.41800000000E+01 0.  1.
         -5    1    3    3    0  502  0.56561738196E+02  0.10945490499E+02  0.20014223534E+02  0.61131624661E+02  0.41800000000E+01 0.  1.
        -11    1    4    4    0    0 -0.39038587693E+02  0.18291723925E+02 -0.18335165518E+02  0.46848444882E+02  0.00000000000E+00 0.  1.
         11    1    4    4    0    0  0.11144597588E+02 -0.92518572046E+01  0.52119827753E+02  0.54095058574E+02  0.00000000000E+00 0. -1.
</event>
<event>
 8    1  0.7075056E-009  0.1043474E+03  0.7561462E-02  0.1271411E+00
         -1   -1    0    0    0  501 -0.00000000000E+00  0.00000000000E+00  0.25296603112E+02  0.25296603112E+02  0.00000000000E+00 0. -1.
          1   -1    0    0  501    0  0.00000000000E+00 -0.00000000000E+00 -0.63252579299E+03  0.63252579299E+03  0.00000000000E+00 0.  1.
         25    2    1    2    0    0  0.21594530497E+02  0.12803434205E+02 -0.18436841768E+03  0.22420812368E+03  0.12508923860E+03 0.  0.
         23    2    1    2    0    0 -0.21594530497E+02 -0.12803434205E+02 -0.42286077220E+03  0.43361427242E+03  0.92627495406E+02 0.  0.
          5    1    3    3  502    0 -0.27212315936E+02  0.46497686491E+02 -0.13986907277E+03  0.14994457278E+03  0.41800000000E+01 0.  1.
         -5    1    3    3    0  502  0.48806846434E+02 -0.33694252286E+02 -0.44499344906E+02  0.74263550905E+02  0.41800000000E+01 0.  1.
        -11    1    4    4    0    0 -0.49758044170E+02  0.18508022175E+02 -0.26258445426E+03  0.26789737861E+03  0.00000000000E+00 0.  1.
         11    1    4    4    0    0  0.28163513672E+02 -0.31311456380E+02 -0.16027631794E+03  0.16571689381E+03  0.00000000000E+00 0. -1.
</event>
<event>
 8    1  0.7075056E-009  0.1093201E+03  0.7561462E-02  0.1261834E+00
         -3   -1    0    0    0  501 -0.00000000000E+00  0.00000000000E+00  0.36777022032E+03  0.36777022032E+03  0.00000000000E+00 0.  1.
          3   -1    0    0  501    0  0.00000000000E+00 -0.00000000000E+00 -0.61175965551E+02  0.61175965551E+02  0.00000000000E+00 0. -1.
         25    2    1    2    0    0 -0.13269809695E+02  0.17419699537E+02  0.21615276645E+02  0.12881775879E+03  0.12508901236E+03 0.  0.
         23    2    1    2    0    0  0.13269809695E+02 -0.17419699537E+02  0.28497897812E+03  0.30012842708E+03  0.91567030037E+02 0.  0.
          5    1    3    3  502    0  0.48018543299E+02  0.36311367217E+02 -0.19105890297E+01  0.60377302359E+02  0.41800000000E+01 0. -1.
         -5    1    3    3    0  502 -0.61288352993E+02 -0.18891667681E+02  0.23525865674E+02  0.68440456428E+02  0.41800000000E+01 0. -1.
        -11    1    4    4    0    0  0.51504306854E+02  0.11512426083E+01  0.14838443138E+03  0.15707309910E+03  0.00000000000E+00 0. -1.
         11    1    4    4    0    0 -0.38234497159E+02 -0.18570942145E+02  0.13659454674E+03  0.14305532799E+03  0.00000000000E+00 0.  1.
</event>
<event>
 8    1  0.7075056E-009  0.1043634E+03  0.7561462E-02  0.1271379E+00
         -2   -1    0    0    0  501 -0.00000000000E+00  0.00000000000E+00  0.35833966216E+02  0.35833966216E+02  0.00000000000E+00 0. -1.
          2   -1    0    0  501    0  0.00000000000E+00 -0.00000000000E+00 -0.56694145083E+03  0.56694145083E+03  0.00000000000E+00 0.  1.
         25    2    1    2    0    0 -0.74078958734E+01  0.41007397296E+02 -0.11704489881E+03  0.17630655995E+03  0.12509201088E+03 0.  0.
         23    2    1    2    0    0  0.74078958734E+01 -0.41007397296E+02 -0.41406258580E+03  0.42646885710E+03  0.93227557964E+02 0.  0.
          5    1    3    3  502    0  0.18274283680E+02  0.67190954235E+02 -0.20135803131E+02  0.72605073808E+02  0.41800000000E+01 0. -1.
         -5    1    3    3    0  502 -0.25682179553E+02 -0.26183556940E+02 -0.96909095684E+02  0.10370148614E+03  0.41800000000E+01 0. -1.
        -11    1    4    4    0    0 -0.22344153273E+02  0.22633059419E+02 -0.12230763477E+03  0.12637513239E+03  0.00000000000E+00 0. -1.
         11    1    4    4    0    0  0.29752049147E+02 -0.63640456715E+02 -0.29175495103E+03  0.30009372471E+03  0.00000000000E+00 0.  1.
</event>
<event>
 8    1  0.7075056E-009  0.9687958E+02  0.7561462E-02  0.1286998E+00
         -2   -1    0    0    0  501 -0.00000000000E+00  0.00000000000E+00  0.14819627642E+03  0.14819627642E+03  0.00000000000E+00 0.  1.
          2   -1    0    0  501    0  0.00000000000E+00 -0.00000000000E+00 -0.93419616425E+02  0.93419616425E+02  0.00000000000E+00 0. -1.
         25    2    1    2    0    0 -0.15964609704E+01 -0.37150436995E+02  0.20895601612E+02  0.13215941958E+03  0.12508709909E+03 0.  0.
         23    2    1    2    0    0  0.15964609704E+01  0.37150436995E+02  0.33881058386E+02  0.10945647327E+03  0.97211572186E+02 0.  0.
          5    1    3    3  502    0 -0.61584498206E+02 -0.17311764585E+02  0.24752719113E+02  0.68720572726E+02  0.41800000000E+01 0. -1.
         -5    1    3    3    0  502  0.59988037235E+02 -0.19838672410E+02 -0.38571175006E+01  0.63438846851E+02  0.41800000000E+01 0. -1.
        -11    1    4    4    0    0  0.27270796988E+02  0.10222463447E+02 -0.25945277577E+02  0.39004519685E+02  0.00000000000E+00 0. -1.
         11    1    4    4    0    0 -0.25674336017E+02  0.26927973548E+02  0.59826335963E+02  0.70451953586E+02  0.00000000000E+00 0.  1.
</event>
<event>
 8    1  0.7075056E-009  0.9954172E+02  0.7561462E-02  0.1281263E+00
         -1   -1    0    0    0  501 -0.00000000000E+00  0.00000000000E+00  0.22295289932E+02  0.22295289932E+02  0.00000000000E+00 0.  1.
          1   -1    0    0  501    0  0.00000000000E+00 -0.00000000000E+00 -0.82917864046E+03  0.82917864046E+03  0.00000000000E+00 0. -1.
         25    2    1    2    0    0  0.70985817064E+02  0.23699635038E+02 -0.36176971409E+03  0.39003167248E+03  0.12508685214E+03 0.  0.
         23    2    1    2    0    0 -0.70985817064E+02 -0.23699635038E+02 -0.44511363644E+03  0.46144225791E+03  0.95927832868E+02 0.  0.
          5    1    3    3  502    0  0.19321303880E+02  0.18233978312E+02 -0.32532108226E+03  0.32643080387E+03  0.41800000000E+01 0. -1.
         -5    1    3    3    0  502  0.51664513184E+02  0.54656567255E+01 -0.36448631823E+02  0.63600868609E+02  0.41800000000E+01 0. -1.
        -11    1    4    4    0    0 -0.50663911828E+02  0.32578417828E+02 -0.26054477894E+03  0.26741684147E+03  0.00000000000E+00 0.  1.
         11    1    4    4    0    0 -0.20321905236E+02 -0.56278052866E+02 -0.18456885750E+03  0.19402541644E+03  0.00000000000E+00 0. -1.
</event>
<event>
 8    1  0.7075056E-009  0.7747280E+02  0.7561462E-02  0.1336380E+00
         -2   -1    0    0    0  501 -0.00000000000E+00  0.00000000000E+00  0.48196738533E+02  0.48196738533E+02  0.00000000000E+00 0. -1.
          2   -1    0    0  501    0  0.00000000000E+00 -0.00000000000E+00 -0.39979592073E+03  0.39979592073E+03  0.00000000000E+00 0.  1.
         25    2    1    2    0    0  0.45941761420E+02 -0.90504994320E+01 -0.72842213664E+02  0.15213801448E+03  0.12508968933E+03 0.  0.
         23    2    1    2    0    0 -0.45941761420E+02  0.90504994320E+01 -0.27875696854E+03  0.29585464478E+03  0.87361126077E+02 0.  0.
          5    1    3    3  502    0  0.17765139010E+02 -0.33105221440E+02  0.26410094784E+02  0.46114220769E+02  0.41800000000E+01 0. -1.
         -5    1    3    3    0  502  0.28176622410E+02  0.24054722008E+02 -0.99252308448E+02  0.10602379371E+03  0.41800000000E+01 0. -1.
        -11    1    4    4    0    0 -0.62643673775E+02  0.71493164894E+01 -0.26926863596E+03  0.27655187742E+03  0.00000000000E+00 0.  1.
         11    1    4    4    0    0  0.16701912355E+02  0.19011829426E+01 -0.94883325734E+01  0.19302767364E+02  0.00000000000E+00 0. -1.
</event>
<event>
 8    1  0.7075056E-009  0.1137578E+03  0.7561462E-02  0.1253765E+00
          1   -1    0    0  501    0  0.00000000000E+00  0.00000000000E+00  0.39387796204E+03  0.39387796204E+03  0.00000000000E+00 0. -1.
         -1   -1    0    0    0  501 -0.00000000000E+00 -0.00000000000E+00 -0.44222217157E+02  0.44222217157E+02  0.00000000000E+00 0.  1.
         25    2    1    2    0    0  0.61857879411E+02 -0.10442263040E+02  0.12555200255E+03  0.18800806250E+03  0.12509311779E+03 0.  0.
         23    2    1    2    0    0 -0.61857879411E+02  0.10442263040E+02  0.22410374233E+03  0.25009211670E+03  0.91586797101E+02 0.  0.
          5    1    3    3  502    0 -0.16379121765E+01 -0.45877431478E+02  0.39542549240E+01  0.46265862224E+02  0.41800000000E+01 0. -1.
         -5    1    3    3    0  502  0.63495791588E+02  0.35435168438E+02  0.12159774763E+03  0.14174220028E+03  0.41800000000E+01 0. -1.
        -11    1    4    4    0    0 -0.30287603480E+02 -0.39332271359E+02  0.76956982384E+02  0.91579165930E+02  0.00000000000E+00 0.  1.
         11    1    4    4    0    0 -0.31570275931E+02  0.49774534399E+02  0.14714675995E+03  0.15851295077E+03  0.00000000000E+00 0. -1.
</event>
<event>
 8    1  0.7075056E-009  0.1146476E+03  0.7561462E-02  0.1252197E+00
          1   -1    0    0  501    0  0.00000000000E+00  0.00000000000E+00  0.59740631037E+03  0.59740631037E+03  0.00000000000E+00 0.  1.
         -1   -1    0    0    0  501 -0.00000000000E+00 -0.00000000000E+00 -0.33526473328E+02  0.33526473328E+02  0.00000000000E+00 0. -1.
         25    2    1    2    0    0  0.31876373770E+02 -0.68812470807E+02  0.41599444143E+03  0.44096436875E+03  0.12508772866E+03 0.  0.
         23    2    1    2    0    0 -0.31876373770E+02  0.68812470807E+02  0.14788539561E+03  0.18996841495E+03  0.92014396151E+02 0.  0.
          5    1    3    3  502    0  0.50736705289E+02 -0.79362596594E+02  0.40597466469E+03  0.41677996086E+03  0.41800000000E+01 0.  1.
         -5    1    3    3    0  502 -0.18860331519E+02  0.10550125787E+02  0.10019776738E+02  0.24184407890E+02  0.41800000000E+01 0.  1.
        -11    1    4    4    0    0 -0.40523597443E+02 -0.30290840015E+01  0.26063788085E+02  0.48276892495E+02  0.00000000000E+00 0. -1.
         11    1    4    4    0    0  0.86472236730E+01  0.71841554809E+02  0.12182160752E+03  0.14169152245E+03  0.00000000000E+00 0.  1.
</event>
<event>
 8    1  0.7075056E-009  0.1654744E+03  0.7561462E-02  0.1182651E+00
          2   -1    0    0  501    0  0.00000000000E+00  0.00000000000E+00  0.60317925425E+03  0.60317925425E+03  0.00000000000E+00 0. -1.
         -2   -1    0    0    0  501 -0.00000000000E+00 -0.00000000000E+00 -0.56940425468E+02  0.56940425468E+02  0.00000000000E+00 0.  1.
         25    2    1    2    0    0 -0.79659740801E+02  0.11604132304E+03  0.38465624279E+03  0.42827503401E+03  0.12509123344E+03 0.  0.
         23    2    1    2    0    0  0.79659740801E+02 -0.11604132304E+03  0.16158258599E+03  0.23184464571E+03  0.88497145103E+02 0.  0.
          5    1    3    3  502    0 -0.37575890081E+01  0.10228807148E+03  0.15343710530E+03  0.18449224029E+03  0.41800000000E+01 0.  1.
         -5    1    3    3    0  502 -0.75902151792E+02  0.13753251555E+02  0.23121913749E+03  0.24378279372E+03  0.41800000000E+01 0.  1.
        -11    1    4    4    0    0  0.64147472486E+02 -0.44549462620E+02  0.34869794673E+02  0.85530435674E+02  0.00000000000E+00 0.  1.
         11    1    4    4    0    0  0.15512268315E+02 -0.71491860416E+02  0.12671279132E+03  0.14631421003E+03  0.00000000000E+00 0. -1.
</event>
<event>
 8    1  0.7075056E-009  0.1391820E+03  0.7561462E-02  0.1214434E+00
          1   -1    0    0  501    0  0.00000000000E+00  0.00000000000E+00  0.15414759382E+03  0.15414759382E+03  0.00000000000E+00 0. -1.
         -1   -1    0    0    0  501 -0.00000000000E+00 -0.00000000000E+00 -0.13356337153E+03  0.13356337153E+03  0.00000000000E+00 0.  1.
         25    2    1    2    0    0  0.34942842748E+02  0.86056452637E+02  0.28800602128E+02  0.15844180074E+03  0.12509042425E+03 0.  0.
         23    2    1    2    0    0 -0.34942842748E+02 -0.86056452637E+02 -0.82163798376E+01  0.12926916462E+03  0.89533751871E+02 0.  0.
          5    1    3    3  502    0  0.80068454508E+02  0.52347899316E+02  0.34259916533E+02  0.10169795598E+03  0.41800000000E+01 0. -1.
         -5    1    3    3    0  502 -0.45125611760E+02  0.33708553321E+02 -0.54593144051E+01  0.56743844754E+02  0.41800000000E+01 0. -1.
        -11    1    4    4    0    0 -0.39698625240E+02  0.24316974025E+00 -0.15307220804E+02  0.42548219542E+02  0.00000000000E+00 0.  1.
         11    1    4    4    0    0  0.47557824919E+01 -0.86299622377E+02  0.70908409667E+01  0.86720945078E+02  0.00000000000E+00 0. -1.
</event>
<event>
 8    1  0.7075056E-009  0.1850196E+03  0.7561462E-02  0.1163032E+00
          4   -1    0    0  501    0  0.00000000000E+00  0.00000000000E+00  0.14467251983E+03  0.14467251983E+03  0.00000000000E+00 0. -1.
         -4   -1    0    0    0  501 -0.00000000000E+00 -0.00000000000E+00 -0.38319449878E+03  0.38319449878E+03  0.00000000000E+00 0.  1.
         25    2    1    2    0    0  0.11071105937E+03  0.13639197975E+03 -0.24737803042E+03  0.32817928923E+03  0.12508415221E+03 0.  0.
         23    2    1    2    0    0 -0.11071105937E+03 -0.13639197975E+03  0.88560514761E+01  0.19968772938E+03  0.94535965700E+02 0.  0.
          5    1    3    3  502    0  0.12094558990E+03  0.10245063328E+03 -0.12860629806E+03  0.20415930122E+03  0.41800000000E+01 0. -1.
         -5    1    3    3    0  502 -0.10234530535E+02  0.33941346476E+02 -0.11877173236E+03  0.12401998800E+03  0.41800000000E+01 0. -1.
        -11    1    4    4    0    0 -0.76166770732E+02 -0.89122307243E+02 -0.39544222166E+02  0.12372513131E+03  0.00000000000E+00 0.  1.
         11    1    4    4    0    0 -0.34544288635E+02 -0.47269672509E+02  0.48400273642E+02  0.75962598067E+02  0.00000000000E+00 0. -1.
</event>
<event>
 8    1  0.7075056E-009  0.7004782E+02  0.7561462E-02  0.1359930E+00
          2   -1    0    0  501    0  0.00000000000E+00  0.00000000000E+00  0.69664258390E+03  0.69664258390E+03  0.00000000000E+00 0. -1.
         -2   -1    0    0    0  501 -0.00000000000E+00 -0.00000000000E+00 -0.15844270120E+02  0.15844270120E+02  0.00000000000E+00 0.  1.
         25    2    1    2    0    0  0.12205077555E+00 -0.13072366714E+01  0.44102937064E+03  0.45842631161E+03  0.12508418622E+03 0.  0.
         23    2    1    2    0    0 -0.12205077555E+00  0.13072366714E+01  0.23976894314E+03  0.25406054241E+03  0.83999341383E+02 0.  0.
          5    1    3    3  502    0  0.28602265494E+02  0.19354196277E+02  0.30186568206E+02  0.46058395597E+02  0.41800000000E+01 0.  1.
         -5    1    3    3    0  502 -0.28480214719E+02 -0.20661432948E+02  0.41084280244E+03  0.41236791601E+03  0.41800000000E+01 0.  1.
        -11    1    4    4    0    0  0.33197989846E+02 -0.10029216012E+02  0.48753922057E+02  0.59830064512E+02  0.00000000000E+00 0.  1.
         11    1    4    4    0    0 -0.33320040621E+02  0.11336452683E+02  0.19101502108E+03  0.19423047790E+03  0.00000000000E+00 0. -1.
</event>
<event>
 8    1  0.7075056E-009  0.1117627E+03  0.7561462E-02  0.1257340E+00
          1   -1    0    0  501    0  0.00000000000E+00  0.00000000000E+00  0.88359430951E+03  0.88359430951E+03  0.00000000000E+00 0. -1.
         -1   -1    0    0    0  501 -0.00000000000E+00 -0.00000000000E+00 -0.28297958549E+02  0.28297958549E+02  0.00000000000E+00 0.  1.
         25    2    1    2    0    0  0.15965047022E+02  0.80476219471E+02  0.68907567270E+03  0.70512704492E+03  0.12509021603E+03 0.  0.
         23    2    1    2    0    0 -0.15965047022E+02 -0.80476219471E+02  0.16622067825E+03  0.20676522313E+03  0.91603706202E+02 0.  0.
          5    1    3    3  502    0 -0.49871992766E+02  0.29420333878E+02  0.40222982794E+03  0.40639768527E+03  0.41800000000E+01 0. -1.
         -5    1    3    3    0  502  0.65837039788E+02  0.51055885593E+02  0.28684584477E+03  0.29872935966E+03  0.41800000000E+01 0. -1.
        -11    1    4    4    0    0 -0.86635967841E+01 -0.46620310654E+02  0.12288555464E+02  0.48984894306E+02  0.00000000000E+00 0.  1.
         11    1    4    4    0    0 -0.73014502384E+01 -0.33855908817E+02  0.15393212279E+03  0.15778032882E+03  0.00000000000E+00 0. -1.
</event>
<event>
 8    1  0.7075056E-009  0.1141398E+03  0.7561462E-02  0.1253090E+00
         -1   -1    0    0    0  501 -0.00000000000E+00  0.00000000000E+00  0.46735892609E+02  0.46735892609E+02  0.00000000000E+00 0.  1.
          1   -1    0    0  501    0  0.00000000000E+00 -0.00000000000E+00 -0.28484295432E+03  0.28484295432E+03  0.00000000000E+00 0. -1.
         25    2    1    2    0    0  0.11258557501E+02  0.39381651781E+02 -0.13789329146E+03  0.19062848080E+03  0.12508792206E+03 0.  0.
         23    2    1    2    0    0 -0.11258557501E+02 -0.39381651781E+02 -0.10021377024E+03  0.14095036613E+03  0.90258165017E+02 0.  0.
          5    1    3    3  502    0  0.10077169537E+02  0.83907104516E+02 -0.72666107615E+02  0.11153379367E+03  0.41800000000E+01 0.  1.
         -5    1    3    3    0  502  0.11813879633E+01 -0.44525452735E+02 -0.65227183849E+02  0.79094687127E+02  0.41800000000E+01 0.  1.
        -11    1    4    4    0    0 -0.41007972044E+02  0.91396699132E+01 -0.38301782567E+02  0.56852562696E+02  0.00000000000E+00 0.  1.
         11    1    4    4    0    0  0.29749414543E+02 -0.48521321694E+02 -0.61911987677E+02  0.84097803436E+02  0.00000000000E+00 0. -1.
</event>
<event>
 8    1  0.7075056E-009  0.1668713E+03  0.7561462E-02  0.1181150E+00
          3   -1    0    0  501    0  0.00000000000E+00  0.00000000000E+00  0.15329602029E+03  0.15329602029E+03  0.00000000000E+00 0. -1.
         -3   -1    0    0    0  501 -0.00000000000E+00 -0.00000000000E+00 -0.25183718450E+03  0.25183718450E+03  0.00000000000E+00 0.  1.
         25    2    1    2    0    0 -0.13034953224E+03 -0.65779471877E+00 -0.15239281209E+03  0.23635187160E+03  0.12508878760E+03 0.  0.
         23    2    1    2    0    0  0.13034953224E+03  0.65779471877E+00  0.53851647879E+02  0.16878133319E+03  0.92713026078E+02 0.  0.
          5    1    3    3  502    0 -0.60258522165E+01  0.45754675395E+02 -0.53631949329E+02  0.70877779341E+02  0.41800000000E+01 0. -1.
         -5    1    3    3    0  502 -0.12432368002E+03 -0.46412470114E+02 -0.98760862761E+02  0.16547409226E+03  0.41800000000E+01 0. -1.
        -11    1    4    4    0    0  0.12939270575E+03  0.23722273467E+02  0.28703040278E+02  0.13464428351E+03  0.00000000000E+00 0. -1.
         11    1    4    4    0    0  0.95682649190E+00 -0.23064478748E+02  0.25148607601E+02  0.34137049684E+02  0.00000000000E+00 0.  1.
</event>
<event>
 8    1  0.7075056E-009  0.9648917E+02  0.7561462E-02  0.1287857E+00
         -2   -1    0    0    0  501 -0.00000000000E+00  0.00000000000E+00  0.27305269528E+02  0.27305269528E+02  0.00000000000E+00 0.  1.
          2   -1    0    0  501    0  0.00000000000E+00 -0.00000000000E+00 -0.65253030846E+03  0.65253030846E+03  0.00000000000E+00 0. -1.
         25    2    1    2    0    0  0.31112441330E+02  0.71107851124E+02 -0.35855367463E+03  0.38760092225E+03  0.12509766922E+03 0.  0.
         23    2    1    2    0    0 -0.31112441330E+02 -0.71107851124E+02 -0.26667136431E+03  0.29223465574E+03  0.90901963544E+02 0.  0.
          5    1    3    3  502    0  0.43901299834E+02  0.50472456381E+02 -0.66181060593E+02  0.94192346618E+02  0.41800000000E+01 0. -1.
         -5    1    3    3    0  502 -0.12788858504E+02  0.20635394743E+02 -0.29237261404E+03  0.29340857563E+03  0.41800000000E+01 0. -1.
        -11    1    4    4    0    0  0.19189620686E+02 -0.33148149726E+02 -0.18581384210E+03  0.18972038712E+03  0.00000000000E+00 0. -1.
         11    1    4    4    0    0 -0.50302062016E+02 -0.37959701399E+02 -0.80857522209E+02  0.10251426862E+03  0.00000000000E+00 0.  1.
</event>
<event>
 8    1  0.7075056E-009  0.1252274E+03  0.7561462E-02  0.1234714E+00
          1   -1    0    0  501    0  0.00000000000E+00  0.00000000000E+00  0.18251555024E+04  0.18251555024E+04  0.00000000000E+00 0. -1.
         -1   -1    0    0    0  501 -0.00000000000E+00 -0.00000000000E+00 -0.11521252791E+02  0.11521252791E+02  0.00000000000E+00 0.  1.
         25    2    1    2    0    0 -0.12550210742E+02 -0.76746434215E+02  0.13328934743E+04  0.13410071116E+04  0.12509011416E+03 0.  0.
         23    2    1    2    0    0  0.12550210742E+02  0.76746434215E+02  0.48074077533E+03  0.49566964358E+03  0.92353557312E+02 0.  0.
          5    1    3    3  502    0 -0.53449845143E+02 -0.23370748527E+01  0.31211401796E+03  0.31669382765E+03  0.41800000000E+01 0.  1.
         -5    1    3    3    0  502  0.40899634401E+02 -0.74409359362E+02  0.10207794563E+04  0.10243132839E+04  0.41800000000E+01 0.  1.
        -11    1    4    4    0    0 -0.34352211845E+02  0.33462635971E+02  0.11827030319E+03  0.12762322312E+03  0.00000000000E+00 0. -1.
         11    1    4    4    0    0  0.46902422587E+02  0.43283798244E+02  0.36247047215E+03  0.36804642046E+03  0.00000000000E+00 0.  1.
</event>
<event>
 8    1  0.7075056E-009  0.1316551E+03  0.7561462E-02  0.1225020E+00
          3   -1    0    0  501    0  0.00000000000E+00  0.00000000000E+00  0.16930092683E+03  0.16930092683E+03  0.00000000000E+00 0. -1.
         -3   -1    0    0    0  501 -0.00000000000E+00 -0.00000000000E+00 -0.10873395005E+03  0.10873395005E+03  0.00000000000E+00 0.  1.
         25    2    1    2    0    0  0.56672821933E+02 -0.58405724578E+02  0.35208054133E+02  0.15333114122E+03  0.12509114431E+03 0.  0.
         23    2    1    2    0    0 -0.56672821933E+02  0.58405724578E+02  0.25358922651E+02  0.12470373565E+03  0.91021477239E+02 0.  0.
          5    1    3    3  502    0  0.87287713506E+02 -0.67780801168E+02  0.45284719720E+02  0.11950548178E+03  0.41800000000E+01 0. -1.
         -5    1    3    3    0  502 -0.30614891574E+02  0.93750765906E+01 -0.10076665587E+02  0.33825659439E+02  0.41800000000E+01 0. -1.
        -11    1    4    4    0    0 -0.44793671372E+02 -0.14095584440E+02 -0.70660982332E-01  0.46959168313E+02  0.00000000000E+00 0. -1.
         11    1    4    4    0    0 -0.11879150561E+02  0.72501309017E+02  0.25429583634E+02  0.77744567341E+02  0.00000000000E+00 0.  1.
</event>
<event>
 8    1  0.7075056E-009  0.3945528E+03  0.7561462E-02  0.1045682E+00
          2   -1    0    0  501    0  0.00000000000E+00  0.00000000000E+00  0.53033776414E+03  0.53033776414E+03  0.00000000000E+00 0.  1.
         -2   -1    0    0    0  501 -0.00000000000E+00 -0.00000000000E+00 -0.30610716872E+03  0.30610716872E+03  0.00000000000E+00 0. -1.
         25    2    1    2    0    0  0.17973804311E+03  0.34276211379E+03  0.88401291039E+02  0.41623825197E+03  0.12509141998E+03 0.  0.
         23    2    1    2    0    0 -0.17973804311E+03 -0.34276211379E+03  0.13582930439E+03  0.42020668089E+03  0.91282111861E+02 0.  0.
          5    1    3    3  502    0 -0.76050723533E+01 -0.30547366579E+00 -0.98896458402E+01  0.13160848548E+02  0.41800000000E+01 0. -1.
         -5    1    3    3    0  502  0.18734311546E+03  0.34306758746E+03  0.98290936880E+02  0.40307740342E+03  0.41800000000E+01 0. -1.
        -11    1    4    4    0    0 -0.10973444699E+02 -0.53540839415E+02  0.51038681017E+02  0.74779575646E+02  0.00000000000E+00 0.  1.
         11    1    4    4    0    0 -0.16876459841E+03 -0.28922127438E+03  0.84790623372E+02  0.34542710525E+03  0.00000000000E+00 0. -1.
</event>
<event>
 8    1  0.7075056E-009  0.1564552E+03  0.7561462E-02  0.1192758E+00
         -2   -1    0    0    0  501 -0.00000000000E+00  0.00000000000E+00  0.23858638241E+02  0.23858638241E+02  0.00000000000E+00 0.  1.
          2   -1    0    0  501    0  0.00000000000E+00 -0.00000000000E+00 -0.20766245502E+04  0.20766245502E+04  0.00000000000E+00 0. -1.
         25    2    1    2    0    0 -0.12977832702E+03 -0.20719392761E+02 -0.17456410390E+04  0.17550444344E+04  0.12508645932E+03 0.  0.
         23    2    1    2    0    0  0.12977832702E+03  0.20719392761E+02 -0.30712487294E+03  0.34543875401E+03  0.87923476929E+02 0.  0.
          5    1    3    3  502    0 -0.44200428597E+01  0.40706428584E+02 -0.33997350380E+03  0.34245584503E+03  0.41800000000E+01 0. -1.
         -5    1    3    3    0  502 -0.12535828416E+03 -0.61425821345E+02 -0.14056675352E+04  0.14125885894E+04  0.41800000000E+01 0. -1.
        -11    1    4    4    0    0  0.10062560226E+03  0.10384581334E+02 -0.12547727309E+03  0.16117660321E+03  0.00000000000E+00 0.  1.
         11    1    4    4    0    0  0.29152724760E+02  0.10334811428E+02 -0.18164759984E+03  0.18426215080E+03  0.00000000000E+00 0. -1.
</event>
<event>
 8    1  0.7075056E-009  0.2576969E+03  0.7561462E-02  0.1108535E+00
         -2   -1    0    0    0  501 -0.00000000000E+00  0.00000000000E+00  0.55762324804E+03  0.55762324804E+03  0.00000000000E+00 0.  1.
          2   -1    0    0  501    0  0.00000000000E+00 -0.00000000000E+00 -0.22682843894E+03  0.22682843894E+03  0.00000000000E+00 0. -1.
         25    2    1    2    0    0 -0.10485433546E+03 -0.22908530452E+03 -0.81264313074E+02  0.29278927153E+03  0.12508861072E+03 0.  0.
         23    2    1    2    0    0  0.10485433546E+03  0.22908530452E+03  0.41205912217E+03  0.49166241544E+03  0.92003816109E+02 0.  0.
          5    1    3    3  502    0 -0.49547902594E+02 -0.39005216083E+02  0.25127771256E+02  0.68009402449E+02  0.41800000000E+01 0.  1.
         -5    1    3    3    0  502 -0.55306432865E+02 -0.19008008844E+03 -0.10639208433E+03  0.22477986908E+03  0.41800000000E+01 0.  1.
        -11    1    4    4    0    0  0.62669696433E+02  0.96576598394E+02  0.11046650492E+03  0.15955368663E+03  0.00000000000E+00 0. -1.
         11    1    4    4    0    0  0.42184639026E+02  0.13250870613E+03  0.30159261726E+03  0.33210872881E+03  0.00000000000E+00 0.  1.
</event>
<event>
 8    1  0.7075056E-009  0.2081048E+03  0.7561462E-02  0.1143076E+00
          2   -1    0    0  501    0  0.00000000000E+00  0.00000000000E+00  0.66418867352E+03  0.66418867352E+03  0.00000000000E+00 0. -1.
         -2   -1    0    0    0  501 -0.00000000000E+00 -0.00000000000E+00 -0.77223613738E+02  0.77223613738E+02  0.00000000000E+00 0.  1.
         25    2    1    2    0    0 -0.84334487437E+02 -0.17277008208E+03  0.38203878407E+03  0.44560081007E+03  0.12507854477E+03 0.  0.
         23    2    1    2    0    0  0.84334487437E+02  0.17277008208E+03  0.20492627571E+03  0.29581147719E+03  0.92454553854E+02 0.  0.
          5    1    3    3  502    0 -0.20382999930E+02 -0.13185716388E+03  0.14697995709E+03  0.19855064477E+03  0.41800000000E+01 0. -1.
         -5    1    3    3    0  502 -0.63951487507E+02 -0.40912918203E+02  0.23505882699E+03  0.24705016530E+03  0.41800000000E+01 0. -1.
        -11    1    4    4    0    0  0.46178412589E+02  0.21976796195E+02  0.85815368008E+02  0.99898462183E+02  0.00000000000E+00 0.  1.
         11    1    4    4    0    0  0.38156074848E+02  0.15079328589E+03  0.11911090771E+03  0.19591301501E+03  0.00000000000E+00 0. -1.
</event>
<event>
 8    1  0.7075056E-009  0.9688146E+02  0.7561462E-02  0.1286994E+00
         -2   -1    0    0    0  501 -0.00000000000E+00  0.00000000000E+00  0.54691743528E+02  0.54691743528E+02  0.00000000000E+00 0.  1.
          2   -1    0    0  501    0  0.00000000000E+00 -0.00000000000E+00 -0.27420793245E+03  0.27420793245E+03  0.00000000000E+00 0. -1.
         25    2    1    2    0    0  0.96710089834E+01  0.50706241963E+02 -0.98543908194E+02  0.16740001770E+03  0.12508881923E+03 0.  0.
         23    2    1    2    0    0 -0.96710089834E+01 -0.50706241963E+02 -0.12097228073E+03  0.16149965827E+03  0.93718704265E+02 0.  0.
          5    1    3    3  502    0 -0.48057627169E+02  0.34457758816E+02 -0.96137387044E+01  0.60056382205E+02  0.41800000000E+01 0.  1.
         -5    1    3    3    0  502  0.57728636152E+02  0.16248483147E+02 -0.88930169490E+02  0.10734363550E+03  0.41800000000E+01 0.  1.
        -11    1    4    4    0    0  0.22357760922E+02 -0.21502891737E+02 -0.11331572458E+03  0.11748488100E+03  0.00000000000E+00 0. -1.
         11    1    4    4    0    0 -0.32028769905E+02 -0.29203350226E+02 -0.76565561429E+01  0.44014777269E+02  0.00000000000E+00 0.  1.
</event>
<event>
 8    1  0.7075056E-009  0.1032848E+03  0.7561462E-02  0.1273536E+00
         -1   -1    0    0    0  501 -0.00000000000E+00  0.00000000000E+00  0.13232598197E+03  0.13232598197E+03  0.00000000000E+00 0.  1.
          1   -1    0    0  501    0  0.00000000000E+00 -0.00000000000E+00 -0.11094423221E+03  0.11094423221E+03  0.00000000000E+00 0. -1.
         25    2    1    2    0    0  0.53757902708E+01 -0.49930087380E+02 -0.51473705806E+01  0.13489265831E+03  0.12509045166E+03 0.  0.
         23    2    1    2    0    0 -0.53757902708E+01  0.49930087380E+02  0.26529120336E+02  0.10837755586E+03  0.92303779134E+02 0.  0.
          5    1    3    3  502    0 -0.12040928677E+02  0.32112418542E+02  0.28141633773E+02  0.44560243934E+02  0.41800000000E+01 0. -1.
         -5    1    3    3    0  502  0.17416718948E+02 -0.82042505922E+02 -0.33289004354E+02  0.90332414380E+02  0.41800000000E+01 0. -1.
        -11    1    4    4    0    0  0.29462833878E+02  0.30254980559E+01  0.38662838677E+02  0.48703463051E+02  0.00000000000E+00 0.  1.
         11    1    4    4    0    0 -0.34838624149E+02  0.46904589324E+02 -0.12133718341E+02  0.59674092813E+02  0.00000000000E+00 0. -1.
</event>
<event>
 8    1  0.7075056E-009  0.1823346E+03  0.7561462E-02  0.1165563E+00
          3   -1    0    0  501    0  0.00000000000E+00  0.00000000000E+00  0.10659092219E+03  0.10659092219E+03  0.00000000000E+00 0. -1.
         -3   -1    0    0    0  501 -0.00000000000E+00 -0.00000000000E+00 -0.34305134727E+03  0.34305134727E+03  0.00000000000E+00 0.  1.
         25    2    1    2    0    0 -0.44152907965E+02 -0.14962279453E+03 -0.10543067077E+03  0.22605754817E+03  0.12509967554E+03 0.  0.
         23    2    1    2    0    0  0.44152907965E+02  0.14962279453E+03 -0.13102975431E+03  0.22358472129E+03  0.92113360353E+02 0.  0.
          5    1    3    3  502    0 -0.76452640457E+02 -0.14874740713E+03 -0.90694004507E+02  0.19029890230E+03  0.41800000000E+01 0.  1.
         -5    1    3    3    0  502  0.32299732492E+02 -0.87538739405E+00 -0.14736666263E+02  0.35758645873E+02  0.41800000000E+01 0.  1.
        -11    1    4    4    0    0  0.90248420122E+01  0.11538815279E+03 -0.13063546515E+03  0.17453222720E+03  0.00000000000E+00 0.  1.
         11    1    4    4    0    0  0.35128065953E+02  0.34234641736E+02 -0.39428916590E+00  0.49052494089E+02  0.00000000000E+00 0. -1.
</event>
<event>
 8    1  0.7075056E-009  0.9571943E+02  0.7561462E-02  0.1289564E+00
          4   -1    0    0  501    0  0.00000000000E+00  0.00000000000E+00  0.13839536210E+03  0.13839536210E+03  0.00000000000E+00 0. -1.
         -4   -1    0    0    0  501 -0.00000000000E+00 -0.00000000000E+00 -0.11960528472E+03  0.11960528472E+03  0.00000000000E+00 0.  1.
         25    2    1    2    0    0  0.57533600796E+02 -0.41443451823E+02  0.39611687181E+01  0.14385071281E+03  0.12509860830E+03 0.  0.
         23    2    1    2    0    0 -0.57533600796E+02  0.41443451823E+02  0.14828908657E+02  0.11414993401E+03  0.88219249503E+02 0.  0.
          5    1    3    3  502    0  0.76464017095E+02 -0.45355630072E+02  0.43932454123E+02  0.99254279579E+02  0.41800000000E+01 0. -1.
         -5    1    3    3    0  502 -0.18930416299E+02  0.39121782490E+01 -0.39971285405E+02  0.44596433230E+02  0.41800000000E+01 0. -1.
        -11    1    4    4    0    0 -0.20808973039E+02  0.40947625860E+02 -0.31004233823E+02  0.55416459084E+02  0.00000000000E+00 0.  1.
         11    1    4    4    0    0 -0.36724627757E+02  0.49582596336E+00  0.45833142479E+02  0.58733474925E+02  0.00000000000E+00 0. -1.
</event>
<event>
 8    1  0.7075056E-009  0.1133755E+03  0.7561462E-02  0.1254444E+00
         -2   -1    0    0    0  501 -0.00000000000E+00  0.00000000000E+00  0.14476665802E+03  0.14476665802E+03  0.00000000000E+00 0. -1.
          2   -1    0    0  501    0  0.00000000000E+00 -0.00000000000E+00 -0.15046195062E+03  0.15046195062E+03  0.00000000000E+00 0.  1.
         25    2    1    2    0    0  0.83844849430E+02 -0.16067062342E+02 -0.55649605183E+02  0.16134464878E+03  0.12508840020E+03 0.  0.
         23    2    1    2    0    0 -0.83844849430E+02  0.16067062342E+02  0.49954312591E+02  0.13388395986E+03  0.90229552219E+02 0.  0.
          5    1    3    3  502    0  0.50152783290E+02 -0.45118387498E+02 -0.84462235382E+02  0.10817722574E+03  0.41800000000E+01 0. -1.
         -5    1    3    3    0  502  0.33692066140E+02  0.29051325157E+02  0.28812630199E+02  0.53167423044E+02  0.41800000000E+01 0. -1.
        -11    1    4    4    0    0 -0.65495212811E+02  0.45531081735E+02  0.91136792177E+01  0.80285499650E+02  0.00000000000E+00 0.  1.
         11    1    4    4    0    0 -0.18349636619E+02 -0.29464019393E+02  0.40840633373E+02  0.53598460213E+02  0.00000000000E+00 0. -1.
</event>
<event>
 8    1  0.7075056E-009  0.8459235E+02  0.7561462E-02  0.1316502E+00
          3   -1    0    0  501    0  0.00000000000E+00  0.00000000000E+00  0.33162036478E+02  0.33162036478E+02  0.00000000000E+00 0. -1.
         -3   -1    0    0    0  501 -0.00000000000E+00 -0.00000000000E+00 -0.45203558384E+03  0.45203558384E+03  0.00000000000E+00 0.  1.
         25    2    1    2    0    0 -0.26719379811E+02 -0.21553146962E+02 -0.33158544220E+03  0.35605449665E+03  0.12508971061E+03 0.  0.
         23    2    1    2    0    0  0.26719379811E+02  0.21553146962E+02 -0.87288105155E+02  0.12914312367E+03  0.88770883109E+02 0.  0.
          5    1    3    3  502    0 -0.14098686790E+02  0.24236503851E+02 -0.29394027617E+03  0.29530414735E+03  0.41800000000E+01 0.  1.
         -5    1    3    3    0  502 -0.12620693021E+02 -0.45789650813E+02 -0.37645166037E+02  0.60750349298E+02  0.41800000000E+01 0.  1.
        -11    1    4    4    0    0 -0.29025988433E+02  0.23544278205E+02 -0.22393313336E+02  0.43569502211E+02  0.00000000000E+00 0. -1.
         11    1    4    4    0    0  0.55745368244E+02 -0.19911312433E+01 -0.64894791818E+02  0.85573621458E+02  0.00000000000E+00 0.  1.
</event>
<event>
 8    1  0.7075056E-009  0.9949846E+02  0.7561462E-02  0.1281354E+00
         -1   -1    0    0    0  501 -0.00000000000E+00  0.00000000000E+00  0.28825663627E+02  0.28825663627E+02  0.00000000000E+00 0.  1.
          1   -1    0    0  501    0  0.00000000000E+00 -0.00000000000E+00 -0.50501073719E+03  0.50501073719E+03  0.00000000000E+00 0. -1.
         25    2    1    2    0    0 -0.47209347789E+02 -0.15979555625E+02 -0.27525003947E+03  0.30642222555E+03  0.12509167585E+03 0.  0.
         23    2    1    2    0    0  0.47209347789E+02  0.15979555625E+02 -0.20093503410E+03  0.22741417527E+03  0.94118279142E+02 0.  0.
          5    1    3    3  502    0 -0.69196581287E+02  0.88306376128E+01 -0.26083095134E+03  0.27003037718E+03  0.41800000000E+01 0.  1.
         -5    1    3    3    0  502  0.21987233498E+02 -0.24810193238E+02 -0.14419088125E+02  0.36391848370E+02  0.41800000000E+01 0.  1.
        -11    1    4    4    0    0  0.25248470822E+02 -0.33276334543E+02 -0.13972662230E+03  0.14583665074E+03  0.00000000000E+00 0. -1.
         11    1    4    4    0    0  0.21960876967E+02  0.49255890168E+02 -0.61208411794E+02  0.81577524526E+02  0.00000000000E+00 0.  1.
</event>
<event>
 8    1  0.7075056E-009  0.9583261E+02  0.7561462E-02  0.1289312E+00
         -2   -1    0    0    0  501 -0.00000000000E+00  0.00000000000E+00  0.50195365266E+02  0.50195365266E+02  0.00000000000E+00 0.  1.
          2   -1    0    0  501    0  0.00000000000E+00 -0.00000000000E+00 -0.29575070408E+03  0.29575070408E+03  0.00000000000E+00 0. -1.
         25    2    1    2    0    0  0.55593671762E+02  0.12109521177E+02 -0.13967579315E+03  0.19594394496E+03  0.12508959002E+03 0.  0.
         23    2    1    2    0    0 -0.55593671762E+02 -0.12109521177E+02 -0.10587954566E+03  0.15000212439E+03  0.89737741713E+02 0.  0.
          5    1    3    3  502    0  0.52198066918E+02  0.47996259714E+02 -0.24425545063E+02  0.75115636110E+02  0.41800000000E+01 0.  1.
         -5    1    3    3    0  502  0.33956048432E+01 -0.35886738538E+02 -0.11525024808E+03  0.12082830885E+03  0.41800000000E+01 0.  1.
        -11    1    4    4    0    0 -0.37058097569E+02 -0.37621951585E+02 -0.16660651698E+02  0.55374101812E+02  0.00000000000E+00 0.  1.
         11    1    4    4    0    0 -0.18535574193E+02  0.25512430409E+02 -0.89218893965E+02  0.94628022575E+02  0.00000000000E+00 0. -1.
</event>
<event>
 8    1  0.7075056E-009  0.1345497E+03  0.7561462E-02  0.1220857E+00
         -1   -1    0    0    0  501 -0.00000000000E+00  0.00000000000E+00  0.36189725633E+02  0.36189725633E+02  0.00000000000E+00 0.  1.
          1   -1    0    0  501    0  0.00000000000E+00 -0.00000000000E+00 -0.67281659398E+03  0.67281659398E+03  0.00000000000E+00 0. -1.
         25    2    1    2    0    0 -0.90420417177E+02 -0.61607875657E+02 -0.27809551257E+03  0.32396770875E+03  0.12508629029E+03 0.  0.
         23    2    1    2    0    0  0.90420417177E+02  0.61607875657E+02 -0.35853135578E+03  0.38503861086E+03  0.87969407136E+02 0.  0.
          5    1    3    3  502    0  0.43431357766E-01 -0.39633288954E+02 -0.19525809499E+03  0.19928370616E+03  0.41800000000E+01 0.  1.
         -5    1    3    3    0  502 -0.90463848535E+02 -0.21974586702E+02 -0.82837417576E+02  0.12468400260E+03  0.41800000000E+01 0.  1.
        -11    1    4    4    0    0  0.74084989933E+02  0.18504648179E+01 -0.24160034918E+03  0.25271078069E+03  0.00000000000E+00 0.  1.
         11    1    4    4    0    0  0.16335427245E+02  0.59757410839E+02 -0.11693100660E+03  0.13232783017E+03  0.00000000000E+00 0. -1.
</event>
<event>
 8    1  0.7075056E-009  0.1401362E+03  0.7561462E-02  0.1213146E+00
          2   -1    0    0  501    0  0.00000000000E+00  0.00000000000E+00  0.12260631835E+04  0.12260631835E+04  0.00000000000E+00 0. -1.
         -2   -1    0    0    0  501 -0.00000000000E+00 -0.00000000000E+00 -0.25692450116E+02  0.25692450116E+02  0.00000000000E+00 0.  1.
         25    2    1    2    0    0  0.10837214658E+03  0.50629489017E+02  0.89095418995E+03  0.90761006127E+03  0.12509511351E+03 0.  0.
         23    2    1    2    0    0 -0.10837214658E+03 -0.50629489017E+02  0.30941654347E+03  0.34414557238E+03  0.91595361793E+02 0.  0.
          5    1    3    3  502    0 -0.19494839616E+01  0.40102575697E+02  0.48819947926E+03  0.48986551319E+03  0.41800000000E+01 0. -1.
         -5    1    3    3    0  502  0.11032163054E+03  0.10526913320E+02  0.40275471069E+03  0.41774454808E+03  0.41800000000E+01 0. -1.
        -11    1    4    4    0    0 -0.56059759165E+02  0.20555653100E+00  0.22818190084E+03  0.23496748439E+03  0.00000000000E+00 0. -1.
         11    1    4    4    0    0 -0.52312387416E+02 -0.50835045548E+02  0.81234642635E+02  0.10917808799E+03  0.00000000000E+00 0.  1.
</event>
<event>
 8    1  0.7075056E-009  0.1646893E+03  0.7561462E-02  0.1183502E+00
         -1   -1    0    0    0  501 -0.00000000000E+00  0.00000000000E+00  0.29917431687E+03  0.29917431687E+03  0.00000000000E+00 0.  1.
          1   -1    0    0  501    0  0.00000000000E+00 -0.00000000000E+00 -0.13230932238E+03  0.13230932238E+03  0.00000000000E+00 0. -1.
         25    2    1    2    0    0 -0.14824988971E+03 -0.25108030317E+02  0.10365474018E+02  0.19586712465E+03  0.12509214397E+03 0.  0.
         23    2    1    2    0    0  0.14824988971E+03  0.25108030317E+02  0.15649952047E+03  0.23561651460E+03  0.91731123706E+02 0.  0.
          5    1    3    3  502    0 -0.39435925441E+02 -0.53169993072E+02 -0.34535391299E+02  0.74782391182E+02  0.41800000000E+01 0.  1.
         -5    1    3    3    0  502 -0.10881396427E+03  0.28061962755E+02  0.44900865318E+02  0.12108473347E+03  0.41800000000E+01 0.  1.
        -11    1    4    4    0    0  0.11852891456E+03  0.16629169420E+02  0.59207464387E+02  0.13353335426E+03  0.00000000000E+00 0. -1.
         11    1    4    4    0    0  0.29720975156E+02  0.84788608968E+01  0.97292056086E+02  0.10208316033E+03  0.00000000000E+00 0.  1.
</event>
<event>
 8    1  0.7075056E-009  0.1378410E+03  0.7561462E-02  0.1216264E+00
          1   -1    0    0  501    0  0.00000000000E+00  0.00000000000E+00  0.10330393079E+04  0.10330393079E+04  0.00000000000E+00 0. -1.
         -1   -1    0    0    0  501 -0.00000000000E+00 -0.00000000000E+00 -0.25492898672E+02  0.25492898672E+02  0.00000000000E+00 0.  1.
         25    2    1    2    0    0  0.69958358520E+02  0.69782882996E+02  0.76341671711E+03  0.77988223189E+03  0.12508952381E+03 0.  0.
         23    2    1    2    0    0 -0.69958358520E+02 -0.69782882996E+02  0.24412969209E+03  0.27864997465E+03  0.91009225513E+02 0.  0.
          5    1    3    3  502    0  0.72229395335E+02 -0.44195814488E+01  0.22582872414E+03  0.23717652350E+03  0.41800000000E+01 0.  1.
         -5    1    3    3    0  502 -0.22710368147E+01  0.74202464444E+02  0.53758799297E+03  0.54270570840E+03  0.41800000000E+01 0.  1.
        -11    1    4    4    0    0 -0.46868222946E+02  0.81402755526E+01  0.13087377476E+03  0.13925099399E+03  0.00000000000E+00 0.  1.
         11    1    4    4    0    0 -0.23090135574E+02 -0.77923158548E+02  0.11325591733E+03  0.13939898066E+03  0.00000000000E+00 0. -1.
</event>
<event>
 8    1  0.7075056E-009  0.1199923E+03  0.7561462E-02  0.1243110E+00
          2   -1    0    0  501    0  0.00000000000E+00  0.00000000000E+00  0.12109620443E+04  0.12109620443E+04  0.00000000000E+00 0.  1.
         -2   -1    0    0    0  501 -0.00000000000E+00 -0.00000000000E+00 -0.20126460716E+02  0.20126460716E+02  0.00000000000E+00 0. -1.
         25    2    1    2    0    0 -0.44771621334E+02  0.35007131207E+02  0.10248427536E+04  0.10340113226E+04  0.12508696308E+03 0.  0.
         23    2    1    2    0    0  0.44771621334E+02 -0.35007131207E+02  0.16599282996E+03  0.19707718240E+03  0.89754102483E+02 0.  0.
          5    1    3    3  502    0  0.40223363220E+02 -0.70349669850E+01  0.38201125163E+03  0.38421020091E+03  0.41800000000E+01 0.  1.
         -5    1    3    3    0  502 -0.84994984553E+02  0.42042098192E+02  0.64283150200E+03  0.64980112171E+03  0.41800000000E+01 0.  1.
        -11    1    4    4    0    0  0.69182552774E+02 -0.38795223474E+02  0.14194004833E+03  0.16259850028E+03  0.00000000000E+00 0.  1.
         11    1    4    4    0    0 -0.24410931440E+02  0.37880922669E+01  0.24052781634E+02  0.34478682126E+02  0.00000000000E+00 0. -1.
</event>
<event>
 8    1  0.7075056E-009  0.9571944E+02  0.7561462E-02  0.1289564E+00
          1   -1    0    0  501    0  0.00000000000E+00  0.00000000000E+00  0.25094985086E+02  0.25094985086E+02  0.00000000000E+00 0. -1.
         -1   -1    0    0    0  501 -0.00000000000E+00 -0.00000000000E+00 -0.57413852543E+03  0.57413852543E+03  0.00000000000E+00 0.  1.
         25    2    1    2    0    0 -0.42683904938E+01  0.34727888806E+02 -0.40621085552E+03  0.42647238194E+03  0.12508872050E+03 0.  0.
         23    2    1    2    0    0  0.42683904938E+01 -0.34727888806E+02 -0.14283268482E+03  0.17276112858E+03  0.90669654655E+02 0.  0.
          5    1    3    3  502    0 -0.44086140104E+02  0.45158086797E+02 -0.35522673833E+03  0.36081345399E+03  0.41800000000E+01 0. -1.
         -5    1    3    3    0  502  0.39817749611E+02 -0.10430197991E+02 -0.50984117190E+02  0.65658927952E+02  0.41800000000E+01 0. -1.
        -11    1    4    4    0    0  0.28536104149E+02  0.14444224647E+02 -0.94150256643E+02  0.99434479390E+02  0.00000000000E+00 0.  1.
         11    1    4    4    0    0 -0.24267713655E+02 -0.49172113453E+02 -0.48682428181E+02  0.73326649188E+02  0.00000000000E+00 0. -1.
</event>
<event>
 8    1  0.7075056E-009  0.9529906E+02  0.7561462E-02  0.1290504E+00
         -1   -1    0    0    0  501 -0.00000000000E+00  0.00000000000E+00  0.21254508328E+03  0.21254508328E+03  0.00000000000E+00 0.  1.
          1   -1    0    0  501    0  0.00000000000E+00 -0.00000000000E+00 -0.69150701750E+02  0.69150701750E+02  0.00000000000E+00 0. -1.
         25    2    1    2    0    0 -0.72469447850E+01  0.84857292186E+01  0.14254035153E+03  0.18997736366E+03  0.12509644711E+03 0.  0.
         23    2    1    2    0    0  0.72469447850E+01 -0.84857292186E+01  0.85402999713E+00  0.91718421367E+02  0.91033035991E+02 0.  0.
          5    1    3    3  502    0 -0.65623817203E+02 -0.34600268435E+01  0.76072538895E+02  0.10061292533E+03  0.41800000000E+01 0. -1.
         -5    1    3    3    0  502  0.58376872418E+02  0.11945756062E+02  0.66467812635E+02  0.89364438328E+02  0.41800000000E+01 0. -1.
        -11    1    4    4    0    0 -0.23996583938E+02  0.12814552818E+02 -0.31735287364E+02  0.41799249619E+02  0.00000000000E+00 0. -1.
         11    1    4    4    0    0  0.31243528723E+02 -0.21300282037E+02  0.32589317361E+02  0.49919171748E+02  0.00000000000E+00 0.  1.
</event>
<event>
 8    1  0.7075056E-009  0.9202992E+02  0.7561462E-02  0.1298009E+00
          3   -1    0    0  501    0  0.00000000000E+00  0.00000000000E+00  0.33218470795E+03  0.33218470795E+03  0.00000000000E+00 0. -1.
         -3   -1    0    0    0  501 -0.00000000000E+00 -0.00000000000E+00 -0.46443138620E+02  0.46443138620E+02  0.00000000000E+00 0.  1.
         25    2    1    2    0    0  0.39137216183E+02 -0.41648159522E+02  0.12926051483E+03  0.18873761837E+03  0.12508923619E+03 0.  0.
         23    2    1    2    0    0 -0.39137216183E+02  0.41648159522E+02  0.15648105449E+03  0.18989022820E+03  0.91135544477E+02 0.  0.
          5    1    3    3  502    0  0.27654355478E+02 -0.61122030472E+02  0.10815112989E+02  0.68081605848E+02  0.41800000000E+01 0.  1.
         -5    1    3    3    0  502  0.11482860704E+02  0.19473870950E+02  0.11844540184E+03  0.12065601252E+03  0.41800000000E+01 0.  1.
        -11    1    4    4    0    0 -0.56658523374E+02  0.48945393826E+02  0.15335229243E+03  0.17065393473E+03  0.00000000000E+00 0. -1.
         11    1    4    4    0    0  0.17521307191E+02 -0.72972343041E+01  0.31287620694E+01  0.19236293465E+02  0.00000000000E+00 0.  1.
</event>
<event>
 8    1  0.7075056E-009  0.3871938E+03  0.7561462E-02  0.1048306E+00
          1   -1    0    0  501    0  0.00000000000E+00  0.00000000000E+00  0.15650152799E+03  0.15650152799E+03  0.00000000000E+00 0. -1.
         -1   -1    0    0    0  501 -0.00000000000E+00 -0.00000000000E+00 -0.12402909847E+04  0.12402909847E+04  0.00000000000E+00 0.  1.
         25    2    1    2    0    0  0.95265016062E+02  0.36060770962E+03 -0.21812248587E+03  0.44982069158E+03  0.12509153533E+03 0.  0.
         23    2    1    2    0    0 -0.95265016062E+02 -0.36060770962E+03 -0.86566697085E+03  0.94697182113E+03  0.90900946464E+02 0.  0.
          5    1    3    3  502    0  0.29894443909E+01  0.23998590444E+03 -0.15206586603E+03  0.28415430864E+03  0.41800000000E+01 0. -1.
         -5    1    3    3    0  502  0.92275571671E+02  0.12062180517E+03 -0.66056619844E+02  0.16566638294E+03  0.41800000000E+01 0. -1.
        -11    1    4    4    0    0  0.84558877244E+01 -0.12138386745E+03 -0.23797253511E+03  0.26727602359E+03  0.00000000000E+00 0. -1.
         11    1    4    4    0    0 -0.10372090379E+03 -0.23922384216E+03 -0.62769443573E+03  0.67969579754E+03  0.00000000000E+00 0.  1.
</event>
<event>
 8    1  0.7075056E-009  0.1065702E+03  0.7561462E-02  0.1267056E+00
          1   -1    0    0  501    0  0.00000000000E+00  0.00000000000E+00  0.55322140994E+03  0.55322140994E+03  0.00000000000E+00 0. -1.
         -1   -1    0    0    0  501 -0.00000000000E+00 -0.00000000000E+00 -0.34353025920E+02  0.34353025920E+02  0.00000000000E+00 0.  1.
         25    2    1    2    0    0 -0.69506295310E+02  0.33489999875E+02  0.35342362061E+03  0.38276368804E+03  0.12508828921E+03 0.  0.
         23    2    1    2    0    0  0.69506295310E+02 -0.33489999875E+02  0.16544476341E+03  0.20481074782E+03  0.92858857968E+02 0.  0.
          5    1    3    3  502    0  0.28978162615E+02  0.10067862843E+02  0.27346294396E+02  0.41308449353E+02  0.41800000000E+01 0. -1.
         -5    1    3    3    0  502 -0.98484457925E+02  0.23422137032E+02  0.32607732621E+03  0.34145523868E+03  0.41800000000E+01 0. -1.
        -11    1    4    4    0    0  0.14304852486E+02 -0.19013780841E+02  0.14054879346E+03  0.14254864436E+03  0.00000000000E+00 0. -1.
         11    1    4    4    0    0  0.55201442824E+02 -0.14476219035E+02  0.24895969954E+02  0.62262103460E+02  0.00000000000E+00 0.  1.
</event>
<event>
 8    1  0.7075056E-009  0.1776772E+03  0.7561462E-02  0.1170070E+00
          2   -1    0    0  501    0  0.00000000000E+00  0.00000000000E+00  0.45768880498E+03  0.45768880498E+03  0.00000000000E+00 0.  1.
         -2   -1    0    0    0  501 -0.00000000000E+00 -0.00000000000E+00 -0.71756600006E+02  0.71756600006E+02  0.00000000000E+00 0. -1.
         25    2    1    2    0    0  0.97374611973E+02 -0.10773854608E+03  0.21087605474E+03  0.28496086912E+03  0.12507828387E+03 0.  0.
         23    2    1    2    0    0 -0.97374611973E+02  0.10773854608E+03  0.17505615024E+03  0.24448453587E+03  0.89658369243E+02 0.  0.
          5    1    3    3  502    0  0.70529501575E+02 -0.13326468083E+03  0.18873150232E+03  0.24160078252E+03  0.41800000000E+01 0.  1.
         -5    1    3    3    0  502  0.26845110399E+02  0.25526134747E+02  0.22144552422E+02  0.43360086594E+02  0.41800000000E+01 0.  1.
        -11    1    4    4    0    0 -0.90240820670E+02  0.39293929819E+02  0.78395901395E+02  0.12583058448E+03  0.00000000000E+00 0. -1.
         11    1    4    4    0    0 -0.71337913031E+01  0.68444616262E+02  0.96660248841E+02  0.11865395139E+03  0.00000000000E+00 0.  1.
</event>
<event>
 8    1  0.7075056E-009  0.1187670E+03  0.7561462E-02  0.1245145E+00
          2   -1    0    0  501    0  0.00000000000E+00  0.00000000000E+00  0.79479900956E+03  0.79479900956E+03  0.00000000000E+00 0. -1.
         -2   -1    0    0    0  501 -0.00000000000E+00 -0.00000000000E+00 -0.26611323406E+02  0.26611323406E+02  0.00000000000E+00 0.  1.
         25    2    1    2    0    0  0.45421404035E+02 -0.22909044727E+02  0.64748085422E+03  0.66141531429E+03  0.12510328978E+03 0.  0.
         23    2    1    2    0    0 -0.45421404035E+02  0.22909044727E+02  0.12070683194E+03  0.15999501868E+03  0.91871314635E+02 0.  0.
          5    1    3    3  502    0  0.84612431540E+02  0.59129003791E+01  0.45357245880E+03  0.46145386957E+03  0.41800000000E+01 0.  1.
         -5    1    3    3    0  502 -0.39191027505E+02 -0.28821945106E+02  0.19390839542E+03  0.19996144471E+03  0.41800000000E+01 0.  1.
        -11    1    4    4    0    0  0.45462610868E+01  0.47761922040E+02  0.68083692330E+02  0.83290208596E+02  0.00000000000E+00 0. -1.
         11    1    4    4    0    0 -0.49967665122E+02 -0.24852877313E+02  0.52623139606E+02  0.76704810087E+02  0.00000000000E+00 0.  1.
</event>
<event>
 8    1  0.7075056E-009  0.1830277E+03  0.7561462E-02  0.1164905E+00
         -4   -1    0    0    0  501 -0.00000000000E+00  0.00000000000E+00  0.65092385043E+02  0.65092385043E+02  0.00000000000E+00 0.  1.
          4   -1    0    0  501    0  0.00000000000E+00 -0.00000000000E+00 -0.60467953646E+03  0.60467953646E+03  0.00000000000E+00 0. -1.
         25    2    1    2    0    0 -0.10848298271E+03  0.12559761845E+03 -0.26790013238E+03  0.33905988077E+03  0.12509117683E+03 0.  0.
         23    2    1    2    0    0  0.10848298271E+03 -0.12559761845E+03 -0.27168701903E+03  0.33071204073E+03  0.89517027845E+02 0.  0.
          5    1    3    3  502    0 -0.10470484761E+03  0.71263934993E+02 -0.25215997064E+03  0.28221229019E+03  0.41800000000E+01 0. -1.
         -5    1    3    3    0  502 -0.37781350966E+01  0.54333683457E+02 -0.15740161742E+02  0.56847590578E+02  0.41800000000E+01 0. -1.
        -11    1    4    4    0    0  0.12039980456E+03 -0.12373261067E+03 -0.26660655718E+03  0.31762387853E+03  0.00000000000E+00 0. -1.
         11    1    4    4    0    0 -0.11916821853E+02 -0.18650077792E+01 -0.50804618551E+01  0.13088162199E+02  0.00000000000E+00 0.  1.
</event>
<event>
 8    1  0.7075056E-009  0.2498018E+03  0.7561462E-02  0.1113430E+00
          1   -1    0    0  501    0  0.00000000000E+00  0.00000000000E+00  0.97087105974E+03  0.97087105974E+03  0.00000000000E+00 0. -1.
         -1   -1    0    0    0  501 -0.00000000000E+00 -0.00000000000E+00 -0.66216345893E+02  0.66216345893E+02  0.00000000000E+00 0.  1.
         25    2    1    2    0    0  0.98315407284E+02  0.20622403297E+03  0.48161516654E+03  0.54753661082E+03  0.12509556531E+03 0.  0.
         23    2    1    2    0    0 -0.98315407284E+02 -0.20622403297E+03  0.42303954731E+03  0.48955079482E+03  0.92213074104E+02 0.  0.
          5    1    3    3  502    0 -0.13498290172E+02 -0.56606074026E+01  0.90892096810E+01  0.17729423182E+02  0.41800000000E+01 0. -1.
         -5    1    3    3    0  502  0.11181369746E+03  0.21188464037E+03  0.47252595686E+03  0.52980718764E+03  0.41800000000E+01 0. -1.
        -11    1    4    4    0    0 -0.94735110786E+02 -0.97359963388E+02  0.26217888336E+03  0.29528201870E+03  0.00000000000E+00 0.  1.
         11    1    4    4    0    0 -0.35802964974E+01 -0.10886406958E+03  0.16086066395E+03  0.19426877612E+03  0.00000000000E+00 0. -1.
</event>
<event>
 8    1  0.7075056E-009  0.9640192E+02  0.7561462E-02  0.1288049E+00
          2   -1    0    0  501    0  0.00000000000E+00  0.00000000000E+00  0.61656399303E+03  0.61656399303E+03  0.00000000000E+00 0.  1.
         -2   -1    0    0    0  501 -0.00000000000E+00 -0.00000000000E+00 -0.28352861662E+02  0.28352861662E+02  0.00000000000E+00 0. -1.
         25    2    1    2    0    0  0.26067602083E+02  0.62280529092E+02  0.40711889165E+03  0.43122165493E+03  0.12509172461E+03 0.  0.
         23    2    1    2    0    0 -0.26067602083E+02 -0.62280529092E+02  0.18109223973E+03  0.21369519976E+03  0.91174859092E+02 0.  0.
          5    1    3    3  502    0 -0.11984626523E+02 -0.13611021519E+01 -0.40552570558E+01  0.13394080101E+02  0.41800000000E+01 0.  1.
         -5    1    3    3    0  502  0.38052228605E+02  0.63641631244E+02  0.41117414870E+03  0.41782757483E+03  0.41800000000E+01 0.  1.
        -11    1    4    4    0    0 -0.45529034191E+02 -0.56364917570E+01  0.41766544931E+02  0.62041173982E+02  0.00000000000E+00 0. -1.
         11    1    4    4    0    0  0.19461432108E+02 -0.56644037335E+02  0.13932569479E+03  0.15165402578E+03  0.00000000000E+00 0.  1.
</event>
<event>
 8    1  0.7075056E-009  0.1092060E+03  0.7561462E-02  0.1262047E+00
         -1   -1    0    0    0  501 -0.00000000000E+00  0.00000000000E+00  0.10894624324E+03  0.10894624324E+03  0.00000000000E+00 0.  1.
          1   -1    0    0  501    0  0.00000000000E+00 -0.00000000000E+00 -0.18592358540E+03  0.18592358540E+03  0.00000000000E+00 0. -1.
         25    2    1    2    0    0 -0.29144206278E+02  0.68376075758E+02  0.15493317423E+02  0.14632835673E+03  0.12508905868E+03 0.  0.
         23    2    1    2    0    0  0.29144206278E+02 -0.68376075758E+02 -0.92470659581E+02  0.14854147191E+03  0.89381617226E+02 0.  0.
          5    1    3    3  502    0  0.32819337993E+02 -0.17505002360E+02 -0.67552548538E+01  0.38034719955E+02  0.41800000000E+01 0.  1.
         -5    1    3    3    0  502 -0.61963544271E+02  0.85881078118E+02  0.22248572277E+02  0.10829363677E+03  0.41800000000E+01 0.  1.
        -11    1    4    4    0    0  0.10955544882E+02 -0.38432482618E+02 -0.10419562840E+03  0.11159663374E+03  0.00000000000E+00 0. -1.
         11    1    4    4    0    0  0.18188661396E+02 -0.29943593140E+02  0.11724968822E+02  0.36944838169E+02  0.00000000000E+00 0.  1.
</event>
<event>
 8    1  0.7075056E-009  0.8042322E+02  0.7561462E-02  0.1327855E+00
          1   -1    0    0  501    0  0.00000000000E+00  0.00000000000E+00  0.10091476240E+03  0.10091476240E+03  0.00000000000E+00 0. -1.
         -1   -1    0    0    0  501 -0.00000000000E+00 -0.00000000000E+00 -0.12674732760E+03  0.12674732760E+03  0.00000000000E+00 0.  1.
         25    2    1    2    0    0 -0.15124399920E+02  0.31424343146E+02 -0.39346143155E+01  0.12991756514E+03  0.12508739236E+03 0.  0.
         23    2    1    2    0    0  0.15124399920E+02 -0.31424343146E+02 -0.21897950890E+02  0.97744524861E+02  0.88646686751E+02 0.  0.
          5    1    3    3  502    0 -0.30694524318E+02  0.37290871994E+02  0.52188376635E+02  0.71231046693E+02  0.41800000000E+01 0.  1.
         -5    1    3    3    0  502  0.15570124398E+02 -0.58665288481E+01 -0.56122990951E+02  0.58686518450E+02  0.41800000000E+01 0.  1.
        -11    1    4    4    0    0  0.47580168855E+02  0.32830848494E+01 -0.12528197927E+02  0.49311325856E+02  0.00000000000E+00 0. -1.
         11    1    4    4    0    0 -0.32455768935E+02 -0.34707427996E+02 -0.93697529630E+01  0.48433199005E+02  0.00000000000E+00 0.  1.
</event>
<event>
 8    1  0.7075056E-009  0.1536937E+03  0.7561462E-02  0.1196006E+00
          2   -1    0    0  501    0  0.00000000000E+00  0.00000000000E+00  0.42535086896E+03  0.42535086896E+03  0.00000000000E+00 0.  1.
         -2   -1    0    0    0  501 -0.00000000000E+00 -0.00000000000E+00 -0.75494495123E+02  0.75494495123E+02  0.00000000000E+00 0. -1.
         25    2    1    2    0    0 -0.19161491471E+02  0.12346318853E+03  0.89775076850E+02  0.19828233729E+03  0.12508396852E+03 0.  0.
         23    2    1    2    0    0  0.19161491471E+02 -0.12346318853E+03  0.26008129698E+03  0.30256302679E+03  0.91059225032E+02 0.  0.
          5    1    3    3  502    0  0.48100854504E+01  0.13097961437E+03  0.10554013371E+03  0.16832999889E+03  0.41800000000E+01 0. -1.
         -5    1    3    3    0  502 -0.23971576922E+02 -0.75164258420E+01 -0.15765056862E+02  0.29952338396E+02  0.41800000000E+01 0. -1.
        -11    1    4    4    0    0 -0.30291900295E+02 -0.77740568447E+02  0.17646538062E+03  0.19519535282E+03  0.00000000000E+00 0.  1.
         11    1    4    4    0    0  0.49453391767E+02 -0.45722620082E+02  0.83615916367E+02  0.10736767397E+03  0.00000000000E+00 0. -1.
</event>
<event>
 8    1  0.7075056E-009  0.1243644E+03  0.7561462E-02  0.1236066E+00
          1   -1    0    0  501    0  0.00000000000E+00  0.00000000000E+00  0.23556132236E+03  0.23556132236E+03  0.00000000000E+00 0. -1.
         -1   -1    0    0    0  501 -0.00000000000E+00 -0.00000000000E+00 -0.12184431378E+03  0.12184431378E+03  0.00000000000E+00 0.  1.
         25    2    1    2    0    0 -0.30599985553E+02  0.10802530417E+03 -0.87053562765E+01  0.16830884029E+03  0.12508499924E+03 0.  0.
         23    2    1    2    0    0  0.30599985553E+02 -0.10802530417E+03  0.12242236486E+03  0.18909679585E+03  0.90357829359E+02 0.  0.
          5    1    3    3  502    0 -0.64894619085E+01  0.75977045830E+02 -0.64161104561E+02  0.99743392500E+02  0.41800000000E+01 0.  1.
         -5    1    3    3    0  502 -0.24110523645E+02  0.32048258335E+02  0.55455748284E+02  0.68565447789E+02  0.41800000000E+01 0.  1.
        -11    1    4    4    0    0  0.20842230339E+02 -0.11696335458E+03  0.12808680013E+03  0.17470275684E+03  0.00000000000E+00 0. -1.
         11    1    4    4    0    0  0.97577552140E+01  0.89380504183E+01 -0.56644352658E+01  0.14394039008E+02  0.00000000000E+00 0.  1.
</event>
<event>
 8    1  0.7075056E-009  0.3100324E+03  0.7561462E-02  0.1080330E+00
         -2   -1    0    0    0  501 -0.00000000000E+00  0.00000000000E+00  0.33579459274E+02  0.33579459274E+02  0.00000000000E+00 0.  1.
          2   -1    0    0  501    0  0.00000000000E+00 -0.00000000000E+00 -0.30338054930E+04  0.30338054930E+04  0.00000000000E+00 0. -1.
         25    2    1    2    0    0  0.29933853272E+03 -0.10906434256E+02 -0.15903821584E+04  0.16231714990E+04  0.12509115869E+03 0.  0.
         23    2    1    2    0    0 -0.29933853272E+03  0.10906434256E+02 -0.14098438753E+04  0.14442134533E+04  0.91489006451E+02 0.  0.
          5    1    3    3  502    0  0.26732343923E+03 -0.35439494155E+02 -0.11625847743E+04  0.11934565802E+04  0.41800000000E+01 0. -1.
         -5    1    3    3    0  502  0.32015093487E+02  0.24533059900E+02 -0.42779738410E+03  0.42971491885E+03  0.41800000000E+01 0. -1.
        -11    1    4    4    0    0 -0.27620102306E+03 -0.13056849632E+02 -0.13130375689E+04  0.13418364817E+04  0.00000000000E+00 0.  1.
         11    1    4    4    0    0 -0.23137509661E+02  0.23963283887E+02 -0.96806306449E+02  0.10237697151E+03  0.00000000000E+00 0. -1.
</event>
<event>
 8    1  0.7075056E-009  0.9519777E+02  0.7561462E-02  0.1290731E+00
         -1   -1    0    0    0  501 -0.00000000000E+00  0.00000000000E+00  0.21559200337E+03  0.21559200337E+03  0.00000000000E+00 0.  1.
          1   -1    0    0  501    0  0.00000000000E+00 -0.00000000000E+00 -0.75062209909E+02  0.75062209909E+02  0.00000000000E+00 0. -1.
         25    2    1    2    0    0  0.15620961406E+02  0.59559607199E+02  0.10847388749E+03  0.17666171548E+03  0.12510562019E+03 0.  0.
         23    2    1    2    0    0 -0.15620961406E+02 -0.59559607199E+02  0.32055905967E+02  0.11399249780E+03  0.90417626611E+02 0.  0.
          5    1    3    3  502    0  0.53369521585E+02  0.67972340233E+01  0.46483735246E+01  0.54162607037E+02  0.41800000000E+01 0. -1.
         -5    1    3    3    0  502 -0.37748560179E+02  0.52762373176E+02  0.10382551397E+03  0.12249910844E+03  0.41800000000E+01 0. -1.
        -11    1    4    4    0    0 -0.18406164601E+01 -0.57452891102E+02 -0.19410774300E+02  0.60671251214E+02  0.00000000000E+00 0. -1.
         11    1    4    4    0    0 -0.13780344946E+02 -0.21067160974E+01  0.51466680268E+02  0.53321246584E+02  0.00000000000E+00 0.  1.
</event>
<event>
 8    1  0.7075056E-009  0.1259526E+03  0.7561462E-02  0.1233588E+00
         -1   -1    0    0    0  501 -0.00000000000E+00  0.00000000000E+00  0.51218009431E+02  0.51218009431E+02  0.00000000000E+00 0.  1.
          1   -1    0    0  501    0  0.00000000000E+00 -0.00000000000E+00 -0.38689468273E+03  0.38689468273E+03  0.00000000000E+00 0. -1.
         25    2    1    2    0    0 -0.52258334466E+02 -0.69855029294E+02 -0.14669668838E+03  0.21160972575E+03  0.12509236193E+03 0.  0.
         23    2    1    2    0    0  0.52258334466E+02  0.69855029294E+02 -0.18897998492E+03  0.22650296641E+03  0.89328049640E+02 0.  0.
          5    1    3    3  502    0 -0.28503047607E+02  0.33158768584E+02 -0.62524154713E+02  0.76411190145E+02  0.41800000000E+01 0. -1.
         -5    1    3    3    0  502 -0.23755286860E+02 -0.10301379788E+03 -0.84172533666E+02  0.13519853561E+03  0.41800000000E+01 0. -1.
        -11    1    4    4    0    0  0.42177714846E+02  0.12563991992E+02 -0.21052558014E+02  0.48785486810E+02  0.00000000000E+00 0.  1.
         11    1    4    4    0    0  0.10080619620E+02  0.57291037302E+02 -0.16792742691E+03  0.17771747960E+03  0.00000000000E+00 0. -1.
</event>
<event>
 8    1  0.7075056E-009  0.1427873E+03  0.7561462E-02  0.1209627E+00
         -2   -1    0    0    0  501 -0.00000000000E+00  0.00000000000E+00  0.18405101816E+03  0.18405101816E+03  0.00000000000E+00 0.  1.
          2   -1    0    0  501    0  0.00000000000E+00 -0.00000000000E+00 -0.23261923583E+03  0.23261923583E+03  0.00000000000E+00 0. -1.
         25    2    1    2    0    0 -0.47143683764E+02  0.12987731449E+03 -0.13481866426E+03  0.23003109789E+03  0.12509032747E+03 0.  0.
         23    2    1    2    0    0  0.47143683764E+02 -0.12987731449E+03  0.86250446592E+02  0.18663915610E+03  0.91128433082E+02 0.  0.
          5    1    3    3  502    0 -0.28517522238E+02  0.40403325898E+02 -0.12916166531E+03  0.13836865976E+03  0.41800000000E+01 0. -1.
         -5    1    3    3    0  502 -0.18626161526E+02  0.89473988591E+02 -0.56569989573E+01  0.91662438135E+02  0.41800000000E+01 0. -1.
        -11    1    4    4    0    0  0.16224629588E+02 -0.10051888276E+03  0.14043693642E+02  0.10278380090E+03  0.00000000000E+00 0. -1.
         11    1    4    4    0    0  0.30919054176E+02 -0.29358431731E+02  0.72206752950E+02  0.83855355204E+02  0.00000000000E+00 0.  1.
</event>
<event>
 8    1  0.7075056E-009  0.1072985E+03  0.7561462E-02  0.1265656E+00
          1   -1    0    0  501    0  0.00000000000E+00  0.00000000000E+00  0.58613202156E+03  0.58613202156E+03  0.00000000000E+00 0. -1.
         -1   -1    0    0    0  501 -0.00000000000E+00 -0.00000000000E+00 -0.27517096318E+02  0.27517096318E+02  0.00000000000E+00 0.  1.
         25    2    1    2    0    0 -0.22016062844E+02  0.56119164566E+02  0.38021251395E+03  0.40477615299E+03  0.12509240829E+03 0.  0.
         23    2    1    2    0    0  0.22016062844E+02 -0.56119164566E+02  0.17840241129E+03  0.20887296489E+03  0.90368287863E+02 0.  0.
          5    1    3    3  502    0 -0.15969615392E+02  0.83981339915E+02  0.35882383384E+03  0.36889010586E+03  0.41800000000E+01 0. -1.
         -5    1    3    3    0  502 -0.60464474518E+01 -0.27862175349E+02  0.21388680115E+02  0.35886047135E+02  0.41800000000E+01 0. -1.
        -11    1    4    4    0    0  0.44342452405E+02 -0.52651880180E+01  0.40806290030E+02  0.60490731490E+02  0.00000000000E+00 0.  1.
         11    1    4    4    0    0 -0.22326389561E+02 -0.50853976548E+02  0.13759612126E+03  0.14838223340E+03  0.00000000000E+00 0. -1.
</event>
<event>
 8    1  0.7075056E-009  0.7240251E+02  0.7561462E-02  0.1352109E+00
         -1   -1    0    0    0  501 -0.00000000000E+00  0.00000000000E+00  0.41667391757E+03  0.41667391757E+03  0.00000000000E+00 0.  1.
          1   -1    0    0  501    0  0.00000000000E+00 -0.00000000000E+00 -0.29049254179E+02  0.29049254179E+02  0.00000000000E+00 0. -1.
         25    2    1    2    0    0  0.14820808243E+02 -0.17658533049E+01  0.18335078336E+03  0.22245813642E+03  0.12508932052E+03 0.  0.
         23    2    1    2    0    0 -0.14820808243E+02  0.17658533049E+01  0.20427388003E+03  0.22326503532E+03  0.88863284555E+02 0.  0.
          5    1    3    3  502    0  0.32445246305E+02 -0.16386582677E+02  0.19359767737E+03  0.19702473749E+03  0.41800000000E+01 0.  1.
         -5    1    3    3    0  502 -0.17624438063E+02  0.14620729372E+02 -0.10246894011E+02  0.25433398933E+02  0.41800000000E+01 0.  1.
        -11    1    4    4    0    0  0.19681290710E+02  0.32984183412E+02  0.56347618662E+02  0.68193575125E+02  0.00000000000E+00 0. -1.
         11    1    4    4    0    0 -0.34502098953E+02 -0.31218330107E+02  0.14792626137E+03  0.15507146020E+03  0.00000000000E+00 0.  1.
</event>
<event>
 8    1  0.7075056E-009  0.1143936E+03  0.7561462E-02  0.1252643E+00
         -1   -1    0    0    0  501 -0.00000000000E+00  0.00000000000E+00  0.67119037614E+02  0.67119037614E+02  0.00000000000E+00 0.  1.
          1   -1    0    0  501    0  0.00000000000E+00 -0.00000000000E+00 -0.30414511655E+03  0.30414511655E+03  0.00000000000E+00 0. -1.
         25    2    1    2    0    0  0.27609721823E+01 -0.89581636526E+02 -0.98237929734E+02  0.18256631338E+03  0.12508906976E+03 0.  0.
         23    2    1    2    0    0 -0.27609721823E+01  0.89581636526E+02 -0.13878814920E+03  0.18869784078E+03  0.91171443925E+02 0.  0.
          5    1    3    3  502    0 -0.13626521103E+02 -0.82649926534E+02 -0.12477562005E+03  0.15034334103E+03  0.41800000000E+01 0. -1.
         -5    1    3    3    0  502  0.16387493285E+02 -0.69317099920E+01  0.26537690317E+02  0.32222972348E+02  0.41800000000E+01 0. -1.
        -11    1    4    4    0    0  0.86195685020E+01  0.10617188752E+03 -0.10631775005E+03  0.15049993567E+03  0.00000000000E+00 0.  1.
         11    1    4    4    0    0 -0.11380540684E+02 -0.16590250992E+02 -0.32470399146E+02  0.38197905112E+02  0.00000000000E+00 0. -1.
</event>
<event>
 8    1  0.7075056E-009  0.1658043E+03  0.7561462E-02  0.1182295E+00
          2   -1    0    0  501    0  0.00000000000E+00  0.00000000000E+00  0.86581494738E+03  0.86581494738E+03  0.00000000000E+00 0. -1.
         -2   -1    0    0    0  501 -0.00000000000E+00 -0.00000000000E+00 -0.89064866417E+02  0.89064866417E+02  0.00000000000E+00 0.  1.
         25    2    1    2    0    0  0.14658323182E+03  0.58416964110E+02  0.53913039721E+02  0.20845033867E+03  0.12508294165E+03 0.  0.
         23    2    1    2    0    0 -0.14658323182E+03 -0.58416964110E+02  0.72283704124E+03  0.74642947513E+03  0.98814915905E+02 0.  0.
          5    1    3    3  502    0  0.11218795845E+03  0.75179538199E+02  0.84435869946E+02  0.15932667548E+03  0.41800000000E+01 0. -1.
         -5    1    3    3    0  502  0.34395273371E+02 -0.16762574089E+02 -0.30522830226E+02  0.49123663191E+02  0.41800000000E+01 0. -1.
        -11    1    4    4    0    0 -0.12360990875E+03 -0.52394142984E+02  0.70234371643E+03  0.71506031338E+03  0.00000000000E+00 0. -1.
         11    1    4    4    0    0 -0.22973323068E+02 -0.60228211255E+01  0.20493324809E+02  0.31369161749E+02  0.00000000000E+00 0.  1.
</event>
<event>
 8    1  0.7075056E-009  0.2070653E+03  0.7561462E-02  0.1143911E+00
          2   -1    0    0  501    0  0.00000000000E+00  0.00000000000E+00  0.16234464018E+03  0.16234464018E+03  0.00000000000E+00 0. -1.
         -2   -1    0    0    0  501 -0.00000000000E+00 -0.00000000000E+00 -0.31458126779E+03  0.31458126779E+03  0.00000000000E+00 0.  1.
         25    2    1    2    0    0 -0.13262264356E+03 -0.14226092301E+03 -0.12078539080E+03  0.26088937914E+03  0.12508885527E+03 0.  0.
         23    2    1    2    0    0  0.13262264356E+03  0.14226092301E+03 -0.31451236815E+02  0.21603652883E+03  0.88632193301E+02 0.  0.
          5    1    3    3  502    0 -0.71234716786E+02 -0.27197237790E+02  0.89497008220E+01  0.76887217168E+02  0.41800000000E+01 0.  1.
         -5    1    3    3    0  502 -0.61387926777E+02 -0.11506368522E+03 -0.12973509162E+03  0.18400216197E+03  0.41800000000E+01 0.  1.
        -11    1    4    4    0    0  0.10142095439E+03  0.56662177534E+02 -0.43670690327E+02  0.12411261639E+03  0.00000000000E+00 0.  1.
         11    1    4    4    0    0  0.31201689171E+02  0.85598745479E+02  0.12219453512E+02  0.91923912444E+02  0.00000000000E+00 0. -1.
</event>
<event>
 8    1  0.7075056E-009  0.1006224E+03  0.7561462E-02  0.1278993E+00
         -1   -1    0    0    0  501 -0.00000000000E+00  0.00000000000E+00  0.10563472069E+03  0.10563472069E+03  0.00000000000E+00 0.  1.
          1   -1    0    0  501    0  0.00000000000E+00 -0.00000000000E+00 -0.12573944648E+03  0.12573944648E+03  0.00000000000E+00 0. -1.
         25    2    1    2    0    0 -0.29688824495E+02  0.13231992845E+02  0.10452890862E+02  0.12966535049E+03  0.12508928114E+03 0.  0.
         23    2    1    2    0    0  0.29688824495E+02 -0.13231992845E+02 -0.30557616654E+02  0.10170881668E+03  0.91402426228E+02 0.  0.
          5    1    3    3  502    0 -0.68806177788E+02 -0.23483472328E+02  0.18798869947E+02  0.75210594238E+02  0.41800000000E+01 0. -1.
         -5    1    3    3    0  502  0.39117353293E+02  0.36715465172E+02 -0.83459790848E+01  0.54454756251E+02  0.41800000000E+01 0. -1.
        -11    1    4    4    0    0  0.81486336204E+01  0.27419317718E+02  0.18804477407E+02  0.34231967290E+02  0.00000000000E+00 0.  1.
         11    1    4    4    0    0  0.21540190875E+02 -0.40651310563E+02 -0.49362094061E+02  0.67476849389E+02  0.00000000000E+00 0. -1.
</event>
<event>
 8    1  0.7075056E-009  0.9865952E+02  0.7561462E-02  0.1283140E+00
         -1   -1    0    0    0  501 -0.00000000000E+00  0.00000000000E+00  0.15092230829E+03  0.15092230829E+03  0.00000000000E+00 0.  1.
          1   -1    0    0  501    0  0.00000000000E+00 -0.00000000000E+00 -0.85143542658E+02  0.85143542658E+02  0.00000000000E+00 0. -1.
         25    2    1    2    0    0 -0.20764667053E+02 -0.68878876064E+01  0.57055812675E+02  0.13923253563E+03  0.12510682964E+03 0.  0.
         23    2    1    2    0    0  0.20764667053E+02  0.68878876064E+01  0.87229529595E+01  0.96833315324E+02  0.93925431352E+02 0.  0.
          5    1    3    3  502    0  0.28163770713E+02 -0.48724845652E+02  0.55965056239E+01  0.56710685411E+02  0.41800000000E+01 0.  1.
         -5    1    3    3    0  502 -0.48928437765E+02  0.41836958046E+02  0.51459307051E+02  0.82521850215E+02  0.41800000000E+01 0.  1.
        -11    1    4    4    0    0 -0.10552945919E+02  0.33595461869E+02  0.33656242895E+02  0.48711009142E+02  0.00000000000E+00 0.  1.
         11    1    4    4    0    0  0.31317612972E+02 -0.26707574262E+02 -0.24933289936E+02  0.48122306182E+02  0.00000000000E+00 0. -1.
</event>
<event>
 8    1  0.7075056E-009  0.7081685E+02  0.7561462E-02  0.1357337E+00
          1   -1    0    0  501    0  0.00000000000E+00  0.00000000000E+00  0.16978594726E+03  0.16978594726E+03  0.00000000000E+00 0. -1.
         -1   -1    0    0    0  501 -0.00000000000E+00 -0.00000000000E+00 -0.89231539774E+02  0.89231539774E+02  0.00000000000E+00 0.  1.
         25    2    1    2    0    0 -0.46302426942E+02  0.23967562527E+02  0.62722279834E+02  0.14933011964E+03  0.12508813473E+03 0.  0.
         23    2    1    2    0    0  0.46302426942E+02 -0.23967562527E+02  0.17832127652E+02  0.10968736739E+03  0.94841842007E+02 0.  0.
          5    1    3    3  502    0 -0.40189637838E+02 -0.39263963292E+01 -0.31118741589E+02  0.51151461912E+02  0.41800000000E+01 0. -1.
         -5    1    3    3    0  502 -0.61127891045E+01  0.27893958856E+02  0.93841021422E+02  0.98178657726E+02  0.41800000000E+01 0. -1.
        -11    1    4    4    0    0  0.53572100713E+02 -0.31139441746E+02 -0.24132405053E+02  0.66498178777E+02  0.00000000000E+00 0.  1.
         11    1    4    4    0    0 -0.72696737706E+01  0.71718792186E+01  0.41964532706E+02  0.43189188618E+02  0.00000000000E+00 0. -1.
</event>
<event>
 8    1  0.7075056E-009  0.8027249E+02  0.7561462E-02  0.1328280E+00
         -3   -1    0    0    0  501 -0.00000000000E+00  0.00000000000E+00  0.14651603091E+03  0.14651603091E+03  0.00000000000E+00 0.  1.
          3   -1    0    0  501    0  0.00000000000E+00 -0.00000000000E+00 -0.11348095022E+03  0.11348095022E+03  0.00000000000E+00 0. -1.
         25    2    1    2    0    0 -0.55976275666E+01 -0.42650395163E+02 -0.36378402274E+02  0.13719505117E+03  0.12509478115E+03 0.  0.
         23    2    1    2    0    0  0.55976275666E+01  0.42650395163E+02  0.69413482962E+02  0.12280192997E+03  0.91715280869E+02 0.  0.
          5    1    3    3  502    0  0.41234701139E+02  0.97484043842E+01  0.19962781433E+02  0.47024642567E+02  0.41800000000E+01 0.  1.
         -5    1    3    3    0  502 -0.46832328705E+02 -0.52398799548E+02 -0.56341183708E+02  0.90170408602E+02  0.41800000000E+01 0.  1.
        -11    1    4    4    0    0  0.10428001632E+02  0.96292536134E+01 -0.21609393800E+02  0.25854045014E+02  0.00000000000E+00 0. -1.
         11    1    4    4    0    0 -0.48303740652E+01  0.33021141550E+02  0.91022876763E+02  0.96947884954E+02  0.00000000000E+00 0.  1.
</event>
<event>
 8    1  0.7075056E-009  0.2167905E+03  0.7561462E-02  0.1136299E+00
          2   -1    0    0  501    0  0.00000000000E+00  0.00000000000E+00  0.15676238638E+04  0.15676238638E+04  0.00000000000E+00 0. -1.
         -2   -1    0    0    0  501 -0.00000000000E+00 -0.00000000000E+00 -0.46912278834E+02  0.46912278834E+02  0.00000000000E+00 0.  1.
         25    2    1    2    0    0 -0.24682095904E+02 -0.19333053512E+03  0.12358700143E+04  0.12573819160E+04  0.12509471855E+03 0.  0.
         23    2    1    2    0    0  0.24682095904E+02  0.19333053512E+03  0.28484157067E+03  0.35715422670E+03  0.91861415201E+02 0.  0.
          5    1    3    3  502    0  0.38135002361E+02 -0.28848412188E+02  0.15514916423E+03  0.16240457152E+03  0.41800000000E+01 0. -1.
         -5    1    3    3    0  502 -0.62817098265E+02 -0.16448212293E+03  0.10807208501E+04  0.10949773445E+04  0.41800000000E+01 0. -1.
        -11    1    4    4    0    0  0.50934969598E+02  0.15374473515E+03  0.25143101394E+03  0.29908087448E+03  0.00000000000E+00 0.  1.
         11    1    4    4    0    0 -0.26252873694E+02  0.39585799970E+02  0.33410556729E+02  0.58073352214E+02  0.00000000000E+00 0. -1.
</event>
<event>
 8    1  0.7075056E-009  0.1111093E+03  0.7561462E-02  0.1258529E+00
         -2   -1    0    0    0  501 -0.00000000000E+00  0.00000000000E+00  0.14686464906E+03  0.14686464906E+03  0.00000000000E+00 0.  1.
          2   -1    0    0  501    0  0.00000000000E+00 -0.00000000000E+00 -0.92916556297E+02  0.92916556297E+02  0.00000000000E+00 0. -1.
         25    2    1    2    0    0  0.32084156200E+02 -0.41957879892E+01  0.75671095068E-01  0.12920635038E+03  0.12508907841E+03 0.  0.
         23    2    1    2    0    0 -0.32084156200E+02  0.41957879892E+01  0.53872421669E+02  0.11057485497E+03  0.90981113533E+02 0.  0.
          5    1    3    3  502    0  0.70301472671E+02  0.30359772598E+02 -0.70969926022E+01  0.77018520863E+02  0.41800000000E+01 0.  1.
         -5    1    3    3    0  502 -0.38217316471E+02 -0.34555560587E+02  0.71726636972E+01  0.52187829522E+02  0.41800000000E+01 0.  1.
        -11    1    4    4    0    0 -0.17382020060E+02 -0.41947481135E+02  0.39160789041E+02  0.59960763781E+02  0.00000000000E+00 0.  1.
         11    1    4    4    0    0 -0.14702136140E+02  0.46143269124E+02  0.14711632628E+02  0.50614091191E+02  0.00000000000E+00 0. -1.
</event>
<event>
 8    1  0.7075056E-009  0.1020202E+03  0.7561462E-02  0.1276104E+00
          1   -1    0    0  501    0  0.00000000000E+00  0.00000000000E+00  0.18753128053E+03  0.18753128053E+03  0.00000000000E+00 0. -1.
         -1   -1    0    0    0  501 -0.00000000000E+00 -0.00000000000E+00 -0.94691922114E+02  0.94691922114E+02  0.00000000000E+00 0.  1.
         25    2    1    2    0    0 -0.64907519368E+02 -0.16399108325E+02  0.13687097220E+02  0.14253275782E+03  0.12508530528E+03 0.  0.
         23    2    1    2    0    0  0.64907519368E+02  0.16399108325E+02  0.79152261199E+02  0.13969044482E+03  0.93629178667E+02 0.  0.
          5    1    3    3  502    0  0.76699143863E+01  0.16786480638E+02 -0.41367551289E+02  0.45490221131E+02  0.41800000000E+01 0. -1.
         -5    1    3    3    0  502 -0.72577433754E+02 -0.33185588963E+02  0.55054648509E+02  0.97042536692E+02  0.41800000000E+01 0. -1.
        -11    1    4    4    0    0 -0.12024982388E+02  0.25049134066E+02  0.49545411077E+02  0.56804991661E+02  0.00000000000E+00 0. -1.
         11    1    4    4    0    0  0.76932501756E+02 -0.86500257412E+01  0.29606850122E+02  0.82885453162E+02  0.00000000000E+00 0.  1.
</event>
<event>
 8    1  0.7075056E-009  0.1010695E+03  0.7561462E-02  0.1278063E+00
          2   -1    0    0  501    0  0.00000000000E+00  0.00000000000E+00  0.29760067095E+03  0.29760067095E+03  0.00000000000E+00 0. -1.
         -2   -1    0    0    0  501 -0.00000000000E+00 -0.00000000000E+00 -0.47986088630E+02  0.47986088630E+02  0.00000000000E+00 0.  1.
         25    2    1    2    0    0 -0.18345558855E+02 -0.19152717079E+02  0.99759311646E+02  0.16218585635E+03  0.12509574589E+03 0.  0.
         23    2    1    2    0    0  0.18345558855E+02  0.19152717079E+02  0.14985527068E+03  0.18340090324E+03  0.10235185908E+03 0.  0.
          5    1    3    3  502    0  0.39229557427E+02 -0.48368652381E+02  0.57820669020E+02  0.85083411280E+02  0.41800000000E+01 0.  1.
         -5    1    3    3    0  502 -0.57575116282E+02  0.29215935302E+02  0.41938642626E+02  0.77102445070E+02  0.41800000000E+01 0.  1.
        -11    1    4    4    0    0  0.43774657772E+02  0.22761531364E+02  0.23842939346E+02  0.54797752963E+02  0.00000000000E+00 0.  1.
         11    1    4    4    0    0 -0.25429098917E+02 -0.36088142851E+01  0.12601233133E+03  0.12860315027E+03  0.00000000000E+00 0. -1.
</event>
<event>
 8    1  0.7075056E-009  0.1755818E+03  0.7561462E-02  0.1172149E+00
         -1   -1    0    0    0  501 -0.00000000000E+00  0.00000000000E+00  0.10897510762E+04  0.10897510762E+04  0.00000000000E+00 0.  1.
          1   -1    0    0  501    0  0.00000000000E+00 -0.00000000000E+00 -0.33057658636E+02  0.33057658636E+02  0.00000000000E+00 0. -1.
         25    2    1    2    0    0  0.14195677607E+03 -0.59853540725E+01  0.75198821218E+03  0.77544900926E+03  0.12508934398E+03 0.  0.
         23    2    1    2    0    0 -0.14195677607E+03  0.59853540725E+01  0.30470520540E+03  0.34735972559E+03  0.87326777265E+02 0.  0.
          5    1    3    3  502    0  0.48299889785E+01  0.41891315899E+02  0.21579839121E+03  0.21991959710E+03  0.41800000000E+01 0. -1.
         -5    1    3    3    0  502  0.13712678709E+03 -0.47876669972E+02  0.53618982097E+03  0.55552941216E+03  0.41800000000E+01 0. -1.
        -11    1    4    4    0    0 -0.11507747071E+03 -0.29661261535E+02  0.18804864568E+03  0.22245203492E+03  0.00000000000E+00 0.  1.
         11    1    4    4    0    0 -0.26879305361E+02  0.35646615607E+02  0.11665655973E+03  0.12490769067E+03  0.00000000000E+00 0. -1.
</event>
<event>
 8    1  0.7075056E-009  0.2181806E+03  0.7561462E-02  0.1135247E+00
         -1   -1    0    0    0  501 -0.00000000000E+00  0.00000000000E+00  0.98992185965E+02  0.98992185965E+02  0.00000000000E+00 0.  1.
          1   -1    0    0  501    0  0.00000000000E+00 -0.00000000000E+00 -0.66113239136E+03  0.66113239136E+03  0.00000000000E+00 0. -1.
         25    2    1    2    0    0  0.41757729635E+02  0.20688294868E+03 -0.14606175149E+03  0.28552531936E+03  0.12508561190E+03 0.  0.
         23    2    1    2    0    0 -0.41757729635E+02 -0.20688294868E+03 -0.41607845391E+03  0.47459925797E+03  0.87056955015E+02 0.  0.
          5    1    3    3  502    0 -0.41557854174E+00  0.88700369894E+02 -0.13213839423E+03  0.15920413297E+03  0.41800000000E+01 0. -1.
         -5    1    3    3    0  502  0.42173308177E+02  0.11818257879E+03 -0.13923357251E+02  0.12632118638E+03  0.41800000000E+01 0. -1.
        -11    1    4    4    0    0 -0.59114434783E+02 -0.12454216886E+03 -0.20184405394E+03  0.24443054296E+03  0.00000000000E+00 0. -1.
         11    1    4    4    0    0  0.17356705148E+02 -0.82340779828E+02 -0.21423439997E+03  0.23016871501E+03  0.00000000000E+00 0.  1.
</event>
<event>
 8    1  0.7075056E-009  0.1160687E+03  0.7561462E-02  0.1249727E+00
          2   -1    0    0  501    0  0.00000000000E+00  0.00000000000E+00  0.73341467910E+03  0.73341467910E+03  0.00000000000E+00 0. -1.
         -2   -1    0    0    0  501 -0.00000000000E+00 -0.00000000000E+00 -0.26851253304E+02  0.26851253304E+02  0.00000000000E+00 0.  1.
         25    2    1    2    0    0  0.55712717558E+02  0.66025341012E+02  0.46402204974E+03  0.48829021614E+03  0.12509044721E+03 0.  0.
         23    2    1    2    0    0 -0.55712717558E+02 -0.66025341012E+02  0.24254137606E+03  0.27197571626E+03  0.87642561479E+02 0.  0.
          5    1    3    3  502    0  0.70070062851E+02 -0.75065148843E+01  0.15550204305E+03  0.17077622570E+03  0.41800000000E+01 0.  1.
         -5    1    3    3    0  502 -0.14357345294E+02  0.73531855896E+02  0.30852000669E+03  0.31751399044E+03  0.41800000000E+01 0.  1.
        -11    1    4    4    0    0 -0.80933937115E+01 -0.12186983610E+02 -0.40033505253E+01  0.15167478588E+02  0.00000000000E+00 0.  1.
         11    1    4    4    0    0 -0.47619323846E+02 -0.53838357402E+02  0.24654472658E+03  0.25680823767E+03  0.00000000000E+00 0. -1.
</event>
<event>
 8    1  0.7075056E-009  0.7973192E+02  0.7561462E-02  0.1329814E+00
         -3   -1    0    0    0  501 -0.00000000000E+00  0.00000000000E+00  0.19435138259E+02  0.19435138259E+02  0.00000000000E+00 0.  1.
          3   -1    0    0  501    0  0.00000000000E+00 -0.00000000000E+00 -0.61394678813E+03  0.61394678813E+03  0.00000000000E+00 0. -1.
         25    2    1    2    0    0 -0.14954837601E+01 -0.16317522983E+01 -0.37093948358E+03  0.39146866541E+03  0.12508683557E+03 0.  0.
         23    2    1    2    0    0  0.14954837601E+01  0.16317522983E+01 -0.22357216628E+03  0.24191326097E+03  0.92372145205E+02 0.  0.
          5    1    3    3  502    0  0.37013163216E+02  0.39508137097E+00 -0.33950509615E+03  0.34154254940E+03  0.41800000000E+01 0. -1.
         -5    1    3    3    0  502 -0.38508646977E+02 -0.20268336693E+01 -0.31434387435E+02  0.49926116013E+02  0.41800000000E+01 0. -1.
        -11    1    4    4    0    0  0.28109590411E+02  0.32300478145E+02 -0.16618492493E+03  0.17161264299E+03  0.00000000000E+00 0. -1.
         11    1    4    4    0    0 -0.26614106651E+02 -0.30668725846E+02 -0.57387241357E+02  0.70300617980E+02  0.00000000000E+00 0.  1.
</event>
<event>
 8    1  0.7075056E-009  0.1362946E+03  0.7561462E-02  0.1218404E+00
         -2   -1    0    0    0  501 -0.00000000000E+00  0.00000000000E+00  0.32416040796E+03  0.32416040796E+03  0.00000000000E+00 0.  1.
          2   -1    0    0  501    0  0.00000000000E+00 -0.00000000000E+00 -0.67328948109E+02  0.67328948109E+02  0.00000000000E+00 0. -1.
         25    2    1    2    0    0  0.73149230763E+02 -0.60170944096E+02  0.97773008412E+02  0.18487175814E+03  0.12508658326E+03 0.  0.
         23    2    1    2    0    0 -0.73149230763E+02  0.60170944096E+02  0.15905845144E+03  0.20661759793E+03  0.91759949455E+02 0.  0.
          5    1    3    3  502    0  0.83944639985E+02 -0.84499173115E+02  0.48416760693E+02  0.12864084870E+03  0.41800000000E+01 0. -1.
         -5    1    3    3    0  502 -0.10795409222E+02  0.24328229019E+02  0.49356247719E+02  0.56230909439E+02  0.41800000000E+01 0. -1.
        -11    1    4    4    0    0  0.18111174356E+02  0.19312315862E+02  0.61329887616E+02  0.66800713286E+02  0.00000000000E+00 0. -1.
         11    1    4    4    0    0 -0.91260405119E+02  0.40858628233E+02  0.97728563827E+02  0.13981688464E+03  0.00000000000E+00 0.  1.
</event>
<event>
 8    1  0.7075056E-009  0.1056905E+03  0.7561462E-02  0.1268765E+00
         -1   -1    0    0    0  501 -0.00000000000E+00  0.00000000000E+00  0.39932629300E+03  0.39932629300E+03  0.00000000000E+00 0.  1.
          1   -1    0    0  501    0  0.00000000000E+00 -0.00000000000E+00 -0.34333275804E+02  0.34333275804E+02  0.00000000000E+00 0. -1.
         25    2    1    2    0    0  0.76804543759E+01 -0.61950832412E+01  0.11972764520E+03  0.17343499727E+03  0.12509045054E+03 0.  0.
         23    2    1    2    0    0 -0.76804543759E+01  0.61950832412E+01  0.24526537199E+03  0.26022457153E+03  0.86396507419E+02 0.  0.
          5    1    3    3  502    0 -0.56630555311E+02 -0.16567589157E+02  0.68152480960E+02  0.90242661010E+02  0.41800000000E+01 0.  1.
         -5    1    3    3    0  502  0.64311009687E+02  0.10372505916E+02  0.51575164244E+02  0.83192336262E+02  0.41800000000E+01 0.  1.
        -11    1    4    4    0    0 -0.19854093143E+02 -0.37045893297E+02  0.12001962944E+03  0.12716640546E+03  0.00000000000E+00 0.  1.
         11    1    4    4    0    0  0.12173638768E+02  0.43240976538E+02  0.12524574255E+03  0.13305816607E+03  0.00000000000E+00 0. -1.
</event>
<event>
 8    1  0.7075056E-009  0.1292208E+03  0.7561462E-02  0.1228616E+00
         -1   -1    0    0    0  501 -0.00000000000E+00  0.00000000000E+00  0.46726531689E+02  0.46726531689E+02  0.00000000000E+00 0.  1.
          1   -1    0    0  501    0  0.00000000000E+00 -0.00000000000E+00 -0.65369649016E+03  0.65369649016E+03  0.00000000000E+00 0. -1.
         25    2    1    2    0    0  0.99159119949E+02 -0.43098535333E+02 -0.15491862971E+03  0.22657371501E+03  0.12508337894E+03 0.  0.
         23    2    1    2    0    0 -0.99159119949E+02  0.43098535333E+02 -0.45205132876E+03  0.47384930683E+03  0.92156100918E+02 0.  0.
          5    1    3    3  502    0  0.68847063353E+02  0.23683709476E+02 -0.24576141216E+02  0.76956450958E+02  0.41800000000E+01 0.  1.
         -5    1    3    3    0  502  0.30312056596E+02 -0.66782244810E+02 -0.13034248849E+03  0.14961726406E+03  0.41800000000E+01 0.  1.
        -11    1    4    4    0    0 -0.25649192737E+02 -0.21453979430E+01 -0.18271519016E+02  0.31564730754E+02  0.00000000000E+00 0.  1.
         11    1    4    4    0    0 -0.73509927212E+02  0.45243933276E+02 -0.43377980974E+03  0.44228457608E+03  0.00000000000E+00 0. -1.
</event>
<event>
 8    1  0.7075056E-009  0.9935148E+02  0.7561462E-02  0.1281666E+00
         -4   -1    0    0    0  501 -0.00000000000E+00  0.00000000000E+00  0.92734874472E+02  0.92734874472E+02  0.00000000000E+00 0.  1.
          4   -1    0    0  501    0  0.00000000000E+00 -0.00000000000E+00 -0.13800087636E+03  0.13800087636E+03  0.00000000000E+00 0. -1.
         25    2    1    2    0    0  0.34879093136E+02  0.33101361063E+01 -0.12614482339E+02  0.13051400390E+03  0.12508905592E+03 0.  0.
         23    2    1    2    0    0 -0.34879093136E+02 -0.33101361063E+01 -0.32651519546E+02  0.10022174693E+03  0.88038450062E+02 0.  0.
          5    1    3    3  502    0  0.77659977010E+02  0.25919347753E+00  0.15172855587E+02  0.79239050708E+02  0.41800000000E+01 0. -1.
         -5    1    3    3    0  502 -0.42780883874E+02  0.30509426287E+01 -0.27787337926E+02  0.51274953193E+02  0.41800000000E+01 0. -1.
        -11    1    4    4    0    0  0.89574093036E+01 -0.26692006752E+02  0.14549700828E+02  0.31692147294E+02  0.00000000000E+00 0.  1.
         11    1    4    4    0    0 -0.43836502440E+02  0.23381870646E+02 -0.47201220374E+02  0.68529599633E+02  0.00000000000E+00 0. -1.
</event>
<event>
 8    1  0.7075056E-009  0.7020170E+02  0.7561462E-02  0.1359409E+00
         -1   -1    0    0    0  501 -0.00000000000E+00  0.00000000000E+00  0.22981679198E+03  0.22981679198E+03  0.00000000000E+00 0.  1.
          1   -1    0    0  501    0  0.00000000000E+00 -0.00000000000E+00 -0.66084376422E+02  0.66084376422E+02  0.00000000000E+00 0. -1.
         25    2    1    2    0    0 -0.37503251535E+01 -0.45060072137E+02  0.13656115339E+03  0.19062632721E+03  0.12507986637E+03 0.  0.
         23    2    1    2    0    0  0.37503251535E+01  0.45060072137E+02  0.27171262164E+02  0.10527484119E+03  0.91104553456E+02 0.  0.
          5    1    3    3  502    0 -0.35945735743E+02 -0.22624505801E+02  0.14424103338E+03  0.15042244610E+03  0.41800000000E+01 0. -1.
         -5    1    3    3    0  502  0.32195410590E+02 -0.22435566336E+02 -0.76798799838E+01  0.40203881111E+02  0.41800000000E+01 0. -1.
        -11    1    4    4    0    0 -0.16549946258E+02  0.22178950082E+02 -0.29765172484E+02  0.40641998485E+02  0.00000000000E+00 0. -1.
         11    1    4    4    0    0  0.20300271411E+02  0.22881122054E+02  0.56936434647E+02  0.64632842706E+02  0.00000000000E+00 0.  1.
</event>
<event>
 8    1  0.7075056E-009  0.1432923E+03  0.7561462E-02  0.1208966E+00
          1   -1    0    0  501    0  0.00000000000E+00  0.00000000000E+00  0.24791108517E+03  0.24791108517E+03  0.00000000000E+00 0. -1.
         -1   -1    0    0    0  501 -0.00000000000E+00 -0.00000000000E+00 -0.12808399810E+03  0.12808399810E+03  0.00000000000E+00 0.  1.
         25    2    1    2    0    0  0.13547309995E+03  0.26497670360E+02  0.35481590229E+02  0.18963579693E+03  0.12509078658E+03 0.  0.
         23    2    1    2    0    0 -0.13547309995E+03 -0.26497670360E+02  0.84345496841E+02  0.18635928633E+03  0.92523150735E+02 0.  0.
          5    1    3    3  502    0  0.61201395700E+01  0.12869026193E+02  0.55961170976E+02  0.57898126053E+02  0.41800000000E+01 0.  1.
         -5    1    3    3    0  502  0.12935296038E+03  0.13628644167E+02 -0.20479580747E+02  0.13173767088E+03  0.41800000000E+01 0.  1.
        -11    1    4    4    0    0 -0.16159599931E+02 -0.14449462843E+02  0.60264948039E+02  0.64045168502E+02  0.00000000000E+00 0. -1.
         11    1    4    4    0    0 -0.11931350002E+03 -0.12048207518E+02  0.24080548803E+02  0.12231411783E+03  0.00000000000E+00 0.  1.
</event>
<event>
 8    1  0.7075056E-009  0.1498699E+03  0.7561462E-02  0.1200633E+00
          1   -1    0    0  501    0  0.00000000000E+00  0.00000000000E+00  0.47861711831E+03  0.47861711831E+03  0.00000000000E+00 0. -1.
         -1   -1    0    0    0  501 -0.00000000000E+00 -0.00000000000E+00 -0.54237207705E+02  0.54237207705E+02  0.00000000000E+00 0.  1.
         25    2    1    2    0    0 -0.41649504546E+02  0.11000786188E+03  0.24634977452E+03  0.30028676815E+03  0.12509005082E+03 0.  0.
         23    2    1    2    0    0  0.41649504546E+02 -0.11000786188E+03  0.17803013609E+03  0.23256755787E+03  0.92501506545E+02 0.  0.
          5    1    3    3  502    0 -0.24589515240E+02  0.12506024314E+03  0.13168330383E+03  0.18331032044E+03  0.41800000000E+01 0.  1.
         -5    1    3    3    0  502 -0.17059989307E+02 -0.15052381261E+02  0.11466647069E+03  0.11697644771E+03  0.41800000000E+01 0.  1.
        -11    1    4    4    0    0  0.62212814881E+02 -0.35154845080E+02  0.95385480486E+02  0.11918341896E+03  0.00000000000E+00 0.  1.
         11    1    4    4    0    0 -0.20563310335E+02 -0.74853016800E+02  0.82644655606E+02  0.11338413891E+03  0.00000000000E+00 0. -1.
</event>
<event>
 8    1  0.7075056E-009  0.1370878E+03  0.7561462E-02  0.1217302E+00
         -2   -1    0    0    0  501 -0.00000000000E+00  0.00000000000E+00  0.24073106007E+02  0.24073106007E+02  0.00000000000E+00 0.  1.
          2   -1    0    0  501    0  0.00000000000E+00 -0.00000000000E+00 -0.12842813816E+04  0.12842813816E+04  0.00000000000E+00 0. -1.
         25    2    1    2    0    0 -0.42430517319E+02  0.11346491613E+03 -0.89365454270E+03  0.91046171810E+03  0.12508981753E+03 0.  0.
         23    2    1    2    0    0  0.42430517319E+02 -0.11346491613E+03 -0.36655373285E+03  0.39789276946E+03  0.96345113688E+02 0.  0.
          5    1    3    3  502    0 -0.32740006296E+02  0.74674969850E+02 -0.20536036122E+03  0.22099459155E+03  0.41800000000E+01 0. -1.
         -5    1    3    3    0  502 -0.96905110229E+01  0.38789946277E+02 -0.68829418148E+03  0.68946712656E+03  0.41800000000E+01 0. -1.
        -11    1    4    4    0    0  0.45839218191E+02 -0.76636112759E+01 -0.81523677165E+02  0.93840688407E+02  0.00000000000E+00 0.  1.
         11    1    4    4    0    0 -0.34087008720E+01 -0.10580130485E+03 -0.28503005568E+03  0.30405208105E+03  0.00000000000E+00 0. -1.
</event>
<event>
 8    1  0.7075056E-009  0.1295440E+03  0.7561462E-02  0.1228134E+00
          2   -1    0    0  501    0  0.00000000000E+00  0.00000000000E+00  0.13026074033E+04  0.13026074033E+04  0.00000000000E+00 0. -1.
         -2   -1    0    0    0  501 -0.00000000000E+00 -0.00000000000E+00 -0.15984695752E+02  0.15984695752E+02  0.00000000000E+00 0.  1.
         25    2    1    2    0    0 -0.46404908798E+02  0.60992400060E+02  0.94054629580E+03  0.95191886543E+03  0.12509477759E+03 0.  0.
         23    2    1    2    0    0  0.46404908798E+02 -0.60992400060E+02  0.34607641173E+03  0.36667323361E+03  0.93845026850E+02 0.  0.
          5    1    3    3  502    0 -0.50051082392E+02  0.97334802760E+02  0.73382614339E+03  0.74195515753E+03  0.41800000000E+01 0.  1.
         -5    1    3    3    0  502  0.36461735946E+01 -0.36342402700E+02  0.20672015242E+03  0.20996370789E+03  0.41800000000E+01 0.  1.
        -11    1    4    4    0    0 -0.24171929367E+02 -0.18216413679E+02  0.43156285870E+02  0.52712284211E+02  0.00000000000E+00 0.  1.
         11    1    4    4    0    0  0.70576838165E+02 -0.42775986381E+02  0.30292012586E+03  0.31396094940E+03  0.00000000000E+00 0. -1.
</event>
<event>
 8    1  0.7075056E-009  0.2616559E+03  0.7561462E-02  0.1106152E+00
         -1   -1    0    0    0  501 -0.00000000000E+00  0.00000000000E+00  0.33241540007E+02  0.33241540007E+02  0.00000000000E+00 0. -1.
          1   -1    0    0  501    0  0.00000000000E+00 -0.00000000000E+00 -0.24668324314E+04  0.24668324314E+04  0.00000000000E+00 0.  1.
         25    2    1    2    0    0 -0.96623656148E+02  0.23232705039E+03 -0.89208864315E+03  0.93529746565E+03  0.12508881944E+03 0.  0.
         23    2    1    2    0    0  0.96623656148E+02 -0.23232705039E+03 -0.15415022483E+04  0.15647765058E+04  0.94785770853E+02 0.  0.
          5    1    3    3  502    0  0.48564081126E+00  0.27958251292E+02 -0.20804099141E+02  0.35102458652E+02  0.41800000000E+01 0.  1.
         -5    1    3    3    0  502 -0.97109296959E+02  0.20436879909E+03 -0.87128454400E+03  0.90019500700E+03  0.41800000000E+01 0.  1.
        -11    1    4    4    0    0  0.12033482112E+02 -0.15070420697E+03 -0.84146458650E+03  0.85493813404E+03  0.00000000000E+00 0. -1.
         11    1    4    4    0    0  0.84590174036E+02 -0.81622843420E+02 -0.70003766175E+03  0.70983837173E+03  0.00000000000E+00 0.  1.
</event>
<event>
 8    1  0.7075056E-009  0.6960417E+02  0.7561462E-02  0.1361444E+00
          2   -1    0    0  501    0  0.00000000000E+00  0.00000000000E+00  0.11665089690E+03  0.11665089690E+03  0.00000000000E+00 0. -1.
         -2   -1    0    0    0  501 -0.00000000000E+00 -0.00000000000E+00 -0.11032164682E+03  0.11032164682E+03  0.00000000000E+00 0.  1.
         25    2    1    2    0    0  0.31067452018E+02 -0.68587817645E+01  0.12255152488E+02  0.12965452574E+03  0.12509147780E+03 0.  0.
         23    2    1    2    0    0 -0.31067452018E+02  0.68587817645E+01 -0.59259024020E+01  0.97318017982E+02  0.91779359567E+02 0.  0.
          5    1    3    3  502    0  0.16000537860E+02 -0.19312065240E+02  0.66846547201E+02  0.71518573450E+02  0.41800000000E+01 0. -1.
         -5    1    3    3    0  502  0.15066914158E+02  0.12453283475E+02 -0.54591394713E+02  0.58135952286E+02  0.41800000000E+01 0. -1.
        -11    1    4    4    0    0 -0.60703691384E+02  0.16005363631E+02  0.80625202111E+01  0.63293870515E+02  0.00000000000E+00 0. -1.
         11    1    4    4    0    0  0.29636239366E+02 -0.91465818663E+01 -0.13988422613E+02  0.34024147467E+02  0.00000000000E+00 0.  1.
</event>
<event>
 8    1  0.7075056E-009  0.1491835E+03  0.7561462E-02  0.1201480E+00
         -2   -1    0    0    0  501 -0.00000000000E+00  0.00000000000E+00  0.42858376885E+02  0.42858376885E+02  0.00000000000E+00 0.  1.
          2   -1    0    0  501    0  0.00000000000E+00 -0.00000000000E+00 -0.89872886603E+03  0.89872886603E+03  0.00000000000E+00 0. -1.
         25    2    1    2    0    0  0.10530382536E+03  0.11187329398E+02 -0.15006139978E+03  0.22221277725E+03  0.12508414246E+03 0.  0.
         23    2    1    2    0    0 -0.10530382536E+03 -0.11187329398E+02 -0.70580908936E+03  0.71937446566E+03  0.90106044443E+02 0.  0.
          5    1    3    3  502    0 -0.18667476901E+02 -0.23823143113E+02 -0.10663253173E+02  0.32360380249E+02  0.41800000000E+01 0.  1.
         -5    1    3    3    0  502  0.12397130226E+03  0.35010472511E+02 -0.13939814661E+03  0.18985239700E+03  0.41800000000E+01 0.  1.
        -11    1    4    4    0    0 -0.58773398626E+02 -0.50901828347E+02 -0.40962766681E+03  0.41694140347E+03  0.00000000000E+00 0.  1.
         11    1    4    4    0    0 -0.46530426733E+02  0.39714498949E+02 -0.29618142256E+03  0.30243306219E+03  0.00000000000E+00 0. -1.
</event>
<event>
 8    1  0.7075056E-009  0.2814571E+03  0.7561462E-02  0.1094896E+00
         -1   -1    0    0    0  501 -0.00000000000E+00  0.00000000000E+00  0.15191689864E+03  0.15191689864E+03  0.00000000000E+00 0.  1.
          1   -1    0    0  501    0  0.00000000000E+00 -0.00000000000E+00 -0.55053054171E+03  0.55053054171E+03  0.00000000000E+00 0. -1.
         25    2    1    2    0    0 -0.20988799749E+03 -0.16596188654E+03 -0.21903894899E+03  0.36772106142E+03  0.12507757021E+03 0.  0.
         23    2    1    2    0    0  0.20988799749E+03  0.16596188654E+03 -0.17957469408E+03  0.33472637893E+03  0.90544788504E+02 0.  0.
          5    1    3    3  502    0 -0.14048230257E+03 -0.48015572631E+02 -0.16091302040E+03  0.21897772737E+03  0.41800000000E+01 0.  1.
         -5    1    3    3    0  502 -0.69405694911E+02 -0.11794631391E+03 -0.58125928592E+02  0.14874333405E+03  0.41800000000E+01 0.  1.
        -11    1    4    4    0    0  0.81749592858E+02  0.21813766767E+02 -0.84946628473E+02  0.11989481241E+03  0.00000000000E+00 0. -1.
         11    1    4    4    0    0  0.12813840463E+03  0.14414811977E+03 -0.94628065604E+02  0.21483156652E+03  0.00000000000E+00 0.  1.
</event>
<event>
 8    1  0.7075056E-009  0.1182341E+03  0.7561462E-02  0.1246039E+00
          1   -1    0    0  501    0  0.00000000000E+00  0.00000000000E+00  0.11431964184E+03  0.11431964184E+03  0.00000000000E+00 0. -1.
         -1   -1    0    0    0  501 -0.00000000000E+00 -0.00000000000E+00 -0.18727154880E+03  0.18727154880E+03  0.00000000000E+00 0.  1.
         25    2    1    2    0    0  0.88652317106E+02  0.25204634656E+02 -0.75186283996E+02  0.17261129114E+03  0.12508866292E+03 0.  0.
         23    2    1    2    0    0 -0.88652317106E+02 -0.25204634656E+02  0.22343770363E+01  0.12897989950E+03  0.90201524919E+02 0.  0.
          5    1    3    3  502    0  0.94239546414E+02  0.53045397878E+02 -0.89593066336E+02  0.14049660594E+03  0.41800000000E+01 0.  1.
         -5    1    3    3    0  502 -0.55872293081E+01 -0.27840763222E+02  0.14406782340E+02  0.32114685201E+02  0.41800000000E+01 0.  1.
        -11    1    4    4    0    0 -0.58431241759E+02 -0.34584769132E+02  0.40706264164E+02  0.79166383090E+02  0.00000000000E+00 0. -1.
         11    1    4    4    0    0 -0.30221075347E+02  0.93801344765E+01 -0.38471887127E+02  0.49813516409E+02  0.00000000000E+00 0.  1.
</event>
<event>
 8    1  0.7075056E-009  0.9759023E+02  0.7561462E-02  0.1285447E+00
         -2   -1    0    0    0  501 -0.00000000000E+00  0.00000000000E+00  0.45323141100E+02  0.45323141100E+02  0.00000000000E+00 0.  1.
          2   -1    0    0  501    0  0.00000000000E+00 -0.00000000000E+00 -0.40550578922E+03  0.40550578922E+03  0.00000000000E+00 0. -1.
         25    2    1    2    0    0  0.28434583533E+02 -0.75368714425E+02 -0.18041962281E+03  0.23385789781E+03  0.12509719190E+03 0.  0.
         23    2    1    2    0    0 -0.28434583533E+02  0.75368714425E+02 -0.17976302532E+03  0.21697103251E+03  0.90954466756E+02 0.  0.
          5    1    3    3  502    0  0.24073455902E+01 -0.41434005392E+02 -0.18591529382E+03  0.19053750548E+03  0.41800000000E+01 0.  1.
         -5    1    3    3    0  502  0.26027237943E+02 -0.33934709033E+02  0.54956710180E+01  0.43320392335E+02  0.41800000000E+01 0.  1.
        -11    1    4    4    0    0  0.10520462981E+02  0.70450800024E+02 -0.67869272503E+02  0.98388177722E+02  0.00000000000E+00 0.  1.
         11    1    4    4    0    0 -0.38955046514E+02  0.49179144009E+01 -0.11189375282E+03  0.11858285479E+03  0.00000000000E+00 0. -1.
</event>
<event>
 8    1  0.7075056E-009  0.1027308E+03  0.7561462E-02  0.1274656E+00
          2   -1    0    0  501    0  0.00000000000E+00  0.00000000000E+00  0.12986146845E+03  0.12986146845E+03  0.00000000000E+00 0. -1.
         -2   -1    0    0    0  501 -0.00000000000E+00 -0.00000000000E+00 -0.12524640663E+03  0.12524640663E+03  0.00000000000E+00 0.  1.
         25    2    1    2    0    0  0.11724280763E+01 -0.62601286892E+02  0.25668984832E+02  0.14222666949E+03  0.12509689454E+03 0.  0.
         23    2    1    2    0    0 -0.11724280763E+01  0.62601286892E+02 -0.21053923009E+02  0.11288120559E+03  0.91534710319E+02 0.  0.
          5    1    3    3  502    0  0.23742747494E+02  0.12471146101E+02  0.52634813193E+02  0.59221140681E+02  0.41800000000E+01 0.  1.
         -5    1    3    3    0  502 -0.22570319418E+02 -0.75072432993E+02 -0.26965828362E+02  0.83005528812E+02  0.41800000000E+01 0.  1.
        -11    1    4    4    0    0 -0.97426352022E+01  0.79909877993E+02  0.47592566866E+01  0.80642160597E+02  0.00000000000E+00 0. -1.
         11    1    4    4    0    0  0.85702071259E+01 -0.17308591101E+02 -0.25813179696E+02  0.32239044993E+02  0.00000000000E+00 0.  1.
</event>
<event>
 8    1  0.7075056E-009  0.1061656E+03  0.7561462E-02  0.1267840E+00
         -2   -1    0    0    0  501 -0.00000000000E+00  0.00000000000E+00  0.63217290847E+02  0.63217290847E+02  0.00000000000E+00 0.  1.
          2   -1    0    0  501    0  0.00000000000E+00 -0.00000000000E+00 -0.28616103123E+03  0.28616103123E+03  0.00000000000E+00 0. -1.
         25    2    1    2    0    0  0.86462774844E+01 -0.23093429781E+01 -0.22569538613E+03  0.25819835537E+03  0.12509153535E+03 0.  0.
         23    2    1    2    0    0 -0.86462774844E+01  0.23093429781E+01  0.27516457487E+01  0.91179966705E+02  0.90697980102E+02 0.  0.
          5    1    3    3  502    0 -0.15048547025E+02  0.57152016263E+02 -0.85459418090E+02  0.10398844297E+03  0.41800000000E+01 0.  1.
         -5    1    3    3    0  502  0.23694824510E+02 -0.59461359241E+02 -0.14023596804E+03  0.15420991240E+03  0.41800000000E+01 0.  1.
        -11    1    4    4    0    0  0.36090824302E+02 -0.17383309803E+02 -0.86635971240E+01  0.40985179927E+02  0.00000000000E+00 0. -1.
         11    1    4    4    0    0 -0.44737101787E+02  0.19692652781E+02  0.11415242873E+02  0.50194786778E+02  0.00000000000E+00 0.  1.
</event>
<event>
 8    1  0.7075056E-009  0.1062613E+03  0.7561462E-02  0.1267654E+00
          4   -1    0    0  501    0  0.00000000000E+00  0.00000000000E+00  0.67984780655E+02  0.67984780655E+02  0.00000000000E+00 0. -1.
         -4   -1    0    0    0  501 -0.00000000000E+00 -0.00000000000E+00 -0.32441110147E+03  0.32441110147E+03  0.00000000000E+00 0.  1.
         25    2    1    2    0    0 -0.21266083690E+01  0.71346445832E+02 -0.23386717169E+03  0.27465664352E+03  0.12509028755E+03 0.  0.
         23    2    1    2    0    0  0.21266083690E+01 -0.71346445832E+02 -0.22559149121E+02  0.11773923860E+03  0.90877804225E+02 0.  0.
          5    1    3    3  502    0 -0.54531750404E+02  0.52821689691E+02 -0.18687473942E+03  0.20175104297E+03  0.41800000000E+01 0.  1.
         -5    1    3    3    0  502  0.52405142035E+02  0.18524756141E+02 -0.46992432267E+02  0.72905600554E+02  0.41800000000E+01 0.  1.
        -11    1    4    4    0    0  0.18751265926E+02 -0.23311159059E+02 -0.51270199052E+02  0.59360369114E+02  0.00000000000E+00 0.  1.
         11    1    4    4    0    0 -0.16624657557E+02 -0.48035286773E+02  0.28711049931E+02  0.58378869485E+02  0.00000000000E+00 0. -1.
</event>
<event>
 8    1  0.7075056E-009  0.8533625E+02  0.7561462E-02  0.1314556E+00
         -1   -1    0    0    0  501 -0.00000000000E+00  0.00000000000E+00  0.25715810924E+03  0.25715810924E+03  0.00000000000E+00 0.  1.
          1   -1    0    0  501    0  0.00000000000E+00 -0.00000000000E+00 -0.47260844755E+02  0.47260844755E+02  0.00000000000E+00 0. -1.
         25    2    1    2    0    0  0.94065304619E+01  0.15034154243E+02  0.12225325868E+03  0.17580700529E+03  0.12509090791E+03 0.  0.
         23    2    1    2    0    0 -0.94065304619E+01 -0.15034154243E+02  0.87644005805E+02  0.12861194871E+03  0.92439455796E+02 0.  0.
          5    1    3    3  502    0 -0.34679697579E+02  0.36172721296E+02  0.72924277734E+01  0.50811407114E+02  0.41800000000E+01 0. -1.
         -5    1    3    3    0  502  0.44086228041E+02 -0.21138567053E+02  0.11496083091E+03  0.12499559817E+03  0.41800000000E+01 0. -1.
        -11    1    4    4    0    0 -0.33981895929E+02  0.10803735306E+02  0.85789596542E+02  0.92905031200E+02  0.00000000000E+00 0.  1.
         11    1    4    4    0    0  0.24575365467E+02 -0.25837889549E+02  0.18544092630E+01  0.35706917508E+02  0.00000000000E+00 0. -1.
</event>
<event>
 8    1  0.7075056E-009  0.1685607E+03  0.7561462E-02  0.1179357E+00
          2   -1    0    0  501    0  0.00000000000E+00  0.00000000000E+00  0.47960929965E+03  0.47960929965E+03  0.00000000000E+00 0. -1.
         -2   -1    0    0    0  501 -0.00000000000E+00 -0.00000000000E+00 -0.10139660480E+03  0.10139660480E+03  0.00000000000E+00 0.  1.
         25    2    1    2    0    0 -0.71390078324E+02 -0.13664131543E+03  0.46159504258E+02  0.20382577509E+03  0.12508738703E+03 0.  0.
         23    2    1    2    0    0  0.71390078324E+02  0.13664131543E+03  0.33205319059E+03  0.37718012935E+03  0.90764179234E+02 0.  0.
          5    1    3    3  502    0  0.11188854823E+02 -0.14968352596E+02 -0.31962523717E+02  0.37260131160E+02  0.41800000000E+01 0.  1.
         -5    1    3    3    0  502 -0.82578933146E+02 -0.12167296283E+03  0.78122027975E+02  0.16656564394E+03  0.41800000000E+01 0.  1.
        -11    1    4    4    0    0 -0.13602156826E+02  0.39562498858E+02  0.13755298466E+03  0.14377424517E+03  0.00000000000E+00 0.  1.
         11    1    4    4    0    0  0.84992235149E+02  0.97078816573E+02  0.19450020593E+03  0.23340588418E+03  0.00000000000E+00 0. -1.
</event>
<event>
 8    1  0.7075056E-009  0.1719643E+03  0.7561462E-02  0.1175815E+00
         -1   -1    0    0    0  501 -0.00000000000E+00  0.00000000000E+00  0.21825516715E+03  0.21825516715E+03  0.00000000000E+00 0.  1.
          1   -1    0    0  501    0  0.00000000000E+00 -0.00000000000E+00 -0.17643229338E+03  0.17643229338E+03  0.00000000000E+00 0. -1.
         25    2    1    2    0    0 -0.13025781656E+03  0.81025172952E+02  0.77017146306E+02  0.21239480036E+03  0.12509089882E+03 0.  0.
         23    2    1    2    0    0  0.13025781656E+03 -0.81025172952E+02 -0.35194272535E+02  0.18229266017E+03  0.91977169485E+02 0.  0.
          5    1    3    3  502    0 -0.74337146297E+02  0.84528091280E+02  0.10101099800E+03  0.15130004511E+03  0.41800000000E+01 0. -1.
         -5    1    3    3    0  502 -0.55920670265E+02 -0.35029183284E+01 -0.23993851691E+02  0.61094755246E+02  0.41800000000E+01 0. -1.
        -11    1    4    4    0    0  0.53923930672E+02 -0.82723038875E+02 -0.38207112710E+02  0.10588047469E+03  0.00000000000E+00 0. -1.
         11    1    4    4    0    0  0.76333885890E+02  0.16978659230E+01  0.30128401748E+01  0.76412185479E+02  0.00000000000E+00 0.  1.
</event>
<event>
 8    1  0.7075056E-009  0.3119823E+03  0.7561462E-02  0.1079400E+00
         -2   -1    0    0    0  501 -0.00000000000E+00  0.00000000000E+00  0.15992873362E+03  0.15992873362E+03  0.00000000000E+00 0.  1.
          2   -1    0    0  501    0  0.00000000000E+00 -0.00000000000E+00 -0.61379067573E+03  0.61379067573E+03  0.00000000000E+00 0. -1.
         25    2    1    2    0    0  0.15878570268E+03 -0.24581746351E+03 -0.26492923705E+03  0.41409348403E+03  0.12508712218E+03 0.  0.
         23    2    1    2    0    0 -0.15878570268E+03  0.24581746351E+03 -0.18893270506E+03  0.35962592531E+03  0.89420995146E+02 0.  0.
          5    1    3    3  502    0  0.17856032784E+03 -0.23476105249E+03 -0.24970273585E+03  0.38647829323E+03  0.41800000000E+01 0.  1.
         -5    1    3    3    0  502 -0.19774625156E+02 -0.11056411019E+02 -0.15226501196E+02  0.27615190808E+02  0.41800000000E+01 0.  1.
        -11    1    4    4    0    0 -0.12980598239E+03  0.11980444151E+03 -0.10575599432E+03  0.20588110065E+03  0.00000000000E+00 0.  1.
         11    1    4    4    0    0 -0.28979720294E+02  0.12601302199E+03 -0.83176710747E+02  0.15374482467E+03  0.00000000000E+00 0. -1.
</event>
<event>
 8    1  0.7075056E-009  0.1512119E+03  0.7561462E-02  0.1198992E+00
         -1   -1    0    0    0  501 -0.00000000000E+00  0.00000000000E+00  0.46723728610E+02  0.46723728610E+02  0.00000000000E+00 0.  1.
          1   -1    0    0  501    0  0.00000000000E+00 -0.00000000000E+00 -0.70999902350E+03  0.70999902350E+03  0.00000000000E+00 0. -1.
         25    2    1    2    0    0  0.11497200539E+03 -0.46151177087E+02 -0.18889968422E+03  0.25821534581E+03  0.12507430170E+03 0.  0.
         23    2    1    2    0    0 -0.11497200539E+03  0.46151177087E+02 -0.47437561067E+03  0.49850740630E+03  0.90160528852E+02 0.  0.
          5    1    3    3  502    0 -0.16855262608E+02 -0.10229523948E+02  0.51961932447E+01  0.20813838234E+02  0.41800000000E+01 0. -1.
         -5    1    3    3    0  502  0.13182726800E+03 -0.35921653139E+02 -0.19409587746E+03  0.23740150758E+03  0.41800000000E+01 0. -1.
        -11    1    4    4    0    0 -0.54249402919E+02  0.62427189915E+02 -0.34349471553E+03  0.35331115374E+03  0.00000000000E+00 0.  1.
         11    1    4    4    0    0 -0.60722602473E+02 -0.16276012827E+02 -0.13088089514E+03  0.14519625256E+03  0.00000000000E+00 0. -1.
</event>
<event>
 8    1  0.7075056E-009  0.1531204E+03  0.7561462E-02  0.1196690E+00
          3   -1    0    0  501    0  0.00000000000E+00  0.00000000000E+00  0.60225365099E+02  0.60225365099E+02  0.00000000000E+00 0. -1.
         -3   -1    0    0    0  501 -0.00000000000E+00 -0.00000000000E+00 -0.42843234534E+03  0.42843234534E+03  0.00000000000E+00 0.  1.
         25    2    1    2    0    0 -0.46232073291E+02 -0.98001758928E+02 -0.13892886093E+03  0.21608062889E+03  0.12509140828E+03 0.  0.
         23    2    1    2    0    0  0.46232073291E+02  0.98001758928E+02 -0.22927811931E+03  0.27257708155E+03  0.99940282372E+02 0.  0.
          5    1    3    3  502    0  0.18999760604E+02  0.20458769212E+02 -0.37728657649E+02  0.47121928533E+02  0.41800000000E+01 0. -1.
         -5    1    3    3    0  502 -0.65231833895E+02 -0.11846052814E+03 -0.10120020328E+03  0.16895870035E+03  0.41800000000E+01 0. -1.
        -11    1    4    4    0    0 -0.96080025812E+00  0.95444192865E+02 -0.18318091126E+03  0.20655692517E+03  0.00000000000E+00 0. -1.
         11    1    4    4    0    0  0.47192873549E+02  0.25575660624E+01 -0.46097208049E+02  0.66020156376E+02  0.00000000000E+00 0.  1.
</event>
<event>
 8    1  0.7075056E-009  0.1197401E+03  0.7561462E-02  0.1243526E+00
         -3   -1    0    0    0  501 -0.00000000000E+00  0.00000000000E+00  0.10604430084E+03  0.10604430084E+03  0.00000000000E+00 0.  1.
          3   -1    0    0  501    0  0.00000000000E+00 -0.00000000000E+00 -0.16705307977E+03  0.16705307977E+03  0.00000000000E+00 0. -1.
         25    2    1    2    0    0  0.62549563107E+02  0.43510599575E+02 -0.26566485681E+02  0.14885466570E+03  0.12508522382E+03 0.  0.
         23    2    1    2    0    0 -0.62549563107E+02 -0.43510599575E+02 -0.34442293241E+02  0.12424271491E+03  0.91893201736E+02 0.  0.
          5    1    3    3  502    0  0.90378674971E+02 -0.45261894894E+00 -0.42829454341E+00  0.90477431383E+02  0.41800000000E+01 0. -1.
         -5    1    3    3    0  502 -0.27829111864E+02  0.43963218524E+02 -0.26138191137E+02  0.58377234313E+02  0.41800000000E+01 0. -1.
        -11    1    4    4    0    0 -0.28177981381E+02 -0.53965162676E+02  0.15405257115E+02  0.62797765598E+02  0.00000000000E+00 0.  1.
         11    1    4    4    0    0 -0.34371581726E+02  0.10454563101E+02 -0.49847550356E+02  0.61444949316E+02  0.00000000000E+00 0. -1.
</event>
<event>
 8    1  0.7075056E-009  0.8781609E+02  0.7561462E-02  0.1308228E+00
         -1   -1    0    0    0  501 -0.00000000000E+00  0.00000000000E+00  0.15917340181E+02  0.15917340181E+02  0.00000000000E+00 0.  1.
          1   -1    0    0  501    0  0.00000000000E+00 -0.00000000000E+00 -0.10319530381E+04  0.10319530381E+04  0.00000000000E+00 0. -1.
         25    2    1    2    0    0  0.36391034328E+02  0.20707348096E+02 -0.78460858475E+03  0.79562107684E+03  0.12509662264E+03 0.  0.
         23    2    1    2    0    0 -0.36391034328E+02 -0.20707348096E+02 -0.23142711320E+03  0.25224930148E+03  0.91203616855E+02 0.  0.
          5    1    3    3  502    0  0.15737817238E+02  0.43409488866E+02 -0.99057168458E+02  0.10937027767E+03  0.41800000000E+01 0.  1.
         -5    1    3    3    0  502  0.20653217089E+02 -0.22702140770E+02 -0.68555141630E+03  0.68625079917E+03  0.41800000000E+01 0.  1.
        -11    1    4    4    0    0 -0.78444390877E+01 -0.53926987574E+02 -0.15307447421E+03  0.16248522969E+03  0.00000000000E+00 0. -1.
         11    1    4    4    0    0 -0.28546595240E+02  0.33219639478E+02 -0.78352638991E+02  0.89764071786E+02  0.00000000000E+00 0.  1.
</event>
<event>
 8    1  0.7075056E-009  0.2500750E+03  0.7561462E-02  0.1113257E+00
         -1   -1    0    0    0  501 -0.00000000000E+00  0.00000000000E+00  0.44380025943E+02  0.44380025943E+02  0.00000000000E+00 0.  1.
          1   -1    0    0  501    0  0.00000000000E+00 -0.00000000000E+00 -0.16759464452E+04  0.16759464452E+04  0.00000000000E+00 0. -1.
         25    2    1    2    0    0 -0.23186259065E+03  0.15960382563E+02 -0.11263033895E+04  0.11568155964E+04  0.12509198256E+03 0.  0.
         23    2    1    2    0    0  0.23186259065E+03 -0.15960382563E+02 -0.50526302977E+03  0.56351087476E+03  0.90767736386E+02 0.  0.
          5    1    3    3  502    0 -0.18520958890E+03  0.62998500799E+02 -0.89713504013E+03  0.91822663626E+03  0.41800000000E+01 0.  1.
         -5    1    3    3    0  502 -0.46653001754E+02 -0.47038118236E+02 -0.22916834936E+03  0.23858896011E+03  0.41800000000E+01 0.  1.
        -11    1    4    4    0    0  0.12911461478E+03 -0.34594074656E+02 -0.36455279782E+03  0.38828607514E+03  0.00000000000E+00 0. -1.
         11    1    4    4    0    0  0.10274797587E+03  0.18633692093E+02 -0.14071023195E+03  0.17522479962E+03  0.00000000000E+00 0.  1.
</event>
<event>
 8    1  0.7075056E-009  0.1038377E+03  0.7561462E-02  0.1272427E+00
         -1   -1    0    0    0  501 -0.00000000000E+00  0.00000000000E+00  0.23415463628E+02  0.23415463628E+02  0.00000000000E+00 0.  1.
          1   -1    0    0  501    0  0.00000000000E+00 -0.00000000000E+00 -0.57376160738E+03  0.57376160738E+03  0.00000000000E+00 0. -1.
         25    2    1    2    0    0 -0.66589990732E+01  0.20896714972E+02 -0.39976731667E+03  0.41945479223E+03  0.12508956903E+03 0.  0.
         23    2    1    2    0    0  0.66589990732E+01 -0.20896714972E+02 -0.15057882708E+03  0.17772227878E+03  0.91816176375E+02 0.  0.
          5    1    3    3  502    0 -0.11636132036E+02  0.66311702499E+02 -0.13692534081E+03  0.15263899506E+03  0.41800000000E+01 0. -1.
         -5    1    3    3    0  502  0.49771329627E+01 -0.45414987527E+02 -0.26284197586E+03  0.26681579717E+03  0.41800000000E+01 0. -1.
        -11    1    4    4    0    0 -0.42665343709E+02 -0.10386235019E+02 -0.67033459953E+02  0.80135448990E+02  0.00000000000E+00 0. -1.
         11    1    4    4    0    0  0.49324342782E+02 -0.10510479953E+02 -0.83545367130E+02  0.97586829791E+02  0.00000000000E+00 0.  1.
</event>
<event>
 8    1  0.7075056E-009  0.3022559E+03  0.7561462E-02  0.1084118E+00
          1   -1    0    0  501    0  0.00000000000E+00  0.00000000000E+00  0.27194084113E+04  0.27194084113E+04  0.00000000000E+00 0. -1.
         -1   -1    0    0    0  501 -0.00000000000E+00 -0.00000000000E+00 -0.34816863809E+02  0.34816863809E+02  0.00000000000E+00 0.  1.
         25    2    1    2    0    0 -0.13042891307E+03  0.25350264216E+03  0.15384914017E+04  0.15696747373E+04  0.12509075465E+03 0.  0.
         23    2    1    2    0    0  0.13042891307E+03 -0.25350264216E+03  0.11461001458E+04  0.11845505378E+04  0.91318899861E+02 0.  0.
          5    1    3    3  502    0 -0.18522088588E+02  0.16750780084E+03  0.75865961480E+03  0.77716395609E+03  0.41800000000E+01 0.  1.
         -5    1    3    3    0  502 -0.11190682448E+03  0.85994841316E+02  0.77983178687E+03  0.79251078120E+03  0.41800000000E+01 0.  1.
        -11    1    4    4    0    0  0.25569236456E+02 -0.13105630865E+03  0.62407827464E+03  0.63820312970E+03  0.00000000000E+00 0.  1.
         11    1    4    4    0    0  0.10485967662E+03 -0.12244633350E+03  0.52202187117E+03  0.54634740811E+03  0.00000000000E+00 0. -1.
</event>
<event>
 8    1  0.7075056E-009  0.9557981E+02  0.7561462E-02  0.1289876E+00
         -1   -1    0    0    0  501 -0.00000000000E+00  0.00000000000E+00  0.11755489505E+03  0.11755489505E+03  0.00000000000E+00 0.  1.
          1   -1    0    0  501    0  0.00000000000E+00 -0.00000000000E+00 -0.11012540453E+03  0.11012540453E+03  0.00000000000E+00 0. -1.
         25    2    1    2    0    0 -0.27667870697E+02  0.11194589635E+02  0.20022824175E+01  0.12861620736E+03  0.12508912724E+03 0.  0.
         23    2    1    2    0    0  0.27667870697E+02 -0.11194589635E+02  0.54272081028E+01  0.99064092233E+02  0.94304877265E+02 0.  0.
          5    1    3    3  502    0 -0.75357872396E+02  0.28870404985E+01 -0.15255274330E+02  0.77054135059E+02  0.41800000000E+01 0.  1.
         -5    1    3    3    0  502  0.47690001698E+02  0.83075491363E+01  0.17257556747E+02  0.51562072297E+02  0.41800000000E+01 0.  1.
        -11    1    4    4    0    0  0.13431624569E+02 -0.36009980083E+02  0.39135560431E+02  0.54851793903E+02  0.00000000000E+00 0.  1.
         11    1    4    4    0    0  0.14236246128E+02  0.24815390448E+02 -0.33708352328E+02  0.44212298330E+02  0.00000000000E+00 0. -1.
</event>
<event>
 8    1  0.7075056E-009  0.3443513E+03  0.7561462E-02  0.1064958E+00
          2   -1    0    0  501    0  0.00000000000E+00  0.00000000000E+00  0.31079786794E+03  0.31079786794E+03  0.00000000000E+00 0.  1.
         -2   -1    0    0    0  501 -0.00000000000E+00 -0.00000000000E+00 -0.40264584512E+03  0.40264584512E+03  0.00000000000E+00 0. -1.
         25    2    1    2    0    0  0.25218901185E+03  0.21764754605E+03  0.62683321956E+01  0.35589054464E+03  0.12509610616E+03 0.  0.
         23    2    1    2    0    0 -0.25218901185E+03 -0.21764754605E+03 -0.98116309379E+02  0.35755316842E+03  0.85133460405E+02 0.  0.
          5    1    3    3  502    0  0.19084329078E+03  0.95642602240E+02  0.34781095884E+02  0.21632352167E+03  0.41800000000E+01 0.  1.
         -5    1    3    3    0  502  0.61345721078E+02  0.12200494380E+03 -0.28512763688E+02  0.13956702297E+03  0.41800000000E+01 0.  1.
        -11    1    4    4    0    0 -0.10052885402E+03 -0.49246177077E+02 -0.62305941581E+02  0.12811427244E+03  0.00000000000E+00 0. -1.
         11    1    4    4    0    0 -0.15166015783E+03 -0.16840136897E+03 -0.35810367798E+02  0.22943889597E+03  0.00000000000E+00 0.  1.
</event>
<event>
 8    1  0.7075056E-009  0.1571719E+03  0.7561462E-02  0.1191927E+00
         -2   -1    0    0    0  501 -0.00000000000E+00  0.00000000000E+00  0.14492715536E+03  0.14492715536E+03  0.00000000000E+00 0.  1.
          2   -1    0    0  501    0  0.00000000000E+00 -0.00000000000E+00 -0.21729869913E+03  0.21729869913E+03  0.00000000000E+00 0. -1.
         25    2    1    2    0    0 -0.13624082468E+03  0.22343689459E+02 -0.45691592091E+02  0.19182307275E+03  0.12509023496E+03 0.  0.
         23    2    1    2    0    0  0.13624082468E+03 -0.22343689459E+02 -0.26679951675E+02  0.17040278174E+03  0.96252197037E+02 0.  0.
          5    1    3    3  502    0  0.11232611038E+02 -0.10647123582E+02 -0.37085227672E+02  0.40401971521E+02  0.41800000000E+01 0.  1.
         -5    1    3    3    0  502 -0.14747343572E+03  0.32990813042E+02 -0.86063644196E+01  0.15142110123E+03  0.41800000000E+01 0.  1.
        -11    1    4    4    0    0  0.89168559971E+02 -0.38835317603E+02 -0.56314567223E+02  0.11238569510E+03  0.00000000000E+00 0. -1.
         11    1    4    4    0    0  0.47072264711E+02  0.16491628144E+02  0.29634615548E+02  0.58017086643E+02  0.00000000000E+00 0.  1.
</event>
<event>
 8    1  0.7075056E-009  0.2075461E+03  0.7561462E-02  0.1143524E+00
          2   -1    0    0  501    0  0.00000000000E+00  0.00000000000E+00  0.91222099555E+03  0.91222099555E+03  0.00000000000E+00 0. -1.
         -2   -1    0    0    0  501 -0.00000000000E+00 -0.00000000000E+00 -0.55026339066E+02  0.55026339066E+02  0.00000000000E+00 0.  1.
         25    2    1    2    0    0  0.10366781444E+03 -0.16175600025E+03  0.36618886607E+03  0.43203462179E+03  0.12509040502E+03 0.  0.
         23    2    1    2    0    0 -0.10366781444E+03  0.16175600025E+03  0.49100579042E+03  0.53521271283E+03  0.91945322779E+02 0.  0.
          5    1    3    3  502    0  0.78306816576E+02 -0.16192881635E+03  0.22286832729E+03  0.28642741279E+03  0.41800000000E+01 0.  1.
         -5    1    3    3    0  502  0.25360997862E+02  0.17281610492E+00  0.14332053877E+03  0.14560720900E+03  0.41800000000E+01 0.  1.
        -11    1    4    4    0    0 -0.11471952971E+03  0.11893062344E+03  0.42256339439E+03  0.45372335841E+03  0.00000000000E+00 0. -1.
         11    1    4    4    0    0  0.11051715269E+02  0.42825376812E+02  0.68442396024E+02  0.81489354415E+02  0.00000000000E+00 0.  1.
</event>
<event>
 8    1  0.7075056E-009  0.1289340E+03  0.7561462E-02  0.1229046E+00
         -2   -1    0    0    0  501 -0.00000000000E+00  0.00000000000E+00  0.32580085152E+02  0.32580085152E+02  0.00000000000E+00 0. -1.
          2   -1    0    0  501    0  0.00000000000E+00 -0.00000000000E+00 -0.76248806392E+03  0.76248806392E+03  0.00000000000E+00 0.  1.
         25    2    1    2    0    0 -0.15342477598E+02 -0.98284475311E+02 -0.25278948075E+03  0.29907500448E+03  0.12509239393E+03 0.  0.
         23    2    1    2    0    0  0.15342477598E+02  0.98284475311E+02 -0.47711849801E+03  0.49599314459E+03  0.92042971651E+02 0.  0.
          5    1    3    3  502    0 -0.46531816370E+02 -0.55552601860E+02 -0.23024627928E+03  0.24141690709E+03  0.41800000000E+01 0.  1.
         -5    1    3    3    0  502  0.31189338771E+02 -0.42731873451E+02 -0.22543201475E+02  0.57658097388E+02  0.41800000000E+01 0.  1.
        -11    1    4    4    0    0  0.34844103617E+02  0.30217158065E+01 -0.83237193846E+02  0.90286614527E+02  0.00000000000E+00 0.  1.
         11    1    4    4    0    0 -0.19501626019E+02  0.95262759504E+02 -0.39388130417E+03  0.40570653007E+03  0.00000000000E+00 0. -1.
</event>
<event>
 8    1  0.7075056E-009  0.8896422E+02  0.7561462E-02  0.1305380E+00
         -1   -1    0    0    0  501 -0.00000000000E+00  0.00000000000E+00  0.76633865583E+02  0.76633865583E+02  0.00000000000E+00 0.  1.
          1   -1    0    0  501    0  0.00000000000E+00 -0.00000000000E+00 -0.15358849283E+03  0.15358849283E+03  0.00000000000E+00 0. -1.
         25    2    1    2    0    0  0.65328564017E+01 -0.65860213087E+01 -0.38868721410E+02  0.13132049368E+03  0.12509292813E+03 0.  0.
         23    2    1    2    0    0 -0.65328564017E+01  0.65860213087E+01 -0.38085905840E+02  0.98901864732E+02  0.90801920324E+02 0.  0.
          5    1    3    3  502    0 -0.21106254043E+02  0.32571207266E+02 -0.65559771505E+02  0.76301464876E+02  0.41800000000E+01 0. -1.
         -5    1    3    3    0  502  0.27639110444E+02 -0.39157228575E+02  0.26691050095E+02  0.55019028808E+02  0.41800000000E+01 0. -1.
        -11    1    4    4    0    0 -0.98841553129E+00 -0.41933802263E+02 -0.22733981913E+02  0.47710110785E+02  0.00000000000E+00 0. -1.
         11    1    4    4    0    0 -0.55444408704E+01  0.48519823572E+02 -0.15351923927E+02  0.51191753948E+02  0.00000000000E+00 0.  1.
</event>
<event>
 8    1  0.7075056E-009  0.1096225E+03  0.7561462E-02  0.1261271E+00
         -3   -1    0    0    0  501 -0.00000000000E+00  0.00000000000E+00  0.23203309533E+02  0.23203309533E+02  0.00000000000E+00 0.  1.
          3   -1    0    0  501    0  0.00000000000E+00 -0.00000000000E+00 -0.54941645250E+03  0.54941645250E+03  0.00000000000E+00 0. -1.
         25    2    1    2    0    0  0.47582985418E+01 -0.35047854551E+02 -0.30820963951E+03  0.33450036685E+03  0.12508525100E+03 0.  0.
         23    2    1    2    0    0 -0.47582985418E+01  0.35047854551E+02 -0.21800350345E+03  0.23811939519E+03  0.89018679680E+02 0.  0.
          5    1    3    3  502    0 -0.48745622071E+02 -0.48078438710E+02 -0.21984393722E+03  0.23029655029E+03  0.41800000000E+01 0.  1.
         -5    1    3    3    0  502  0.53503920613E+02  0.13030584159E+02 -0.88365702290E+02  0.10420381656E+03  0.41800000000E+01 0.  1.
        -11    1    4    4    0    0 -0.32537899669E+02 -0.16788590360E+02 -0.73762696368E+02  0.82349906234E+02  0.00000000000E+00 0. -1.
         11    1    4    4    0    0  0.27779601127E+02  0.51836444911E+02 -0.14424080709E+03  0.15576948895E+03  0.00000000000E+00 0.  1.
</event>
<event>
 8    1  0.7075056E-009  0.6491778E+02  0.7561462E-02  0.1378281E+00
          3   -1    0    0  501    0  0.00000000000E+00  0.00000000000E+00  0.78039227137E+03  0.78039227137E+03  0.00000000000E+00 0. -1.
         -3   -1    0    0    0  501 -0.00000000000E+00 -0.00000000000E+00 -0.13963670024E+02  0.13963670024E+02  0.00000000000E+00 0.  1.
         25    2    1    2    0    0  0.17222174803E+02  0.10666303236E+02  0.44468297987E+03  0.46238589879E+03  0.12508954187E+03 0.  0.
         23    2    1    2    0    0 -0.17222174803E+02 -0.10666303236E+02  0.32174562148E+03  0.33197004261E+03  0.79205371771E+02 0.  0.
          5    1    3    3  502    0  0.11634632625E+02 -0.16469655147E+02  0.42057675344E+01  0.21018446601E+02  0.41800000000E+01 0. -1.
         -5    1    3    3    0  502  0.55875421781E+01  0.27135958383E+02  0.44047721234E+03  0.44136745219E+03  0.41800000000E+01 0. -1.
        -11    1    4    4    0    0 -0.40932446630E+02 -0.29902365313E+02  0.21859632211E+03  0.22439689989E+03  0.00000000000E+00 0.  1.
         11    1    4    4    0    0  0.23710271827E+02  0.19236062077E+02  0.10314929937E+03  0.10757314272E+03  0.00000000000E+00 0. -1.
</event>
<event>
 8    1  0.7075056E-009  0.1663717E+03  0.7561462E-02  0.1181685E+00
         -1   -1    0    0    0  501 -0.00000000000E+00  0.00000000000E+00  0.77098411233E+02  0.77098411233E+02  0.00000000000E+00 0.  1.
          1   -1    0    0  501    0  0.00000000000E+00 -0.00000000000E+00 -0.42685419383E+03  0.42685419383E+03  0.00000000000E+00 0. -1.
         25    2    1    2    0    0  0.91793662923E+02 -0.11192395934E+03 -0.20174888084E+03  0.27803435517E+03  0.12508973781E+03 0.  0.
         23    2    1    2    0    0 -0.91793662923E+02  0.11192395934E+03 -0.14800690176E+03  0.22591824990E+03  0.90443150327E+02 0.  0.
          5    1    3    3  502    0  0.82256223102E+02 -0.90956330124E+01 -0.58671001730E+02  0.10153115592E+03  0.41800000000E+01 0.  1.
         -5    1    3    3    0  502  0.95374398215E+01 -0.10282832633E+03 -0.14307787911E+03  0.17650319925E+03  0.41800000000E+01 0.  1.
        -11    1    4    4    0    0 -0.45925324058E+02  0.73607248797E+02 -0.14125486132E+03  0.16577122281E+03  0.00000000000E+00 0. -1.
         11    1    4    4    0    0 -0.45868338865E+02  0.38316710543E+02 -0.67520404361E+01  0.60147027085E+02  0.00000000000E+00 0.  1.
</event>
<event>
 8    1  0.7075056E-009  0.2426311E+03  0.7561462E-02  0.1118052E+00
          1   -1    0    0  501    0  0.00000000000E+00  0.00000000000E+00  0.83652308354E+03  0.83652308354E+03  0.00000000000E+00 0. -1.
         -1   -1    0    0    0  501 -0.00000000000E+00 -0.00000000000E+00 -0.78891194368E+02  0.78891194368E+02  0.00000000000E+00 0.  1.
         25    2    1    2    0    0  0.15033162316E+03 -0.16372161100E+03  0.51098744083E+03  0.57110512774E+03  0.12509412223E+03 0.  0.
         23    2    1    2    0    0 -0.15033162316E+03  0.16372161100E+03  0.24664444834E+03  0.34430915017E+03  0.91164379888E+02 0.  0.
          5    1    3    3  502    0 -0.13779240755E+02 -0.53242162997E+02  0.14340050165E+03  0.15364169899E+03  0.41800000000E+01 0. -1.
         -5    1    3    3    0  502  0.16411086391E+03 -0.11047944801E+03  0.36758693918E+03  0.41746342875E+03  0.41800000000E+01 0. -1.
        -11    1    4    4    0    0 -0.56407156568E+02  0.18655878600E+02  0.10591297807E+03  0.12143874193E+03  0.00000000000E+00 0. -1.
         11    1    4    4    0    0 -0.93924466588E+02  0.14506573240E+03  0.14073147027E+03  0.22287040824E+03  0.00000000000E+00 0.  1.
</event>
<event>
 8    1  0.7075056E-009  0.1095404E+03  0.7561462E-02  0.1261423E+00
          1   -1    0    0  501    0  0.00000000000E+00  0.00000000000E+00  0.80232050055E+03  0.80232050055E+03  0.00000000000E+00 0. -1.
         -1   -1    0    0    0  501 -0.00000000000E+00 -0.00000000000E+00 -0.18180621485E+02  0.18180621485E+02  0.00000000000E+00 0.  1.
         25    2    1    2    0    0  0.39655769969E+02  0.19830400837E+02  0.53773596199E+03  0.55387057816E+03  0.12508728009E+03 0.  0.
         23    2    1    2    0    0 -0.39655769969E+02 -0.19830400837E+02  0.24640391707E+03  0.26663054388E+03  0.91712222144E+02 0.  0.
          5    1    3    3  502    0  0.52231287545E+02  0.59653332627E+02  0.44569779703E+03  0.45271472935E+03  0.41800000000E+01 0.  1.
         -5    1    3    3    0  502 -0.12575517576E+02 -0.39822931790E+02  0.92038164966E+02  0.10115584881E+03  0.41800000000E+01 0.  1.
        -11    1    4    4    0    0 -0.65130514876E+02  0.47981767878E+00  0.19667615216E+03  0.20718041177E+03  0.00000000000E+00 0. -1.
         11    1    4    4    0    0  0.25474744908E+02 -0.20310218515E+02  0.49727764908E+02  0.59450132102E+02  0.00000000000E+00 0.  1.
</event>
<event>
 8    1  0.7075056E-009  0.1078439E+03  0.7561462E-02  0.1264616E+00
         -1   -1    0    0    0  501 -0.00000000000E+00  0.00000000000E+00  0.25892234828E+02  0.25892234828E+02  0.00000000000E+00 0.  1.
          1   -1    0    0  501    0  0.00000000000E+00 -0.00000000000E+00 -0.83395392741E+03  0.83395392741E+03  0.00000000000E+00 0. -1.
         25    2    1    2    0    0 -0.72493963839E+02 -0.47587777273E+02 -0.57131539005E+03  0.59124226882E+03  0.12508466813E+03 0.  0.
         23    2    1    2    0    0  0.72493963839E+02  0.47587777273E+02 -0.23674630254E+03  0.26860389342E+03  0.92624340509E+02 0.  0.
          5    1    3    3  502    0 -0.64481445445E+02 -0.33563803276E+02 -0.56986241077E+03  0.57449545281E+03  0.41800000000E+01 0.  1.
         -5    1    3    3    0  502 -0.80125183937E+01 -0.14023973998E+02 -0.14529792782E+01  0.16746816010E+02  0.41800000000E+01 0.  1.
        -11    1    4    4    0    0 -0.11386324895E+02 -0.16905466422E+02 -0.49473623761E+02  0.53507781094E+02  0.00000000000E+00 0. -1.
         11    1    4    4    0    0  0.83880288734E+02  0.64493243695E+02 -0.18727267878E+03  0.21509611233E+03  0.00000000000E+00 0.  1.
</event>
<event>
 8    1  0.7075056E-009  0.1082314E+03  0.7561462E-02  0.1263880E+00
         -1   -1    0    0    0  501 -0.00000000000E+00  0.00000000000E+00  0.43847377059E+03  0.43847377059E+03  0.00000000000E+00 0.  1.
          1   -1    0    0  501    0  0.00000000000E+00 -0.00000000000E+00 -0.32409607751E+02  0.32409607751E+02  0.00000000000E+00 0. -1.
         25    2    1    2    0    0 -0.50015393944E+01  0.44032365073E+02  0.27073067319E+03  0.30150739312E+03  0.12509095144E+03 0.  0.
         23    2    1    2    0    0  0.50015393944E+01 -0.44032365073E+02  0.13533348965E+03  0.16937598522E+03  0.91701725054E+02 0.  0.
          5    1    3    3  502    0  0.21732325516E+02 -0.30618507521E+02  0.30687559032E+02  0.48672226726E+02  0.41800000000E+01 0.  1.
         -5    1    3    3    0  502 -0.26733864911E+02  0.74650872595E+02  0.24004311416E+03  0.25283516640E+03  0.41800000000E+01 0.  1.
        -11    1    4    4    0    0 -0.40434367039E+02 -0.33813114866E+02  0.90505411610E+02  0.10473535366E+03  0.00000000000E+00 0. -1.
         11    1    4    4    0    0  0.45435906433E+02 -0.10219250207E+02  0.44828078045E+02  0.64640631567E+02  0.00000000000E+00 0.  1.
</event>
<event>
 8    1  0.7075056E-009  0.9668812E+02  0.7561462E-02  0.1287419E+00
         -1   -1    0    0    0  501 -0.00000000000E+00  0.00000000000E+00  0.20133554641E+03  0.20133554641E+03  0.00000000000E+00 0.  1.
          1   -1    0    0  501    0  0.00000000000E+00 -0.00000000000E+00 -0.87526765472E+02  0.87526765472E+02  0.00000000000E+00 0. -1.
         25    2    1    2    0    0 -0.68017861913E+02  0.39069333919E+00  0.25388127263E+02  0.14463134897E+03  0.12508832047E+03 0.  0.
         23    2    1    2    0    0  0.68017861913E+02 -0.39069333919E+00  0.88420653671E+02  0.14423096291E+03  0.91420875546E+02 0.  0.
          5    1    3    3  502    0  0.86154316645E+00  0.89284889663E+01  0.64228516202E+02  0.64986420623E+02  0.41800000000E+01 0. -1.
         -5    1    3    3    0  502 -0.68879405080E+02 -0.85377956271E+01 -0.38840388939E+02  0.79644928346E+02  0.41800000000E+01 0. -1.
        -11    1    4    4    0    0  0.73904991085E+01  0.40273582706E+02  0.32073602063E+02  0.52012468605E+02  0.00000000000E+00 0. -1.
         11    1    4    4    0    0  0.60627362805E+02 -0.40664276045E+02  0.56347051608E+02  0.92218494305E+02  0.00000000000E+00 0.  1.
</event>
<event>
 8    1  0.7075056E-009  0.8566317E+02  0.7561462E-02  0.1313707E+00
          2   -1    0    0  501    0  0.00000000000E+00  0.00000000000E+00  0.84970360118E+02  0.84970360118E+02  0.00000000000E+00 0. -1.
         -2   -1    0    0    0  501 -0.00000000000E+00 -0.00000000000E+00 -0.15060545892E+03  0.15060545892E+03  0.00000000000E+00 0.  1.
         25    2    1    2    0    0  0.12803910259E+02 -0.23678902185E+02 -0.18822537757E+02  0.12933340416E+03  0.12509280946E+03 0.  0.
         23    2    1    2    0    0 -0.12803910259E+02  0.23678902185E+02 -0.46812561043E+02  0.10624241487E+03  0.91495378678E+02 0.  0.
          5    1    3    3  502    0  0.37791079561E+02  0.34758952699E+02 -0.36614903972E+02  0.63201851872E+02  0.41800000000E+01 0. -1.
         -5    1    3    3    0  502 -0.24987169302E+02 -0.58437854884E+02  0.17792366215E+02  0.66131552293E+02  0.41800000000E+01 0. -1.
        -11    1    4    4    0    0  0.16442297695E+02 -0.27842477693E+01 -0.61829358810E+02  0.64038822600E+02  0.00000000000E+00 0.  1.
         11    1    4    4    0    0 -0.29246207955E+02  0.26463149954E+02  0.15016797768E+02  0.42203592269E+02  0.00000000000E+00 0. -1.
</event>
<event>
 8    1  0.7075056E-009  0.6744816E+02  0.7561462E-02  0.1368992E+00
         -2   -1    0    0    0  501 -0.00000000000E+00  0.00000000000E+00  0.69462698703E+02  0.69462698703E+02  0.00000000000E+00 0. -1.
          2   -1    0    0  501    0  0.00000000000E+00 -0.00000000000E+00 -0.19222222044E+03  0.19222222044E+03  0.00000000000E+00 0.  1.
         25    2    1    2    0    0  0.36921454116E+01  0.38976967997E+01 -0.24361608196E+02  0.12756434761E+03  0.12510136230E+03 0.  0.
         23    2    1    2    0    0 -0.36921454116E+01 -0.38976967997E+01 -0.98397913540E+02  0.13412057153E+03  0.90979966700E+02 0.  0.
          5    1    3    3  502    0 -0.16414857978E+02  0.14578368302E+02  0.47269256686E+02  0.52286053709E+02  0.41800000000E+01 0. -1.
         -5    1    3    3    0  502  0.20107003389E+02 -0.10680671503E+02 -0.71630864883E+02  0.75278293903E+02  0.41800000000E+01 0. -1.
        -11    1    4    4    0    0  0.37769615289E+02  0.18737157837E+02 -0.59526611694E+02  0.72945475683E+02  0.00000000000E+00 0.  1.
         11    1    4    4    0    0 -0.41461760701E+02 -0.22634854636E+02 -0.38871301846E+02  0.61175095848E+02  0.00000000000E+00 0. -1.
</event>
<event>
 8    1  0.7075056E-009  0.2233072E+03  0.7561462E-02  0.1131441E+00
         -2   -1    0    0    0  501 -0.00000000000E+00  0.00000000000E+00  0.21171742140E+03  0.21171742140E+03  0.00000000000E+00 0.  1.
          2   -1    0    0  501    0  0.00000000000E+00 -0.00000000000E+00 -0.34238332917E+03  0.34238332917E+03  0.00000000000E+00 0. -1.
         25    2    1    2    0    0 -0.28414504650E+02 -0.21580555053E+03 -0.18540489513E+03  0.31209377349E+03  0.12509248020E+03 0.  0.
         23    2    1    2    0    0  0.28414504650E+02  0.21580555053E+03  0.54738987350E+02  0.24200697708E+03  0.90507461039E+02 0.  0.
          5    1    3    3  502    0 -0.36802409618E+02 -0.10278138358E+03 -0.16341191098E+03  0.19656895791E+03  0.41800000000E+01 0.  1.
         -5    1    3    3    0  502  0.83879049678E+01 -0.11302416694E+03 -0.21992984148E+02  0.11552481558E+03  0.41800000000E+01 0.  1.
        -11    1    4    4    0    0  0.43368002686E+02  0.13570123937E+03  0.70588773973E+02  0.15899177662E+03  0.00000000000E+00 0.  1.
         11    1    4    4    0    0 -0.14953498036E+02  0.80104311161E+02 -0.15849786623E+02  0.83015200452E+02  0.00000000000E+00 0. -1.
</event>
<event>
 8    1  0.7075056E-009  0.9418132E+02  0.7561462E-02  0.1293031E+00
         -1   -1    0    0    0  501 -0.00000000000E+00  0.00000000000E+00  0.50591376887E+02  0.50591376887E+02  0.00000000000E+00 0.  1.
          1   -1    0    0  501    0  0.00000000000E+00 -0.00000000000E+00 -0.26815874803E+03  0.26815874803E+03  0.00000000000E+00 0. -1.
         25    2    1    2    0    0  0.24624326599E+02  0.15395572416E+02 -0.84747846944E+02  0.15386196798E+03  0.12509167245E+03 0.  0.
         23    2    1    2    0    0 -0.24624326599E+02 -0.15395572416E+02 -0.13281952419E+03  0.16488815694E+03  0.93293607392E+02 0.  0.
          5    1    3    3  502    0  0.60397838484E+02  0.45957470528E+02 -0.30420737544E+02  0.81871128388E+02  0.41800000000E+01 0.  1.
         -5    1    3    3    0  502 -0.35773511884E+02 -0.30561898112E+02 -0.54327109400E+02  0.71990839587E+02  0.41800000000E+01 0.  1.
        -11    1    4    4    0    0  0.17960648326E+02  0.38763392389E+01  0.52593556761E+01  0.19112082993E+02  0.00000000000E+00 0. -1.
         11    1    4    4    0    0 -0.42584974926E+02 -0.19271911655E+02 -0.13807887987E+03  0.14577607394E+03  0.00000000000E+00 0.  1.
</event>
<event>
 8    1  0.7075056E-009  0.1246183E+03  0.7561462E-02  0.1235667E+00
          1   -1    0    0  501    0  0.00000000000E+00  0.00000000000E+00  0.25422257477E+02  0.25422257477E+02  0.00000000000E+00 0. -1.
         -1   -1    0    0    0  501 -0.00000000000E+00 -0.00000000000E+00 -0.82510426687E+03  0.82510426687E+03  0.00000000000E+00 0.  1.
         25    2    1    2    0    0 -0.76295803687E+02  0.54998205522E+02 -0.38985125046E+03  0.42009256446E+03  0.12509161827E+03 0.  0.
         23    2    1    2    0    0  0.76295803687E+02 -0.54998205522E+02 -0.40983075893E+03  0.43043395988E+03  0.92012447979E+02 0.  0.
          5    1    3    3  502    0  0.27355579586E+02 -0.13579403540E+02 -0.10129320670E+03  0.10587971505E+03  0.41800000000E+01 0. -1.
         -5    1    3    3    0  502 -0.10365138327E+03  0.68577609062E+02 -0.28855804376E+03  0.31421284941E+03  0.41800000000E+01 0. -1.
        -11    1    4    4    0    0  0.61146514911E+02 -0.44537325099E+02 -0.40414806156E+03  0.41116678523E+03  0.00000000000E+00 0.  1.
         11    1    4    4    0    0  0.15149288776E+02 -0.10460880424E+02 -0.56826973687E+01  0.19267174651E+02  0.00000000000E+00 0. -1.
</event>
<event>
 8    1  0.7075056E-009  0.7360472E+02  0.7561462E-02  0.1348247E+00
         -1   -1    0    0    0  501 -0.00000000000E+00  0.00000000000E+00  0.22395206625E+03  0.22395206625E+03  0.00000000000E+00 0.  1.
          1   -1    0    0  501    0  0.00000000000E+00 -0.00000000000E+00 -0.63510198459E+02  0.63510198459E+02  0.00000000000E+00 0. -1.
         25    2    1    2    0    0  0.21276509329E+02 -0.42111041037E+02  0.11938360045E+03  0.17923550733E+03  0.12508754296E+03 0.  0.
         23    2    1    2    0    0 -0.21276509329E+02  0.42111041037E+02  0.41058267339E+02  0.10822675738E+03  0.88324515681E+02 0.  0.
          5    1    3    3  502    0  0.19206891697E+02 -0.37652292764E+02 -0.14738091338E+02  0.44958687429E+02  0.41800000000E+01 0.  1.
         -5    1    3    3    0  502  0.20696176318E+01 -0.44587482737E+01  0.13412169179E+03  0.13427681990E+03  0.41800000000E+01 0.  1.
        -11    1    4    4    0    0  0.33442450394E+02  0.10319384843E+02  0.24779423034E+02  0.42882478914E+02  0.00000000000E+00 0.  1.
         11    1    4    4    0    0 -0.54718959723E+02  0.31791656195E+02  0.16278844305E+02  0.65344278469E+02  0.00000000000E+00 0. -1.
</event>
<event>
 8    1  0.7075056E-009  0.1667540E+03  0.7561462E-02  0.1181276E+00
         -1   -1    0    0    0  501 -0.00000000000E+00  0.00000000000E+00  0.81502379223E+03  0.81502379223E+03  0.00000000000E+00 0.  1.
          1   -1    0    0  501    0  0.00000000000E+00 -0.00000000000E+00 -0.43640616890E+02  0.43640616890E+02  0.00000000000E+00 0. -1.
         25    2    1    2    0    0  0.13977533838E+03 -0.43505098647E+02  0.53388688827E+03  0.56754995633E+03  0.12509158502E+03 0.  0.
         23    2    1    2    0    0 -0.13977533838E+03  0.43505098647E+02  0.23749628708E+03  0.29111445279E+03  0.83146253185E+02 0.  0.
          5    1    3    3  502    0 -0.52195756146E+00 -0.46337415179E+02  0.20016108489E+03  0.20549783646E+03  0.41800000000E+01 0.  1.
         -5    1    3    3    0  502  0.14029729595E+03  0.28323165316E+01  0.33372580338E+03  0.36205211987E+03  0.41800000000E+01 0.  1.
        -11    1    4    4    0    0 -0.37034451439E+02  0.15114070804E+02  0.12108140238E+02  0.41792257532E+02  0.00000000000E+00 0. -1.
         11    1    4    4    0    0 -0.10274088695E+03  0.28391027843E+02  0.22538814684E+03  0.24932219526E+03  0.00000000000E+00 0.  1.
</event>
<event>
 8    1  0.7075056E-009  0.1091825E+03  0.7561462E-02  0.1262091E+00
          2   -1    0    0  501    0  0.00000000000E+00  0.00000000000E+00  0.10643893536E+04  0.10643893536E+04  0.00000000000E+00 0. -1.
         -2   -1    0    0    0  501 -0.00000000000E+00 -0.00000000000E+00 -0.12113180720E+02  0.12113180720E+02  0.00000000000E+00 0.  1.
         25    2    1    2    0    0  0.27709173888E+02 -0.26904305578E+02  0.61216664925E+03  0.62600788576E+03  0.12508487757E+03 0.  0.
         23    2    1    2    0    0 -0.27709173888E+02  0.26904305578E+02  0.44010952362E+03  0.45049464856E+03  0.88076078590E+02 0.  0.
          5    1    3    3  502    0  0.73856955674E+02 -0.75332675466E+01  0.45429732028E+03  0.46034240260E+03  0.41800000000E+01 0.  1.
         -5    1    3    3    0  502 -0.46147781785E+02 -0.19371038031E+02  0.15786932897E+03  0.16566548316E+03  0.41800000000E+01 0.  1.
        -11    1    4    4    0    0 -0.84121975108E+01  0.57227179245E+02  0.31748774441E+03  0.32271377870E+03  0.00000000000E+00 0. -1.
         11    1    4    4    0    0 -0.19296976378E+02 -0.30322873667E+02  0.12262177921E+03  0.12778086986E+03  0.00000000000E+00 0.  1.
</event>
<event>
 8    1  0.7075056E-009  0.2462793E+03  0.7561462E-02  0.1115679E+00
         -2   -1    0    0    0  501 -0.00000000000E+00  0.00000000000E+00  0.59280266652E+02  0.59280266652E+02  0.00000000000E+00 0.  1.
          2   -1    0    0  501    0  0.00000000000E+00 -0.00000000000E+00 -0.12400902190E+04  0.12400902190E+04  0.00000000000E+00 0. -1.
         25    2    1    2    0    0  0.10421251635E+03  0.20940325028E+03 -0.79868105007E+03  0.84157517295E+03  0.12508949677E+03 0.  0.
         23    2    1    2    0    0 -0.10421251635E+03 -0.20940325028E+03 -0.38212890225E+03  0.45779531267E+03  0.94042971947E+02 0.  0.
          5    1    3    3  502    0  0.83089620930E+02  0.10454361527E+03 -0.61168634860E+03  0.62610774956E+03  0.41800000000E+01 0.  1.
         -5    1    3    3    0  502  0.21122895420E+02  0.10485963501E+03 -0.18699470147E+03  0.21546742339E+03  0.41800000000E+01 0.  1.
        -11    1    4    4    0    0 -0.29801777529E+02 -0.15961481679E+03 -0.23761322901E+03  0.28779347158E+03  0.00000000000E+00 0. -1.
         11    1    4    4    0    0 -0.74410738821E+02 -0.49788433493E+02 -0.14451567324E+03  0.17000184109E+03  0.00000000000E+00 0.  1.
</event>
<event>
 8    1  0.7075056E-009  0.3910863E+03  0.7561462E-02  0.1046911E+00
          1   -1    0    0  501    0  0.00000000000E+00  0.00000000000E+00  0.20852416849E+03  0.20852416849E+03  0.00000000000E+00 0. -1.
         -1   -1    0    0    0  501 -0.00000000000E+00 -0.00000000000E+00 -0.77415040144E+03  0.77415040144E+03  0.00000000000E+00 0.  1.
         25    2    1    2    0    0 -0.17050112868E+03 -0.34240506634E+03 -0.21663199810E+03  0.45704353992E+03  0.12509000940E+03 0.  0.
         23    2    1    2    0    0  0.17050112868E+03  0.34240506634E+03 -0.34899423485E+03  0.52563103001E+03  0.90438594717E+02 0.  0.
          5    1    3    3  502    0 -0.39297880401E+02 -0.17371075767E+03 -0.15074174634E+03  0.23336730111E+03  0.41800000000E+01 0.  1.
         -5    1    3    3    0  502 -0.13120324828E+03 -0.16869430867E+03 -0.65890251754E+02  0.22367623881E+03  0.41800000000E+01 0.  1.
        -11    1    4    4    0    0  0.21802621098E+02  0.12494457359E+03 -0.85013974690E+02  0.15268882294E+03  0.00000000000E+00 0.  1.
         11    1    4    4    0    0  0.14869850758E+03  0.21746049275E+03 -0.26398026016E+03  0.37294220707E+03  0.00000000000E+00 0. -1.
</event>
<event>
 8    1  0.7075056E-009  0.1342950E+03  0.7561462E-02  0.1221218E+00
          2   -1    0    0  501    0  0.00000000000E+00  0.00000000000E+00  0.55189013388E+03  0.55189013388E+03  0.00000000000E+00 0.  1.
         -2   -1    0    0    0  501 -0.00000000000E+00 -0.00000000000E+00 -0.41769373966E+02  0.41769373966E+02  0.00000000000E+00 0. -1.
         25    2    1    2    0    0 -0.75189296372E+02  0.45721949650E+02  0.39021147101E+03  0.41911326948E+03  0.12508802331E+03 0.  0.
         23    2    1    2    0    0  0.75189296372E+02 -0.45721949650E+02  0.11990928890E+03  0.17454623837E+03  0.91346728426E+02 0.  0.
          5    1    3    3  502    0 -0.98414718339E+02  0.67131058048E+02  0.33201032759E+03  0.35276106045E+03  0.41800000000E+01 0.  1.
         -5    1    3    3    0  502  0.23225421967E+02 -0.21409108398E+02  0.58201143418E+02  0.66352209029E+02  0.41800000000E+01 0.  1.
        -11    1    4    4    0    0 -0.15727035018E+02 -0.14511555254E+02  0.53754218371E+02  0.57857072680E+02  0.00000000000E+00 0.  1.
         11    1    4    4    0    0  0.90916331391E+02 -0.31210394396E+02  0.66155070532E+02  0.11668916569E+03  0.00000000000E+00 0. -1.
</event>
<event>
 8    1  0.7075056E-009  0.1359875E+03  0.7561462E-02  0.1218832E+00
         -1   -1    0    0    0  501 -0.00000000000E+00  0.00000000000E+00  0.31074526852E+02  0.31074526852E+02  0.00000000000E+00 0.  1.
          1   -1    0    0  501    0  0.00000000000E+00 -0.00000000000E+00 -0.69074228204E+03  0.69074228204E+03  0.00000000000E+00 0. -1.
         25    2    1    2    0    0  0.82500590551E+02  0.49152097930E+02 -0.36250591284E+03  0.39532269232E+03  0.12508884062E+03 0.  0.
         23    2    1    2    0    0 -0.82500590551E+02 -0.49152097930E+02 -0.29716184234E+03  0.32649411656E+03  0.95241647595E+02 0.  0.
          5    1    3    3  502    0  0.57874655356E+02  0.88006452983E+02 -0.29713269749E+03  0.31527753459E+03  0.41800000000E+01 0. -1.
         -5    1    3    3    0  502  0.24625935195E+02 -0.38854355054E+02 -0.65373215357E+02  0.80045157736E+02  0.41800000000E+01 0. -1.
        -11    1    4    4    0    0  0.66464392382E+01 -0.27960192738E+02 -0.15299954875E+03  0.15567533347E+03  0.00000000000E+00 0. -1.
         11    1    4    4    0    0 -0.89147029789E+02 -0.21191905192E+02 -0.14416229359E+03  0.17081878310E+03  0.00000000000E+00 0.  1.
</event>
<event>
 8    1  0.7075056E-009  0.1366150E+03  0.7561462E-02  0.1217958E+00
         -2   -1    0    0    0  501 -0.00000000000E+00  0.00000000000E+00  0.28465048182E+02  0.28465048182E+02  0.00000000000E+00 0.  1.
          2   -1    0    0  501    0  0.00000000000E+00 -0.00000000000E+00 -0.10198161567E+04  0.10198161567E+04  0.00000000000E+00 0. -1.
         25    2    1    2    0    0 -0.89253289186E+02  0.52492602808E+02 -0.27991806371E+03  0.32360987967E+03  0.12509040271E+03 0.  0.
         23    2    1    2    0    0  0.89253289186E+02 -0.52492602808E+02 -0.71143304482E+03  0.72467132522E+03  0.91049049198E+02 0.  0.
          5    1    3    3  502    0 -0.10561738742E+03  0.30641342739E+02 -0.27412512897E+03  0.29539123742E+03  0.41800000000E+01 0. -1.
         -5    1    3    3    0  502  0.16364098238E+02  0.21851260069E+02 -0.57929347421E+01  0.28218642254E+02  0.41800000000E+01 0. -1.
        -11    1    4    4    0    0  0.10673975101E+03 -0.50095193154E+02 -0.65547303235E+03  0.66599384303E+03  0.00000000000E+00 0.  1.
         11    1    4    4    0    0 -0.17486461827E+02 -0.23974096534E+01 -0.55960012470E+02  0.58677482188E+02  0.00000000000E+00 0. -1.
</event>
<event>
 8    1  0.7075056E-009  0.9232874E+02  0.7561462E-02  0.1297308E+00
         -1   -1    0    0    0  501 -0.00000000000E+00  0.00000000000E+00  0.11246049702E+03  0.11246049702E+03  0.00000000000E+00 0.  1.
          1   -1    0    0  501    0  0.00000000000E+00 -0.00000000000E+00 -0.14380974257E+03  0.14380974257E+03  0.00000000000E+00 0. -1.
         25    2    1    2    0    0 -0.32484430035E+02 -0.36566641261E+02  0.28656194428E+02  0.13733637508E+03  0.12509094689E+03 0.  0.
         23    2    1    2    0    0  0.32484430035E+02  0.36566641261E+02 -0.60005439977E+02  0.11893386451E+03  0.90289832493E+02 0.  0.
          5    1    3    3  502    0  0.18244762378E+02  0.74566730697E+01  0.59857563554E+02  0.63157530367E+02  0.41800000000E+01 0.  1.
         -5    1    3    3    0  502 -0.50729192413E+02 -0.44023314330E+02 -0.31201369126E+02  0.74178844712E+02  0.41800000000E+01 0.  1.
        -11    1    4    4    0    0  0.40181491863E+02 -0.16611216604E+02 -0.81039517902E+01  0.44228484487E+02  0.00000000000E+00 0. -1.
         11    1    4    4    0    0 -0.76970618280E+01  0.53177857864E+02 -0.51901488187E+02  0.74705380019E+02  0.00000000000E+00 0.  1.
</event>
<event>
 8    1  0.7075056E-009  0.9711738E+02  0.7561462E-02  0.1286477E+00
         -1   -1    0    0    0  501 -0.00000000000E+00  0.00000000000E+00  0.79737588007E+03  0.79737588007E+03  0.00000000000E+00 0.  1.
          1   -1    0    0  501    0  0.00000000000E+00 -0.00000000000E+00 -0.14877869212E+02  0.14877869212E+02  0.00000000000E+00 0. -1.
         25    2    1    2    0    0 -0.13767501593E+02  0.88074630957E+01  0.50484037994E+03  0.52036449899E+03  0.12509311369E+03 0.  0.
         23    2    1    2    0    0  0.13767501593E+02 -0.88074630957E+01  0.27765763092E+03  0.29188925029E+03  0.88535071692E+02 0.  0.
          5    1    3    3  502    0  0.13211818506E+02  0.51881149275E+02  0.11178230324E+03  0.12401194102E+03  0.41800000000E+01 0.  1.
         -5    1    3    3    0  502 -0.26979320099E+02 -0.43073686179E+02  0.39305807670E+03  0.39635255797E+03  0.41800000000E+01 0.  1.
        -11    1    4    4    0    0 -0.34228226516E+02  0.13266565545E+02  0.99101047892E+02  0.10568155442E+03  0.00000000000E+00 0. -1.
         11    1    4    4    0    0  0.47995728109E+02 -0.22074028641E+02  0.17855658303E+03  0.18620769587E+03  0.00000000000E+00 0.  1.
</event>
<event>
 8    1  0.7075056E-009  0.1007969E+03  0.7561462E-02  0.1278629E+00
          2   -1    0    0  501    0  0.00000000000E+00  0.00000000000E+00  0.19977836829E+03  0.19977836829E+03  0.00000000000E+00 0. -1.
         -2   -1    0    0    0  501 -0.00000000000E+00 -0.00000000000E+00 -0.67182972133E+02  0.67182972133E+02  0.00000000000E+00 0.  1.
         25    2    1    2    0    0  0.38860710154E+02  0.22624276734E+02  0.69264978143E+02  0.14988815445E+03  0.12508720541E+03 0.  0.
         23    2    1    2    0    0 -0.38860710154E+02 -0.22624276734E+02  0.63330418012E+02  0.11707318597E+03  0.87597810108E+02 0.  0.
          5    1    3    3  502    0  0.45542827479E+02 -0.30480665843E+02  0.78078669189E+02  0.95482831480E+02  0.41800000000E+01 0. -1.
         -5    1    3    3    0  502 -0.66821173251E+01  0.53104942577E+02 -0.88136910469E+01  0.54405322974E+02  0.41800000000E+01 0. -1.
        -11    1    4    4    0    0 -0.10652130090E+02 -0.51493347227E+02  0.16202299301E+02  0.55023151370E+02  0.00000000000E+00 0. -1.
         11    1    4    4    0    0 -0.28208580064E+02  0.28869070493E+02  0.47128118711E+02  0.62050034598E+02  0.00000000000E+00 0.  1.
</event>
<event>
 8    1  0.7075056E-009  0.1607469E+03  0.7561462E-02  0.1187856E+00
          2   -1    0    0  501    0  0.00000000000E+00  0.00000000000E+00  0.56041536736E+03  0.56041536736E+03  0.00000000000E+00 0. -1.
         -2   -1    0    0    0  501 -0.00000000000E+00 -0.00000000000E+00 -0.92693523220E+02  0.92693523220E+02  0.00000000000E+00 0.  1.
         25    2    1    2    0    0  0.12662270884E+03  0.84260461423E+02  0.55867172987E+02  0.20469831976E+03  0.12508847006E+03 0.  0.
         23    2    1    2    0    0 -0.12662270884E+03 -0.84260461423E+02  0.41185467115E+03  0.44841057082E+03  0.91184615602E+02 0.  0.
          5    1    3    3  502    0  0.10827060368E+03  0.77795809121E+02  0.92973284258E+02  0.16259217547E+03  0.41800000000E+01 0.  1.
         -5    1    3    3    0  502  0.18352105154E+02  0.64646523021E+01 -0.37106111271E+02  0.42106144286E+02  0.41800000000E+01 0.  1.
        -11    1    4    4    0    0 -0.53331269977E+02 -0.78212181635E+02  0.15868679125E+03  0.18477788675E+03  0.00000000000E+00 0.  1.
         11    1    4    4    0    0 -0.73291438861E+02 -0.60482797879E+01  0.25316787990E+03  0.26363268407E+03  0.00000000000E+00 0. -1.
</event>
<event>
 8    1  0.7075056E-009  0.1410542E+03  0.7561462E-02  0.1211917E+00
         -3   -1    0    0    0  501 -0.00000000000E+00  0.00000000000E+00  0.26762135952E+03  0.26762135952E+03  0.00000000000E+00 0. -1.
          3   -1    0    0  501    0  0.00000000000E+00 -0.00000000000E+00 -0.90843501336E+02  0.90843501336E+02  0.00000000000E+00 0.  1.
         25    2    1    2    0    0  0.53006091099E+02  0.83557464681E+02  0.15465904207E+03  0.22216474171E+03  0.12508500137E+03 0.  0.
         23    2    1    2    0    0 -0.53006091099E+02 -0.83557464681E+02  0.22118816111E+02  0.13630011914E+03  0.91087786528E+02 0.  0.
          5    1    3    3  502    0  0.90783043800E+02  0.51940968979E+02  0.76374154936E+02  0.12957588218E+03  0.41800000000E+01 0. -1.
         -5    1    3    3    0  502 -0.37776952701E+02  0.31616495701E+02  0.78284887134E+02  0.92588859532E+02  0.41800000000E+01 0. -1.
        -11    1    4    4    0    0  0.18423707792E+02 -0.40746288772E+02 -0.12007909880E+02  0.46302083724E+02  0.00000000000E+00 0.  1.
         11    1    4    4    0    0 -0.71429798891E+02 -0.42811175909E+02  0.34126725991E+02  0.89998035419E+02  0.00000000000E+00 0. -1.
</event>
<event>
 8    1  0.7075056E-009  0.5516892E+02  0.7561462E-02  0.1419302E+00
         -1   -1    0    0    0  501 -0.00000000000E+00  0.00000000000E+00  0.68152420410E+02  0.68152420410E+02  0.00000000000E+00 0.  1.
          1   -1    0    0  501    0  0.00000000000E+00 -0.00000000000E+00 -0.21929695379E+03  0.21929695379E+03  0.00000000000E+00 0. -1.
         25    2    1    2    0    0  0.51542711361E+02  0.12478047478E+02 -0.61405960765E+02  0.14909745521E+03  0.12508799450E+03 0.  0.
         23    2    1    2    0    0 -0.51542711361E+02 -0.12478047478E+02 -0.89738572615E+02  0.13835191899E+03  0.90971914958E+02 0.  0.
          5    1    3    3  502    0  0.14954333230E+02 -0.53012334776E+01  0.38118166017E+02  0.41499423360E+02  0.41800000000E+01 0. -1.
         -5    1    3    3    0  502  0.36588378131E+02  0.17779280955E+02 -0.99524126781E+02  0.10759803185E+03  0.41800000000E+01 0. -1.
        -11    1    4    4    0    0 -0.20166380863E+02 -0.45131323030E+01  0.17033521929E+02  0.26780443417E+02  0.00000000000E+00 0.  1.
         11    1    4    4    0    0 -0.31376330498E+02 -0.79649151749E+01 -0.10677209454E+03  0.11157147558E+03  0.00000000000E+00 0. -1.
</event>
<event>
 8    1  0.7075056E-009  0.8519440E+02  0.7561462E-02  0.1314925E+00
         -1   -1    0    0    0  501 -0.00000000000E+00  0.00000000000E+00  0.42996158030E+03  0.42996158030E+03  0.00000000000E+00 0.  1.
          1   -1    0    0  501    0  0.00000000000E+00 -0.00000000000E+00 -0.34203740146E+02  0.34203740146E+02  0.00000000000E+00 0. -1.
         25    2    1    2    0    0 -0.23812880147E+02  0.48051666759E+02  0.23655747775E+03  0.27291659744E+03  0.12509201790E+03 0.  0.
         23    2    1    2    0    0  0.23812880147E+02 -0.48051666759E+02  0.15920036241E+03  0.19124872300E+03  0.91407345003E+02 0.  0.
          5    1    3    3  502    0  0.19181517643E+02  0.30267982154E+02  0.46788563107E+01  0.36379189919E+02  0.41800000000E+01 0.  1.
         -5    1    3    3    0  502 -0.42994397791E+02  0.17783684605E+02  0.23187862144E+03  0.23653740752E+03  0.41800000000E+01 0.  1.
        -11    1    4    4    0    0  0.40288277345E+02 -0.39057891060E+01  0.21759989029E+02  0.45955387090E+02  0.00000000000E+00 0. -1.
         11    1    4    4    0    0 -0.16475397198E+02 -0.44145877653E+02  0.13744037338E+03  0.14529333591E+03  0.00000000000E+00 0.  1.
</event>
<event>
 8    1  0.7075056E-009  0.8064487E+02  0.7561462E-02  0.1327231E+00
          2   -1    0    0  501    0  0.00000000000E+00  0.00000000000E+00  0.43022929183E+03  0.43022929183E+03  0.00000000000E+00 0. -1.
         -2   -1    0    0    0  501 -0.00000000000E+00 -0.00000000000E+00 -0.41414127232E+02  0.41414127232E+02  0.00000000000E+00 0.  1.
         25    2    1    2    0    0 -0.27463812702E+02 -0.17173017950E+02  0.84914985292E+02  0.15461992994E+03  0.12509034517E+03 0.  0.
         23    2    1    2    0    0  0.27463812702E+02  0.17173017950E+02  0.30390017930E+03  0.31702348912E+03  0.84257938011E+02 0.  0.
          5    1    3    3  502    0 -0.20099803637E+02  0.25379816539E+02  0.10267441469E+03  0.10773878144E+03  0.41800000000E+01 0.  1.
         -5    1    3    3    0  502 -0.73640090654E+01 -0.42552834489E+02 -0.17759429397E+02  0.46881148504E+02  0.41800000000E+01 0.  1.
        -11    1    4    4    0    0 -0.21134379245E+02 -0.15923144755E+02  0.51920281329E+02  0.58274558241E+02  0.00000000000E+00 0.  1.
         11    1    4    4    0    0  0.48598191947E+02  0.33096162705E+02  0.25197989797E+03  0.25874893088E+03  0.00000000000E+00 0. -1.
</event>
<event>
 8    1  0.7075056E-009  0.1182453E+03  0.7561462E-02  0.1246020E+00
         -1   -1    0    0    0  501 -0.00000000000E+00  0.00000000000E+00  0.23271953420E+02  0.23271953420E+02  0.00000000000E+00 0.  1.
          1   -1    0    0  501    0  0.00000000000E+00 -0.00000000000E+00 -0.69311969881E+03  0.69311969881E+03  0.00000000000E+00 0. -1.
         25    2    1    2    0    0  0.24265748201E+02 -0.60931822193E+02 -0.37393445659E+03  0.39971955963E+03  0.12508890851E+03 0.  0.
         23    2    1    2    0    0 -0.24265748201E+02  0.60931822193E+02 -0.29591328880E+03  0.31667209260E+03  0.91733452201E+02 0.  0.
          5    1    3    3  502    0  0.24284584793E+02  0.35008408925E+02 -0.15167872480E+03  0.15760468810E+03  0.41800000000E+01 0.  1.
         -5    1    3    3    0  502 -0.18836591844E-01 -0.95940231118E+02 -0.22225573180E+03  0.24211487153E+03  0.41800000000E+01 0.  1.
        -11    1    4    4    0    0 -0.45528522279E+02  0.16563296925E+02 -0.67907412612E+02  0.83418258394E+02  0.00000000000E+00 0.  1.
         11    1    4    4    0    0  0.21262774078E+02  0.44368525268E+02 -0.22800587619E+03  0.23325383421E+03  0.00000000000E+00 0. -1.
</event>
<event>
 8    1  0.7075056E-009  0.8421638E+02  0.7561462E-02  0.1317495E+00
          1   -1    0    0  501    0  0.00000000000E+00  0.00000000000E+00  0.20657995844E+04  0.20657995844E+04  0.00000000000E+00 0. -1.
         -1   -1    0    0    0  501 -0.00000000000E+00 -0.00000000000E+00 -0.11314922286E+02  0.11314922286E+02  0.00000000000E+00 0.  1.
         25    2    1    2    0    0 -0.40574243547E+02  0.34943899320E+02  0.17585798819E+04  0.17638358533E+04  0.12508545496E+03 0.  0.
         23    2    1    2    0    0  0.40574243547E+02 -0.34943899320E+02  0.29590478027E+03  0.31327865343E+03  0.87843783919E+02 0.  0.
          5    1    3    3  502    0 -0.76293424384E+01  0.36024361932E+02  0.16469269101E+04  0.16473438261E+04  0.41800000000E+01 0. -1.
         -5    1    3    3    0  502 -0.32944901109E+02 -0.10804626117E+01  0.11165297175E+03  0.11649202724E+03  0.41800000000E+01 0. -1.
        -11    1    4    4    0    0  0.53647484863E+02  0.71013758243E+01  0.11505648544E+03  0.12714746168E+03  0.00000000000E+00 0.  1.
         11    1    4    4    0    0 -0.13073241316E+02 -0.42045275144E+02  0.18084829483E+03  0.18613119175E+03  0.00000000000E+00 0. -1.
</event>
<event>
 8    1  0.7075056E-009  0.1320957E+03  0.7561462E-02  0.1224379E+00
         -2   -1    0    0    0  501 -0.00000000000E+00  0.00000000000E+00  0.11471477309E+02  0.11471477309E+02  0.00000000000E+00 0.  1.
          2   -1    0    0  501    0  0.00000000000E+00 -0.00000000000E+00 -0.24113736659E+04  0.24113736659E+04  0.00000000000E+00 0. -1.
         25    2    1    2    0    0 -0.31098542427E+02 -0.85049307474E+02 -0.19096494466E+04  0.19158833041E+04  0.12508925580E+03 0.  0.
         23    2    1    2    0    0  0.31098542427E+02  0.85049307474E+02 -0.49025274190E+03  0.50696183904E+03  0.91989408389E+02 0.  0.
          5    1    3    3  502    0  0.41217161327E+02 -0.51653431137E+02 -0.11869328069E+04  0.11887783191E+04  0.41800000000E+01 0.  1.
         -5    1    3    3    0  502 -0.72315703754E+02 -0.33395876336E+02 -0.72271663973E+03  0.72710498507E+03  0.41800000000E+01 0.  1.
        -11    1    4    4    0    0  0.50567892098E+02  0.27719793401E+02 -0.34191282291E+03  0.34674180182E+03  0.00000000000E+00 0. -1.
         11    1    4    4    0    0 -0.19469349671E+02  0.57329514073E+02 -0.14833991899E+03  0.16022003722E+03  0.00000000000E+00 0.  1.
</event>
<event>
 8    1  0.7075056E-009  0.8791399E+02  0.7561462E-02  0.1307983E+00
          2   -1    0    0  501    0  0.00000000000E+00  0.00000000000E+00  0.13650074655E+03  0.13650074655E+03  0.00000000000E+00 0. -1.
         -2   -1    0    0    0  501 -0.00000000000E+00 -0.00000000000E+00 -0.15809697229E+03  0.15809697229E+03  0.00000000000E+00 0.  1.
         25    2    1    2    0    0 -0.50824685286E+02 -0.52323406088E+02 -0.77498956388E+02  0.16423752030E+03  0.12508791858E+03 0.  0.
         23    2    1    2    0    0  0.50824685286E+02  0.52323406088E+02  0.55902730650E+02  0.13036019853E+03  0.92454197355E+02 0.  0.
          5    1    3    3  502    0  0.12551548287E+02 -0.38423542105E+01 -0.83009731616E+02  0.84145071117E+02  0.41800000000E+01 0.  1.
         -5    1    3    3    0  502 -0.63376233572E+02 -0.48481051878E+02  0.55107752274E+01  0.80092449186E+02  0.41800000000E+01 0.  1.
        -11    1    4    4    0    0  0.32896853379E+01  0.29026647684E+02 -0.21721814400E+02  0.36403372457E+02  0.00000000000E+00 0.  1.
         11    1    4    4    0    0  0.47534999948E+02  0.23296758405E+02  0.77624545051E+02  0.93956826077E+02  0.00000000000E+00 0. -1.
</event>
<event>
 8    1  0.7075056E-009  0.8643010E+02  0.7561462E-02  0.1311734E+00
          3   -1    0    0  501    0  0.00000000000E+00  0.00000000000E+00  0.61204185876E+02  0.61204185876E+02  0.00000000000E+00 0. -1.
         -3   -1    0    0    0  501 -0.00000000000E+00 -0.00000000000E+00 -0.21043430951E+03  0.21043430951E+03  0.00000000000E+00 0.  1.
         25    2    1    2    0    0  0.24105832271E+02  0.24861284582E+02 -0.97363159253E+02  0.16225558198E+03  0.12509242376E+03 0.  0.
         23    2    1    2    0    0 -0.24105832271E+02 -0.24861284582E+02 -0.51866964384E+02  0.10938291341E+03  0.89862478997E+02 0.  0.
          5    1    3    3  502    0  0.53053582561E+02  0.62208926394E+02 -0.68359955871E+02  0.10665453161E+03  0.41800000000E+01 0. -1.
         -5    1    3    3    0  502 -0.28947750290E+02 -0.37347641812E+02 -0.29003203382E+02  0.55601050369E+02  0.41800000000E+01 0. -1.
        -11    1    4    4    0    0 -0.13679314137E+02  0.28286110435E+01 -0.72163266590E+02  0.73502800767E+02  0.00000000000E+00 0.  1.
         11    1    4    4    0    0 -0.10426518135E+02 -0.27689895626E+02  0.20296302206E+02  0.35880112645E+02  0.00000000000E+00 0. -1.
</event>
<event>
 8    1  0.7075056E-009  0.9991723E+02  0.7561462E-02  0.1280470E+00
         -1   -1    0    0    0  501 -0.00000000000E+00  0.00000000000E+00  0.64071532917E+02  0.64071532917E+02  0.00000000000E+00 0.  1.
          1   -1    0    0  501    0  0.00000000000E+00 -0.00000000000E+00 -0.21226394302E+03  0.21226394302E+03  0.00000000000E+00 0. -1.
         25    2    1    2    0    0 -0.41368288795E+02 -0.11471817971E+01 -0.91574142354E+02  0.16045083621E+03  0.12508395561E+03 0.  0.
         23    2    1    2    0    0  0.41368288795E+02  0.11471817971E+01 -0.56618267752E+02  0.11588463973E+03  0.92254919311E+02 0.  0.
          5    1    3    3  502    0  0.25916701100E+02 -0.27804890776E+02  0.61942215332E+01  0.38737941703E+02  0.41800000000E+01 0.  1.
         -5    1    3    3    0  502 -0.67284989896E+02  0.26657708979E+02 -0.97768363887E+02  0.12171289451E+03  0.41800000000E+01 0.  1.
        -11    1    4    4    0    0  0.64254296707E+02  0.90508966669E+01 -0.63421252643E+02  0.90734715863E+02  0.00000000000E+00 0. -1.
         11    1    4    4    0    0 -0.22886007912E+02 -0.79037148698E+01  0.68029848913E+01  0.25149923863E+02  0.00000000000E+00 0.  1.
</event>
<event>
 8    1  0.7075056E-009  0.1299260E+03  0.7561462E-02  0.1227566E+00
         -2   -1    0    0    0  501 -0.00000000000E+00  0.00000000000E+00  0.11799949711E+04  0.11799949711E+04  0.00000000000E+00 0.  1.
          2   -1    0    0  501    0  0.00000000000E+00 -0.00000000000E+00 -0.21557943548E+02  0.21557943548E+02  0.00000000000E+00 0. -1.
         25    2    1    2    0    0  0.78187128886E+02 -0.87206246301E+02  0.68309596661E+03  0.70426275873E+03  0.12509107574E+03 0.  0.
         23    2    1    2    0    0 -0.78187128886E+02  0.87206246301E+02  0.47534106098E+03  0.49729015595E+03  0.87351121523E+02 0.  0.
          5    1    3    3  502    0 -0.10232073554E+01 -0.11743366589E+02  0.59080755619E-01  0.12507178045E+02  0.41800000000E+01 0.  1.
         -5    1    3    3    0  502  0.79210336242E+02 -0.75462879712E+02  0.68303688585E+03  0.69175558069E+03  0.41800000000E+01 0.  1.
        -11    1    4    4    0    0 -0.46412665797E+02  0.14790448641E+01  0.24697772074E+03  0.25130522808E+03  0.00000000000E+00 0.  1.
         11    1    4    4    0    0 -0.31774463090E+02  0.85727201437E+02  0.22836334024E+03  0.24598492787E+03  0.00000000000E+00 0. -1.
</event>
<event>
 8    1  0.7075056E-009  0.9903240E+02  0.7561462E-02  0.1282344E+00
         -2   -1    0    0    0  501 -0.00000000000E+00  0.00000000000E+00  0.21808744740E+02  0.21808744740E+02  0.00000000000E+00 0.  1.
          2   -1    0    0  501    0  0.00000000000E+00 -0.00000000000E+00 -0.98199838097E+03  0.98199838097E+03  0.00000000000E+00 0. -1.
         25    2    1    2    0    0  0.45787747037E+02 -0.50178365827E+02 -0.76286507566E+03  0.77603157295E+03  0.12508993715E+03 0.  0.
         23    2    1    2    0    0 -0.45787747037E+02  0.50178365827E+02 -0.19732456057E+03  0.22777555276E+03  0.91270663719E+02 0.  0.
          5    1    3    3  502    0  0.76463954844E+02 -0.53246263535E+02 -0.69671762108E+03  0.70293301025E+03  0.41800000000E+01 0.  1.
         -5    1    3    3    0  502 -0.30676207807E+02  0.30678977084E+01 -0.66147454581E+02  0.73098562704E+02  0.41800000000E+01 0.  1.
        -11    1    4    4    0    0 -0.25250296743E+02  0.75329663006E+01 -0.15886158686E+01  0.26397855353E+02  0.00000000000E+00 0.  1.
         11    1    4    4    0    0 -0.20537450294E+02  0.42645399526E+02 -0.19573594470E+03  0.20137769740E+03  0.00000000000E+00 0. -1.
</event>
<event>
 8    1  0.7075056E-009  0.2401894E+03  0.7561462E-02  0.1119667E+00
         -1   -1    0    0    0  501 -0.00000000000E+00  0.00000000000E+00  0.32988386526E+02  0.32988386526E+02  0.00000000000E+00 0.  1.
          1   -1    0    0  501    0  0.00000000000E+00 -0.00000000000E+00 -0.20016637110E+04  0.20016637110E+04  0.00000000000E+00 0. -1.
         25    2    1    2    0    0  0.16988023768E+03 -0.14515104754E+03 -0.12652080145E+04  0.12908633602E+04  0.12509505656E+03 0.  0.
         23    2    1    2    0    0 -0.16988023768E+03  0.14515104754E+03 -0.70346731002E+03  0.74378873730E+03  0.91800368806E+02 0.  0.
          5    1    3    3  502    0  0.57809667898E+02 -0.13044495921E+03 -0.67862937117E+03  0.69347901259E+03  0.41800000000E+01 0.  1.
         -5    1    3    3    0  502  0.11207056978E+03 -0.14706088337E+02 -0.58657864330E+03  0.59738434765E+03  0.41800000000E+01 0.  1.
        -11    1    4    4    0    0 -0.75374790668E+02  0.78876188200E+02 -0.48032439876E+03  0.49255897126E+03  0.00000000000E+00 0. -1.
         11    1    4    4    0    0 -0.94505447007E+02  0.66274859344E+02 -0.22314291126E+03  0.25122976604E+03  0.00000000000E+00 0.  1.
</event>
<event>
 8    1  0.7075056E-009  0.1155982E+03  0.7561462E-02  0.1250540E+00
          2   -1    0    0  501    0  0.00000000000E+00  0.00000000000E+00  0.14182410133E+04  0.14182410133E+04  0.00000000000E+00 0. -1.
         -2   -1    0    0    0  501 -0.00000000000E+00 -0.00000000000E+00 -0.14753962230E+02  0.14753962230E+02  0.00000000000E+00 0.  1.
         25    2    1    2    0    0  0.36886753863E+02 -0.92396709786E+02  0.77301305953E+03  0.78936357473E+03  0.12509147984E+03 0.  0.
         23    2    1    2    0    0 -0.36886753863E+02  0.92396709786E+02  0.63047399154E+03  0.64363140080E+03  0.82862183708E+02 0.  0.
          5    1    3    3  502    0  0.36078203676E+01 -0.42871904378E+02  0.60561109213E+02  0.74405220932E+02  0.41800000000E+01 0.  1.
         -5    1    3    3    0  502  0.33278933496E+02 -0.49524805408E+02  0.71245195031E+03  0.71495835380E+03  0.41800000000E+01 0.  1.
        -11    1    4    4    0    0  0.20374742409E+02  0.57728021929E+02  0.34721992169E+03  0.35257528085E+03  0.00000000000E+00 0.  1.
         11    1    4    4    0    0 -0.57261496273E+02  0.34668687857E+02  0.28325406985E+03  0.29105611995E+03  0.00000000000E+00 0. -1.
</event>
<event>
 8    1  0.7075056E-009  0.1061111E+03  0.7561462E-02  0.1267946E+00
          1   -1    0    0  501    0  0.00000000000E+00  0.00000000000E+00  0.76207599411E+02  0.76207599411E+02  0.00000000000E+00 0. -1.
         -1   -1    0    0    0  501 -0.00000000000E+00 -0.00000000000E+00 -0.25150286298E+03  0.25150286298E+03  0.00000000000E+00 0.  1.
         25    2    1    2    0    0  0.32855909736E+02  0.58886919084E+02 -0.16844629029E+03  0.22038533771E+03  0.12509342237E+03 0.  0.
         23    2    1    2    0    0 -0.32855909736E+02 -0.58886919084E+02 -0.68489732779E+01  0.10732512468E+03  0.83214144888E+02 0.  0.
          5    1    3    3  502    0  0.81304629541E+01  0.76668630508E+02 -0.37420773249E+02  0.85801923069E+02  0.41800000000E+01 0.  1.
         -5    1    3    3    0  502  0.24725446782E+02 -0.17781711423E+02 -0.13102551704E+03  0.13458341464E+03  0.41800000000E+01 0.  1.
        -11    1    4    4    0    0  0.52841300301E+01  0.17829020192E+02 -0.10901617032E+02  0.21555538618E+02  0.00000000000E+00 0.  1.
         11    1    4    4    0    0 -0.38140039766E+02 -0.76715939277E+02  0.40526437540E+01  0.85769586065E+02  0.00000000000E+00 0. -1.
</event>
<event>
 8    1  0.7075056E-009  0.1079367E+03  0.7561462E-02  0.1264439E+00
          3   -1    0    0  501    0  0.00000000000E+00  0.00000000000E+00  0.12075785526E+04  0.12075785526E+04  0.00000000000E+00 0. -1.
         -3   -1    0    0    0  501 -0.00000000000E+00 -0.00000000000E+00 -0.97308986775E+01  0.97308986775E+01  0.00000000000E+00 0.  1.
         25    2    1    2    0    0  0.25504237448E+01 -0.56629215646E+00  0.74300146548E+03  0.75346258246E+03  0.12509140707E+03 0.  0.
         23    2    1    2    0    0 -0.25504237448E+01  0.56629215646E+00  0.45484618846E+03  0.46384686883E+03  0.90895749174E+02 0.  0.
          5    1    3    3  502    0 -0.61067944854E+02 -0.24481577198E+01  0.37710423293E+03  0.38204759162E+03  0.41800000000E+01 0.  1.
         -5    1    3    3    0  502  0.63618368599E+02  0.18818655634E+01  0.36589723255E+03  0.37141499085E+03  0.41800000000E+01 0.  1.
        -11    1    4    4    0    0 -0.99715916289E+01 -0.44272523516E+02  0.21622519977E+03  0.22093624871E+03  0.00000000000E+00 0.  1.
         11    1    4    4    0    0  0.74211678841E+01  0.44838815673E+02  0.23862098869E+03  0.24291062012E+03  0.00000000000E+00 0. -1.
</event>
<event>
 8    1  0.7075056E-009  0.1015347E+03  0.7561462E-02  0.1277101E+00
         -1   -1    0    0    0  501 -0.00000000000E+00  0.00000000000E+00  0.63919804893E+03  0.63919804893E+03  0.00000000000E+00 0.  1.
          1   -1    0    0  501    0  0.00000000000E+00 -0.00000000000E+00 -0.22044868995E+02  0.22044868995E+02  0.00000000000E+00 0. -1.
         25    2    1    2    0    0  0.44867867323E+01  0.12184377245E+02  0.21825493428E+03  0.25189998952E+03  0.12509915300E+03 0.  0.
         23    2    1    2    0    0 -0.44867867323E+01 -0.12184377245E+02  0.39889824566E+03  0.40934292840E+03  0.90957310535E+02 0.  0.
          5    1    3    3  502    0  0.44167471698E+02 -0.30172925298E+02  0.16319741302E+03  0.17179068367E+03  0.41800000000E+01 0. -1.
         -5    1    3    3    0  502 -0.39680684966E+02  0.42357302543E+02  0.55057521253E+02  0.80109305856E+02  0.41800000000E+01 0. -1.
        -11    1    4    4    0    0  0.45091322397E+00  0.39401400161E+02  0.14853462918E+03  0.15367241042E+03  0.00000000000E+00 0. -1.
         11    1    4    4    0    0 -0.49376999563E+01 -0.51585777406E+02  0.25036361648E+03  0.25567051799E+03  0.00000000000E+00 0.  1.
</event>
<event>
 8    1  0.7075056E-009  0.8155763E+02  0.7561462E-02  0.1324688E+00
          1   -1    0    0  501    0  0.00000000000E+00  0.00000000000E+00  0.47544041603E+03  0.47544041603E+03  0.00000000000E+00 0. -1.
         -1   -1    0    0    0  501 -0.00000000000E+00 -0.00000000000E+00 -0.27893720692E+02  0.27893720692E+02  0.00000000000E+00 0.  1.
         25    2    1    2    0    0  0.27542964341E+02 -0.17056834411E+02  0.20809256695E+03  0.24494819232E+03  0.12509016755E+03 0.  0.
         23    2    1    2    0    0 -0.27542964341E+02  0.17056834411E+02  0.23945412839E+03  0.25838594440E+03  0.91517573041E+02 0.  0.
          5    1    3    3  502    0  0.14487340888E+02  0.30029493715E+02  0.18957078587E+03  0.19252586526E+03  0.41800000000E+01 0.  1.
         -5    1    3    3    0  502  0.13055623453E+02 -0.47086328127E+02  0.18521781076E+02  0.52422327061E+02  0.41800000000E+01 0.  1.
        -11    1    4    4    0    0  0.21295635034E+02  0.22915294833E+02  0.30392378932E+02  0.43615496167E+02  0.00000000000E+00 0.  1.
         11    1    4    4    0    0 -0.48838599375E+02 -0.58584604214E+01  0.20906174946E+03  0.21477044823E+03  0.00000000000E+00 0. -1.
</event>
<event>
 8    1  0.7075056E-009  0.9580277E+02  0.7561462E-02  0.1289378E+00
          4   -1    0    0  501    0  0.00000000000E+00  0.00000000000E+00  0.70167387712E+03  0.70167387712E+03  0.00000000000E+00 0. -1.
         -4   -1    0    0    0  501 -0.00000000000E+00 -0.00000000000E+00 -0.21709495837E+02  0.21709495837E+02  0.00000000000E+00 0.  1.
         25    2    1    2    0    0 -0.21313632239E+02  0.52427473189E+02  0.41382636262E+03  0.43600777328E+03  0.12509040372E+03 0.  0.
         23    2    1    2    0    0  0.21313632239E+02 -0.52427473189E+02  0.26613801866E+03  0.28737559967E+03  0.92479075710E+02 0.  0.
          5    1    3    3  502    0  0.31207669491E+02 -0.21284657956E+02  0.20314258326E+03  0.20666721277E+03  0.41800000000E+01 0. -1.
         -5    1    3    3    0  502 -0.52521301730E+02  0.73712131145E+02  0.21068377936E+03  0.22934056052E+03  0.41800000000E+01 0. -1.
        -11    1    4    4    0    0  0.28066213390E+02 -0.44088352603E+02  0.27071219971E+03  0.27571106296E+03  0.00000000000E+00 0. -1.
         11    1    4    4    0    0 -0.67525811511E+01 -0.83391205863E+01 -0.45741810461E+01  0.11664536707E+02  0.00000000000E+00 0.  1.
</event>
<event>
 8    1  0.7075056E-009  0.1461457E+03  0.7561462E-02  0.1205291E+00
          1   -1    0    0  501    0  0.00000000000E+00  0.00000000000E+00  0.15104141068E+03  0.15104141068E+03  0.00000000000E+00 0. -1.
         -1   -1    0    0    0  501 -0.00000000000E+00 -0.00000000000E+00 -0.21806363403E+03  0.21806363403E+03  0.00000000000E+00 0.  1.
         25    2    1    2    0    0 -0.64587337299E+02  0.11364929028E+03 -0.99767991751E+02  0.20661266936E+03  0.12508979831E+03 0.  0.
         23    2    1    2    0    0  0.64587337299E+02 -0.11364929028E+03  0.32745768395E+02  0.16249237535E+03  0.90795381927E+02 0.  0.
          5    1    3    3  502    0 -0.33219601604E+02  0.10066134734E+02  0.23801627466E+02  0.42294903585E+02  0.41800000000E+01 0.  1.
         -5    1    3    3    0  502 -0.31367735695E+02  0.10358315554E+03 -0.12356961922E+03  0.16431776577E+03  0.41800000000E+01 0.  1.
        -11    1    4    4    0    0 -0.14823066806E+02 -0.31231129057E+02 -0.16000944737E+02  0.38093791675E+02  0.00000000000E+00 0.  1.
         11    1    4    4    0    0  0.79410404106E+02 -0.82418161222E+02  0.48746713133E+02  0.12439858368E+03  0.00000000000E+00 0. -1.
</event>
<event>
 8    1  0.7075056E-009  0.4587672E+03  0.7561462E-02  0.1025139E+00
          2   -1    0    0  501    0  0.00000000000E+00  0.00000000000E+00  0.17170400800E+03  0.17170400800E+03  0.00000000000E+00 0.  1.
         -2   -1    0    0    0  501 -0.00000000000E+00 -0.00000000000E+00 -0.12593604536E+04  0.12593604536E+04  0.00000000000E+00 0. -1.
         25    2    1    2    0    0 -0.84597042473E+02 -0.44456742771E+03 -0.55500976627E+03  0.72696832270E+03  0.12510093596E+03 0.  0.
         23    2    1    2    0    0  0.84597042473E+02  0.44456742771E+03 -0.53264667934E+03  0.70409613892E+03  0.85100120152E+02 0.  0.
          5    1    3    3  502    0  0.20883769946E+02 -0.49880832073E+02 -0.11129038407E+03  0.12380327638E+03  0.41800000000E+01 0.  1.
         -5    1    3    3    0  502 -0.10548081242E+03 -0.39468659564E+03 -0.44371938221E+03  0.60316504633E+03  0.41800000000E+01 0.  1.
        -11    1    4    4    0    0  0.55091523340E+02  0.37705812352E+03 -0.40063025685E+03  0.55291274823E+03  0.00000000000E+00 0.  1.
         11    1    4    4    0    0  0.29505519133E+02  0.67509304197E+02 -0.13201642249E+03  0.15118339069E+03  0.00000000000E+00 0. -1.
</event>
<event>
 8    1  0.7075056E-009  0.3077160E+03  0.7561462E-02  0.1081446E+00
          1   -1    0    0  501    0  0.00000000000E+00  0.00000000000E+00  0.11698449320E+04  0.11698449320E+04  0.00000000000E+00 0. -1.
         -1   -1    0    0    0  501 -0.00000000000E+00 -0.00000000000E+00 -0.82100379041E+02  0.82100379041E+02  0.00000000000E+00 0.  1.
         25    2    1    2    0    0  0.21059773918E+03 -0.19899247590E+03  0.55361898644E+03  0.63725259850E+03  0.12508988344E+03 0.  0.
         23    2    1    2    0    0 -0.21059773918E+03  0.19899247590E+03  0.53412556647E+03  0.61469271249E+03  0.92777135224E+02 0.  0.
          5    1    3    3  502    0  0.97718119518E+02 -0.20347270665E+02  0.22958262596E+03  0.25037670987E+03  0.41800000000E+01 0. -1.
         -5    1    3    3    0  502  0.11287961966E+03 -0.17864520523E+03  0.32403636048E+03  0.38687588863E+03  0.41800000000E+01 0. -1.
        -11    1    4    4    0    0 -0.14020198149E+03  0.68820239817E+02  0.26804835564E+03  0.31023014358E+03  0.00000000000E+00 0. -1.
         11    1    4    4    0    0 -0.70395757692E+02  0.13017223608E+03  0.26607721083E+03  0.30446256891E+03  0.00000000000E+00 0.  1.
</event>
<event>
 8    1  0.7075056E-009  0.1009793E+03  0.7561462E-02  0.1278250E+00
          2   -1    0    0  501    0  0.00000000000E+00  0.00000000000E+00  0.11964449165E+03  0.11964449165E+03  0.00000000000E+00 0. -1.
         -2   -1    0    0    0  501 -0.00000000000E+00 -0.00000000000E+00 -0.16903640320E+03  0.16903640320E+03  0.00000000000E+00 0.  1.
         25    2    1    2    0    0  0.22643922885E+02  0.75421187710E+02  0.20328016323E+02  0.14920473079E+03  0.12509084956E+03 0.  0.
         23    2    1    2    0    0 -0.22643922885E+02 -0.75421187710E+02 -0.69719927875E+02  0.13947616406E+03  0.91605836046E+02 0.  0.
          5    1    3    3  502    0  0.23462961369E+02  0.27232682671E+02  0.70663587548E+02  0.79391086192E+02  0.41800000000E+01 0.  1.
         -5    1    3    3    0  502 -0.81903848333E+00  0.48188505039E+02 -0.50335571225E+02  0.69813644601E+02  0.41800000000E+01 0.  1.
        -11    1    4    4    0    0 -0.55839526625E+02 -0.38977022907E+02 -0.56376974339E+02  0.88406019501E+02  0.00000000000E+00 0. -1.
         11    1    4    4    0    0  0.33195603739E+02 -0.36444164803E+02 -0.13342953536E+02  0.51070144555E+02  0.00000000000E+00 0.  1.
</event>
<event>
 8    1  0.7075056E-009  0.8223144E+02  0.7561462E-02  0.1322836E+00
         -1   -1    0    0    0  501 -0.00000000000E+00  0.00000000000E+00  0.16005349575E+03  0.16005349575E+03  0.00000000000E+00 0.  1.
          1   -1    0    0  501    0  0.00000000000E+00 -0.00000000000E+00 -0.90575083774E+02  0.90575083774E+02  0.00000000000E+00 0. -1.
         25    2    1    2    0    0 -0.15819608653E+02  0.22016541539E+02 -0.79969947259E+01  0.12823643914E+03  0.12508254986E+03 0.  0.
         23    2    1    2    0    0  0.15819608653E+02 -0.22016541539E+02  0.77475406703E+02  0.12239214038E+03  0.90787715382E+02 0.  0.
          5    1    3    3  502    0 -0.81415126289E+01 -0.40987324494E+02 -0.39145632205E+02  0.57411653154E+02  0.41800000000E+01 0.  1.
         -5    1    3    3    0  502 -0.76780960246E+01  0.63003866033E+02  0.31148637479E+02  0.70824785990E+02  0.41800000000E+01 0.  1.
        -11    1    4    4    0    0 -0.14770478690E+02  0.73113219806E+01 -0.13969597653E+02  0.21604909822E+02  0.00000000000E+00 0. -1.
         11    1    4    4    0    0  0.30590087344E+02 -0.29327863520E+02  0.91445004356E+02  0.10078723056E+03  0.00000000000E+00 0.  1.
</event>
<event>
 8    1  0.7075056E-009  0.9401809E+02  0.7561462E-02  0.1293403E+00
          2   -1    0    0  501    0  0.00000000000E+00  0.00000000000E+00  0.55249151660E+03  0.55249151660E+03  0.00000000000E+00 0.  1.
         -2   -1    0    0    0  501 -0.00000000000E+00 -0.00000000000E+00 -0.28136027116E+02  0.28136027116E+02  0.00000000000E+00 0. -1.
         25    2    1    2    0    0 -0.62658105499E+02  0.11587415752E+02  0.30924283702E+03  0.33961578737E+03  0.12508974536E+03 0.  0.
         23    2    1    2    0    0  0.62658105499E+02 -0.11587415752E+02  0.21511265247E+03  0.24101175635E+03  0.88050593741E+02 0.  0.
          5    1    3    3  502    0 -0.71103346235E+02 -0.79716610493E+01  0.72733395910E+02  0.10211196064E+03  0.41800000000E+01 0. -1.
         -5    1    3    3    0  502  0.84452407361E+01  0.19559076802E+02  0.23650944111E+03  0.23750382673E+03  0.41800000000E+01 0. -1.
        -11    1    4    4    0    0  0.22669851593E+02  0.29576697202E+02  0.14841729434E+03  0.15302416949E+03  0.00000000000E+00 0.  1.
         11    1    4    4    0    0  0.39988253905E+02 -0.41164112954E+02  0.66695358132E+02  0.87987586864E+02  0.00000000000E+00 0. -1.
</event>
<event>
 8    1  0.7075056E-009  0.8283080E+02  0.7561462E-02  0.1321205E+00
         -1   -1    0    0    0  501 -0.00000000000E+00  0.00000000000E+00  0.87786554473E+02  0.87786554473E+02  0.00000000000E+00 0.  1.
          1   -1    0    0  501    0  0.00000000000E+00 -0.00000000000E+00 -0.16111496989E+03  0.16111496989E+03  0.00000000000E+00 0. -1.
         25    2    1    2    0    0  0.17087832905E+02  0.40705354833E+02 -0.25269663811E+02  0.13503848727E+03  0.12509163517E+03 0.  0.
         23    2    1    2    0    0 -0.17087832905E+02 -0.40705354833E+02 -0.48058751609E+02  0.11386303709E+03  0.93307168343E+02 0.  0.
          5    1    3    3  502    0 -0.12375254063E+02 -0.29417185051E+02 -0.45953720977E+02  0.56104675037E+02  0.41800000000E+01 0. -1.
         -5    1    3    3    0  502  0.29463086968E+02  0.70122539884E+02  0.20684057166E+02  0.78933812237E+02  0.41800000000E+01 0. -1.
        -11    1    4    4    0    0  0.11527043931E+02 -0.14252396227E+02  0.25036174333E+02  0.31029237265E+02  0.00000000000E+00 0.  1.
         11    1    4    4    0    0 -0.28614876836E+02 -0.26452958606E+02 -0.73094925943E+02  0.82833799828E+02  0.00000000000E+00 0. -1.
</event>
<event>
 8    1  0.7075056E-009  0.9401613E+02  0.7561462E-02  0.1293408E+00
         -2   -1    0    0    0  501 -0.00000000000E+00  0.00000000000E+00  0.10702193052E+03  0.10702193052E+03  0.00000000000E+00 0. -1.
          2   -1    0    0  501    0  0.00000000000E+00 -0.00000000000E+00 -0.23667615195E+03  0.23667615195E+03  0.00000000000E+00 0.  1.
         25    2    1    2    0    0  0.66620470150E+01 -0.48504819381E+02  0.45358119903E+02  0.14178181221E+03  0.12509045870E+03 0.  0.
         23    2    1    2    0    0 -0.66620470150E+01  0.48504819381E+02 -0.17501234134E+03  0.20191627026E+03  0.87998637509E+02 0.  0.
          5    1    3    3  502    0  0.28120803156E+02 -0.80418055717E+02  0.43483502055E+01  0.85406228139E+02  0.41800000000E+01 0.  1.
         -5    1    3    3    0  502 -0.21458756141E+02  0.31913236336E+02  0.41009769697E+02  0.56375584070E+02  0.41800000000E+01 0. -1.
        -11    1    4    4    0    0 -0.23300452536E+02  0.37349291613E+02 -0.17642531725E+03  0.18183446659E+03  0.00000000000E+00 0.  1.
         11    1    4    4    0    0  0.16638405521E+02  0.11155527768E+02  0.14129759108E+01  0.20081803679E+02  0.00000000000E+00 0. -1.
</event>
<event>
 8    1  0.7075056E-009  0.1115983E+03  0.7561462E-02  0.1257638E+00
         -1   -1    0    0    0  501 -0.00000000000E+00  0.00000000000E+00  0.79673633809E+02  0.79673633809E+02  0.00000000000E+00 0.  1.
          1   -1    0    0  501    0  0.00000000000E+00 -0.00000000000E+00 -0.19228129525E+03  0.19228129525E+03  0.00000000000E+00 0. -1.
         25    2    1    2    0    0 -0.58328916758E+02  0.10221531488E+02 -0.59288540768E+02  0.15056423487E+03  0.12509082908E+03 0.  0.
         23    2    1    2    0    0  0.58328916758E+02 -0.10221531488E+02 -0.53319120670E+02  0.12139069418E+03  0.91575268324E+02 0.  0.
          5    1    3    3  502    0  0.84008581071E+01 -0.34485331510E+02 -0.60336730006E+02  0.70127069625E+02  0.41800000000E+01 0. -1.
         -5    1    3    3    0  502 -0.66729774865E+02  0.44706862998E+02  0.10481892387E+01  0.80437165250E+02  0.41800000000E+01 0. -1.
        -11    1    4    4    0    0  0.51438753367E+02 -0.46958555905E+02 -0.45528202604E+02  0.83209786401E+02  0.00000000000E+00 0. -1.
         11    1    4    4    0    0  0.68901633912E+01  0.36737024417E+02 -0.77909180665E+01  0.38180907780E+02  0.00000000000E+00 0.  1.
</event>
<event>
 8    1  0.7075056E-009  0.1229706E+03  0.7561462E-02  0.1238275E+00
          2   -1    0    0  501    0  0.00000000000E+00  0.00000000000E+00  0.56621088080E+02  0.56621088080E+02  0.00000000000E+00 0. -1.
         -2   -1    0    0    0  501 -0.00000000000E+00 -0.00000000000E+00 -0.27191226382E+03  0.27191226382E+03  0.00000000000E+00 0.  1.
         25    2    1    2    0    0 -0.15280565636E+02 -0.59642588020E+02 -0.13120154873E+03  0.19144448303E+03  0.12508560949E+03 0.  0.
         23    2    1    2    0    0  0.15280565636E+02  0.59642588020E+02 -0.84089627020E+02  0.13708886888E+03  0.89059298257E+02 0.  0.
          5    1    3    3  502    0  0.35952158297E+02 -0.75656935606E+02 -0.94146074432E+02  0.12608523039E+03  0.41800000000E+01 0. -1.
         -5    1    3    3    0  502 -0.51232723932E+02  0.16014347586E+02 -0.37055474294E+02  0.65359252637E+02  0.41800000000E+01 0. -1.
        -11    1    4    4    0    0  0.64526996682E+01  0.83006228970E+02 -0.66181049961E+02  0.10635601889E+03  0.00000000000E+00 0.  1.
         11    1    4    4    0    0  0.88278659674E+01 -0.23363640949E+02 -0.17908577058E+02  0.30732849985E+02  0.00000000000E+00 0. -1.
</event>
<event>
 8    1  0.7075056E-009  0.1092816E+03  0.7561462E-02  0.1261906E+00
         -1   -1    0    0    0  501 -0.00000000000E+00  0.00000000000E+00  0.22560797083E+02  0.22560797083E+02  0.00000000000E+00 0.  1.
          1   -1    0    0  501    0  0.00000000000E+00 -0.00000000000E+00 -0.63470135041E+03  0.63470135041E+03  0.00000000000E+00 0. -1.
         25    2    1    2    0    0 -0.37488295327E+02 -0.11889523767E+02 -0.30765962384E+03  0.33444061225E+03  0.12509734577E+03 0.  0.
         23    2    1    2    0    0  0.37488295327E+02  0.11889523767E+02 -0.30448092949E+03  0.32282153524E+03  0.99791653625E+02 0.  0.
          5    1    3    3  502    0 -0.74849059026E+02  0.21030187910E+02 -0.22216979439E+03  0.23541779962E+03  0.41800000000E+01 0. -1.
         -5    1    3    3    0  502  0.37360763699E+02 -0.32919711678E+02 -0.85489829450E+02  0.99022812627E+02  0.41800000000E+01 0. -1.
        -11    1    4    4    0    0  0.62798203501E+02  0.66219831329E-01 -0.27550904119E+03  0.28257538910E+03  0.00000000000E+00 0. -1.
         11    1    4    4    0    0 -0.25309908174E+02  0.11823303936E+02 -0.28971888296E+02  0.40246146141E+02  0.00000000000E+00 0.  1.
</event>
<event>
 8    1  0.7075056E-009  0.9887931E+02  0.7561462E-02  0.1282670E+00
         -1   -1    0    0    0  501 -0.00000000000E+00  0.00000000000E+00  0.56397787183E+03  0.56397787183E+03  0.00000000000E+00 0.  1.
          1   -1    0    0  501    0  0.00000000000E+00 -0.00000000000E+00 -0.26540240334E+02  0.26540240334E+02  0.00000000000E+00 0. -1.
         25    2    1    2    0    0 -0.54144053369E+02  0.20749225359E+02  0.28358961818E+03  0.31532924301E+03  0.12508937241E+03 0.  0.
         23    2    1    2    0    0  0.54144053369E+02 -0.20749225359E+02  0.25384801331E+03  0.27518886915E+03  0.89039266466E+02 0.  0.
          5    1    3    3  502    0 -0.28147952523E+02 -0.29823937679E+02  0.20323493797E+02  0.45959670256E+02  0.41800000000E+01 0.  1.
         -5    1    3    3    0  502 -0.25996100846E+02  0.50573163038E+02  0.26326612438E+03  0.26936957275E+03  0.41800000000E+01 0.  1.
        -11    1    4    4    0    0  0.20757040015E+02  0.31375006502E+02  0.52826708316E+02  0.64852963345E+02  0.00000000000E+00 0.  1.
         11    1    4    4    0    0  0.33387013354E+02 -0.52124231861E+02  0.20102130500E+03  0.21033590580E+03  0.00000000000E+00 0. -1.
</event>
<event>
 8    1  0.7075056E-009  0.1521405E+03  0.7561462E-02  0.1197867E+00
         -2   -1    0    0    0  501 -0.00000000000E+00  0.00000000000E+00  0.10353328001E+03  0.10353328001E+03  0.00000000000E+00 0.  1.
          2   -1    0    0  501    0  0.00000000000E+00 -0.00000000000E+00 -0.25436268986E+03  0.25436268986E+03  0.00000000000E+00 0. -1.
         25    2    1    2    0    0  0.25942558320E+02 -0.10674124707E+03 -0.27192410766E+02  0.16868026572E+03  0.12508754807E+03 0.  0.
         23    2    1    2    0    0 -0.25942558320E+02  0.10674124707E+03 -0.12363699908E+03  0.18921570415E+03  0.91922603297E+02 0.  0.
          5    1    3    3  502    0  0.56308730375E+02 -0.11848190283E+03 -0.33031204591E+02  0.13534092985E+03  0.41800000000E+01 0.  1.
         -5    1    3    3    0  502 -0.30366172055E+02  0.11740655762E+02  0.58387938250E+01  0.33339335871E+02  0.41800000000E+01 0.  1.
        -11    1    4    4    0    0 -0.14064816648E+02  0.12090688502E+03 -0.11884383009E+03  0.17011804684E+03  0.00000000000E+00 0. -1.
         11    1    4    4    0    0 -0.11877741672E+02 -0.14165637946E+02 -0.47931689940E+01  0.19097657308E+02  0.00000000000E+00 0.  1.
</event>
<event>
 8    1  0.7075056E-009  0.1276489E+03  0.7561462E-02  0.1230987E+00
          1   -1    0    0  501    0  0.00000000000E+00  0.00000000000E+00  0.18993646883E+03  0.18993646883E+03  0.00000000000E+00 0.  1.
         -1   -1    0    0    0  501 -0.00000000000E+00 -0.00000000000E+00 -0.12755689467E+03  0.12755689467E+03  0.00000000000E+00 0. -1.
         25    2    1    2    0    0 -0.35454951841E+02  0.96552753603E+02 -0.11572077907E+02  0.16236005455E+03  0.12508951391E+03 0.  0.
         23    2    1    2    0    0  0.35454951841E+02 -0.96552753603E+02  0.73951652067E+02  0.15513330895E+03  0.89543335121E+02 0.  0.
          5    1    3    3  502    0  0.21108063539E+02  0.83148557503E+02 -0.43103936723E+02  0.96097110894E+02  0.41800000000E+01 0. -1.
         -5    1    3    3    0  502 -0.56563015380E+02  0.13404196101E+02  0.31531858816E+02  0.66262943659E+02  0.41800000000E+01 0. -1.
        -11    1    4    4    0    0 -0.82146593319E+01 -0.33089857442E+02 -0.15182668597E+02  0.37322013868E+02  0.00000000000E+00 0. -1.
         11    1    4    4    0    0  0.43669611173E+02 -0.63462896162E+02  0.89134320664E+02  0.11781129508E+03  0.00000000000E+00 0.  1.
</event>
<event>
 8    1  0.7075056E-009  0.3004617E+03  0.7561462E-02  0.1085010E+00
         -2   -1    0    0    0  501 -0.00000000000E+00  0.00000000000E+00  0.14687367295E+03  0.14687367295E+03  0.00000000000E+00 0.  1.
          2   -1    0    0  501    0  0.00000000000E+00 -0.00000000000E+00 -0.70214955246E+03  0.70214955246E+03  0.00000000000E+00 0. -1.
         25    2    1    2    0    0 -0.44268818274E+02  0.29454737290E+03 -0.34631593619E+03  0.47360142351E+03  0.12508276275E+03 0.  0.
         23    2    1    2    0    0  0.44268818274E+02 -0.29454737290E+03 -0.20895994331E+03  0.37542180189E+03  0.92516962095E+02 0.  0.
          5    1    3    3  502    0 -0.40740499679E+02  0.26483733508E+03 -0.22913429306E+03  0.35258842724E+03  0.41800000000E+01 0. -1.
         -5    1    3    3    0  502 -0.35283185956E+01  0.29710037816E+02 -0.11718164313E+03  0.12101299627E+03  0.41800000000E+01 0. -1.
        -11    1    4    4    0    0  0.96070350411E+01 -0.44842337005E+01  0.64971114794E+01  0.12434465479E+02  0.00000000000E+00 0.  1.
         11    1    4    4    0    0  0.34661783233E+02 -0.29006313920E+03 -0.21545705479E+03  0.36298733641E+03  0.00000000000E+00 0. -1.
</event>
<event>
 8    1  0.7075056E-009  0.1177749E+03  0.7561462E-02  0.1246813E+00
          2   -1    0    0  501    0  0.00000000000E+00  0.00000000000E+00  0.41031757604E+03  0.41031757604E+03  0.00000000000E+00 0. -1.
         -2   -1    0    0    0  501 -0.00000000000E+00 -0.00000000000E+00 -0.11682577842E+03  0.11682577842E+03  0.00000000000E+00 0.  1.
         25    2    1    2    0    0  0.32068128507E+02 -0.99335072504E+02  0.34374067135E+03  0.38039656832E+03  0.12509228015E+03 0.  0.
         23    2    1    2    0    0 -0.32068128507E+02  0.99335072504E+02 -0.50248873728E+02  0.14674678615E+03  0.90076902914E+02 0.  0.
          5    1    3    3  502    0 -0.53991513671E+01 -0.55729410931E+02  0.34651153935E+02  0.65977973197E+02  0.41800000000E+01 0. -1.
         -5    1    3    3    0  502  0.37467279874E+02 -0.43605661573E+02  0.30908951741E+03  0.31441859512E+03  0.41800000000E+01 0. -1.
        -11    1    4    4    0    0 -0.91853217237E+01 -0.78975559395E+01 -0.33759253721E+02  0.35866819440E+02  0.00000000000E+00 0.  1.
         11    1    4    4    0    0 -0.22882806784E+02  0.10723262844E+03 -0.16489620007E+02  0.11087996671E+03  0.00000000000E+00 0. -1.
</event>
<event>
 8    1  0.7075056E-009  0.1085170E+03  0.7561462E-02  0.1263341E+00
          1   -1    0    0  501    0  0.00000000000E+00  0.00000000000E+00  0.43589387913E+03  0.43589387913E+03  0.00000000000E+00 0. -1.
         -1   -1    0    0    0  501 -0.00000000000E+00 -0.00000000000E+00 -0.32977076263E+02  0.32977076263E+02  0.00000000000E+00 0.  1.
         25    2    1    2    0    0 -0.29120568787E+02 -0.21149923135E+02  0.15478081848E+03  0.20223755798E+03  0.12509037258E+03 0.  0.
         23    2    1    2    0    0  0.29120568787E+02  0.21149923135E+02  0.24813598439E+03  0.26663339741E+03  0.90700469099E+02 0.  0.
          5    1    3    3  502    0 -0.61839952181E+02  0.25075969135E+02  0.11457698130E+03  0.13265873872E+03  0.41800000000E+01 0.  1.
         -5    1    3    3    0  502  0.32719383394E+02 -0.46225892270E+02  0.40203837181E+02  0.69578819262E+02  0.41800000000E+01 0.  1.
        -11    1    4    4    0    0 -0.28307775072E+02 -0.73887311849E+01  0.11775387835E+03  0.12133383429E+03  0.00000000000E+00 0. -1.
         11    1    4    4    0    0  0.57428343859E+02  0.28538654320E+02  0.13038210604E+03  0.14529956312E+03  0.00000000000E+00 0.  1.
</event>
<event>
 8    1  0.7075056E-009  0.8705173E+02  0.7561462E-02  0.1310153E+00
          2   -1    0    0  501    0  0.00000000000E+00  0.00000000000E+00  0.10981855190E+04  0.10981855190E+04  0.00000000000E+00 0. -1.
         -2   -1    0    0    0  501 -0.00000000000E+00 -0.00000000000E+00 -0.14839384479E+02  0.14839384479E+02  0.00000000000E+00 0.  1.
         25    2    1    2    0    0  0.31480303635E+02 -0.23616555265E+02  0.84554611318E+03  0.85565445676E+03  0.12509024202E+03 0.  0.
         23    2    1    2    0    0 -0.31480303635E+02  0.23616555265E+02  0.23780002135E+03  0.25737044673E+03  0.90232729642E+02 0.  0.
          5    1    3    3  502    0  0.63958254765E+02 -0.14888325401E+02  0.77057879577E+03  0.77338313499E+03  0.41800000000E+01 0. -1.
         -5    1    3    3    0  502 -0.32477951130E+02 -0.87282298643E+01  0.74967317410E+02  0.82271321770E+02  0.41800000000E+01 0. -1.
        -11    1    4    4    0    0 -0.26215433049E+02 -0.18425405371E+02  0.25689317798E+02  0.41069277349E+02  0.00000000000E+00 0.  1.
         11    1    4    4    0    0 -0.52648705858E+01  0.42041960636E+02  0.21211070355E+03  0.21630116938E+03  0.00000000000E+00 0. -1.
</event>
<event>
 8    1  0.7075056E-009  0.1054140E+03  0.7561462E-02  0.1269306E+00
          1   -1    0    0  501    0  0.00000000000E+00  0.00000000000E+00  0.30940162929E+02  0.30940162929E+02  0.00000000000E+00 0. -1.
         -1   -1    0    0    0  501 -0.00000000000E+00 -0.00000000000E+00 -0.51392813646E+03  0.51392813646E+03  0.00000000000E+00 0.  1.
         25    2    1    2    0    0  0.52542442460E+01  0.46312594925E+02 -0.36229324902E+03  0.38610302022E+03  0.12508669157E+03 0.  0.
         23    2    1    2    0    0 -0.52542442460E+01 -0.46312594925E+02 -0.12069472451E+03  0.15876527917E+03  0.92014856481E+02 0.  0.
          5    1    3    3  502    0  0.29784993054E+02  0.68224441778E+02 -0.11808421832E+03  0.13965341129E+03  0.41800000000E+01 0.  1.
         -5    1    3    3    0  502 -0.24530748808E+02 -0.21911846853E+02 -0.24420903069E+03  0.24644960893E+03  0.41800000000E+01 0.  1.
        -11    1    4    4    0    0  0.39703452536E+02 -0.16466695255E+01 -0.44507890124E+02  0.59665969757E+02  0.00000000000E+00 0. -1.
         11    1    4    4    0    0 -0.44957696782E+02 -0.44665925400E+02 -0.76186834385E+02  0.99099309409E+02  0.00000000000E+00 0.  1.
</event>
<event>
 8    1  0.7075056E-009  0.2302010E+03  0.7561462E-02  0.1126498E+00
         -2   -1    0    0    0  501 -0.00000000000E+00  0.00000000000E+00  0.68712865463E+02  0.68712865463E+02  0.00000000000E+00 0.  1.
          2   -1    0    0  501    0  0.00000000000E+00 -0.00000000000E+00 -0.90843250660E+03  0.90843250660E+03  0.00000000000E+00 0. -1.
         25    2    1    2    0    0 -0.25448768585E+02  0.22139317530E+03 -0.48726745140E+03  0.55021830220E+03  0.12509209803E+03 0.  0.
         23    2    1    2    0    0  0.25448768585E+02 -0.22139317530E+03 -0.35245218974E+03  0.42692706987E+03  0.91551073399E+02 0.  0.
          5    1    3    3  502    0  0.19030096466E+02  0.20468185677E+02 -0.91927265942E+01  0.29716490685E+02  0.41800000000E+01 0. -1.
         -5    1    3    3    0  502 -0.44478865050E+02  0.20092498962E+03 -0.47807472481E+03  0.52050181152E+03  0.41800000000E+01 0. -1.
        -11    1    4    4    0    0  0.29766838205E+01 -0.17223023252E+03 -0.19364786435E+03  0.25917486183E+03  0.00000000000E+00 0.  1.
         11    1    4    4    0    0  0.22472084764E+02 -0.49162942781E+02 -0.15880432539E+03  0.16775220803E+03  0.00000000000E+00 0. -1.
</event>
<event>
 8    1  0.7075056E-009  0.1123258E+03  0.7561462E-02  0.1256322E+00
          2   -1    0    0  501    0  0.00000000000E+00  0.00000000000E+00  0.97322179997E+02  0.97322179997E+02  0.00000000000E+00 0. -1.
         -2   -1    0    0    0  501 -0.00000000000E+00 -0.00000000000E+00 -0.27765870077E+03  0.27765870077E+03  0.00000000000E+00 0.  1.
         25    2    1    2    0    0  0.70053068970E+02  0.22545052007E+02  0.15787622930E+02  0.14597374093E+03  0.12507346706E+03 0.  0.
         23    2    1    2    0    0 -0.70053068970E+02 -0.22545052007E+02 -0.19612414371E+03  0.22900713984E+03  0.92541226001E+02 0.  0.
          5    1    3    3  502    0  0.85319967160E+02 -0.14227238697E+00  0.52303009879E+02  0.10016283882E+03  0.41800000000E+01 0. -1.
         -5    1    3    3    0  502 -0.15266898190E+02  0.22687324394E+02 -0.36515386949E+02  0.45810902115E+02  0.41800000000E+01 0. -1.
        -11    1    4    4    0    0 -0.17530305521E+01 -0.40824337499E+02 -0.38021722760E+02  0.55815329884E+02  0.00000000000E+00 0.  1.
         11    1    4    4    0    0 -0.68300038418E+02  0.18279285493E+02 -0.15810242095E+03  0.17319180995E+03  0.00000000000E+00 0. -1.
</event>
<event>
 8    1  0.7075056E-009  0.1134152E+03  0.7561462E-02  0.1254373E+00
          2   -1    0    0  501    0  0.00000000000E+00  0.00000000000E+00  0.14399966453E+03  0.14399966453E+03  0.00000000000E+00 0. -1.
         -2   -1    0    0    0  501 -0.00000000000E+00 -0.00000000000E+00 -0.16224492288E+03  0.16224492288E+03  0.00000000000E+00 0.  1.
         25    2    1    2    0    0  0.10042309298E+03  0.39433083459E+02 -0.13015033069E+02  0.16570114647E+03  0.12509081974E+03 0.  0.
         23    2    1    2    0    0 -0.10042309298E+03 -0.39433083459E+02 -0.52302252810E+01  0.14054344094E+03  0.89918506769E+02 0.  0.
          5    1    3    3  502    0  0.99241071574E+02  0.46599197857E+02 -0.55110323539E+02  0.12277986679E+03  0.41800000000E+01 0.  1.
         -5    1    3    3    0  502  0.11820214076E+01 -0.71661143980E+01  0.42095290469E+02  0.42921279686E+02  0.41800000000E+01 0.  1.
        -11    1    4    4    0    0 -0.34109413576E+02 -0.66193520704E+01  0.40656631621E+02  0.53481114528E+02  0.00000000000E+00 0. -1.
         11    1    4    4    0    0 -0.66313679405E+02 -0.32813731389E+02 -0.45886856902E+02  0.87062326412E+02  0.00000000000E+00 0.  1.
</event>
<event>
 8    1  0.7075056E-009  0.1918758E+03  0.7561462E-02  0.1156780E+00
          4   -1    0    0  501    0  0.00000000000E+00  0.00000000000E+00  0.13033517804E+03  0.13033517804E+03  0.00000000000E+00 0. -1.
         -4   -1    0    0    0  501 -0.00000000000E+00 -0.00000000000E+00 -0.30502384630E+03  0.30502384630E+03  0.00000000000E+00 0.  1.
         25    2    1    2    0    0  0.66787727467E+02 -0.15223878684E+03 -0.11042934899E+03  0.23554470578E+03  0.12509763604E+03 0.  0.
         23    2    1    2    0    0 -0.66787727467E+02  0.15223878684E+03 -0.64259319265E+02  0.19981431857E+03  0.90328583711E+02 0.  0.
          5    1    3    3  502    0  0.20295353440E+02  0.20418497000E+02 -0.18113710840E+02  0.34269451577E+02  0.41800000000E+01 0. -1.
         -5    1    3    3    0  502  0.46492374027E+02 -0.17265728384E+03 -0.92315638152E+02  0.20127525420E+03  0.41800000000E+01 0. -1.
        -11    1    4    4    0    0 -0.23673551259E+02  0.75801484848E+01  0.15295356398E+02  0.29186359958E+02  0.00000000000E+00 0. -1.
         11    1    4    4    0    0 -0.43114176208E+02  0.14465863835E+03 -0.79554675663E+02  0.17062795861E+03  0.00000000000E+00 0.  1.
</event>
<event>
 8    1  0.7075056E-009  0.2053374E+03  0.7561462E-02  0.1145312E+00
         -2   -1    0    0    0  501 -0.00000000000E+00  0.00000000000E+00  0.86517348279E+02  0.86517348279E+02  0.00000000000E+00 0.  1.
          2   -1    0    0  501    0  0.00000000000E+00 -0.00000000000E+00 -0.61449943225E+03  0.61449943225E+03  0.00000000000E+00 0. -1.
         25    2    1    2    0    0 -0.57507778534E+02 -0.19453625236E+03 -0.28638569924E+03  0.37258040752E+03  0.12509153955E+03 0.  0.
         23    2    1    2    0    0  0.57507778534E+02  0.19453625236E+03 -0.24159638473E+03  0.32843637301E+03  0.91379100050E+02 0.  0.
          5    1    3    3  502    0 -0.44649681896E+02 -0.94003767228E+02 -0.23882229488E+03  0.26054531905E+03  0.41800000000E+01 0. -1.
         -5    1    3    3    0  502 -0.12858096637E+02 -0.10053248513E+03 -0.47563404363E+02  0.11203508848E+03  0.41800000000E+01 0.  1.
        -11    1    4    4    0    0  0.49273409014E+02  0.11484456552E+03 -0.80879604943E+02  0.14885783003E+03  0.00000000000E+00 0. -1.
         11    1    4    4    0    0  0.82343695199E+01  0.79691686835E+02 -0.16071677979E+03  0.17957854298E+03  0.00000000000E+00 0.  1.
</event>
<event>
 8    1  0.7075056E-009  0.8394356E+02  0.7561462E-02  0.1318219E+00
          1   -1    0    0  501    0  0.00000000000E+00  0.00000000000E+00  0.13718126025E+04  0.13718126025E+04  0.00000000000E+00 0. -1.
         -1   -1    0    0    0  501 -0.00000000000E+00 -0.00000000000E+00 -0.11803691390E+02  0.11803691390E+02  0.00000000000E+00 0.  1.
         25    2    1    2    0    0  0.39356584634E+02  0.43240156796E+02  0.93752562508E+03  0.94763920903E+03  0.12508845231E+03 0.  0.
         23    2    1    2    0    0 -0.39356584634E+02 -0.43240156796E+02  0.42248328604E+03  0.43597708487E+03  0.90361715517E+02 0.  0.
          5    1    3    3  502    0  0.30408508939E+02  0.19888862109E+02  0.63757398281E+02  0.73503214130E+02  0.41800000000E+01 0.  1.
         -5    1    3    3    0  502  0.89480756944E+01  0.23351294687E+02  0.87376822680E+03  0.87413599490E+03  0.41800000000E+01 0.  1.
        -11    1    4    4    0    0 -0.17293447561E+02 -0.69523609708E+02  0.24748475681E+03  0.25764568789E+03  0.00000000000E+00 0.  1.
         11    1    4    4    0    0 -0.22063137072E+02  0.26283452912E+02  0.17499852923E+03  0.17833139697E+03  0.00000000000E+00 0. -1.
</event>
<event>
 8    1  0.7075056E-009  0.1217486E+03  0.7561462E-02  0.1240240E+00
          2   -1    0    0  501    0  0.00000000000E+00  0.00000000000E+00  0.70030995268E+02  0.70030995268E+02  0.00000000000E+00 0. -1.
         -2   -1    0    0    0  501 -0.00000000000E+00 -0.00000000000E+00 -0.34604546328E+03  0.34604546328E+03  0.00000000000E+00 0.  1.
         25    2    1    2    0    0 -0.20885315511E+01  0.64573016700E+02 -0.26315679269E+02  0.14322537531E+03  0.12508779600E+03 0.  0.
         23    2    1    2    0    0  0.20885315511E+01 -0.64573016700E+02 -0.24969878874E+03  0.27285108323E+03  0.89017931185E+02 0.  0.
          5    1    3    3  502    0  0.58944159831E+02  0.20118620130E+02  0.20548533490E+01  0.62456926568E+02  0.41800000000E+01 0.  1.
         -5    1    3    3    0  502 -0.61032691382E+02  0.44454396571E+02 -0.28370532618E+02  0.80768448745E+02  0.41800000000E+01 0.  1.
        -11    1    4    4    0    0  0.42724571107E+02 -0.32311520580E+02 -0.16546398505E+03  0.17391881349E+03  0.00000000000E+00 0.  1.
         11    1    4    4    0    0 -0.40636039556E+02 -0.32261496120E+02 -0.84234803691E+02  0.98932269739E+02  0.00000000000E+00 0. -1.
</event>
<event>
 8    1  0.7075056E-009  0.1268054E+03  0.7561462E-02  0.1232274E+00
         -2   -1    0    0    0  501 -0.00000000000E+00  0.00000000000E+00  0.30918390893E+02  0.30918390893E+02  0.00000000000E+00 0.  1.
          2   -1    0    0  501    0  0.00000000000E+00 -0.00000000000E+00 -0.70742808685E+03  0.70742808685E+03  0.00000000000E+00 0. -1.
         25    2    1    2    0    0 -0.66269950413E+02 -0.39418642083E+01 -0.18139337856E+03  0.23012664761E+03  0.12508985383E+03 0.  0.
         23    2    1    2    0    0  0.66269950413E+02  0.39418642083E+01 -0.49511631739E+03  0.50821983013E+03  0.93487878201E+02 0.  0.
          5    1    3    3  502    0  0.14449086981E+02 -0.45889336803E+02 -0.44225493066E+02  0.65482623525E+02  0.41800000000E+01 0.  1.
         -5    1    3    3    0  502 -0.80719037394E+02  0.41947472595E+02 -0.13716788550E+03  0.16464402408E+03  0.41800000000E+01 0.  1.
        -11    1    4    4    0    0  0.22454480801E+02 -0.43944201408E+02 -0.23525478959E+03  0.24037494164E+03  0.00000000000E+00 0.  1.
         11    1    4    4    0    0  0.43815469613E+02  0.47886065616E+02 -0.25986152780E+03  0.26784488849E+03  0.00000000000E+00 0. -1.
</event>
<event>
 8    1  0.7075056E-009  0.1183322E+03  0.7561462E-02  0.1245874E+00
         -3   -1    0    0    0  501 -0.00000000000E+00  0.00000000000E+00  0.49154719543E+03  0.49154719543E+03  0.00000000000E+00 0.  1.
          3   -1    0    0  501    0  0.00000000000E+00 -0.00000000000E+00 -0.38557717819E+02  0.38557717819E+02  0.00000000000E+00 0. -1.
         25    2    1    2    0    0 -0.70841441517E+02  0.20651720898E+02  0.30920246377E+03  0.34161078006E+03  0.12508700187E+03 0.  0.
         23    2    1    2    0    0  0.70841441517E+02 -0.20651720898E+02  0.14378701384E+03  0.18849413319E+03  0.97006852783E+02 0.  0.
          5    1    3    3  502    0 -0.91216191386E+02  0.61300089243E+01  0.30152485176E+03  0.31510740901E+03  0.41800000000E+01 0.  1.
         -5    1    3    3    0  502  0.20374749868E+02  0.14521711974E+02  0.76776120070E+01  0.26503371049E+02  0.41800000000E+01 0.  1.
        -11    1    4    4    0    0  0.89711925665E+02  0.27052230526E+01  0.12170895566E+03  0.15122373401E+03  0.00000000000E+00 0.  1.
         11    1    4    4    0    0 -0.18870484147E+02 -0.23356943951E+02  0.22078058178E+02  0.37270399187E+02  0.00000000000E+00 0. -1.
</event>
<event>
 8    1  0.7075056E-009  0.1239912E+03  0.7561462E-02  0.1236654E+00
          2   -1    0    0  501    0  0.00000000000E+00  0.00000000000E+00  0.11805068782E+03  0.11805068782E+03  0.00000000000E+00 0. -1.
         -2   -1    0    0    0  501 -0.00000000000E+00 -0.00000000000E+00 -0.31618529713E+03  0.31618529713E+03  0.00000000000E+00 0.  1.
         25    2    1    2    0    0  0.71617635139E+02  0.75298539568E+02 -0.24073221149E+03  0.29051305846E+03  0.12508750442E+03 0.  0.
         23    2    1    2    0    0 -0.71617635139E+02 -0.75298539568E+02  0.42597602181E+02  0.14372292648E+03  0.89681481706E+02 0.  0.
          5    1    3    3  502    0  0.10244007031E+02  0.44111427919E+02 -0.60166261352E+01  0.45874066128E+02  0.41800000000E+01 0. -1.
         -5    1    3    3    0  502  0.61373628109E+02  0.31187111650E+02 -0.23471558535E+03  0.24463899233E+03  0.41800000000E+01 0. -1.
        -11    1    4    4    0    0  0.13471269057E+02 -0.38574562036E+02 -0.19310358870E+01  0.40904777543E+02  0.00000000000E+00 0.  1.
         11    1    4    4    0    0 -0.85088904196E+02 -0.36723977533E+02  0.44528638068E+02  0.10281814894E+03  0.00000000000E+00 0. -1.
</event>
<event>
 8    1  0.7075056E-009  0.9018733E+02  0.7561462E-02  0.1302399E+00
         -2   -1    0    0    0  501 -0.00000000000E+00  0.00000000000E+00  0.52390026286E+02  0.52390026286E+02  0.00000000000E+00 0.  1.
          2   -1    0    0  501    0  0.00000000000E+00 -0.00000000000E+00 -0.33022292172E+03  0.33022292172E+03  0.00000000000E+00 0. -1.
         25    2    1    2    0    0 -0.23129501318E+02  0.61975341349E+02 -0.10183930269E+03  0.17433946856E+03  0.12508832862E+03 0.  0.
         23    2    1    2    0    0  0.23129501318E+02 -0.61975341349E+02 -0.17599359274E+03  0.20827347945E+03  0.89600116008E+02 0.  0.
          5    1    3    3  502    0  0.13434148045E+02  0.24675952579E+02  0.24534060869E+02  0.37533605104E+02  0.41800000000E+01 0. -1.
         -5    1    3    3    0  502 -0.36563649363E+02  0.37299388770E+02 -0.12637336356E+03  0.13680586345E+03  0.41800000000E+01 0. -1.
        -11    1    4    4    0    0 -0.25611369362E+02 -0.36457109307E+02 -0.12705481893E+03  0.13464022457E+03  0.00000000000E+00 0. -1.
         11    1    4    4    0    0  0.48740870680E+02 -0.25518232042E+02 -0.48938773807E+02  0.73633254871E+02  0.00000000000E+00 0.  1.
</event>
<event>
 8    1  0.7075056E-009  0.1221955E+03  0.7561462E-02  0.1239519E+00
          2   -1    0    0  501    0  0.00000000000E+00  0.00000000000E+00  0.60116202307E+03  0.60116202307E+03  0.00000000000E+00 0. -1.
         -2   -1    0    0    0  501 -0.00000000000E+00 -0.00000000000E+00 -0.38414131843E+02  0.38414131843E+02  0.00000000000E+00 0.  1.
         25    2    1    2    0    0  0.20615008409E+02 -0.93533564510E+02  0.20775215248E+03  0.26073656706E+03  0.12509633998E+03 0.  0.
         23    2    1    2    0    0 -0.20615008409E+02  0.93533564510E+02  0.35499573875E+03  0.37883958786E+03  0.91235697737E+02 0.  0.
          5    1    3    3  502    0  0.38410301775E+02 -0.11419373290E+03  0.12567304130E+03  0.17414575971E+03  0.41800000000E+01 0. -1.
         -5    1    3    3    0  502 -0.17795293365E+02  0.20660168388E+02  0.82079111182E+02  0.86590807342E+02  0.41800000000E+01 0. -1.
        -11    1    4    4    0    0 -0.88312592611E+01  0.61282274984E+02  0.33150280640E+03  0.33723525768E+03  0.00000000000E+00 0. -1.
         11    1    4    4    0    0 -0.11783749148E+02  0.32251289525E+02  0.23492932344E+02  0.41604330185E+02  0.00000000000E+00 0.  1.
</event>
<event>
 8    1  0.7075056E-009  0.1170810E+03  0.7561462E-02  0.1247992E+00
          2   -1    0    0  501    0  0.00000000000E+00  0.00000000000E+00  0.47085877488E+03  0.47085877488E+03  0.00000000000E+00 0. -1.
         -2   -1    0    0    0  501 -0.00000000000E+00 -0.00000000000E+00 -0.34759466372E+02  0.34759466372E+02  0.00000000000E+00 0.  1.
         25    2    1    2    0    0  0.39462137673E+02  0.49459496872E+02  0.19807948681E+03  0.24266457273E+03  0.12508840723E+03 0.  0.
         23    2    1    2    0    0 -0.39462137673E+02 -0.49459496872E+02  0.23801982170E+03  0.26295366852E+03  0.92128682434E+02 0.  0.
          5    1    3    3  502    0  0.73742477370E+02  0.55695777158E+02  0.18179475237E+03  0.20397739323E+03  0.41800000000E+01 0. -1.
         -5    1    3    3    0  502 -0.34280339696E+02 -0.62362802866E+01  0.16284734440E+02  0.38687179495E+02  0.41800000000E+01 0. -1.
        -11    1    4    4    0    0  0.17545231888E+02 -0.46248710438E+02  0.71710666565E+02  0.87116003572E+02  0.00000000000E+00 0.  1.
         11    1    4    4    0    0 -0.57007369561E+02 -0.32107864341E+01  0.16630915513E+03  0.17583766495E+03  0.00000000000E+00 0. -1.
</event>
<event>
 8    1  0.7075056E-009  0.1011300E+03  0.7561462E-02  0.1277937E+00
          1   -1    0    0  501    0  0.00000000000E+00  0.00000000000E+00  0.41184789967E+02  0.41184789967E+02  0.00000000000E+00 0. -1.
         -1   -1    0    0    0  501 -0.00000000000E+00 -0.00000000000E+00 -0.40613508220E+03  0.40613508220E+03  0.00000000000E+00 0.  1.
         25    2    1    2    0    0  0.52611678511E+02  0.27280558216E+02 -0.26947491045E+03  0.30294683073E+03  0.12509131591E+03 0.  0.
         23    2    1    2    0    0 -0.52611678511E+02 -0.27280558216E+02 -0.95475381778E+02  0.14437304143E+03  0.90641099916E+02 0.  0.
          5    1    3    3  502    0 -0.32863180414E+02  0.34850932246E+02 -0.62546574706E+02  0.78893108145E+02  0.41800000000E+01 0. -1.
         -5    1    3    3    0  502  0.85474858925E+02 -0.75703740302E+01 -0.20692833574E+03  0.22405372259E+03  0.41800000000E+01 0. -1.
        -11    1    4    4    0    0 -0.20578074655E+02 -0.29708765386E+02  0.71472631305E+01  0.36839534029E+02  0.00000000000E+00 0. -1.
         11    1    4    4    0    0 -0.32033603856E+02  0.24282071699E+01 -0.10262264491E+03  0.10753350740E+03  0.00000000000E+00 0.  1.
</event>
<event>
 8    1  0.7075056E-009  0.1724733E+03  0.7561462E-02  0.1175293E+00
         -2   -1    0    0    0  501 -0.00000000000E+00  0.00000000000E+00  0.34361511111E+02  0.34361511111E+02  0.00000000000E+00 0.  1.
          2   -1    0    0  501    0  0.00000000000E+00 -0.00000000000E+00 -0.14843195505E+04  0.14843195505E+04  0.00000000000E+00 0. -1.
         25    2    1    2    0    0 -0.13902969223E+03  0.59332903509E+02 -0.11829888457E+04  0.11991497053E+04  0.12509099849E+03 0.  0.
         23    2    1    2    0    0  0.13902969223E+03 -0.59332903509E+02 -0.26696919364E+03  0.31953135626E+03  0.89320146239E+02 0.  0.
          5    1    3    3  502    0 -0.13253007767E+03  0.77919255565E+02 -0.74553008602E+03  0.76122809554E+03  0.41800000000E+01 0. -1.
         -5    1    3    3    0  502 -0.64996145529E+01 -0.18586352056E+02 -0.43745875972E+03  0.43792160980E+03  0.41800000000E+01 0. -1.
        -11    1    4    4    0    0  0.21879127163E+02  0.19914504604E+02 -0.78528102818E+02  0.83916307302E+02  0.00000000000E+00 0. -1.
         11    1    4    4    0    0  0.11715056506E+03 -0.79247408113E+02 -0.18844109082E+03  0.23561504896E+03  0.00000000000E+00 0.  1.
</event>
<event>
 8    1  0.7075056E-009  0.1131271E+03  0.7561462E-02  0.1254886E+00
          2   -1    0    0  501    0  0.00000000000E+00  0.00000000000E+00  0.54016570843E+03  0.54016570843E+03  0.00000000000E+00 0. -1.
         -2   -1    0    0    0  501 -0.00000000000E+00 -0.00000000000E+00 -0.26343472765E+02  0.26343472765E+02  0.00000000000E+00 0.  1.
         25    2    1    2    0    0 -0.11038132714E+02 -0.32564930888E+02  0.20454782314E+03  0.24221727972E+03  0.12508830300E+03 0.  0.
         23    2    1    2    0    0  0.11038132714E+02  0.32564930888E+02  0.30927441253E+03  0.32429190148E+03  0.91281213956E+02 0.  0.
          5    1    3    3  502    0 -0.37781640285E+02  0.37959832190E+02  0.75013231478E+02  0.92265153223E+02  0.41800000000E+01 0. -1.
         -5    1    3    3    0  502  0.26743507572E+02 -0.70524763078E+02  0.12953459166E+03  0.14995212650E+03  0.41800000000E+01 0. -1.
        -11    1    4    4    0    0  0.30125116146E+02  0.57902623354E+02  0.19137971141E+03  0.20220393259E+03  0.00000000000E+00 0.  1.
         11    1    4    4    0    0 -0.19086983432E+02 -0.25337692466E+02  0.11789470112E+03  0.12208796889E+03  0.00000000000E+00 0. -1.
</event>
<event>
 8    1  0.7075056E-009  0.1144346E+03  0.7561462E-02  0.1252571E+00
          1   -1    0    0  501    0  0.00000000000E+00  0.00000000000E+00  0.61698119150E+02  0.61698119150E+02  0.00000000000E+00 0. -1.
         -1   -1    0    0    0  501 -0.00000000000E+00 -0.00000000000E+00 -0.38402360074E+03  0.38402360074E+03  0.00000000000E+00 0.  1.
         25    2    1    2    0    0 -0.46763828225E+02 -0.42968917612E+02 -0.46453618743E+02  0.14777991905E+03  0.12509109588E+03 0.  0.
         23    2    1    2    0    0  0.46763828225E+02  0.42968917612E+02 -0.27587186285E+03  0.29794180084E+03  0.92902359858E+02 0.  0.
          5    1    3    3  502    0  0.20116358866E+02 -0.52322447270E+02  0.13015900826E+02  0.57699154731E+02  0.41800000000E+01 0.  1.
         -5    1    3    3    0  502 -0.66880187091E+02  0.93535296582E+01 -0.59469519569E+02  0.90080764318E+02  0.41800000000E+01 0.  1.
        -11    1    4    4    0    0  0.10210337080E+02  0.62653671962E+02 -0.11048113134E+03  0.12741983352E+03  0.00000000000E+00 0. -1.
         11    1    4    4    0    0  0.36553491145E+02 -0.19684754350E+02 -0.16539073151E+03  0.17052196732E+03  0.00000000000E+00 0.  1.
</event>
<event>
 8    1  0.7075056E-009  0.9662879E+02  0.7561462E-02  0.1287549E+00
         -2   -1    0    0    0  501 -0.00000000000E+00  0.00000000000E+00  0.22687104696E+03  0.22687104696E+03  0.00000000000E+00 0.  1.
          2   -1    0    0  501    0  0.00000000000E+00 -0.00000000000E+00 -0.51897809788E+02  0.51897809788E+02  0.00000000000E+00 0. -1.
         25    2    1    2    0    0 -0.74405995554E+01 -0.55294941420E+01  0.96210560092E+02  0.15808087342E+03  0.12508857997E+03 0.  0.
         23    2    1    2    0    0  0.74405995554E+01  0.55294941420E+01  0.78762677077E+02  0.12068798333E+03  0.90973030028E+02 0.  0.
          5    1    3    3  502    0  0.12616446349E+02  0.46784522385E+02  0.23528557504E+01  0.48692654307E+02  0.41800000000E+01 0.  1.
         -5    1    3    3    0  502 -0.20057045904E+02 -0.52314016527E+02  0.93857704342E+02  0.10938821911E+03  0.41800000000E+01 0.  1.
        -11    1    4    4    0    0  0.46820601930E+02 -0.64835625661E+01  0.26611461870E+02  0.54243665543E+02  0.00000000000E+00 0. -1.
         11    1    4    4    0    0 -0.39380002375E+02  0.12013056708E+02  0.52151215207E+02  0.66444317786E+02  0.00000000000E+00 0.  1.
</event>
<event>
 8    1  0.7075056E-009  0.9707539E+02  0.7561462E-02  0.1286569E+00
         -2   -1    0    0    0  501 -0.00000000000E+00  0.00000000000E+00  0.50607919133E+02  0.50607919133E+02  0.00000000000E+00 0.  1.
          2   -1    0    0  501    0  0.00000000000E+00 -0.00000000000E+00 -0.45028108533E+03  0.45028108533E+03  0.00000000000E+00 0. -1.
         25    2    1    2    0    0 -0.15023035014E+02 -0.14307408466E+02 -0.38543374167E+03  0.40575013702E+03  0.12507442167E+03 0.  0.
         23    2    1    2    0    0  0.15023035014E+02  0.14307408466E+02 -0.14239424532E+02  0.95138867449E+02  0.91751018362E+02 0.  0.
          5    1    3    3  502    0 -0.46181588616E+02  0.36612223256E+02 -0.26194708834E+03  0.26852736082E+03  0.41800000000E+01 0.  1.
         -5    1    3    3    0  502  0.31158553602E+02 -0.50919631722E+02 -0.12348665332E+03  0.13722277619E+03  0.41800000000E+01 0.  1.
        -11    1    4    4    0    0 -0.27392825614E+02  0.17798058023E+02 -0.34922762632E+02  0.47819840175E+02  0.00000000000E+00 0. -1.
         11    1    4    4    0    0  0.42415860628E+02 -0.34906495570E+01  0.20683338100E+02  0.47319027274E+02  0.00000000000E+00 0.  1.
</event>
<event>
 8    1  0.7075056E-009  0.8899644E+02  0.7561462E-02  0.1305300E+00
          2   -1    0    0  501    0  0.00000000000E+00  0.00000000000E+00  0.13761491302E+03  0.13761491302E+03  0.00000000000E+00 0. -1.
         -2   -1    0    0    0  501 -0.00000000000E+00 -0.00000000000E+00 -0.23060217306E+03  0.23060217306E+03  0.00000000000E+00 0.  1.
         25    2    1    2    0    0  0.18773895549E+02  0.26233828268E+02 -0.19051779186E+03  0.23018299315E+03  0.12508600410E+03 0.  0.
         23    2    1    2    0    0 -0.18773895549E+02 -0.26233828268E+02  0.97530531815E+02  0.13803409293E+03  0.92198336611E+02 0.  0.
          5    1    3    3  502    0  0.62640089480E+02  0.13448179728E+02 -0.47163099035E+02  0.79664701460E+02  0.41800000000E+01 0. -1.
         -5    1    3    3    0  502 -0.43866193931E+02  0.12785648540E+02 -0.14335469282E+03  0.15051829169E+03  0.41800000000E+01 0. -1.
        -11    1    4    4    0    0 -0.40384654783E+02 -0.21625422238E+02  0.88694685690E+01  0.46660976218E+02  0.00000000000E+00 0.  1.
         11    1    4    4    0    0  0.21610759234E+02 -0.46084060298E+01  0.88661063246E+02  0.91373116707E+02  0.00000000000E+00 0. -1.
</event>
<event>
 8    1  0.7075056E-009  0.1209465E+03  0.7561462E-02  0.1241544E+00
         -1   -1    0    0    0  501 -0.00000000000E+00  0.00000000000E+00  0.20064144736E+03  0.20064144736E+03  0.00000000000E+00 0.  1.
          1   -1    0    0  501    0  0.00000000000E+00 -0.00000000000E+00 -0.11939904774E+03  0.11939904774E+03  0.00000000000E+00 0. -1.
         25    2    1    2    0    0  0.10473494529E+03 -0.26665144333E+02  0.66739570148E+02  0.17828660273E+03  0.12510597029E+03 0.  0.
         23    2    1    2    0    0 -0.10473494529E+03  0.26665144333E+02  0.14502829481E+02  0.14175389237E+03  0.90572596589E+02 0.  0.
          5    1    3    3  502    0  0.58742920241E+02 -0.28616221967E+02 -0.29277025081E+02  0.71723325603E+02  0.41800000000E+01 0.  1.
         -5    1    3    3    0  502  0.45992025048E+02  0.19510776336E+01  0.96016595228E+02  0.10656327712E+03  0.41800000000E+01 0.  1.
        -11    1    4    4    0    0 -0.65473868525E+02  0.51877528191E+02 -0.17272954145E+02  0.85302170756E+02  0.00000000000E+00 0. -1.
         11    1    4    4    0    0 -0.39261076764E+02 -0.25212383857E+02  0.31775783627E+02  0.56451721617E+02  0.00000000000E+00 0.  1.
</event>
<event>
 8    1  0.7075056E-009  0.9644012E+02  0.7561462E-02  0.1287965E+00
         -4   -1    0    0    0  501 -0.00000000000E+00  0.00000000000E+00  0.10522911427E+03  0.10522911427E+03  0.00000000000E+00 0.  1.
          4   -1    0    0  501    0  0.00000000000E+00 -0.00000000000E+00 -0.16450260034E+03  0.16450260034E+03  0.00000000000E+00 0. -1.
         25    2    1    2    0    0  0.37828946305E+02 -0.14944238306E+02 -0.96003275906E+02  0.16284934225E+03  0.12509564281E+03 0.  0.
         23    2    1    2    0    0 -0.37828946305E+02  0.14944238306E+02  0.36729789842E+02  0.10688237236E+03  0.91762762720E+02 0.  0.
          5    1    3    3  502    0  0.23900874173E+02 -0.51055446111E+02 -0.10818135890E+03  0.12205977707E+03  0.41800000000E+01 0.  1.
         -5    1    3    3    0  502  0.13928072132E+02  0.36111207805E+02  0.12178082996E+02  0.40789565184E+02  0.41800000000E+01 0.  1.
        -11    1    4    4    0    0  0.13164517183E+02 -0.27880887483E+02  0.24031557162E+02  0.39091740037E+02  0.00000000000E+00 0.  1.
         11    1    4    4    0    0 -0.50993463488E+02  0.42825125788E+02  0.12698232680E+02  0.67790632321E+02  0.00000000000E+00 0. -1.
</event>
<event>
 8    1  0.7075056E-009  0.1671860E+03  0.7561462E-02  0.1180815E+00
         -2   -1    0    0    0  501 -0.00000000000E+00  0.00000000000E+00  0.49174354149E+02  0.49174354149E+02  0.00000000000E+00 0.  1.
          2   -1    0    0  501    0  0.00000000000E+00 -0.00000000000E+00 -0.80604507700E+03  0.80604507700E+03  0.00000000000E+00 0. -1.
         25    2    1    2    0    0  0.60438523767E+02  0.14351612717E+03 -0.27081266290E+03  0.33650906401E+03  0.12509659413E+03 0.  0.
         23    2    1    2    0    0 -0.60438523767E+02 -0.14351612717E+03 -0.48605805995E+03  0.51871036713E+03  0.92511152940E+02 0.  0.
          5    1    3    3  502    0  0.15956542162E+02  0.71366868136E+02 -0.23182034278E+03  0.24311722446E+03  0.41800000000E+01 0.  1.
         -5    1    3    3    0  502  0.44481981604E+02  0.72149259030E+02 -0.38992320124E+02  0.93391839551E+02  0.41800000000E+01 0.  1.
        -11    1    4    4    0    0 -0.46393107133E+02 -0.17686417802E+02 -0.88474597693E+02  0.10145385257E+03  0.00000000000E+00 0.  1.
         11    1    4    4    0    0 -0.14045416634E+02 -0.12582970936E+03 -0.39758346226E+03  0.41725651456E+03  0.00000000000E+00 0. -1.
</event>
<event>
 8    1  0.7075056E-009  0.2716092E+03  0.7561462E-02  0.1100362E+00
          1   -1    0    0  501    0  0.00000000000E+00  0.00000000000E+00  0.75788882549E+03  0.75788882549E+03  0.00000000000E+00 0. -1.
         -1   -1    0    0    0  501 -0.00000000000E+00 -0.00000000000E+00 -0.14802036038E+03  0.14802036038E+03  0.00000000000E+00 0.  1.
         25    2    1    2    0    0  0.19618268123E+03  0.16885512823E+03  0.55569592998E+03  0.62565573620E+03  0.12508970742E+03 0.  0.
         23    2    1    2    0    0 -0.19618268123E+03 -0.16885512823E+03  0.54172535131E+02  0.28025344968E+03  0.92777334237E+02 0.  0.
          5    1    3    3  502    0  0.11716437565E+03  0.24664147124E+02  0.18915525348E+03  0.22390398253E+03  0.41800000000E+01 0.  1.
         -5    1    3    3    0  502  0.79018305587E+02  0.14419098110E+03  0.36654067650E+03  0.40175175367E+03  0.41800000000E+01 0.  1.
        -11    1    4    4    0    0 -0.81284559002E+02 -0.74516348090E+02 -0.23159758510E+02  0.11267759351E+03  0.00000000000E+00 0.  1.
         11    1    4    4    0    0 -0.11489812223E+03 -0.94338780137E+02  0.77332293641E+02  0.16757585617E+03  0.00000000000E+00 0. -1.
</event>
<event>
 8    1  0.7075056E-009  0.1016284E+03  0.7561462E-02  0.1276908E+00
          1   -1    0    0  501    0  0.00000000000E+00  0.00000000000E+00  0.53050781511E+02  0.53050781511E+02  0.00000000000E+00 0. -1.
         -1   -1    0    0    0  501 -0.00000000000E+00 -0.00000000000E+00 -0.31079693155E+03  0.31079693155E+03  0.00000000000E+00 0.  1.
         25    2    1    2    0    0 -0.51059745462E+02 -0.10031313593E+02 -0.20433340000E+03  0.24516764807E+03  0.12508921795E+03 0.  0.
         23    2    1    2    0    0  0.51059745462E+02  0.10031313593E+02 -0.53412750042E+02  0.11868006499E+03  0.92327195887E+02 0.  0.
          5    1    3    3  502    0 -0.69140171682E+02  0.41187561909E+02 -0.13122386257E+03  0.15399335409E+03  0.41800000000E+01 0.  1.
         -5    1    3    3    0  502  0.18080426220E+02 -0.51218875502E+02 -0.73109537430E+02  0.91174293983E+02  0.41800000000E+01 0.  1.
        -11    1    4    4    0    0 -0.47904269454E+00 -0.12095542002E+02 -0.60902968527E+02  0.62094308867E+02  0.00000000000E+00 0.  1.
         11    1    4    4    0    0  0.51538788157E+02  0.22126855596E+02  0.74902184858E+01  0.56585756124E+02  0.00000000000E+00 0. -1.
</event>
<event>
 8    1  0.7075056E-009  0.1012431E+03  0.7561462E-02  0.1277703E+00
         -2   -1    0    0    0  501 -0.00000000000E+00  0.00000000000E+00  0.18416643147E+02  0.18416643147E+02  0.00000000000E+00 0. -1.
          2   -1    0    0  501    0  0.00000000000E+00 -0.00000000000E+00 -0.90454507500E+03  0.90454507500E+03  0.00000000000E+00 0.  1.
         25    2    1    2    0    0 -0.26802597843E+02  0.72491766477E+01 -0.70518140234E+03  0.71672790505E+03  0.12508856806E+03 0.  0.
         23    2    1    2    0    0  0.26802597843E+02 -0.72491766477E+01 -0.18094702951E+03  0.20623381309E+03  0.94971724009E+02 0.  0.
          5    1    3    3  502    0  0.43998719944E+02 -0.24304214663E+02 -0.28919450942E+03  0.29356007713E+03  0.41800000000E+01 0.  1.
         -5    1    3    3    0  502 -0.70801317787E+02  0.31553391310E+02 -0.41598689292E+03  0.42316782792E+03  0.41800000000E+01 0.  1.
        -11    1    4    4    0    0  0.10038995202E+02  0.31039799843E+02 -0.15182701921E+03  0.15529228687E+03  0.00000000000E+00 0.  1.
         11    1    4    4    0    0  0.16763602641E+02 -0.38288976491E+02 -0.29120010302E+02  0.50941526226E+02  0.00000000000E+00 0. -1.
</event>
<event>
 8    1  0.7075056E-009  0.1019545E+03  0.7561462E-02  0.1276239E+00
          1   -1    0    0  501    0  0.00000000000E+00  0.00000000000E+00  0.32267663937E+02  0.32267663937E+02  0.00000000000E+00 0. -1.
         -1   -1    0    0    0  501 -0.00000000000E+00 -0.00000000000E+00 -0.40119694787E+03  0.40119694787E+03  0.00000000000E+00 0.  1.
         25    2    1    2    0    0 -0.19383912834E+02 -0.24662537011E+02 -0.17280282542E+03  0.21562117084E+03  0.12509075120E+03 0.  0.
         23    2    1    2    0    0  0.19383912834E+02  0.24662537011E+02 -0.19612645852E+03  0.21784344097E+03  0.89477372743E+02 0.  0.
          5    1    3    3  502    0 -0.38447635274E+02 -0.62041512908E+02 -0.15185510223E+03  0.16853727913E+03  0.41800000000E+01 0.  1.
         -5    1    3    3    0  502  0.19063722440E+02  0.37378975897E+02 -0.20947723187E+02  0.47083891716E+02  0.41800000000E+01 0.  1.
        -11    1    4    4    0    0 -0.30165269015E+02  0.24851375815E+02 -0.12639856273E+03  0.13230317832E+03  0.00000000000E+00 0.  1.
         11    1    4    4    0    0  0.49549181848E+02 -0.18883880439E+00 -0.69727895789E+02  0.85540262643E+02  0.00000000000E+00 0. -1.
</event>
<event>
 8    1  0.7075056E-009  0.1137132E+03  0.7561462E-02  0.1253844E+00
          3   -1    0    0  501    0  0.00000000000E+00  0.00000000000E+00  0.20999845829E+02  0.20999845829E+02  0.00000000000E+00 0. -1.
         -3   -1    0    0    0  501 -0.00000000000E+00 -0.00000000000E+00 -0.11381340330E+04  0.11381340330E+04  0.00000000000E+00 0.  1.
         25    2    1    2    0    0 -0.50177982327E+02  0.94172634055E+02 -0.71288109142E+03  0.73159643299E+03  0.12509026881E+03 0.  0.
         23    2    1    2    0    0  0.50177982327E+02 -0.94172634055E+02 -0.40425309571E+03  0.42753744580E+03  0.89338610070E+02 0.  0.
          5    1    3    3  502    0 -0.16863876920E+02  0.73958982485E+02 -0.15782558112E+03  0.17515909309E+03  0.41800000000E+01 0.  1.
         -5    1    3    3    0  502 -0.33314105407E+02  0.20213651570E+02 -0.55505551030E+03  0.55643733990E+03  0.41800000000E+01 0.  1.
        -11    1    4    4    0    0  0.11066924501E+02 -0.57811484953E+02 -0.33476073887E+03  0.33989615606E+03  0.00000000000E+00 0.  1.
         11    1    4    4    0    0  0.39111057826E+02 -0.36361149103E+02 -0.69492356840E+02  0.87641289741E+02  0.00000000000E+00 0. -1.
</event>
<event>
 8    1  0.7075056E-009  0.2372950E+03  0.7561462E-02  0.1121608E+00
         -2   -1    0    0    0  501 -0.00000000000E+00  0.00000000000E+00  0.27208952778E+03  0.27208952778E+03  0.00000000000E+00 0.  1.
          2   -1    0    0  501    0  0.00000000000E+00 -0.00000000000E+00 -0.23093806020E+03  0.23093806020E+03  0.00000000000E+00 0. -1.
         25    2    1    2    0    0  0.21851359836E+03 -0.10963811701E+01 -0.35449479476E+02  0.25426687791E+03  0.12508231244E+03 0.  0.
         23    2    1    2    0    0 -0.21851359836E+03  0.10963811701E+01  0.76600947056E+02  0.24876071007E+03  0.90910896287E+02 0.  0.
          5    1    3    3  502    0  0.89887307750E+01 -0.26273996343E+02 -0.32796784042E+02  0.43176632665E+02  0.41800000000E+01 0. -1.
         -5    1    3    3    0  502  0.20952486759E+03  0.25177615173E+02 -0.26526954340E+01  0.21109024524E+03  0.41800000000E+01 0. -1.
        -11    1    4    4    0    0 -0.10697245705E+03  0.44348490200E+02  0.50390071836E+02  0.12628956603E+03  0.00000000000E+00 0.  1.
         11    1    4    4    0    0 -0.11154114132E+03 -0.43252109030E+02  0.26210875221E+02  0.12247114403E+03  0.00000000000E+00 0. -1.
</event>
<event>
 8    1  0.7075056E-009  0.5787507E+02  0.7561462E-02  0.1406972E+00
          2   -1    0    0  501    0  0.00000000000E+00  0.00000000000E+00  0.58196438135E+02  0.58196438135E+02  0.00000000000E+00 0. -1.
         -2   -1    0    0    0  501 -0.00000000000E+00 -0.00000000000E+00 -0.22315411388E+03  0.22315411388E+03  0.00000000000E+00 0.  1.
         25    2    1    2    0    0  0.33214138668E+02  0.28158747676E+00 -0.77026099784E+02  0.15061093680E+03  0.12508947173E+03 0.  0.
         23    2    1    2    0    0 -0.33214138668E+02 -0.28158747676E+00 -0.87931575959E+02  0.13073961521E+03  0.90871484176E+02 0.  0.
          5    1    3    3  502    0  0.20352553830E+02 -0.56833731828E+01 -0.11125810454E+03  0.11332416073E+03  0.41800000000E+01 0.  1.
         -5    1    3    3    0  502  0.12861584838E+02  0.59649606596E+01  0.34232004758E+02  0.37286776073E+02  0.41800000000E+01 0.  1.
        -11    1    4    4    0    0  0.53396948378E+01 -0.30174656416E+02 -0.73861661166E+02  0.79966037922E+02  0.00000000000E+00 0.  1.
         11    1    4    4    0    0 -0.38553833506E+02  0.29893068939E+02 -0.14069914793E+02  0.50773577290E+02  0.00000000000E+00 0. -1.
</event>
<event>
 8    1  0.7075056E-009  0.1303420E+03  0.7561462E-02  0.1226949E+00
          1   -1    0    0  501    0  0.00000000000E+00  0.00000000000E+00  0.46714451061E+03  0.46714451061E+03  0.00000000000E+00 0. -1.
         -1   -1    0    0    0  501 -0.00000000000E+00 -0.00000000000E+00 -0.58461851124E+02  0.58461851124E+02  0.00000000000E+00 0.  1.
         25    2    1    2    0    0  0.95419415279E+02  0.76345331715E+02  0.26668647920E+03  0.31890837990E+03  0.12508957628E+03 0.  0.
         23    2    1    2    0    0 -0.95419415279E+02 -0.76345331715E+02  0.14199618028E+03  0.20669798183E+03  0.87336510077E+02 0.  0.
          5    1    3    3  502    0  0.26830109567E+02  0.62820508076E+02  0.35000556719E+02  0.76868604677E+02  0.41800000000E+01 0.  1.
         -5    1    3    3    0  502  0.68589305712E+02  0.13524823639E+02  0.23168592249E+03  0.24203977522E+03  0.41800000000E+01 0.  1.
        -11    1    4    4    0    0 -0.70174143557E+02 -0.55321082966E+02  0.14839991096E+03  0.17322634389E+03  0.00000000000E+00 0. -1.
         11    1    4    4    0    0 -0.25245271722E+02 -0.21024248749E+02 -0.64037306817E+01  0.33471637940E+02  0.00000000000E+00 0.  1.
</event>
<event>
 8    1  0.7075056E-009  0.1326683E+03  0.7561462E-02  0.1223549E+00
         -1   -1    0    0    0  501 -0.00000000000E+00  0.00000000000E+00  0.16278835354E+03  0.16278835354E+03  0.00000000000E+00 0.  1.
          1   -1    0    0  501    0  0.00000000000E+00 -0.00000000000E+00 -0.12582669364E+03  0.12582669364E+03  0.00000000000E+00 0. -1.
         25    2    1    2    0    0  0.64954452842E+01  0.80245025281E+02 -0.26917909073E+02  0.15117503513E+03  0.12509141667E+03 0.  0.
         23    2    1    2    0    0 -0.64954452842E+01 -0.80245025281E+02  0.63879568971E+02  0.13744001205E+03  0.91256247396E+02 0.  0.
          5    1    3    3  502    0  0.45597117295E+02 -0.12918256244E+02 -0.10631880892E+02  0.48749233238E+02  0.41800000000E+01 0. -1.
         -5    1    3    3    0  502 -0.39101672011E+02  0.93163281526E+02 -0.16286028180E+02  0.10242580189E+03  0.41800000000E+01 0. -1.
        -11    1    4    4    0    0 -0.34998889668E+02 -0.39845007186E+01  0.38453984895E+02  0.52148897192E+02  0.00000000000E+00 0.  1.
         11    1    4    4    0    0  0.28503444384E+02 -0.76260524563E+02  0.25425584075E+02  0.85291114859E+02  0.00000000000E+00 0. -1.
</event>
<event>
 8    1  0.7075056E-009  0.1147493E+03  0.7561462E-02  0.1252019E+00
          2   -1    0    0  501    0  0.00000000000E+00  0.00000000000E+00  0.39236456298E+03  0.39236456298E+03  0.00000000000E+00 0.  1.
         -2   -1    0    0    0  501 -0.00000000000E+00 -0.00000000000E+00 -0.47839520485E+02  0.47839520485E+02  0.00000000000E+00 0. -1.
         25    2    1    2    0    0 -0.11608733103E+02 -0.71898905416E+02  0.12475895642E+03  0.19109469354E+03  0.12509264330E+03 0.  0.
         23    2    1    2    0    0  0.11608733103E+02  0.71898905416E+02  0.21976608607E+03  0.24910938993E+03  0.91946398937E+02 0.  0.
          5    1    3    3  502    0 -0.27723444400E+02  0.26991117349E+02  0.60682016436E+02  0.72089453486E+02  0.41800000000E+01 0. -1.
         -5    1    3    3    0  502  0.16114711297E+02 -0.98890022764E+02  0.64076939988E+02  0.11900524006E+03  0.41800000000E+01 0. -1.
        -11    1    4    4    0    0 -0.10566728680E+02  0.66687837241E+02  0.21563438424E+03  0.22595820644E+03  0.00000000000E+00 0.  1.
         11    1    4    4    0    0  0.22175461784E+02  0.52110681746E+01  0.41317018344E+01  0.23151183488E+02  0.00000000000E+00 0. -1.
</event>
<event>
 8    1  0.7075056E-009  0.1236396E+03  0.7561462E-02  0.1237211E+00
          2   -1    0    0  501    0  0.00000000000E+00  0.00000000000E+00  0.37394629803E+03  0.37394629803E+03  0.00000000000E+00 0. -1.
         -2   -1    0    0    0  501 -0.00000000000E+00 -0.00000000000E+00 -0.11022985022E+03  0.11022985022E+03  0.00000000000E+00 0.  1.
         25    2    1    2    0    0  0.43043706942E-01  0.73135971965E+02  0.32284625449E+03  0.35387381991E+03  0.12509238238E+03 0.  0.
         23    2    1    2    0    0 -0.43043706942E-01 -0.73135971965E+02 -0.59129806680E+02  0.13030232835E+03  0.90185866333E+02 0.  0.
          5    1    3    3  502    0 -0.58784584589E+01 -0.34977222438E+02  0.64560484352E+02  0.73780016963E+02  0.41800000000E+01 0. -1.
         -5    1    3    3    0  502  0.59215021659E+01  0.10811319440E+03  0.25828577014E+03  0.28009380294E+03  0.41800000000E+01 0. -1.
        -11    1    4    4    0    0 -0.13723239732E+02  0.11236036532E+02  0.10009550261E+02  0.20365827312E+02  0.00000000000E+00 0. -1.
         11    1    4    4    0    0  0.13680196025E+02 -0.84372008497E+02 -0.69139356941E+02  0.10993650103E+03  0.00000000000E+00 0.  1.
</event>
<event>
 8    1  0.7075056E-009  0.1159453E+03  0.7561462E-02  0.1249940E+00
         -4   -1    0    0    0  501 -0.00000000000E+00  0.00000000000E+00  0.10540889667E+03  0.10540889667E+03  0.00000000000E+00 0. -1.
          4   -1    0    0  501    0  0.00000000000E+00 -0.00000000000E+00 -0.31317381432E+03  0.31317381432E+03  0.00000000000E+00 0.  1.
         25    2    1    2    0    0  0.39272602995E+02 -0.72271501249E+02 -0.24869900773E+03  0.29028297218E+03  0.12508996865E+03 0.  0.
         23    2    1    2    0    0 -0.39272602995E+02  0.72271501249E+02  0.40934090076E+02  0.12829973880E+03  0.89552867103E+02 0.  0.
          5    1    3    3  502    0  0.56037758325E+02 -0.81758514998E+02 -0.10208538035E+03  0.14235021045E+03  0.41800000000E+01 0. -1.
         -5    1    3    3    0  502 -0.16765155330E+02  0.94870137490E+01 -0.14661362738E+03  0.14793276174E+03  0.41800000000E+01 0. -1.
        -11    1    4    4    0    0  0.21249210815E+02  0.37687915280E+02 -0.68271923647E+01  0.43800895813E+02  0.00000000000E+00 0. -1.
         11    1    4    4    0    0 -0.60521813810E+02  0.34583585969E+02  0.47761282441E+02  0.84498842984E+02  0.00000000000E+00 0.  1.
</event>
<event>
 8    1  0.7075056E-009  0.1130265E+03  0.7561462E-02  0.1255066E+00
         -2   -1    0    0    0  501 -0.00000000000E+00  0.00000000000E+00  0.65804052844E+02  0.65804052844E+02  0.00000000000E+00 0.  1.
          2   -1    0    0  501    0  0.00000000000E+00 -0.00000000000E+00 -0.22620854583E+03  0.22620854583E+03  0.00000000000E+00 0. -1.
         25    2    1    2    0    0  0.39934984613E+01 -0.55378361805E+02 -0.10283521866E+03  0.17118742152E+03  0.12508932849E+03 0.  0.
         23    2    1    2    0    0 -0.39934984613E+01  0.55378361805E+02 -0.57569274318E+02  0.12082517715E+03  0.90563740552E+02 0.  0.
          5    1    3    3  502    0 -0.51037019768E+02 -0.62703638862E+02 -0.65754098459E+02  0.10429572176E+03  0.41800000000E+01 0.  1.
         -5    1    3    3    0  502  0.55030518229E+02  0.73252770565E+01 -0.37081120204E+02  0.66891699755E+02  0.41800000000E+01 0.  1.
        -11    1    4    4    0    0  0.27042502831E+02  0.51470590638E+02 -0.33614730884E+01  0.58239318002E+02  0.00000000000E+00 0.  1.
         11    1    4    4    0    0 -0.31036001293E+02  0.39077711671E+01 -0.54207801230E+02  0.62585859153E+02  0.00000000000E+00 0. -1.
</event>
<event>
 8    1  0.7075056E-009  0.1279021E+03  0.7561462E-02  0.1230602E+00
         -2   -1    0    0    0  501 -0.00000000000E+00  0.00000000000E+00  0.89164602512E+02  0.89164602512E+02  0.00000000000E+00 0.  1.
          2   -1    0    0  501    0  0.00000000000E+00 -0.00000000000E+00 -0.18877009973E+03  0.18877009973E+03  0.00000000000E+00 0. -1.
         25    2    1    2    0    0  0.45005098528E+02  0.50346179479E+02 -0.74451190862E+02  0.16047659393E+03  0.12509820422E+03 0.  0.
         23    2    1    2    0    0 -0.45005098528E+02 -0.50346179479E+02 -0.25154306358E+02  0.11745810831E+03  0.92754899590E+02 0.  0.
          5    1    3    3  502    0  0.85154272388E+02  0.13158165076E+02 -0.36073891589E+02  0.93505002372E+02  0.41800000000E+01 0. -1.
         -5    1    3    3    0  502 -0.40149173860E+02  0.37188014403E+02 -0.38377299273E+02  0.66971591562E+02  0.41800000000E+01 0. -1.
        -11    1    4    4    0    0 -0.71824458776E+02 -0.20855844439E+02 -0.14313178824E+02  0.76148448531E+02  0.00000000000E+00 0.  1.
         11    1    4    4    0    0  0.26819360247E+02 -0.29490335040E+02 -0.10841127535E+02  0.41309659780E+02  0.00000000000E+00 0. -1.
</event>
<event>
 8    1  0.7075056E-009  0.9634091E+02  0.7561462E-02  0.1288184E+00
         -2   -1    0    0    0  501 -0.00000000000E+00  0.00000000000E+00  0.32082562470E+02  0.32082562470E+02  0.00000000000E+00 0.  1.
          2   -1    0    0  501    0  0.00000000000E+00 -0.00000000000E+00 -0.49844297962E+03  0.49844297962E+03  0.00000000000E+00 0. -1.
         25    2    1    2    0    0 -0.44149154133E+02 -0.23159592622E+02 -0.19199766538E+03  0.23451250455E+03  0.12508995458E+03 0.  0.
         23    2    1    2    0    0  0.44149154133E+02  0.23159592622E+02 -0.27436275177E+03  0.29601303755E+03  0.99314068971E+02 0.  0.
          5    1    3    3  502    0 -0.25595149386E+02  0.23332846371E+02  0.11851292613E+01  0.34905734819E+02  0.41800000000E+01 0. -1.
         -5    1    3    3    0  502 -0.18554004748E+02 -0.46492438993E+02 -0.19318279464E+03  0.19960676973E+03  0.41800000000E+01 0. -1.
        -11    1    4    4    0    0 -0.27337203512E+02 -0.95398079843E+01 -0.11109758996E+03  0.11480855860E+03  0.00000000000E+00 0. -1.
         11    1    4    4    0    0  0.71486357645E+02  0.32699400606E+02 -0.16326516181E+03  0.18120447895E+03  0.00000000000E+00 0.  1.
</event>
<event>
 8    1  0.7075056E-009  0.1188342E+03  0.7561462E-02  0.1245033E+00
         -2   -1    0    0    0  501 -0.00000000000E+00  0.00000000000E+00  0.50813266609E+03  0.50813266609E+03  0.00000000000E+00 0.  1.
          2   -1    0    0  501    0  0.00000000000E+00 -0.00000000000E+00 -0.53990956948E+02  0.53990956948E+02  0.00000000000E+00 0. -1.
         25    2    1    2    0    0  0.23101507275E+02 -0.10368579547E+03  0.35436734329E+03  0.39052389513E+03  0.12509306478E+03 0.  0.
         23    2    1    2    0    0 -0.23101507275E+02  0.10368579547E+03  0.99774365846E+02  0.17159972790E+03  0.90593149381E+02 0.  0.
          5    1    3    3  502    0  0.70126334873E+00 -0.76379293482E+02  0.34550359448E+03  0.35387073126E+03  0.41800000000E+01 0.  1.
         -5    1    3    3    0  502  0.22400243927E+02 -0.27306501991E+02  0.88637488120E+01  0.36653163874E+02  0.41800000000E+01 0.  1.
        -11    1    4    4    0    0 -0.42640048106E+02  0.38133987876E+02  0.83622629649E+02  0.10131692318E+03  0.00000000000E+00 0.  1.
         11    1    4    4    0    0  0.19538540830E+02  0.65551807597E+02  0.16151736196E+02  0.70282804719E+02  0.00000000000E+00 0. -1.
</event>
<event>
 8    1  0.7075056E-009  0.1089515E+03  0.7561462E-02  0.1262524E+00
          1   -1    0    0  501    0  0.00000000000E+00  0.00000000000E+00  0.61723940157E+03  0.61723940157E+03  0.00000000000E+00 0. -1.
         -1   -1    0    0    0  501 -0.00000000000E+00 -0.00000000000E+00 -0.21446036864E+02  0.21446036864E+02  0.00000000000E+00 0.  1.
         25    2    1    2    0    0  0.26578226784E+02  0.28992600646E+02  0.38795073661E+03  0.40951148036E+03  0.12508759122E+03 0.  0.
         23    2    1    2    0    0 -0.26578226784E+02 -0.28992600646E+02  0.20784262810E+03  0.22917395808E+03  0.88176935621E+02 0.  0.
          5    1    3    3  502    0  0.27595415742E+02 -0.41936503658E+02  0.24192359794E+03  0.24711268067E+03  0.41800000000E+01 0. -1.
         -5    1    3    3    0  502 -0.10171889574E+01  0.70929104303E+02  0.14602713867E+03  0.16239879969E+03  0.41800000000E+01 0. -1.
        -11    1    4    4    0    0  0.29807887285E+02 -0.26729244207E+02  0.81617156289E+02  0.90908321076E+02  0.00000000000E+00 0.  1.
         11    1    4    4    0    0 -0.56386114069E+02 -0.22633564385E+01  0.12622547181E+03  0.13826563700E+03  0.00000000000E+00 0. -1.
</event>
<event>
 8    1  0.7075056E-009  0.1196899E+03  0.7561462E-02  0.1243609E+00
          2   -1    0    0  501    0  0.00000000000E+00  0.00000000000E+00  0.15959003026E+03  0.15959003026E+03  0.00000000000E+00 0. -1.
         -2   -1    0    0    0  501 -0.00000000000E+00 -0.00000000000E+00 -0.16064496091E+03  0.16064496091E+03  0.00000000000E+00 0.  1.
         25    2    1    2    0    0  0.82278340336E+02  0.80611313781E+02 -0.25263387794E+02  0.17191360283E+03  0.12509252127E+03 0.  0.
         23    2    1    2    0    0 -0.82278340336E+02 -0.80611313781E+02  0.24208457140E+02  0.14832138834E+03  0.90251180838E+02 0.  0.
          5    1    3    3  502    0  0.38024642868E+02  0.66964784101E+02 -0.72344336568E+02  0.10574181391E+03  0.41800000000E+01 0.  1.
         -5    1    3    3    0  502  0.44253697467E+02  0.13646529681E+02  0.47080948774E+02  0.66171788923E+02  0.41800000000E+01 0.  1.
        -11    1    4    4    0    0 -0.34613597004E+02 -0.41958670172E+02 -0.33665614018E+02  0.63968778848E+02  0.00000000000E+00 0.  1.
         11    1    4    4    0    0 -0.47664743332E+02 -0.38652643609E+02  0.57874071158E+02  0.84352609487E+02  0.00000000000E+00 0. -1.
</event>
<event>
 8    1  0.7075056E-009  0.1240543E+03  0.7561462E-02  0.1236555E+00
          2   -1    0    0  501    0  0.00000000000E+00  0.00000000000E+00  0.11150983079E+03  0.11150983079E+03  0.00000000000E+00 0. -1.
         -2   -1    0    0    0  501 -0.00000000000E+00 -0.00000000000E+00 -0.26276340902E+03  0.26276340902E+03  0.00000000000E+00 0.  1.
         25    2    1    2    0    0 -0.31063222950E+02 -0.11002578798E+03 -0.72218657520E+01  0.16961506673E+03  0.12508604109E+03 0.  0.
         23    2    1    2    0    0  0.31063222950E+02  0.11002578798E+03 -0.14403171247E+03  0.20465817308E+03  0.89828925021E+02 0.  0.
          5    1    3    3  502    0 -0.20456933936E+02 -0.21308975409E+02  0.53673509566E+02  0.61407463782E+02  0.41800000000E+01 0. -1.
         -5    1    3    3    0  502 -0.10606289014E+02 -0.88716812574E+02 -0.60895375318E+02  0.10820760294E+03  0.41800000000E+01 0. -1.
        -11    1    4    4    0    0 -0.15306196299E+02  0.53874517605E+02 -0.11175450930E+03  0.12500325452E+03  0.00000000000E+00 0.  1.
         11    1    4    4    0    0  0.46369419249E+02  0.56151270377E+02 -0.32277203178E+02  0.79654918564E+02  0.00000000000E+00 0. -1.
</event>
<event>
 8    1  0.7075056E-009  0.1086469E+03  0.7561462E-02  0.1263096E+00
          1   -1    0    0  501    0  0.00000000000E+00  0.00000000000E+00  0.20412130449E+02  0.20412130449E+02  0.00000000000E+00 0. -1.
         -1   -1    0    0    0  501 -0.00000000000E+00 -0.00000000000E+00 -0.62890125392E+03  0.62890125392E+03  0.00000000000E+00 0.  1.
         25    2    1    2    0    0  0.27055023675E+01  0.31855562224E+02 -0.32082016326E+03  0.34582533259E+03  0.12508991534E+03 0.  0.
         23    2    1    2    0    0 -0.27055023675E+01 -0.31855562224E+02 -0.28766896020E+03  0.30348805177E+03  0.91265931846E+02 0.  0.
          5    1    3    3  502    0  0.58083507470E+02 -0.25057703461E+01 -0.10213076772E+03  0.11759310711E+03  0.41800000000E+01 0. -1.
         -5    1    3    3    0  502 -0.55378005102E+02  0.34361332570E+02 -0.21868939555E+03  0.22823222549E+03  0.41800000000E+01 0. -1.
        -11    1    4    4    0    0 -0.19634795230E+02  0.26475556916E+02 -0.67859675319E+02  0.75441472892E+02  0.00000000000E+00 0. -1.
         11    1    4    4    0    0  0.16929292863E+02 -0.58331119140E+02 -0.21980928488E+03  0.22804657888E+03  0.00000000000E+00 0.  1.
</event>
<event>
 8    1  0.7075056E-009  0.1892318E+03  0.7561462E-02  0.1159156E+00
          2   -1    0    0  501    0  0.00000000000E+00  0.00000000000E+00  0.74588263211E+02  0.74588263211E+02  0.00000000000E+00 0. -1.
         -2   -1    0    0    0  501 -0.00000000000E+00 -0.00000000000E+00 -0.65232022992E+03  0.65232022992E+03  0.00000000000E+00 0.  1.
         25    2    1    2    0    0 -0.99314501012E+02  0.13281909904E+03 -0.14139073046E+03  0.25127624620E+03  0.12507649684E+03 0.  0.
         23    2    1    2    0    0  0.99314501012E+02 -0.13281909904E+03 -0.43634123624E+03  0.47563224692E+03  0.91258296537E+02 0.  0.
          5    1    3    3  502    0 -0.34169588443E+02  0.13427780448E+03 -0.11759414239E+03  0.18177993365E+03  0.41800000000E+01 0.  1.
         -5    1    3    3    0  502 -0.65144912569E+02 -0.14587054401E+01 -0.23796588071E+02  0.69496312557E+02  0.41800000000E+01 0.  1.
        -11    1    4    4    0    0  0.67619944114E+02 -0.12466228506E+03 -0.25890663548E+03  0.29520465452E+03  0.00000000000E+00 0. -1.
         11    1    4    4    0    0  0.31694556898E+02 -0.81568139877E+01 -0.17743460077E+03  0.18042759240E+03  0.00000000000E+00 0.  1.
</event>
<event>
 8    1  0.7075056E-009  0.2440432E+03  0.7561462E-02  0.1117128E+00
         -2   -1    0    0    0  501 -0.00000000000E+00  0.00000000000E+00  0.48174083460E+02  0.48174083460E+02  0.00000000000E+00 0.  1.
          2   -1    0    0  501    0  0.00000000000E+00 -0.00000000000E+00 -0.13762677995E+04  0.13762677995E+04  0.00000000000E+00 0. -1.
         25    2    1    2    0    0  0.21823672212E+03  0.27863055855E+02 -0.47033400521E+03  0.53410022469E+03  0.12508140066E+03 0.  0.
         23    2    1    2    0    0 -0.21823672212E+03 -0.27863055855E+02 -0.85775971087E+03  0.89034165832E+03  0.92482053266E+02 0.  0.
          5    1    3    3  502    0  0.95748178505E+02 -0.46574189905E+02 -0.24277326113E+03  0.26512864344E+03  0.41800000000E+01 0. -1.
         -5    1    3    3    0  502  0.12248854361E+03  0.74437245760E+02 -0.22756074409E+03  0.26897158125E+03  0.41800000000E+01 0. -1.
        -11    1    4    4    0    0 -0.10309027614E+03 -0.59097640998E+02 -0.45738925688E+03  0.47257281822E+03  0.00000000000E+00 0.  1.
         11    1    4    4    0    0 -0.11514644597E+03  0.31234585143E+02 -0.40037045399E+03  0.41776884010E+03  0.00000000000E+00 0. -1.
</event>
<event>
 8    1  0.7075056E-009  0.1450101E+03  0.7561462E-02  0.1206742E+00
          2   -1    0    0  501    0  0.00000000000E+00  0.00000000000E+00  0.54806075964E+03  0.54806075964E+03  0.00000000000E+00 0.  1.
         -2   -1    0    0    0  501 -0.00000000000E+00 -0.00000000000E+00 -0.58010079356E+02  0.58010079356E+02  0.00000000000E+00 0. -1.
         25    2    1    2    0    0 -0.10364988109E+03  0.75194310641E+02  0.35949384949E+03  0.40159744792E+03  0.12508876910E+03 0.  0.
         23    2    1    2    0    0  0.10364988109E+03 -0.75194310641E+02  0.13055683079E+03  0.20447339107E+03  0.91470210387E+02 0.  0.
          5    1    3    3  502    0 -0.59304810572E+02  0.67490664148E+02  0.86161361415E+02  0.12455241027E+03  0.41800000000E+01 0.  1.
         -5    1    3    3    0  502 -0.44345070515E+02  0.77036464931E+01  0.27333248808E+03  0.27704503765E+03  0.41800000000E+01 0.  1.
        -11    1    4    4    0    0  0.11860470467E+03 -0.74168046096E+02  0.12729013385E+03  0.18913157644E+03  0.00000000000E+00 0.  1.
         11    1    4    4    0    0 -0.14954823582E+02 -0.10262645451E+01  0.32666969419E+01  0.15341814632E+02  0.00000000000E+00 0. -1.
</event>
<event>
 8    1  0.7075056E-009  0.1516915E+03  0.7561462E-02  0.1198410E+00
         -1   -1    0    0    0  501 -0.00000000000E+00  0.00000000000E+00  0.35358589017E+02  0.35358589017E+02  0.00000000000E+00 0.  1.
          1   -1    0    0  501    0  0.00000000000E+00 -0.00000000000E+00 -0.73311148604E+03  0.73311148604E+03  0.00000000000E+00 0. -1.
         25    2    1    2    0    0  0.56365075461E+02 -0.10592590056E+03 -0.35039946380E+03  0.39093406182E+03  0.12510930551E+03 0.  0.
         23    2    1    2    0    0 -0.56365075461E+02  0.10592590056E+03 -0.34735343322E+03  0.37753601323E+03  0.86496910769E+02 0.  0.
          5    1    3    3  502    0 -0.19212072361E+02  0.14144288569E+02 -0.10205744526E+03  0.10489213105E+03  0.41800000000E+01 0.  1.
         -5    1    3    3    0  502  0.75577147821E+02 -0.12007018913E+03 -0.24834201854E+03  0.28604193077E+03  0.41800000000E+01 0.  1.
        -11    1    4    4    0    0 -0.13423573911E+02  0.90663463164E+02 -0.15691574303E+03  0.18172123239E+03  0.00000000000E+00 0.  1.
         11    1    4    4    0    0 -0.42941501550E+02  0.15262437394E+02 -0.19043769019E+03  0.19581478084E+03  0.00000000000E+00 0. -1.
</event>
<event>
 8    1  0.7075056E-009  0.1009039E+03  0.7561462E-02  0.1278407E+00
          1   -1    0    0  501    0  0.00000000000E+00  0.00000000000E+00  0.22146130697E+03  0.22146130697E+03  0.00000000000E+00 0. -1.
         -1   -1    0    0    0  501 -0.00000000000E+00 -0.00000000000E+00 -0.59538389130E+02  0.59538389130E+02  0.00000000000E+00 0.  1.
         25    2    1    2    0    0  0.16178585362E+02 -0.20759627926E+02  0.66678022977E+02  0.14417295802E+03  0.12508866576E+03 0.  0.
         23    2    1    2    0    0 -0.16178585362E+02  0.20759627926E+02  0.95244894861E+02  0.13682673808E+03  0.94642788842E+02 0.  0.
          5    1    3    3  502    0  0.42325233561E+02  0.32046783251E+02  0.66377357049E+02  0.85099046068E+02  0.41800000000E+01 0. -1.
         -5    1    3    3    0  502 -0.26146648199E+02 -0.52806411177E+02  0.30066592737E+00  0.59073911954E+02  0.41800000000E+01 0. -1.
        -11    1    4    4    0    0 -0.46122038941E+01  0.54046171753E+02  0.83710461488E+02  0.99748195315E+02  0.00000000000E+00 0. -1.
         11    1    4    4    0    0 -0.11566381468E+02 -0.33286543827E+02  0.11534433373E+02  0.37078542763E+02  0.00000000000E+00 0.  1.
</event>
<event>
 8    1  0.7075056E-009  0.1276510E+03  0.7561462E-02  0.1230983E+00
         -2   -1    0    0    0  501 -0.00000000000E+00  0.00000000000E+00  0.41586184714E+02  0.41586184714E+02  0.00000000000E+00 0.  1.
          2   -1    0    0  501    0  0.00000000000E+00 -0.00000000000E+00 -0.78450085407E+03  0.78450085407E+03  0.00000000000E+00 0. -1.
         25    2    1    2    0    0 -0.75285522586E+02 -0.13383144287E+01 -0.67340252699E+03  0.68904928227E+03  0.12509296159E+03 0.  0.
         23    2    1    2    0    0  0.75285522586E+02  0.13383144287E+01 -0.69512142366E+02  0.13703775652E+03  0.90981909071E+02 0.  0.
          5    1    3    3  502    0  0.18729478758E+02 -0.35836450794E+02 -0.28671922300E+03  0.28958665338E+03  0.41800000000E+01 0. -1.
         -5    1    3    3    0  502 -0.94015001344E+02  0.34498136366E+02 -0.38668330399E+03  0.39946262889E+03  0.41800000000E+01 0. -1.
        -11    1    4    4    0    0  0.90817988859E+02 -0.14804941900E+02 -0.40895405410E+02  0.10069522128E+03  0.00000000000E+00 0.  1.
         11    1    4    4    0    0 -0.15532466273E+02  0.16143256328E+02 -0.28616736956E+02  0.36342535236E+02  0.00000000000E+00 0. -1.
</event>
<event>
 8    1  0.7075056E-009  0.6472798E+02  0.7561462E-02  0.1378998E+00
         -1   -1    0    0    0  501 -0.00000000000E+00  0.00000000000E+00  0.16947734970E+02  0.16947734970E+02  0.00000000000E+00 0.  1.
          1   -1    0    0  501    0  0.00000000000E+00 -0.00000000000E+00 -0.96043828874E+03  0.96043828874E+03  0.00000000000E+00 0. -1.
         25    2    1    2    0    0 -0.24123328523E+02  0.16630226316E+02 -0.74447387824E+03  0.75548029302E+03  0.12510243145E+03 0.  0.
         23    2    1    2    0    0  0.24123328523E+02 -0.16630226316E+02 -0.19901667554E+03  0.22190573069E+03  0.93680396922E+02 0.  0.
          5    1    3    3  502    0 -0.39736982969E+02 -0.16070745564E+00 -0.69978428377E+02  0.80582296322E+02  0.41800000000E+01 0. -1.
         -5    1    3    3    0  502  0.15613654446E+02  0.16790933772E+02 -0.67449544986E+03  0.67489799669E+03  0.41800000000E+01 0. -1.
        -11    1    4    4    0    0 -0.16052761907E+01  0.20751100856E+02 -0.33933893841E+01  0.21087915732E+02  0.00000000000E+00 0. -1.
         11    1    4    4    0    0  0.25728604713E+02 -0.37381327173E+02 -0.19562328615E+03  0.20081781496E+03  0.00000000000E+00 0.  1.
</event>
<event>
 8    1  0.7075056E-009  0.2568323E+03  0.7561462E-02  0.1109061E+00
          2   -1    0    0  501    0  0.00000000000E+00  0.00000000000E+00  0.30320457520E+03  0.30320457520E+03  0.00000000000E+00 0. -1.
         -2   -1    0    0    0  501 -0.00000000000E+00 -0.00000000000E+00 -0.26819008200E+03  0.26819008200E+03  0.00000000000E+00 0.  1.
         25    2    1    2    0    0  0.21980778002E+03 -0.12396957683E+03 -0.49797509506E+02  0.28602810767E+03  0.12509344623E+03 0.  0.
         23    2    1    2    0    0 -0.21980778002E+03  0.12396957683E+03  0.84812002699E+02  0.28536654953E+03  0.10274763089E+03 0.  0.
          5    1    3    3  502    0  0.76094504754E+02 -0.68082104471E+02 -0.78833431671E+02  0.12906482461E+03  0.41800000000E+01 0.  1.
         -5    1    3    3    0  502  0.14371327526E+03 -0.55887472355E+02  0.29035922165E+02  0.15696328306E+03  0.41800000000E+01 0.  1.
        -11    1    4    4    0    0 -0.14465759065E+03  0.53608221094E+02  0.37199841953E+01  0.15431622787E+03  0.00000000000E+00 0.  1.
         11    1    4    4    0    0 -0.75150189373E+02  0.70361355733E+02  0.81092018504E+02  0.13105032166E+03  0.00000000000E+00 0. -1.
</event>
<event>
 8    1  0.7075056E-009  0.1377455E+03  0.7561462E-02  0.1216395E+00
          4   -1    0    0  501    0  0.00000000000E+00  0.00000000000E+00  0.87085246971E+02  0.87085246971E+02  0.00000000000E+00 0. -1.
         -4   -1    0    0    0  501 -0.00000000000E+00 -0.00000000000E+00 -0.35004061198E+03  0.35004061198E+03  0.00000000000E+00 0.  1.
         25    2    1    2    0    0 -0.22785299120E+02 -0.11426937878E+03 -0.22042735605E+03  0.27894871760E+03  0.12508999550E+03 0.  0.
         23    2    1    2    0    0  0.22785299120E+02  0.11426937878E+03 -0.42528008961E+02  0.15817714135E+03  0.98156587745E+02 0.  0.
          5    1    3    3  502    0 -0.16707181580E+01  0.70046479923E+01 -0.11928015092E+03  0.11957041103E+03  0.41800000000E+01 0.  1.
         -5    1    3    3    0  502 -0.21114580962E+02 -0.12127402677E+03 -0.10114720514E+03  0.15937830657E+03  0.41800000000E+01 0.  1.
        -11    1    4    4    0    0  0.32498117438E+02  0.33711276463E+01 -0.33014891303E+02  0.46448629542E+02  0.00000000000E+00 0.  1.
         11    1    4    4    0    0 -0.97128183174E+01  0.11089825113E+03 -0.95131176581E+01  0.11172851181E+03  0.00000000000E+00 0. -1.
</event>
<event>
 8    1  0.7075056E-009  0.2278432E+03  0.7561462E-02  0.1128167E+00
          2   -1    0    0  501    0  0.00000000000E+00  0.00000000000E+00  0.18035492456E+04  0.18035492456E+04  0.00000000000E+00 0. -1.
         -2   -1    0    0    0  501 -0.00000000000E+00 -0.00000000000E+00 -0.34234279668E+02  0.34234279668E+02  0.00000000000E+00 0.  1.
         25    2    1    2    0    0  0.92462239730E+02 -0.18589478503E+03  0.62124003833E+03  0.66685277836E+03  0.12508919183E+03 0.  0.
         23    2    1    2    0    0 -0.92462239730E+02  0.18589478503E+03  0.11480749276E+04  0.11709307469E+04  0.99481846476E+02 0.  0.
          5    1    3    3  502    0  0.70473492331E+02 -0.25632307820E+02  0.26776018864E+03  0.27809444321E+03  0.41800000000E+01 0. -1.
         -5    1    3    3    0  502  0.21988747399E+02 -0.16026247721E+03  0.35347984969E+03  0.38875833515E+03  0.41800000000E+01 0. -1.
        -11    1    4    4    0    0 -0.35527033231E+02  0.14878073963E+02  0.94483966264E+02  0.10203306844E+03  0.00000000000E+00 0.  1.
         11    1    4    4    0    0 -0.56935206498E+02  0.17101671106E+03  0.10535909614E+04  0.10688976785E+04  0.00000000000E+00 0. -1.
</event>
<event>
 8    1  0.7075056E-009  0.1065104E+03  0.7561462E-02  0.1267172E+00
         -4   -1    0    0    0  501 -0.00000000000E+00  0.00000000000E+00  0.53331239313E+03  0.53331239313E+03  0.00000000000E+00 0.  1.
          4   -1    0    0  501    0  0.00000000000E+00 -0.00000000000E+00 -0.28879107658E+02  0.28879107658E+02  0.00000000000E+00 0. -1.
         25    2    1    2    0    0  0.36462867406E+02  0.37671668287E+02  0.21224160930E+03  0.25187915087E+03  0.12509160896E+03 0.  0.
         23    2    1    2    0    0 -0.36462867406E+02 -0.37671668287E+02  0.29219167617E+03  0.31031234992E+03  0.90382982901E+02 0.  0.
          5    1    3    3  502    0  0.56216875024E+02 -0.11087772970E+02  0.18243777328E+03  0.19127019963E+03  0.41800000000E+01 0.  1.
         -5    1    3    3    0  502 -0.19754007618E+02  0.48759441257E+02  0.29803836019E+02  0.60608951237E+02  0.41800000000E+01 0.  1.
        -11    1    4    4    0    0 -0.63406561664E+02 -0.10033500254E+02  0.15432546094E+03  0.16714488052E+03  0.00000000000E+00 0.  1.
         11    1    4    4    0    0  0.26943694258E+02 -0.27638168034E+02  0.13786621523E+03  0.14316746940E+03  0.00000000000E+00 0. -1.
</event>
<event>
 8    1  0.7075056E-009  0.1205392E+03  0.7561462E-02  0.1242210E+00
         -1   -1    0    0    0  501 -0.00000000000E+00  0.00000000000E+00  0.19473546908E+03  0.19473546908E+03  0.00000000000E+00 0.  1.
          1   -1    0    0  501    0  0.00000000000E+00 -0.00000000000E+00 -0.91079069543E+02  0.91079069543E+02  0.00000000000E+00 0. -1.
         25    2    1    2    0    0 -0.12086399977E+02  0.76584112111E+02  0.59568544207E+02  0.15876590001E+03  0.12508793809E+03 0.  0.
         23    2    1    2    0    0  0.12086399977E+02 -0.76584112111E+02  0.44087855333E+02  0.12704863862E+03  0.90478783669E+02 0.  0.
          5    1    3    3  502    0  0.41892672565E+02 -0.84355530701E+01  0.34026652693E+02  0.54785400096E+02  0.41800000000E+01 0. -1.
         -5    1    3    3    0  502 -0.53979072542E+02  0.85019665181E+02  0.25541891514E+02  0.10398049991E+03  0.41800000000E+01 0. -1.
        -11    1    4    4    0    0 -0.19456057524E+02 -0.56974925667E+02  0.61469478003E+02  0.86041716947E+02  0.00000000000E+00 0.  1.
         11    1    4    4    0    0  0.31542457501E+02 -0.19609186444E+02 -0.17381622670E+02  0.41006921670E+02  0.00000000000E+00 0. -1.
</event>
<event>
 8    1  0.7075056E-009  0.9867727E+02  0.7561462E-02  0.1283102E+00
         -1   -1    0    0    0  501 -0.00000000000E+00  0.00000000000E+00  0.17626577257E+02  0.17626577257E+02  0.00000000000E+00 0.  1.
          1   -1    0    0  501    0  0.00000000000E+00 -0.00000000000E+00 -0.73116322749E+03  0.73116322749E+03  0.00000000000E+00 0. -1.
         25    2    1    2    0    0  0.68142236078E+01  0.27778642856E+02 -0.46443055949E+03  0.48182929769E+03  0.12508253628E+03 0.  0.
         23    2    1    2    0    0 -0.68142236078E+01 -0.27778642856E+02 -0.24910609075E+03  0.26696050706E+03  0.91629587150E+02 0.  0.
          5    1    3    3  502    0  0.12618354797E+01 -0.37181479537E+02 -0.33258359267E+03  0.33468399000E+03  0.41800000000E+01 0.  1.
         -5    1    3    3    0  502  0.55523881281E+01  0.64960122393E+02 -0.13184696681E+03  0.14714530768E+03  0.41800000000E+01 0.  1.
        -11    1    4    4    0    0  0.16758531151E+02  0.28784806586E+02 -0.11054252054E+03  0.11545155826E+03  0.00000000000E+00 0. -1.
         11    1    4    4    0    0 -0.23572754758E+02 -0.56563449441E+02 -0.13856357020E+03  0.15150894880E+03  0.00000000000E+00 0.  1.
</event>
<event>
 8    1  0.7075056E-009  0.6776854E+02  0.7561462E-02  0.1367850E+00
         -1   -1    0    0    0  501 -0.00000000000E+00  0.00000000000E+00  0.80556120726E+02  0.80556120726E+02  0.00000000000E+00 0.  1.
          1   -1    0    0  501    0  0.00000000000E+00 -0.00000000000E+00 -0.16110568540E+03  0.16110568540E+03  0.00000000000E+00 0. -1.
         25    2    1    2    0    0 -0.28810209251E+02 -0.82495483512E+01 -0.22551610401E+02  0.13059006962E+03  0.12508840053E+03 0.  0.
         23    2    1    2    0    0  0.28810209251E+02  0.82495483512E+01 -0.57997954271E+02  0.11107173651E+03  0.89861475314E+02 0.  0.
          5    1    3    3  502    0  0.41603238273E+01  0.19233313850E+01  0.49873046112E+02  0.50257344005E+02  0.41800000000E+01 0. -1.
         -5    1    3    3    0  502 -0.32970533079E+02 -0.10172879736E+02 -0.72424656513E+02  0.80332725614E+02  0.41800000000E+01 0. -1.
        -11    1    4    4    0    0  0.46403095401E+02 -0.28061962207E+02 -0.36326177180E+02  0.65271066594E+02  0.00000000000E+00 0.  1.
         11    1    4    4    0    0 -0.17592886150E+02  0.36311510558E+02 -0.21671777091E+02  0.45800669912E+02  0.00000000000E+00 0. -1.
</event>
<event>
 8    1  0.7075056E-009  0.9949610E+02  0.7561462E-02  0.1281359E+00
         -2   -1    0    0    0  501 -0.00000000000E+00  0.00000000000E+00  0.36969053848E+03  0.36969053848E+03  0.00000000000E+00 0.  1.
          2   -1    0    0  501    0  0.00000000000E+00 -0.00000000000E+00 -0.47638524930E+02  0.47638524930E+02  0.00000000000E+00 0. -1.
         25    2    1    2    0    0  0.71903459919E+02 -0.26350730543E+02  0.18135963393E+03  0.23324636203E+03  0.12509228605E+03 0.  0.
         23    2    1    2    0    0 -0.71903459919E+02  0.26350730543E+02  0.14069237962E+03  0.18408270139E+03  0.90706266147E+02 0.  0.
          5    1    3    3  502    0  0.94221696594E+02 -0.25678394445E+02  0.71613133480E+02  0.12117351748E+03  0.41800000000E+01 0. -1.
         -5    1    3    3    0  502 -0.22318236675E+02 -0.67233609820E+00  0.10974650045E+03  0.11207284455E+03  0.41800000000E+01 0. -1.
        -11    1    4    4    0    0 -0.16126186858E+02 -0.14789602594E+01 -0.11338694776E+02  0.19768844813E+02  0.00000000000E+00 0. -1.
         11    1    4    4    0    0 -0.55777273061E+02  0.27829690803E+02  0.15203107440E+03  0.16431385657E+03  0.00000000000E+00 0.  1.
</event>
<event>
 8    1  0.7075056E-009  0.1595328E+03  0.7561462E-02  0.1189225E+00
          2   -1    0    0  501    0  0.00000000000E+00  0.00000000000E+00  0.85773522039E+02  0.85773522039E+02  0.00000000000E+00 0. -1.
         -2   -1    0    0    0  501 -0.00000000000E+00 -0.00000000000E+00 -0.32809334574E+03  0.32809334574E+03  0.00000000000E+00 0.  1.
         25    2    1    2    0    0  0.82433437266E+02  0.98472539714E+02 -0.14432999492E+03  0.23015257151E+03  0.12508775353E+03 0.  0.
         23    2    1    2    0    0 -0.82433437266E+02 -0.98472539714E+02 -0.97989828783E+02  0.18371429627E+03  0.87503276807E+02 0.  0.
          5    1    3    3  502    0  0.10677802376E+03  0.61572032003E+02 -0.13836167966E+03  0.18534855888E+03  0.41800000000E+01 0.  1.
         -5    1    3    3    0  502 -0.24344586489E+02  0.36900507711E+02 -0.59683152631E+01  0.44804012629E+02  0.41800000000E+01 0.  1.
        -11    1    4    4    0    0  0.10553633552E+02 -0.40273188848E+02 -0.46866811707E+02  0.62688172415E+02  0.00000000000E+00 0.  1.
         11    1    4    4    0    0 -0.92987070818E+02 -0.58199350866E+02 -0.51123017076E+02  0.12102612386E+03  0.00000000000E+00 0. -1.
</event>
<event>
 8    1  0.7075056E-009  0.1870265E+03  0.7561462E-02  0.1161171E+00
          3   -1    0    0  501    0  0.00000000000E+00  0.00000000000E+00  0.10259759226E+03  0.10259759226E+03  0.00000000000E+00 0. -1.
         -3   -1    0    0    0  501 -0.00000000000E+00 -0.00000000000E+00 -0.45320908669E+03  0.45320908669E+03  0.00000000000E+00 0.  1.
         25    2    1    2    0    0  0.67020135670E+02 -0.15350134181E+03 -0.28289915531E+03  0.35175806254E+03  0.12508973565E+03 0.  0.
         23    2    1    2    0    0 -0.67020135670E+02  0.15350134181E+03 -0.67712339123E+02  0.20404861641E+03  0.94849968183E+02 0.  0.
          5    1    3    3  502    0  0.25694503890E+02 -0.15716687265E+03 -0.25791276191E+03  0.30314699165E+03  0.41800000000E+01 0. -1.
         -5    1    3    3    0  502  0.41325631780E+02  0.36655308421E+01 -0.24986393404E+02  0.48611070897E+02  0.41800000000E+01 0. -1.
        -11    1    4    4    0    0 -0.51854743998E+02  0.64485146242E+02  0.11982692484E+02  0.83611204273E+02  0.00000000000E+00 0. -1.
         11    1    4    4    0    0 -0.15165391673E+02  0.89016195571E+02 -0.79695031607E+02  0.12043741213E+03  0.00000000000E+00 0.  1.
</event>
<event>
 8    1  0.7075056E-009  0.2542216E+03  0.7561462E-02  0.1110666E+00
          1   -1    0    0  501    0  0.00000000000E+00  0.00000000000E+00  0.21170716540E+03  0.21170716540E+03  0.00000000000E+00 0. -1.
         -1   -1    0    0    0  501 -0.00000000000E+00 -0.00000000000E+00 -0.35137525027E+03  0.35137525027E+03  0.00000000000E+00 0.  1.
         25    2    1    2    0    0  0.20475319532E+03  0.13274299798E+03 -0.12907637329E+03  0.30307170046E+03  0.12508865244E+03 0.  0.
         23    2    1    2    0    0 -0.20475319532E+03 -0.13274299798E+03 -0.10591711571E+02  0.26001071521E+03  0.89156116805E+02 0.  0.
          5    1    3    3  502    0  0.12808522284E+03  0.25572371121E+02 -0.20496132383E+02  0.13227748983E+03  0.41800000000E+01 0.  1.
         -5    1    3    3    0  502  0.76667972483E+02  0.10717062686E+03 -0.10858024091E+03  0.17079421063E+03  0.41800000000E+01 0.  1.
        -11    1    4    4    0    0 -0.14582798773E+03 -0.77440861484E+02 -0.46563278381E+02  0.17155473740E+03  0.00000000000E+00 0.  1.
         11    1    4    4    0    0 -0.58925207594E+02 -0.55302136500E+02  0.35971566811E+02  0.88455977810E+02  0.00000000000E+00 0. -1.
</event>
<event>
 8    1  0.7075056E-009  0.8841639E+02  0.7561462E-02  0.1306733E+00
         -2   -1    0    0    0  501 -0.00000000000E+00  0.00000000000E+00  0.81769817436E+01  0.81769817436E+01  0.00000000000E+00 0.  1.
          2   -1    0    0  501    0  0.00000000000E+00 -0.00000000000E+00 -0.32466466235E+04  0.32466466235E+04  0.00000000000E+00 0. -1.
         25    2    1    2    0    0  0.94114190591E+00  0.59433319764E+02 -0.27971763079E+04  0.28006028350E+04  0.12509091371E+03 0.  0.
         23    2    1    2    0    0 -0.94114190591E+00 -0.59433319764E+02 -0.44129333392E+03  0.45422077031E+03  0.89685541583E+02 0.  0.
          5    1    3    3  502    0 -0.13194205536E+02  0.50229868159E+01 -0.36594101488E+02  0.39445127963E+02  0.41800000000E+01 0.  1.
         -5    1    3    3    0  502  0.14135347442E+02  0.54410332948E+02 -0.27605822064E+04  0.27611577070E+04  0.41800000000E+01 0.  1.
        -11    1    4    4    0    0 -0.17397594399E+02  0.18903387446E+02 -0.74838458465E+02  0.79125275438E+02  0.00000000000E+00 0. -1.
         11    1    4    4    0    0  0.16456452493E+02 -0.78336707210E+02 -0.36645487546E+03  0.37509549487E+03  0.00000000000E+00 0.  1.
</event>
<event>
 8    1  0.7075056E-009  0.1128650E+03  0.7561462E-02  0.1255355E+00
         -1   -1    0    0    0  501 -0.00000000000E+00  0.00000000000E+00  0.18579866962E+03  0.18579866962E+03  0.00000000000E+00 0.  1.
          1   -1    0    0  501    0  0.00000000000E+00 -0.00000000000E+00 -0.73739579216E+02  0.73739579216E+02  0.00000000000E+00 0. -1.
         25    2    1    2    0    0  0.27762758035E+02  0.27500470319E+02  0.68099539307E+02  0.14768999350E+03  0.12509092823E+03 0.  0.
         23    2    1    2    0    0 -0.27762758035E+02 -0.27500470319E+02  0.43959551099E+02  0.11184825533E+03  0.95134344414E+02 0.  0.
          5    1    3    3  502    0 -0.43888298777E+02 -0.55618783426E+01  0.49479016130E+02  0.66503854756E+02  0.41800000000E+01 0.  1.
         -5    1    3    3    0  502  0.71651056812E+02  0.33062348662E+02  0.18620523178E+02  0.81186138748E+02  0.41800000000E+01 0.  1.
        -11    1    4    4    0    0 -0.32787596487E+02 -0.60541969534E+02  0.23961400925E+02  0.72900653583E+02  0.00000000000E+00 0. -1.
         11    1    4    4    0    0  0.50248384519E+01  0.33041499215E+02  0.19998150174E+02  0.38947601752E+02  0.00000000000E+00 0.  1.
</event>
<event>
 8    1  0.7075056E-009  0.7340973E+02  0.7561462E-02  0.1348868E+00
          2   -1    0    0  501    0  0.00000000000E+00  0.00000000000E+00  0.90795006078E+02  0.90795006078E+02  0.00000000000E+00 0. -1.
         -2   -1    0    0    0  501 -0.00000000000E+00 -0.00000000000E+00 -0.13148923926E+03  0.13148923926E+03  0.00000000000E+00 0.  1.
         25    2    1    2    0    0  0.39890630803E+01  0.14682551566E+02 -0.11141401021E+02  0.12650287266E+03  0.12508939216E+03 0.  0.
         23    2    1    2    0    0 -0.39890630803E+01 -0.14682551566E+02 -0.29552832160E+02  0.95781372676E+02  0.89828790030E+02 0.  0.
          5    1    3    3  502    0 -0.39188759324E+02 -0.67992838269E+01  0.39665216416E+02  0.56327532443E+02  0.41800000000E+01 0. -1.
         -5    1    3    3    0  502  0.43177822404E+02  0.21481835393E+02 -0.50806617437E+02  0.70175340218E+02  0.41800000000E+01 0. -1.
        -11    1    4    4    0    0  0.12757413364E+01 -0.36222457041E+02  0.20069274690E+02  0.41430299258E+02  0.00000000000E+00 0. -1.
         11    1    4    4    0    0 -0.52648044168E+01  0.21539905475E+02 -0.49622106850E+02  0.54351073418E+02  0.00000000000E+00 0.  1.
</event>
<event>
 8    1  0.7075056E-009  0.9473881E+02  0.7561462E-02  0.1291765E+00
          1   -1    0    0  501    0  0.00000000000E+00  0.00000000000E+00  0.92081866276E+02  0.92081866276E+02  0.00000000000E+00 0. -1.
         -1   -1    0    0    0  501 -0.00000000000E+00 -0.00000000000E+00 -0.12917513475E+03  0.12917513475E+03  0.00000000000E+00 0.  1.
         25    2    1    2    0    0  0.78825163486E+01  0.36594782270E+01 -0.37525289821E+01  0.12545111094E+03  0.12509346073E+03 0.  0.
         23    2    1    2    0    0 -0.78825163486E+01 -0.36594782270E+01 -0.33340739488E+02  0.95805890087E+02  0.89395960875E+02 0.  0.
          5    1    3    3  502    0  0.57792042509E+02 -0.27584964230E+02 -0.13613580242E+02  0.65602228590E+02  0.41800000000E+01 0.  1.
         -5    1    3    3    0  502 -0.49909526161E+02  0.31244442457E+02  0.98610512600E+01  0.59848882345E+02  0.41800000000E+01 0.  1.
        -11    1    4    4    0    0 -0.14025777243E+01 -0.34616347646E+02  0.15230558177E+02  0.37844796881E+02  0.00000000000E+00 0.  1.
         11    1    4    4    0    0 -0.64799386244E+01  0.30956869419E+02 -0.48571297664E+02  0.57961093206E+02  0.00000000000E+00 0. -1.
</event>
<event>
 8    1  0.7075056E-009  0.1108164E+03  0.7561462E-02  0.1259065E+00
         -2   -1    0    0    0  501 -0.00000000000E+00  0.00000000000E+00  0.29773191314E+03  0.29773191314E+03  0.00000000000E+00 0.  1.
          2   -1    0    0  501    0  0.00000000000E+00 -0.00000000000E+00 -0.57831767869E+02  0.57831767869E+02  0.00000000000E+00 0. -1.
         25    2    1    2    0    0  0.23696136686E+02 -0.25744793186E+02  0.22551131886E+03  0.26024416314E+03  0.12508944098E+03 0.  0.
         23    2    1    2    0    0 -0.23696136686E+02  0.25744793186E+02  0.14388826411E+02  0.95319517870E+02  0.87489833075E+02 0.  0.
          5    1    3    3  502    0 -0.50799132486E+02 -0.14577643348E+02  0.11248613138E+03  0.12435297222E+03  0.41800000000E+01 0.  1.
         -5    1    3    3    0  502  0.74495269172E+02 -0.11167149838E+02  0.11302518748E+03  0.13589119092E+03  0.41800000000E+01 0.  1.
        -11    1    4    4    0    0 -0.55771042511E+02  0.74972614916E+01  0.15608110853E+02  0.58397185181E+02  0.00000000000E+00 0. -1.
         11    1    4    4    0    0  0.32074905826E+02  0.18247531695E+02 -0.12192844418E+01  0.36922332689E+02  0.00000000000E+00 0.  1.
</event>
<event>
 8    1  0.7075056E-009  0.2995540E+03  0.7561462E-02  0.1085464E+00
         -2   -1    0    0    0  501 -0.00000000000E+00  0.00000000000E+00  0.28864161724E+03  0.28864161724E+03  0.00000000000E+00 0. -1.
          2   -1    0    0  501    0  0.00000000000E+00 -0.00000000000E+00 -0.40387230355E+03  0.40387230355E+03  0.00000000000E+00 0.  1.
         25    2    1    2    0    0  0.17849042243E+03 -0.23240348139E+03  0.80255158391E+02  0.32857121970E+03  0.12509175396E+03 0.  0.
         23    2    1    2    0    0 -0.17849042243E+03  0.23240348139E+03 -0.19548584469E+03  0.36394270109E+03  0.91484234377E+02 0.  0.
          5    1    3    3  502    0  0.37257907748E+02 -0.69031202489E+02 -0.32384203525E+02  0.84968627415E+02  0.41800000000E+01 0. -1.
         -5    1    3    3    0  502  0.14123251468E+03 -0.16337227890E+03  0.11263936192E+03  0.24360259229E+03  0.41800000000E+01 0. -1.
        -11    1    4    4    0    0 -0.12254405028E+03  0.91450741426E+02 -0.75295252067E+02  0.17043960030E+03  0.00000000000E+00 0.  1.
         11    1    4    4    0    0 -0.55946372154E+02  0.14095273996E+03 -0.12019059263E+03  0.19350310079E+03  0.00000000000E+00 0. -1.
</event>
<event>
 8    1  0.7075056E-009  0.1664362E+03  0.7561462E-02  0.1181616E+00
          2   -1    0    0  501    0  0.00000000000E+00  0.00000000000E+00  0.36558681130E+03  0.36558681130E+03  0.00000000000E+00 0. -1.
         -2   -1    0    0    0  501 -0.00000000000E+00 -0.00000000000E+00 -0.10609878249E+03  0.10609878249E+03  0.00000000000E+00 0.  1.
         25    2    1    2    0    0  0.78923382534E+02 -0.13269953121E+03  0.20260009522E+03  0.28378066156E+03  0.12508636776E+03 0.  0.
         23    2    1    2    0    0 -0.78923382534E+02  0.13269953121E+03  0.56887933593E+02  0.18790493222E+03  0.90741174070E+02 0.  0.
          5    1    3    3  502    0  0.87336565847E+02 -0.62971051739E+02  0.18017122368E+03  0.20993373081E+03  0.41800000000E+01 0.  1.
         -5    1    3    3    0  502 -0.84131833135E+01 -0.69728479468E+02  0.22428871540E+02  0.73846930748E+02  0.41800000000E+01 0.  1.
        -11    1    4    4    0    0 -0.41336848610E+02  0.59119919124E+02  0.74199926239E+02  0.10348685397E+03  0.00000000000E+00 0. -1.
         11    1    4    4    0    0 -0.37586533924E+02  0.73579612083E+02 -0.17311992646E+02  0.84418078254E+02  0.00000000000E+00 0.  1.
</event>
<event>
 8    1  0.7075056E-009  0.1267918E+03  0.7561462E-02  0.1232295E+00
          2   -1    0    0  501    0  0.00000000000E+00  0.00000000000E+00  0.41769974153E+03  0.41769974153E+03  0.00000000000E+00 0. -1.
         -2   -1    0    0    0  501 -0.00000000000E+00 -0.00000000000E+00 -0.53609742231E+02  0.53609742231E+02  0.00000000000E+00 0.  1.
         25    2    1    2    0    0 -0.51320724928E+02  0.88393867385E+02  0.18328394799E+03  0.24431073496E+03  0.12508971592E+03 0.  0.
         23    2    1    2    0    0  0.51320724928E+02 -0.88393867385E+02  0.18080605131E+03  0.22699874879E+03  0.91598641728E+02 0.  0.
          5    1    3    3  502    0 -0.77711087707E+02  0.42535477696E+02  0.16649602584E+03  0.18864431885E+03  0.41800000000E+01 0.  1.
         -5    1    3    3    0  502  0.26390362779E+02  0.45858389689E+02  0.16787922150E+02  0.55666416111E+02  0.41800000000E+01 0.  1.
        -11    1    4    4    0    0  0.78365386622E+01 -0.58567587274E+02  0.28072424442E+02  0.65418916464E+02  0.00000000000E+00 0.  1.
         11    1    4    4    0    0  0.43484186266E+02 -0.29826280112E+02  0.15273362687E+03  0.16157983233E+03  0.00000000000E+00 0. -1.
</event>
<event>
 8    1  0.7075056E-009  0.7294791E+02  0.7561462E-02  0.1350346E+00
         -2   -1    0    0    0  501 -0.00000000000E+00  0.00000000000E+00  0.17625395375E+03  0.17625395375E+03  0.00000000000E+00 0.  1.
          2   -1    0    0  501    0  0.00000000000E+00 -0.00000000000E+00 -0.87871263687E+02  0.87871263687E+02  0.00000000000E+00 0. -1.
         25    2    1    2    0    0 -0.53047609158E+01 -0.49893763557E+02  0.80359298642E+02  0.15691550361E+03  0.12508928917E+03 0.  0.
         23    2    1    2    0    0  0.53047609158E+01  0.49893763557E+02  0.80233914247E+01  0.10720971383E+03  0.94403494635E+02 0.  0.
          5    1    3    3  502    0 -0.11329926130E+02 -0.37037979257E+02 -0.27729485850E+02  0.47818154702E+02  0.41800000000E+01 0. -1.
         -5    1    3    3    0  502  0.60251652142E+01 -0.12855784300E+02  0.10808878449E+03  0.10909734891E+03  0.41800000000E+01 0. -1.
        -11    1    4    4    0    0 -0.50783983379E+01 -0.20430348348E+02 -0.21632456733E+02  0.30185301847E+02  0.00000000000E+00 0. -1.
         11    1    4    4    0    0  0.10383159254E+02  0.70324111905E+02  0.29655848157E+02  0.77024411983E+02  0.00000000000E+00 0.  1.
</event>
<event>
 8    1  0.7075056E-009  0.1392387E+03  0.7561462E-02  0.1214357E+00
         -2   -1    0    0    0  501 -0.00000000000E+00  0.00000000000E+00  0.78068807568E+02  0.78068807568E+02  0.00000000000E+00 0.  1.
          2   -1    0    0  501    0  0.00000000000E+00 -0.00000000000E+00 -0.37942423481E+03  0.37942423481E+03  0.00000000000E+00 0. -1.
         25    2    1    2    0    0 -0.12687207302E+03 -0.61275408515E+01 -0.10534392034E+03  0.20707197593E+03  0.12508953592E+03 0.  0.
         23    2    1    2    0    0  0.12687207302E+03  0.61275408515E+01 -0.19601150691E+03  0.25042106645E+03  0.90311295043E+02 0.  0.
          5    1    3    3  502    0  0.95711983789E+01 -0.53103863982E+01 -0.63095250031E+02  0.64173912290E+02  0.41800000000E+01 0. -1.
         -5    1    3    3    0  502 -0.13644327139E+03 -0.81715445334E+00 -0.42248670305E+02  0.14289806364E+03  0.41800000000E+01 0. -1.
        -11    1    4    4    0    0  0.78415785230E+02  0.17795674089E+02 -0.46647704209E+02  0.92960904134E+02  0.00000000000E+00 0.  1.
         11    1    4    4    0    0  0.48456287786E+02 -0.11668133237E+02 -0.14936380270E+03  0.15746016231E+03  0.00000000000E+00 0. -1.
</event>
<event>
 8    1  0.7075056E-009  0.1059229E+03  0.7561462E-02  0.1268312E+00
          3   -1    0    0  501    0  0.00000000000E+00  0.00000000000E+00  0.12811841389E+03  0.12811841389E+03  0.00000000000E+00 0. -1.
         -3   -1    0    0    0  501 -0.00000000000E+00 -0.00000000000E+00 -0.10324016600E+03  0.10324016600E+03  0.00000000000E+00 0.  1.
         25    2    1    2    0    0  0.55140708389E+01  0.10539763254E+02  0.53103805657E+02  0.13641320615E+03  0.12508819708E+03 0.  0.
         23    2    1    2    0    0 -0.55140708389E+01 -0.10539763254E+02 -0.28225557771E+02  0.94945373748E+02  0.89869073090E+02 0.  0.
          5    1    3    3  502    0 -0.15344080049E+01  0.65603067571E+02  0.11121791449E+02  0.66687956392E+02  0.41800000000E+01 0. -1.
         -5    1    3    3    0  502  0.70484788439E+01 -0.55063304317E+02  0.41982014208E+02  0.69725249754E+02  0.41800000000E+01 0. -1.
        -11    1    4    4    0    0  0.40620243490E+02 -0.16619764082E+02 -0.10317412952E+02  0.45085138897E+02  0.00000000000E+00 0.  1.
         11    1    4    4    0    0 -0.46134314329E+02  0.60800008277E+01 -0.17908144819E+02  0.49860234852E+02  0.00000000000E+00 0. -1.
</event>
<event>
 8    1  0.7075056E-009  0.1726211E+03  0.7561462E-02  0.1175142E+00
         -2   -1    0    0    0  501 -0.00000000000E+00  0.00000000000E+00  0.90545457197E+02  0.90545457197E+02  0.00000000000E+00 0.  1.
          2   -1    0    0  501    0  0.00000000000E+00 -0.00000000000E+00 -0.73509750449E+03  0.73509750449E+03  0.00000000000E+00 0. -1.
         25    2    1    2    0    0  0.85238370996E+02  0.10776335497E+03 -0.29010382898E+02  0.18806102445E+03  0.12508727368E+03 0.  0.
         23    2    1    2    0    0 -0.85238370996E+02 -0.10776335497E+03 -0.61554166439E+03  0.63758193723E+03  0.93491526436E+02 0.  0.
          5    1    3    3  502    0  0.99642397373E+02  0.33055977442E+02  0.37186041530E+01  0.10513137218E+03  0.41800000000E+01 0.  1.
         -5    1    3    3    0  502 -0.14404026378E+02  0.74707377530E+02 -0.32728987051E+02  0.82929652276E+02  0.41800000000E+01 0.  1.
        -11    1    4    4    0    0 -0.32554272013E+02 -0.10640875220E+03 -0.46331254711E+03  0.47648832040E+03  0.00000000000E+00 0.  1.
         11    1    4    4    0    0 -0.52684098982E+02 -0.13546027741E+01 -0.15222911729E+03  0.16109361683E+03  0.00000000000E+00 0. -1.
</event>
<event>
 8    1  0.7075056E-009  0.1728965E+03  0.7561462E-02  0.1174860E+00
         -1   -1    0    0    0  501 -0.00000000000E+00  0.00000000000E+00  0.39162567764E+03  0.39162567764E+03  0.00000000000E+00 0.  1.
          1   -1    0    0  501    0  0.00000000000E+00 -0.00000000000E+00 -0.90685295708E+02  0.90685295708E+02  0.00000000000E+00 0. -1.
         25    2    1    2    0    0  0.11772510441E+03 -0.77518277584E+02  0.23439059210E+03  0.30075611224E+03  0.12508799229E+03 0.  0.
         23    2    1    2    0    0 -0.11772510441E+03  0.77518277584E+02  0.66549789830E+02  0.18155486111E+03  0.93086032775E+02 0.  0.
          5    1    3    3  502    0 -0.11211214742E+02 -0.43547441620E+02  0.10768424793E+03  0.11677088961E+03  0.41800000000E+01 0.  1.
         -5    1    3    3    0  502  0.12893631915E+03 -0.33970835964E+02  0.12670634417E+03  0.18398522263E+03  0.41800000000E+01 0.  1.
        -11    1    4    4    0    0 -0.84740677480E+02  0.97094758414E+02  0.40118849372E+02  0.13497368857E+03  0.00000000000E+00 0. -1.
         11    1    4    4    0    0 -0.32984426930E+02 -0.19576480830E+02  0.26430940458E+02  0.46581172539E+02  0.00000000000E+00 0.  1.
</event>
<event>
 8    1  0.7075056E-009  0.1867843E+03  0.7561462E-02  0.1161394E+00
         -3   -1    0    0    0  501 -0.00000000000E+00  0.00000000000E+00  0.67733310311E+02  0.67733310311E+02  0.00000000000E+00 0.  1.
          3   -1    0    0  501    0  0.00000000000E+00 -0.00000000000E+00 -0.75447762176E+03  0.75447762176E+03  0.00000000000E+00 0. -1.
         25    2    1    2    0    0 -0.12959225570E+03 -0.10783577720E+03 -0.17240426270E+03  0.27165197450E+03  0.12509539509E+03 0.  0.
         23    2    1    2    0    0  0.12959225570E+03  0.10783577720E+03 -0.51434004874E+03  0.55055895756E+03  0.10073118897E+03 0.  0.
          5    1    3    3  502    0  0.16575294135E+02  0.69813300846E+01 -0.54915445278E+00  0.18473042955E+02  0.41800000000E+01 0.  1.
         -5    1    3    3    0  502 -0.14616754983E+03 -0.11481710728E+03 -0.17185510825E+03  0.25317893155E+03  0.41800000000E+01 0.  1.
        -11    1    4    4    0    0  0.44495002749E+02  0.45971792152E+02 -0.34733126661E+03  0.35317448904E+03  0.00000000000E+00 0. -1.
         11    1    4    4    0    0  0.85097252948E+02  0.61863985047E+02 -0.16700878214E+03  0.19738446853E+03  0.00000000000E+00 0.  1.
</event>
<event>
 8    1  0.7075056E-009  0.8035934E+02  0.7561462E-02  0.1328035E+00
         -4   -1    0    0    0  501 -0.00000000000E+00  0.00000000000E+00  0.16480999844E+03  0.16480999844E+03  0.00000000000E+00 0.  1.
          4   -1    0    0  501    0  0.00000000000E+00 -0.00000000000E+00 -0.99479666257E+02  0.99479666257E+02  0.00000000000E+00 0. -1.
         25    2    1    2    0    0 -0.63889856886E+02 -0.15158298748E+02  0.23126690929E+02  0.14315428266E+03  0.12508643802E+03 0.  0.
         23    2    1    2    0    0  0.63889856886E+02  0.15158298748E+02  0.42203641258E+02  0.12113538204E+03  0.92633393612E+02 0.  0.
          5    1    3    3  502    0 -0.10849795135E+02  0.91529198911E+01 -0.48482290109E+02  0.50690224415E+02  0.41800000000E+01 0.  1.
         -5    1    3    3    0  502 -0.53040061751E+02 -0.24311218639E+02  0.71608981038E+02  0.92464058248E+02  0.41800000000E+01 0.  1.
        -11    1    4    4    0    0  0.71208512057E+02  0.69054964111E+00  0.62783288657E+02  0.94936138445E+02  0.00000000000E+00 0.  1.
         11    1    4    4    0    0 -0.73186551710E+01  0.14467749107E+02 -0.20579647400E+02  0.26199243593E+02  0.00000000000E+00 0. -1.
</event>
<event>
 8    1  0.7075056E-009  0.1010753E+03  0.7561462E-02  0.1278051E+00
         -1   -1    0    0    0  501 -0.00000000000E+00  0.00000000000E+00  0.43107129636E+02  0.43107129636E+02  0.00000000000E+00 0.  1.
          1   -1    0    0  501    0  0.00000000000E+00 -0.00000000000E+00 -0.35242975188E+03  0.35242975188E+03  0.00000000000E+00 0. -1.
         25    2    1    2    0    0 -0.83014285836E+01  0.44689709544E+02 -0.23406582353E+03  0.26925957060E+03  0.12509125771E+03 0.  0.
         23    2    1    2    0    0  0.83014285836E+01 -0.44689709544E+02 -0.75256798715E+02  0.12627731092E+03  0.90643751277E+02 0.  0.
          5    1    3    3  502    0 -0.44945591038E+02  0.45382887651E+02 -0.22106799122E+03  0.23014830390E+03  0.41800000000E+01 0.  1.
         -5    1    3    3    0  502  0.36644162455E+02 -0.69317810732E+00 -0.12997832314E+02  0.39111266698E+02  0.41800000000E+01 0.  1.
        -11    1    4    4    0    0 -0.35888287480E+02 -0.44363529190E+02 -0.39004455447E+02  0.69119023757E+02  0.00000000000E+00 0. -1.
         11    1    4    4    0    0  0.44189716063E+02 -0.32618035392E+00 -0.36252343267E+02  0.57158287166E+02  0.00000000000E+00 0.  1.
</event>
<event>
 8    1  0.7075056E-009  0.1704127E+03  0.7561462E-02  0.1177418E+00
         -2   -1    0    0    0  501 -0.00000000000E+00  0.00000000000E+00  0.60668393373E+02  0.60668393373E+02  0.00000000000E+00 0.  1.
          2   -1    0    0  501    0  0.00000000000E+00 -0.00000000000E+00 -0.53773992768E+03  0.53773992768E+03  0.00000000000E+00 0. -1.
         25    2    1    2    0    0  0.76377649496E+02 -0.11798245570E+03 -0.19652722241E+03  0.27207345851E+03  0.12509041722E+03 0.  0.
         23    2    1    2    0    0 -0.76377649496E+02  0.11798245570E+03 -0.28054431190E+03  0.32633486255E+03  0.89643328704E+02 0.  0.
          5    1    3    3  502    0  0.59950729149E+02 -0.13668118817E+03 -0.19655636737E+03  0.24683540078E+03  0.41800000000E+01 0. -1.
         -5    1    3    3    0  502  0.16426920346E+02  0.18698732475E+02  0.29144957709E-01  0.25238057723E+02  0.41800000000E+01 0. -1.
        -11    1    4    4    0    0 -0.32573669910E+02  0.11806269071E+03 -0.19605465236E+03  0.23116502681E+03  0.00000000000E+00 0. -1.
         11    1    4    4    0    0 -0.43803979585E+02 -0.80235011344E-01 -0.84489659540E+02  0.95169835738E+02  0.00000000000E+00 0.  1.
</event>
<event>
 8    1  0.7075056E-009  0.1056302E+03  0.7561462E-02  0.1268883E+00
          2   -1    0    0  501    0  0.00000000000E+00  0.00000000000E+00  0.10048677760E+03  0.10048677760E+03  0.00000000000E+00 0. -1.
         -2   -1    0    0    0  501 -0.00000000000E+00 -0.00000000000E+00 -0.13533549643E+03  0.13533549643E+03  0.00000000000E+00 0.  1.
         25    2    1    2    0    0  0.72234106371E+01  0.38680226526E+02 -0.45312985329E+01  0.13121756397E+03  0.12509667798E+03 0.  0.
         23    2    1    2    0    0 -0.72234106371E+01 -0.38680226526E+02 -0.30317420297E+02  0.10460471005E+03  0.92057926365E+02 0.  0.
          5    1    3    3  502    0  0.55522817591E+02  0.22169747205E+02 -0.37137164688E+02  0.70504768388E+02  0.41800000000E+01 0. -1.
         -5    1    3    3    0  502 -0.48299406954E+02  0.16510479321E+02  0.32605866155E+02  0.60712795581E+02  0.41800000000E+01 0. -1.
        -11    1    4    4    0    0 -0.49476791289E+02 -0.15113425007E+02 -0.15599338717E+02  0.54034321132E+02  0.00000000000E+00 0. -1.
         11    1    4    4    0    0  0.42253380652E+02 -0.23566801519E+02 -0.14718081580E+02  0.50570388922E+02  0.00000000000E+00 0.  1.
</event>
<event>
 8    1  0.7075056E-009  0.9097050E+02  0.7561462E-02  0.1300518E+00
         -2   -1    0    0    0  501 -0.00000000000E+00  0.00000000000E+00  0.78070215875E+02  0.78070215875E+02  0.00000000000E+00 0.  1.
          2   -1    0    0  501    0  0.00000000000E+00 -0.00000000000E+00 -0.17104315743E+03  0.17104315743E+03  0.00000000000E+00 0. -1.
         25    2    1    2    0    0 -0.15643376859E+02  0.32802032628E+01 -0.14301116460E+02  0.12691832482E+03  0.12509302247E+03 0.  0.
         23    2    1    2    0    0  0.15643376859E+02 -0.32802032628E+01 -0.78671825099E+02  0.12219504849E+03  0.92124366148E+02 0.  0.
          5    1    3    3  502    0  0.51923013668E+02  0.57573754597E+01  0.12814336372E+02  0.53952074448E+02  0.41800000000E+01 0.  1.
         -5    1    3    3    0  502 -0.67566390527E+02 -0.24771721969E+01 -0.27115452832E+02  0.72966250371E+02  0.41800000000E+01 0.  1.
        -11    1    4    4    0    0  0.90057706952E+01 -0.31520638446E+02 -0.86200930013E+02  0.92223938806E+02  0.00000000000E+00 0. -1.
         11    1    4    4    0    0  0.66376061634E+01  0.28240435183E+02  0.75291049137E+01  0.29971109684E+02  0.00000000000E+00 0.  1.
</event>
<event>
 8    1  0.7075056E-009  0.8632324E+02  0.7561462E-02  0.1312008E+00
          1   -1    0    0  501    0  0.00000000000E+00  0.00000000000E+00  0.86010642994E+02  0.86010642994E+02  0.00000000000E+00 0. -1.
         -1   -1    0    0    0  501 -0.00000000000E+00 -0.00000000000E+00 -0.14753759116E+03  0.14753759116E+03  0.00000000000E+00 0.  1.
         25    2    1    2    0    0  0.17300969711E+02  0.25554964179E+02 -0.38308220991E+02  0.13441728352E+03  0.12509239212E+03 0.  0.
         23    2    1    2    0    0 -0.17300969711E+02 -0.25554964179E+02 -0.23218727179E+02  0.99130950636E+02  0.91298720337E+02 0.  0.
          5    1    3    3  502    0 -0.53720805426E+02  0.17992115810E+02 -0.11155987929E+02  0.57892742495E+02  0.41800000000E+01 0.  1.
         -5    1    3    3    0  502  0.71021775137E+02  0.75628483685E+01 -0.27152233063E+02  0.76524541026E+02  0.41800000000E+01 0.  1.
        -11    1    4    4    0    0 -0.26737621644E+02 -0.18613786317E+02  0.30211896906E+02  0.44431207128E+02  0.00000000000E+00 0. -1.
         11    1    4    4    0    0  0.94366519329E+01 -0.69411778614E+01 -0.53430624084E+02  0.54699743508E+02  0.00000000000E+00 0.  1.
</event>
<event>
 8    1  0.7075056E-009  0.1606442E+03  0.7561462E-02  0.1187971E+00
          2   -1    0    0  501    0  0.00000000000E+00  0.00000000000E+00  0.12456866483E+03  0.12456866483E+03  0.00000000000E+00 0. -1.
         -2   -1    0    0    0  501 -0.00000000000E+00 -0.00000000000E+00 -0.24534297296E+03  0.24534297296E+03  0.00000000000E+00 0.  1.
         25    2    1    2    0    0  0.11485341592E+03  0.75689054856E+02 -0.56127529938E+02  0.19421276619E+03  0.12509260075E+03 0.  0.
         23    2    1    2    0    0 -0.11485341592E+03 -0.75689054856E+02 -0.64646778200E+02  0.17569887160E+03  0.88151842732E+02 0.  0.
          5    1    3    3  502    0  0.46958806215E+02 -0.18608836301E+02 -0.59158053147E+02  0.77901000775E+02  0.41800000000E+01 0.  1.
         -5    1    3    3    0  502  0.67894609702E+02  0.94297891156E+02  0.30305232091E+01  0.11631176542E+03  0.41800000000E+01 0.  1.
        -11    1    4    4    0    0 -0.93460939157E+02 -0.89064298436E+02 -0.73981902824E+02  0.14879757508E+03  0.00000000000E+00 0.  1.
         11    1    4    4    0    0 -0.21392476760E+02  0.13375243580E+02  0.93351246239E+01  0.26901296521E+02  0.00000000000E+00 0. -1.
</event>
<event>
 8    1  0.7075056E-009  0.7853272E+02  0.7561462E-02  0.1333268E+00
          1   -1    0    0  501    0  0.00000000000E+00  0.00000000000E+00  0.21986231714E+03  0.21986231714E+03  0.00000000000E+00 0. -1.
         -1   -1    0    0    0  501 -0.00000000000E+00 -0.00000000000E+00 -0.55996567860E+02  0.55996567860E+02  0.00000000000E+00 0.  1.
         25    2    1    2    0    0  0.20628547436E+02 -0.16310087267E+02  0.93583761290E+02  0.15841147555E+03  0.12507885230E+03 0.  0.
         23    2    1    2    0    0 -0.20628547436E+02  0.16310087267E+02  0.70281987993E+02  0.11744740945E+03  0.90348105872E+02 0.  0.
          5    1    3    3  502    0  0.39680341316E+02 -0.39670943123E+01  0.11811066618E+03  0.12473118772E+03  0.41800000000E+01 0.  1.
         -5    1    3    3    0  502 -0.19051793881E+02 -0.12342992955E+02 -0.24526904888E+02  0.33680287833E+02  0.41800000000E+01 0.  1.
        -11    1    4    4    0    0  0.35675423186E+02  0.10999619994E+02  0.31826138090E+02  0.49057420695E+02  0.00000000000E+00 0. -1.
         11    1    4    4    0    0 -0.56303970622E+02  0.53104672732E+01  0.38455849903E+02  0.68389988757E+02  0.00000000000E+00 0.  1.
</event>
<event>
 8    1  0.7075056E-009  0.2054410E+03  0.7561462E-02  0.1145228E+00
         -1   -1    0    0    0  501 -0.00000000000E+00  0.00000000000E+00  0.29801189183E+03  0.29801189183E+03  0.00000000000E+00 0.  1.
          1   -1    0    0  501    0  0.00000000000E+00 -0.00000000000E+00 -0.17154246780E+03  0.17154246780E+03  0.00000000000E+00 0. -1.
         25    2    1    2    0    0 -0.15474165063E+03 -0.12021973196E+03  0.10074923821E+03  0.25337004446E+03  0.12509279771E+03 0.  0.
         23    2    1    2    0    0  0.15474165063E+03  0.12021973196E+03  0.25720185829E+02  0.21618431516E+03  0.87614883270E+02 0.  0.
          5    1    3    3  502    0 -0.64969256867E+02 -0.12799909543E+01 -0.12313356700E+02  0.66270158200E+02  0.41800000000E+01 0. -1.
         -5    1    3    3    0  502 -0.89772393762E+02 -0.11893974101E+03  0.11306259491E+03  0.18709988626E+03  0.41800000000E+01 0. -1.
        -11    1    4    4    0    0  0.41173381764E+02  0.41843699363E+02 -0.31712174106E+02  0.66721844465E+02  0.00000000000E+00 0.  1.
         11    1    4    4    0    0  0.11356826887E+03  0.78376032600E+02  0.57432359935E+02  0.14946247070E+03  0.00000000000E+00 0. -1.
</event>
<event>
 8    1  0.7075056E-009  0.1457684E+03  0.7561462E-02  0.1205771E+00
         -2   -1    0    0    0  501 -0.00000000000E+00  0.00000000000E+00  0.11306274271E+03  0.11306274271E+03  0.00000000000E+00 0.  1.
          2   -1    0    0  501    0  0.00000000000E+00 -0.00000000000E+00 -0.25177416543E+03  0.25177416543E+03  0.00000000000E+00 0. -1.
         25    2    1    2    0    0 -0.11757000172E+03  0.21450320388E+02 -0.12988446667E+03  0.21633379950E+03  0.12509003387E+03 0.  0.
         23    2    1    2    0    0  0.11757000172E+03 -0.21450320388E+02 -0.88269560492E+01  0.14850310864E+03  0.87706536672E+02 0.  0.
          5    1    3    3  502    0 -0.70307439554E+02 -0.42410683829E+02 -0.10420834148E+03  0.13273527411E+03  0.41800000000E+01 0.  1.
         -5    1    3    3    0  502 -0.47262562165E+02  0.63861004216E+02 -0.25676125190E+02  0.83598525386E+02  0.41800000000E+01 0.  1.
        -11    1    4    4    0    0  0.71899282267E+02  0.12342030904E+02  0.30850913414E+02  0.79206132186E+02  0.00000000000E+00 0.  1.
         11    1    4    4    0    0  0.45670719452E+02 -0.33792351292E+02 -0.39677869464E+02  0.69296976458E+02  0.00000000000E+00 0. -1.
</event>
<event>
 8    1  0.7075056E-009  0.1331318E+03  0.7561462E-02  0.1222881E+00
         -4   -1    0    0    0  501 -0.00000000000E+00  0.00000000000E+00  0.25554398029E+03  0.25554398029E+03  0.00000000000E+00 0. -1.
          4   -1    0    0  501    0  0.00000000000E+00 -0.00000000000E+00 -0.10969301849E+03  0.10969301849E+03  0.00000000000E+00 0.  1.
         25    2    1    2    0    0  0.30394149858E+02 -0.96653925117E+02  0.16363511957E+03  0.22954185676E+03  0.12508887265E+03 0.  0.
         23    2    1    2    0    0 -0.30394149858E+02  0.96653925117E+02 -0.17784157771E+02  0.13569514201E+03  0.88493557460E+02 0.  0.
          5    1    3    3  502    0 -0.28960256663E+02 -0.95795232918E+02  0.88212375209E+02  0.13347029129E+03  0.41800000000E+01 0.  1.
         -5    1    3    3    0  502  0.59354406521E+02 -0.85869219865E+00  0.75422744364E+02  0.96071565477E+02  0.41800000000E+01 0.  1.
        -11    1    4    4    0    0 -0.31948240823E+02  0.46522438566E+02 -0.50566799148E+02  0.75776174078E+02  0.00000000000E+00 0. -1.
         11    1    4    4    0    0  0.15540909655E+01  0.50131486551E+02  0.32782641378E+02  0.59918967933E+02  0.00000000000E+00 0.  1.
</event>
<event>
 8    1  0.7075056E-009  0.2185874E+03  0.7561462E-02  0.1134941E+00
          1   -1    0    0  501    0  0.00000000000E+00  0.00000000000E+00  0.14029771932E+04  0.14029771932E+04  0.00000000000E+00 0. -1.
         -1   -1    0    0    0  501 -0.00000000000E+00 -0.00000000000E+00 -0.46087512408E+02  0.46087512408E+02  0.00000000000E+00 0.  1.
         25    2    1    2    0    0  0.11725801250E+03  0.16525715963E+03  0.39008824888E+03  0.45702928342E+03  0.12509018220E+03 0.  0.
         23    2    1    2    0    0 -0.11725801250E+03 -0.16525715963E+03  0.96680143191E+03  0.99203542218E+03  0.91487156621E+02 0.  0.
          5    1    3    3  502    0  0.41413910818E+00  0.99843988309E+02  0.12523515934E+03  0.16021957136E+03  0.41800000000E+01 0. -1.
         -5    1    3    3    0  502  0.11684387339E+03  0.65413171324E+02  0.26485308954E+03  0.29680971205E+03  0.41800000000E+01 0. -1.
        -11    1    4    4    0    0 -0.30692998269E+02 -0.31802410609E+02  0.83014614412E+02  0.94047220423E+02  0.00000000000E+00 0.  1.
         11    1    4    4    0    0 -0.86565014231E+02 -0.13345474902E+03  0.88378681749E+03  0.89798820176E+03  0.00000000000E+00 0. -1.
</event>
<event>
 8    1  0.7075056E-009  0.6045668E+02  0.7561462E-02  0.1395925E+00
          4   -1    0    0  501    0  0.00000000000E+00  0.00000000000E+00  0.22723818149E+03  0.22723818149E+03  0.00000000000E+00 0. -1.
         -4   -1    0    0    0  501 -0.00000000000E+00 -0.00000000000E+00 -0.54607226914E+02  0.54607226914E+02  0.00000000000E+00 0.  1.
         25    2    1    2    0    0 -0.23932355250E+02  0.54407024718E+01  0.85271364090E+02  0.15336413928E+03  0.12508794831E+03 0.  0.
         23    2    1    2    0    0  0.23932355250E+02 -0.54407024718E+01  0.87359590484E+02  0.12848126912E+03  0.90958119996E+02 0.  0.
          5    1    3    3  502    0  0.13612007788E+01  0.35613243868E+01 -0.32414048067E+02  0.32904085021E+02  0.41800000000E+01 0.  1.
         -5    1    3    3    0  502 -0.25293556028E+02  0.18793780850E+01  0.11768541216E+03  0.12046005426E+03  0.41800000000E+01 0.  1.
        -11    1    4    4    0    0 -0.44699088455E+01  0.37664698028E+02  0.57389252993E+02  0.68790522034E+02  0.00000000000E+00 0. -1.
         11    1    4    4    0    0  0.28402264095E+02 -0.43105400500E+02  0.29970337491E+02  0.59690747083E+02  0.00000000000E+00 0.  1.
</event>
<event>
 8    1  0.7075056E-009  0.1355971E+03  0.7561462E-02  0.1219379E+00
          2   -1    0    0  501    0  0.00000000000E+00  0.00000000000E+00  0.39776949595E+03  0.39776949595E+03  0.00000000000E+00 0. -1.
         -2   -1    0    0    0  501 -0.00000000000E+00 -0.00000000000E+00 -0.61179291941E+02  0.61179291941E+02  0.00000000000E+00 0.  1.
         25    2    1    2    0    0 -0.88086930763E+02  0.56550889226E+02  0.12334056436E+03  0.20449474574E+03  0.12509154958E+03 0.  0.
         23    2    1    2    0    0  0.88086930763E+02 -0.56550889226E+02  0.21324963965E+03  0.25445404215E+03  0.91181907809E+02 0.  0.
          5    1    3    3  502    0 -0.26202865935E+02  0.88439320638E+02  0.58769922703E+02  0.10945081010E+03  0.41800000000E+01 0.  1.
         -5    1    3    3    0  502 -0.61884064829E+02 -0.31888431412E+02  0.64570641660E+02  0.95043935640E+02  0.41800000000E+01 0.  1.
        -11    1    4    4    0    0  0.38570330373E+01 -0.14443077894E+02 -0.57888301096E+01  0.16030900067E+02  0.00000000000E+00 0.  1.
         11    1    4    4    0    0  0.84229897726E+02 -0.42107811332E+02  0.21903846976E+03  0.23842314208E+03  0.00000000000E+00 0. -1.
</event>
<event>
 8    1  0.7075056E-009  0.1261744E+03  0.7561462E-02  0.1233245E+00
          2   -1    0    0  501    0  0.00000000000E+00  0.00000000000E+00  0.63438084588E+03  0.63438084588E+03  0.00000000000E+00 0. -1.
         -2   -1    0    0    0  501 -0.00000000000E+00 -0.00000000000E+00 -0.33072877013E+02  0.33072877013E+02  0.00000000000E+00 0.  1.
         25    2    1    2    0    0  0.10769106244E+02  0.87382086865E+02  0.25591201862E+03  0.29814530450E+03  0.12509220027E+03 0.  0.
         23    2    1    2    0    0 -0.10769106244E+02 -0.87382086865E+02  0.34539595025E+03  0.36930841839E+03  0.96637170349E+02 0.  0.
          5    1    3    3  502    0  0.50733700165E+02  0.22834852486E+02  0.18832376602E+03  0.19641449047E+03  0.41800000000E+01 0.  1.
         -5    1    3    3    0  502 -0.39964593921E+02  0.64547234379E+02  0.67588252600E+02  0.10173081403E+03  0.41800000000E+01 0.  1.
        -11    1    4    4    0    0  0.34994181457E+02 -0.24358102386E+02  0.60888418736E+02  0.74332425118E+02  0.00000000000E+00 0.  1.
         11    1    4    4    0    0 -0.45763287701E+02 -0.63023984478E+02  0.28450753151E+03  0.29497599328E+03  0.00000000000E+00 0. -1.
</event>
<event>
 8    1  0.7075056E-009  0.1327551E+03  0.7561462E-02  0.1223424E+00
          2   -1    0    0  501    0  0.00000000000E+00  0.00000000000E+00  0.56654350590E+03  0.56654350590E+03  0.00000000000E+00 0.  1.
         -2   -1    0    0    0  501 -0.00000000000E+00 -0.00000000000E+00 -0.54516478098E+02  0.54516478098E+02  0.00000000000E+00 0. -1.
         25    2    1    2    0    0  0.50669568997E+02  0.11457628343E+03  0.16924723912E+03  0.24492283025E+03  0.12508970732E+03 0.  0.
         23    2    1    2    0    0 -0.50669568997E+02 -0.11457628343E+03  0.34277978868E+03  0.37613715375E+03  0.91027715330E+02 0.  0.
          5    1    3    3  502    0  0.55791736945E+02  0.88116631636E+02  0.38327184421E+02  0.11119219464E+03  0.41800000000E+01 0.  1.
         -5    1    3    3    0  502 -0.51221679482E+01  0.26459651797E+02  0.13092005470E+03  0.13373063561E+03  0.41800000000E+01 0.  1.
        -11    1    4    4    0    0 -0.51037242048E+02 -0.57904621697E+02  0.28474406356E+03  0.29502021460E+03  0.00000000000E+00 0.  1.
         11    1    4    4    0    0  0.36767305135E+00 -0.56671661736E+02  0.58035725120E+02  0.81116939153E+02  0.00000000000E+00 0. -1.
</event>
<event>
 8    1  0.7075056E-009  0.1084337E+03  0.7561462E-02  0.1263498E+00
         -2   -1    0    0    0  501 -0.00000000000E+00  0.00000000000E+00  0.30949952582E+02  0.30949952582E+02  0.00000000000E+00 0.  1.
          2   -1    0    0  501    0  0.00000000000E+00 -0.00000000000E+00 -0.44330838196E+03  0.44330838196E+03  0.00000000000E+00 0. -1.
         25    2    1    2    0    0 -0.41667496198E+02 -0.44232481210E+01 -0.26254100472E+03  0.29382273404E+03  0.12509306343E+03 0.  0.
         23    2    1    2    0    0  0.41667496198E+02  0.44232481210E+01 -0.14981742466E+03  0.18043560050E+03  0.91411158143E+02 0.  0.
          5    1    3    3  502    0 -0.48900612988E+02 -0.51114406242E+02 -0.21617426136E+03  0.22749227713E+03  0.41800000000E+01 0. -1.
         -5    1    3    3    0  502  0.72331167905E+01  0.46691158122E+02 -0.46366743357E+02  0.66330456916E+02  0.41800000000E+01 0. -1.
        -11    1    4    4    0    0  0.43700813113E+02  0.42194630532E+02 -0.74280506105E+02  0.95956977337E+02  0.00000000000E+00 0.  1.
         11    1    4    4    0    0 -0.20333169148E+01 -0.37771382411E+02 -0.75536918551E+02  0.84478623160E+02  0.00000000000E+00 0. -1.
</event>
<event>
 8    1  0.7075056E-009  0.1211827E+03  0.7561462E-02  0.1241159E+00
          1   -1    0    0  501    0  0.00000000000E+00  0.00000000000E+00  0.15968455689E+03  0.15968455689E+03  0.00000000000E+00 0. -1.
         -1   -1    0    0    0  501 -0.00000000000E+00 -0.00000000000E+00 -0.10379788047E+03  0.10379788047E+03  0.00000000000E+00 0.  1.
         25    2    1    2    0    0  0.41313902609E+02 -0.54387426247E+02  0.43863227145E+02  0.14911998054E+03  0.12509178717E+03 0.  0.
         23    2    1    2    0    0 -0.41313902609E+02  0.54387426247E+02  0.12023449274E+02  0.11436245682E+03  0.90936117768E+02 0.  0.
          5    1    3    3  502    0  0.80054610843E+02 -0.41802133907E+02  0.56079874766E+02  0.10638883339E+03  0.41800000000E+01 0.  1.
         -5    1    3    3    0  502 -0.38740708234E+02 -0.12585292340E+02 -0.12216647620E+02  0.42731147151E+02  0.41800000000E+01 0.  1.
        -11    1    4    4    0    0 -0.43637376930E+02  0.76878068119E+02 -0.73172102152E+00  0.88402451542E+02  0.00000000000E+00 0.  1.
         11    1    4    4    0    0  0.23234743203E+01 -0.22490641872E+02  0.12755170296E+02  0.25960005277E+02  0.00000000000E+00 0. -1.
</event>
<event>
 8    1  0.7075056E-009  0.2333820E+03  0.7561462E-02  0.1124282E+00
         -2   -1    0    0    0  501 -0.00000000000E+00  0.00000000000E+00  0.93982516908E+02  0.93982516908E+02  0.00000000000E+00 0.  1.
          2   -1    0    0  501    0  0.00000000000E+00 -0.00000000000E+00 -0.62134038800E+03  0.62134038800E+03  0.00000000000E+00 0. -1.
         25    2    1    2    0    0  0.20962022332E+03  0.10982080285E+02 -0.20215941194E+03  0.31713817661E+03  0.12508777365E+03 0.  0.
         23    2    1    2    0    0 -0.20962022332E+03 -0.10982080285E+02 -0.32519845916E+03  0.39818472830E+03  0.93465479714E+02 0.  0.
          5    1    3    3  502    0  0.74434872450E+02 -0.49559350068E+02 -0.41809499605E+02  0.98803775601E+02  0.41800000000E+01 0.  1.
         -5    1    3    3    0  502  0.13518535087E+03  0.60541430353E+02 -0.16034991233E+03  0.21833440101E+03  0.41800000000E+01 0.  1.
        -11    1    4    4    0    0 -0.82072568558E+02 -0.49474197656E+02 -0.15170877687E+03  0.17944123194E+03  0.00000000000E+00 0.  1.
         11    1    4    4    0    0 -0.12754765477E+03  0.38492117370E+02 -0.17348968229E+03  0.21874349635E+03  0.00000000000E+00 0. -1.
</event>
<event>
 8    1  0.7075056E-009  0.1085423E+03  0.7561462E-02  0.1263293E+00
          2   -1    0    0  501    0  0.00000000000E+00  0.00000000000E+00  0.79050814326E+03  0.79050814326E+03  0.00000000000E+00 0. -1.
         -2   -1    0    0    0  501 -0.00000000000E+00 -0.00000000000E+00 -0.24346304586E+02  0.24346304586E+02  0.00000000000E+00 0.  1.
         25    2    1    2    0    0 -0.36070395521E+02 -0.76636987757E+02  0.45881581438E+03  0.48304685886E+03  0.12509202614E+03 0.  0.
         23    2    1    2    0    0  0.36070395521E+02  0.76636987757E+02  0.30734602429E+03  0.33180758898E+03  0.91980411686E+02 0.  0.
          5    1    3    3  502    0  0.70686352312E+01 -0.36152946742E+02  0.39182574738E+03  0.39357577399E+03  0.41800000000E+01 0. -1.
         -5    1    3    3    0  502 -0.43139030752E+02 -0.40484041015E+02  0.66990067002E+02  0.89471084871E+02  0.41800000000E+01 0. -1.
        -11    1    4    4    0    0  0.52935270641E+02  0.12507225415E+02  0.18264662451E+03  0.19057377314E+03  0.00000000000E+00 0. -1.
         11    1    4    4    0    0 -0.16864875120E+02  0.64129762341E+02  0.12469939978E+03  0.14123381584E+03  0.00000000000E+00 0.  1.
</event>
<event>
 8    1  0.7075056E-009  0.8754075E+02  0.7561462E-02  0.1308919E+00
         -2   -1    0    0    0  501 -0.00000000000E+00  0.00000000000E+00  0.46774382908E+02  0.46774382908E+02  0.00000000000E+00 0.  1.
          2   -1    0    0  501    0  0.00000000000E+00 -0.00000000000E+00 -0.28715282442E+03  0.28715282442E+03  0.00000000000E+00 0. -1.
         25    2    1    2    0    0  0.73028015575E+01 -0.14854669615E+02 -0.18852444854E+03  0.22685189966E+03  0.12508526915E+03 0.  0.
         23    2    1    2    0    0 -0.73028015575E+01  0.14854669615E+02 -0.51853992966E+02  0.10707530767E+03  0.92207878222E+02 0.  0.
          5    1    3    3  502    0  0.41859753191E+02  0.32094896448E+01 -0.90593154949E+01  0.43151863902E+02  0.41800000000E+01 0.  1.
         -5    1    3    3    0  502 -0.34556951633E+02 -0.18064159260E+02 -0.17946513305E+03  0.18370003575E+03  0.41800000000E+01 0.  1.
        -11    1    4    4    0    0  0.39612978174E+02  0.23368807193E+02 -0.26135483766E+02  0.52899458420E+02  0.00000000000E+00 0. -1.
         11    1    4    4    0    0 -0.46915779732E+02 -0.85141375784E+01 -0.25718509200E+02  0.54175849250E+02  0.00000000000E+00 0.  1.
</event>
<event>
 8    1  0.7075056E-009  0.6215942E+02  0.7561462E-02  0.1388987E+00
          3   -1    0    0  501    0  0.00000000000E+00  0.00000000000E+00  0.47062172422E+02  0.47062172422E+02  0.00000000000E+00 0. -1.
         -3   -1    0    0    0  501 -0.00000000000E+00 -0.00000000000E+00 -0.32629463415E+03  0.32629463415E+03  0.00000000000E+00 0.  1.
         25    2    1    2    0    0  0.95788744095E+00  0.59396949212E+02 -0.14423364864E+03  0.19995190845E+03  0.12509398535E+03 0.  0.
         23    2    1    2    0    0 -0.95788744095E+00 -0.59396949212E+02 -0.13499881309E+03  0.17340489812E+03  0.91190262804E+02 0.  0.
          5    1    3    3  502    0  0.63924800578E+01  0.55332194929E+02 -0.36036880996E+00  0.55858015205E+02  0.41800000000E+01 0.  1.
         -5    1    3    3    0  502 -0.54345926168E+01  0.40647542836E+01 -0.14387327983E+03  0.14409389325E+03  0.41800000000E+01 0.  1.
        -11    1    4    4    0    0  0.48717523950E+01 -0.38129884967E+02 -0.14440300431E+03  0.14943175617E+03  0.00000000000E+00 0.  1.
         11    1    4    4    0    0 -0.58296398359E+01 -0.21267064245E+02  0.94041912171E+01  0.23973141944E+02  0.00000000000E+00 0. -1.
</event>
<event>
 8    1  0.7075056E-009  0.1104867E+03  0.7561462E-02  0.1259671E+00
          2   -1    0    0  501    0  0.00000000000E+00  0.00000000000E+00  0.98138031167E+03  0.98138031167E+03  0.00000000000E+00 0. -1.
         -2   -1    0    0    0  501 -0.00000000000E+00 -0.00000000000E+00 -0.15044060204E+02  0.15044060204E+02  0.00000000000E+00 0.  1.
         25    2    1    2    0    0 -0.13525491487E+02  0.50021290510E+02  0.61949451160E+03  0.63411859262E+03  0.12509145126E+03 0.  0.
         23    2    1    2    0    0  0.13525491487E+02 -0.50021290510E+02  0.34684173987E+03  0.36230577926E+03  0.91001190899E+02 0.  0.
          5    1    3    3  502    0 -0.83450839694E+01 -0.33467696459E+02  0.35461661681E+03  0.35631467055E+03  0.41800000000E+01 0.  1.
         -5    1    3    3    0  502 -0.51804075174E+01  0.83488986969E+02  0.26487789479E+03  0.27780392207E+03  0.41800000000E+01 0.  1.
        -11    1    4    4    0    0  0.40310246367E+01  0.25773839325E+02  0.59181413336E+02  0.64675958729E+02  0.00000000000E+00 0.  1.
         11    1    4    4    0    0  0.94944668502E+01 -0.75795129834E+02  0.28766032653E+03  0.29762982053E+03  0.00000000000E+00 0. -1.
</event>
<event>
 8    1  0.7075056E-009  0.8000699E+02  0.7561462E-02  0.1329032E+00
          2   -1    0    0  501    0  0.00000000000E+00  0.00000000000E+00  0.52684463925E+03  0.52684463925E+03  0.00000000000E+00 0. -1.
         -2   -1    0    0    0  501 -0.00000000000E+00 -0.00000000000E+00 -0.39692854420E+02  0.39692854420E+02  0.00000000000E+00 0.  1.
         25    2    1    2    0    0 -0.24584594357E+02  0.32113106885E+02  0.44180773354E+03  0.46095246550E+03  0.12508976024E+03 0.  0.
         23    2    1    2    0    0  0.24584594357E+02 -0.32113106885E+02  0.45344051289E+02  0.10558502818E+03  0.86350803552E+02 0.  0.
          5    1    3    3  502    0 -0.38601424035E+02  0.32817020570E+02  0.44332494437E+03  0.44623032784E+03  0.41800000000E+01 0. -1.
         -5    1    3    3    0  502  0.14016829677E+02 -0.70391368458E+00 -0.15172108283E+01  0.14722137663E+02  0.41800000000E+01 0. -1.
        -11    1    4    4    0    0  0.18887883751E+02  0.28205311131E+02  0.97571538382E+01  0.35319877967E+02  0.00000000000E+00 0.  1.
         11    1    4    4    0    0  0.56967106059E+01 -0.60318418016E+02  0.35586897451E+02  0.70265150209E+02  0.00000000000E+00 0. -1.
</event>
<event>
 8    1  0.7075056E-009  0.1233155E+03  0.7561462E-02  0.1237726E+00
         -2   -1    0    0    0  501 -0.00000000000E+00  0.00000000000E+00  0.76333175562E+03  0.76333175562E+03  0.00000000000E+00 0.  1.
          2   -1    0    0  501    0  0.00000000000E+00 -0.00000000000E+00 -0.21533629940E+02  0.21533629940E+02  0.00000000000E+00 0. -1.
         25    2    1    2    0    0 -0.13802832587E+02 -0.63320247795E+02  0.34089343334E+03  0.36885836858E+03  0.12509273045E+03 0.  0.
         23    2    1    2    0    0  0.13802832587E+02  0.63320247795E+02  0.40090469234E+03  0.41600701697E+03  0.90206950205E+02 0.  0.
          5    1    3    3  502    0  0.45040909287E+02  0.10447189246E+02  0.11110245986E+03  0.12041202705E+03  0.41800000000E+01 0. -1.
         -5    1    3    3    0  502 -0.58843741875E+02 -0.73767437041E+02  0.22979097348E+03  0.24844634153E+03  0.41800000000E+01 0. -1.
        -11    1    4    4    0    0 -0.79367200616E+01  0.78714094598E+02  0.34668379694E+03  0.35559605633E+03  0.00000000000E+00 0.  1.
         11    1    4    4    0    0  0.21739552649E+02 -0.15393846803E+02  0.54220895397E+02  0.60410960648E+02  0.00000000000E+00 0. -1.
</event>
<event>
 8    1  0.7075056E-009  0.8567470E+02  0.7561462E-02  0.1313678E+00
          1   -1    0    0  501    0  0.00000000000E+00  0.00000000000E+00  0.41752745567E+02  0.41752745567E+02  0.00000000000E+00 0. -1.
         -1   -1    0    0    0  501 -0.00000000000E+00 -0.00000000000E+00 -0.34662956220E+03  0.34662956220E+03  0.00000000000E+00 0.  1.
         25    2    1    2    0    0  0.20224553376E+02  0.21761558313E+02 -0.24178410122E+03  0.27384187698E+03  0.12508886444E+03 0.  0.
         23    2    1    2    0    0 -0.20224553376E+02 -0.21761558313E+02 -0.63092715416E+02  0.11454043079E+03  0.90863752765E+02 0.  0.
          5    1    3    3  502    0  0.14700498391E+01  0.73175404603E+02 -0.12786531790E+03  0.14739000240E+03  0.41800000000E+01 0.  1.
         -5    1    3    3    0  502  0.18754503537E+02 -0.51413846290E+02 -0.11391878331E+03  0.12645187458E+03  0.41800000000E+01 0.  1.
        -11    1    4    4    0    0 -0.27188858804E+02 -0.90444478025E+01 -0.84194890802E+02  0.88937144750E+02  0.00000000000E+00 0.  1.
         11    1    4    4    0    0  0.69643054281E+01 -0.12717110510E+02  0.21102175386E+02  0.25603286036E+02  0.00000000000E+00 0. -1.
</event>
<event>
 8    1  0.7075056E-009  0.1162202E+03  0.7561462E-02  0.1249466E+00
         -1   -1    0    0    0  501 -0.00000000000E+00  0.00000000000E+00  0.81971023440E+02  0.81971023440E+02  0.00000000000E+00 0.  1.
          1   -1    0    0  501    0  0.00000000000E+00 -0.00000000000E+00 -0.21164425284E+03  0.21164425284E+03  0.00000000000E+00 0. -1.
         25    2    1    2    0    0 -0.71518709740E+02 -0.25906821286E+02 -0.68031376353E+02  0.16143649986E+03  0.12508951230E+03 0.  0.
         23    2    1    2    0    0  0.71518709740E+02  0.25906821286E+02 -0.61641853047E+02  0.13217877642E+03  0.88799896713E+02 0.  0.
          5    1    3    3  502    0 -0.50647260224E+00  0.42962439261E+02 -0.36241656541E+01  0.43320141718E+02  0.41800000000E+01 0. -1.
         -5    1    3    3    0  502 -0.71012237137E+02 -0.68869260547E+02 -0.64407210699E+02  0.11811635815E+03  0.41800000000E+01 0. -1.
        -11    1    4    4    0    0  0.39337555036E+02 -0.11434820487E+02  0.12778709123E+02  0.42912629407E+02  0.00000000000E+00 0.  1.
         11    1    4    4    0    0  0.32181154703E+02  0.37341641772E+02 -0.74420562171E+02  0.89266147010E+02  0.00000000000E+00 0. -1.
</event>
<event>
 8    1  0.7075056E-009  0.9905135E+02  0.7561462E-02  0.1282304E+00
         -2   -1    0    0    0  501 -0.00000000000E+00  0.00000000000E+00  0.76779732661E+02  0.76779732661E+02  0.00000000000E+00 0.  1.
          2   -1    0    0  501    0  0.00000000000E+00 -0.00000000000E+00 -0.17631884290E+03  0.17631884290E+03  0.00000000000E+00 0. -1.
         25    2    1    2    0    0 -0.37884575516E+02  0.19495717057E+02 -0.76282010166E+02  0.15258454206E+03  0.12509106026E+03 0.  0.
         23    2    1    2    0    0  0.37884575516E+02 -0.19495717057E+02 -0.23257100074E+02  0.10051403350E+03  0.88016215443E+02 0.  0.
          5    1    3    3  502    0 -0.74100844218E+02  0.31844400953E+02 -0.18006855985E+02  0.82744910710E+02  0.41800000000E+01 0.  1.
         -5    1    3    3    0  502  0.36216268702E+02 -0.12348683896E+02 -0.58275154181E+02  0.69839631353E+02  0.41800000000E+01 0.  1.
        -11    1    4    4    0    0  0.53713909744E+02  0.29461665310E-01  0.14057680148E+02  0.55522998290E+02  0.00000000000E+00 0.  1.
         11    1    4    4    0    0 -0.15829334228E+02 -0.19525178722E+02 -0.37314780223E+02  0.44991035210E+02  0.00000000000E+00 0. -1.
</event>
<event>
 8    1  0.7075056E-009  0.9280051E+02  0.7561462E-02  0.1296208E+00
          2   -1    0    0  501    0  0.00000000000E+00  0.00000000000E+00  0.13640818546E+04  0.13640818546E+04  0.00000000000E+00 0. -1.
         -2   -1    0    0    0  501 -0.00000000000E+00 -0.00000000000E+00 -0.17711794166E+02  0.17711794166E+02  0.00000000000E+00 0.  1.
         25    2    1    2    0    0  0.60903134940E+02  0.26673499537E+02  0.11224978245E+04  0.11314027790E+04  0.12510081851E+03 0.  0.
         23    2    1    2    0    0 -0.60903134940E+02 -0.26673499537E+02  0.22387223587E+03  0.25039086975E+03  0.90311362729E+02 0.  0.
          5    1    3    3  502    0  0.87838031114E+02  0.15006606241E+02  0.10385232711E+04  0.10423477226E+04  0.41800000000E+01 0.  1.
         -5    1    3    3    0  502 -0.26934896174E+02  0.11666893297E+02  0.83974553459E+02  0.89055056340E+02  0.41800000000E+01 0.  1.
        -11    1    4    4    0    0 -0.35987670708E+02 -0.18866089621E+02  0.22032551168E+03  0.22404100713E+03  0.00000000000E+00 0. -1.
         11    1    4    4    0    0 -0.24915464232E+02 -0.78074099159E+01  0.35467241919E+01  0.26349862618E+02  0.00000000000E+00 0.  1.
</event>
<event>
 8    1  0.7075056E-009  0.1079814E+03  0.7561462E-02  0.1264354E+00
         -1   -1    0    0    0  501 -0.00000000000E+00  0.00000000000E+00  0.14812753552E+02  0.14812753552E+02  0.00000000000E+00 0.  1.
          1   -1    0    0  501    0  0.00000000000E+00 -0.00000000000E+00 -0.10942264234E+04  0.10942264234E+04  0.00000000000E+00 0. -1.
         25    2    1    2    0    0 -0.75085505987E+01 -0.48136959537E+02 -0.79021804290E+03  0.80153939367E+03  0.12508916448E+03 0.  0.
         23    2    1    2    0    0  0.75085505987E+01  0.48136959537E+02 -0.28919562692E+03  0.30749978326E+03  0.92457886998E+02 0.  0.
          5    1    3    3  502    0 -0.32172484665E+01 -0.86686210811E+02 -0.65736272147E+03  0.66307470908E+03  0.41800000000E+01 0. -1.
         -5    1    3    3    0  502 -0.42913021322E+01  0.38549251275E+02 -0.13285532143E+03  0.13846468460E+03  0.41800000000E+01 0. -1.
        -11    1    4    4    0    0 -0.28498792322E+02 -0.17815598340E+01 -0.31329565879E+02  0.42389819738E+02  0.00000000000E+00 0.  1.
         11    1    4    4    0    0  0.36007342921E+02  0.49918519371E+02 -0.25786606104E+03  0.26510996352E+03  0.00000000000E+00 0. -1.
</event>
<event>
 8    1  0.7075056E-009  0.9964639E+02  0.7561462E-02  0.1281041E+00
         -3   -1    0    0    0  501 -0.00000000000E+00  0.00000000000E+00  0.23914070137E+03  0.23914070137E+03  0.00000000000E+00 0.  1.
          3   -1    0    0  501    0  0.00000000000E+00 -0.00000000000E+00 -0.67892677012E+02  0.67892677012E+02  0.00000000000E+00 0. -1.
         25    2    1    2    0    0 -0.36817989461E+02 -0.47488450654E+02  0.13156124735E+03  0.19122254756E+03  0.12508790349E+03 0.  0.
         23    2    1    2    0    0  0.36817989461E+02  0.47488450654E+02  0.39686777003E+02  0.11581083082E+03  0.90699454090E+02 0.  0.
          5    1    3    3  502    0 -0.43866051596E+02 -0.72265323351E+02  0.35680190812E+02  0.91853447720E+02  0.41800000000E+01 0.  1.
         -5    1    3    3    0  502  0.70480621348E+01  0.24776872697E+02  0.95881056541E+02  0.99369099845E+02  0.41800000000E+01 0.  1.
        -11    1    4    4    0    0 -0.80373136280E+01 -0.11759304357E+02 -0.17121917377E+02  0.22271948814E+02  0.00000000000E+00 0. -1.
         11    1    4    4    0    0  0.44855303089E+02  0.59247755011E+02  0.56808694380E+02  0.93538882002E+02  0.00000000000E+00 0.  1.
</event>
<event>
 8    1  0.7075056E-009  0.1957030E+03  0.7561462E-02  0.1153416E+00
         -1   -1    0    0    0  501 -0.00000000000E+00  0.00000000000E+00  0.34732994948E+03  0.34732994948E+03  0.00000000000E+00 0.  1.
          1   -1    0    0  501    0  0.00000000000E+00 -0.00000000000E+00 -0.11286969818E+03  0.11286969818E+03  0.00000000000E+00 0. -1.
         25    2    1    2    0    0  0.17008914015E+02 -0.16445848666E+03  0.13892761582E+03  0.24957167553E+03  0.12509692962E+03 0.  0.
         23    2    1    2    0    0 -0.17008914015E+02  0.16445848666E+03  0.95532635479E+02  0.21062797212E+03  0.88891851201E+02 0.  0.
          5    1    3    3  502    0  0.52281344773E+02 -0.16319060316E+03  0.12056983614E+03  0.20956877095E+03  0.41800000000E+01 0. -1.
         -5    1    3    3    0  502 -0.35272430758E+02 -0.12678834963E+01  0.18357779683E+02  0.40002904582E+02  0.41800000000E+01 0. -1.
        -11    1    4    4    0    0 -0.40122008825E+02  0.15389627542E+03  0.94911893766E+02  0.18520827940E+03  0.00000000000E+00 0.  1.
         11    1    4    4    0    0  0.23113094810E+02  0.10562211240E+02  0.62074171290E+00  0.25419692725E+02  0.00000000000E+00 0. -1.
</event>
<event>
 8    1  0.7075056E-009  0.1477449E+03  0.7561462E-02  0.1203272E+00
          1   -1    0    0  501    0  0.00000000000E+00  0.00000000000E+00  0.14517937652E+03  0.14517937652E+03  0.00000000000E+00 0. -1.
         -1   -1    0    0    0  501 -0.00000000000E+00 -0.00000000000E+00 -0.19805909122E+03  0.19805909122E+03  0.00000000000E+00 0.  1.
         25    2    1    2    0    0  0.99339856909E+02 -0.13264135794E+02 -0.11158048539E+03  0.19530254784E+03  0.12509410859E+03 0.  0.
         23    2    1    2    0    0 -0.99339856909E+02  0.13264135794E+02  0.58700770686E+02  0.14793591990E+03  0.91623749370E+02 0.  0.
          5    1    3    3  502    0 -0.26290215980E+02  0.16049943007E+02 -0.24860273709E+02  0.39803036764E+02  0.41800000000E+01 0. -1.
         -5    1    3    3    0  502  0.12563007289E+03 -0.29314078800E+02 -0.86720211685E+02  0.15549951108E+03  0.41800000000E+01 0. -1.
        -11    1    4    4    0    0  0.94324746904E+01 -0.19560127936E+02  0.14024229764E+02  0.25850516515E+02  0.00000000000E+00 0. -1.
         11    1    4    4    0    0 -0.10877233160E+03  0.32824263729E+02  0.44676540923E+02  0.12208540339E+03  0.00000000000E+00 0.  1.
</event>
<event>
 8    1  0.7075056E-009  0.1009014E+03  0.7561462E-02  0.1278412E+00
          2   -1    0    0  501    0  0.00000000000E+00  0.00000000000E+00  0.67524615123E+02  0.67524615123E+02  0.00000000000E+00 0. -1.
         -2   -1    0    0    0  501 -0.00000000000E+00 -0.00000000000E+00 -0.26609291284E+03  0.26609291284E+03  0.00000000000E+00 0.  1.
         25    2    1    2    0    0  0.73857896780E+02 -0.23264367707E+02 -0.96165519450E+02  0.17575927349E+03  0.12508914967E+03 0.  0.
         23    2    1    2    0    0 -0.73857896780E+02  0.23264367707E+02 -0.10240277826E+03  0.15785825447E+03  0.91851400567E+02 0.  0.
          5    1    3    3  502    0 -0.23702528660E+02 -0.15144210233E+01  0.13238106628E+02  0.27510419899E+02  0.41800000000E+01 0. -1.
         -5    1    3    3    0  502  0.97560425440E+02 -0.21749946684E+02 -0.10940362608E+03  0.14824885359E+03  0.41800000000E+01 0. -1.
        -11    1    4    4    0    0 -0.31643335881E+02  0.70249958077E+01 -0.10755711682E+03  0.11233514432E+03  0.00000000000E+00 0.  1.
         11    1    4    4    0    0 -0.42214560899E+02  0.16239371899E+02  0.51543385528E+01  0.45523110147E+02  0.00000000000E+00 0. -1.
</event>
<event>
 8    1  0.7075056E-009  0.2483594E+03  0.7561462E-02  0.1114346E+00
          2   -1    0    0  501    0  0.00000000000E+00  0.00000000000E+00  0.15109692923E+04  0.15109692923E+04  0.00000000000E+00 0.  1.
         -2   -1    0    0    0  501 -0.00000000000E+00 -0.00000000000E+00 -0.55514450082E+02  0.55514450082E+02  0.00000000000E+00 0. -1.
         25    2    1    2    0    0 -0.97559619984E+01 -0.23242506078E+03  0.11031319731E+04  0.11343126865E+04  0.12509409683E+03 0.  0.
         23    2    1    2    0    0  0.97559619984E+01  0.23242506078E+03  0.35232286916E+03  0.43217105589E+03  0.92324589077E+02 0.  0.
          5    1    3    3  502    0  0.32311361189E+00  0.83289082207E+01  0.61516726131E+01  0.11170970884E+02  0.41800000000E+01 0. -1.
         -5    1    3    3    0  502 -0.10079075610E+02 -0.24075396900E+03  0.10969803005E+04  0.11231417156E+04  0.41800000000E+01 0. -1.
        -11    1    4    4    0    0 -0.35810082018E+02  0.90258563766E+02  0.10289576257E+03  0.14147970972E+03  0.00000000000E+00 0.  1.
         11    1    4    4    0    0  0.45566044017E+02  0.14216649702E+03  0.24942710659E+03  0.29069134618E+03  0.00000000000E+00 0. -1.
</event>
<event>
 8    1  0.7075056E-009  0.1748254E+03  0.7561462E-02  0.1172907E+00
          2   -1    0    0  501    0  0.00000000000E+00  0.00000000000E+00  0.75273384538E+03  0.75273384538E+03  0.00000000000E+00 0. -1.
         -2   -1    0    0    0  501 -0.00000000000E+00 -0.00000000000E+00 -0.60511732252E+02  0.60511732252E+02  0.00000000000E+00 0.  1.
         25    2    1    2    0    0 -0.15904577830E+03 -0.48886392951E+02  0.51135410751E+03  0.55210154443E+03  0.12509057951E+03 0.  0.
         23    2    1    2    0    0  0.15904577830E+03  0.48886392951E+02  0.18086800562E+03  0.26114403320E+03  0.88303633053E+02 0.  0.
          5    1    3    3  502    0 -0.14468398989E+03 -0.29859582018E+02  0.50623012943E+03  0.52736274794E+03  0.41800000000E+01 0.  1.
         -5    1    3    3    0  502 -0.14361788406E+02 -0.19026810933E+02  0.51239780810E+01  0.24738796492E+02  0.41800000000E+01 0.  1.
        -11    1    4    4    0    0  0.57526980461E+02 -0.12706914907E+02  0.22185783437E+02  0.62952586557E+02  0.00000000000E+00 0.  1.
         11    1    4    4    0    0  0.10151879784E+03  0.61593307858E+02  0.15868222218E+03  0.19819144664E+03  0.00000000000E+00 0. -1.
</event>
<event>
 8    1  0.7075056E-009  0.1053535E+03  0.7561462E-02  0.1269425E+00
          2   -1    0    0  501    0  0.00000000000E+00  0.00000000000E+00  0.12366784064E+04  0.12366784064E+04  0.00000000000E+00 0.  1.
         -2   -1    0    0    0  501 -0.00000000000E+00 -0.00000000000E+00 -0.11718671897E+02  0.11718671897E+02  0.00000000000E+00 0. -1.
         25    2    1    2    0    0 -0.81342081929E+01 -0.29754543152E+02  0.94576304173E+03  0.95449831313E+03  0.12509116868E+03 0.  0.
         23    2    1    2    0    0  0.81342081929E+01  0.29754543152E+02  0.27919669276E+03  0.29389876515E+03  0.86453413645E+02 0.  0.
          5    1    3    3  502    0 -0.18242054576E+02 -0.76895324263E+02  0.51878863152E+03  0.52479022479E+03  0.41800000000E+01 0. -1.
         -5    1    3    3    0  502  0.10107846383E+02  0.47140781112E+02  0.42697441021E+03  0.42970808833E+03  0.41800000000E+01 0. -1.
        -11    1    4    4    0    0  0.87433233531E+00 -0.26469091037E+02  0.39271008306E+02  0.47366542314E+02  0.00000000000E+00 0. -1.
         11    1    4    4    0    0  0.72598758576E+01  0.56223634189E+02  0.23992568445E+03  0.24653222284E+03  0.00000000000E+00 0.  1.
</event>
<event>
 8    1  0.7075056E-009  0.1059228E+03  0.7561462E-02  0.1268312E+00
          2   -1    0    0  501    0  0.00000000000E+00  0.00000000000E+00  0.23078093280E+03  0.23078093280E+03  0.00000000000E+00 0. -1.
         -2   -1    0    0    0  501 -0.00000000000E+00 -0.00000000000E+00 -0.17281061154E+03  0.17281061154E+03  0.00000000000E+00 0.  1.
         25    2    1    2    0    0  0.57677380876E+02 -0.28646837219E+02  0.18662503822E+03  0.23371102404E+03  0.12507844066E+03 0.  0.
         23    2    1    2    0    0 -0.57677380876E+02  0.28646837219E+02 -0.12865471697E+03  0.16988052030E+03  0.90332903371E+02 0.  0.
          5    1    3    3  502    0  0.54093664528E+02  0.40316871949E+02  0.64945475379E+02  0.93738796013E+02  0.41800000000E+01 0. -1.
         -5    1    3    3    0  502  0.35837163484E+01 -0.68963709167E+02  0.12167956285E+03  0.13997222803E+03  0.41800000000E+01 0. -1.
        -11    1    4    4    0    0 -0.13178524657E+02 -0.96695988464E+01  0.10098113311E+02  0.19213186785E+02  0.00000000000E+00 0. -1.
         11    1    4    4    0    0 -0.44498856219E+02  0.38316436065E+02 -0.13875283028E+03  0.15066733351E+03  0.00000000000E+00 0.  1.
</event>
<event>
 8    1  0.7075056E-009  0.1798103E+03  0.7561462E-02  0.1167987E+00
         -2   -1    0    0    0  501 -0.00000000000E+00  0.00000000000E+00  0.25439466124E+02  0.25439466124E+02  0.00000000000E+00 0.  1.
          2   -1    0    0  501    0  0.00000000000E+00 -0.00000000000E+00 -0.15178153119E+04  0.15178153119E+04  0.00000000000E+00 0. -1.
         25    2    1    2    0    0 -0.14520647624E+03 -0.59324289063E+02 -0.93438811104E+03  0.95568419478E+03  0.12508735383E+03 0.  0.
         23    2    1    2    0    0  0.14520647624E+03  0.59324289063E+02 -0.55798773474E+03  0.58757058324E+03  0.96356557424E+02 0.  0.
          5    1    3    3  502    0 -0.97015271566E+02  0.27315230976E+02 -0.43648688184E+03  0.44799146775E+03  0.41800000000E+01 0. -1.
         -5    1    3    3    0  502 -0.48191204677E+02 -0.86639520039E+02 -0.49790122920E+03  0.50769272703E+03  0.41800000000E+01 0. -1.
        -11    1    4    4    0    0  0.72379880310E+02  0.13946709176E+02 -0.11678877196E+03  0.13810494208E+03  0.00000000000E+00 0.  1.
         11    1    4    4    0    0  0.72826595933E+02  0.45377579888E+02 -0.44119896277E+03  0.44946564116E+03  0.00000000000E+00 0. -1.
</event>
<event>
 8    1  0.7075056E-009  0.1504067E+03  0.7561462E-02  0.1199974E+00
          2   -1    0    0  501    0  0.00000000000E+00  0.00000000000E+00  0.18995828823E+03  0.18995828823E+03  0.00000000000E+00 0. -1.
         -2   -1    0    0    0  501 -0.00000000000E+00 -0.00000000000E+00 -0.18395627675E+03  0.18395627675E+03  0.00000000000E+00 0.  1.
         25    2    1    2    0    0  0.11554693471E+03 -0.31988303722E+01 -0.95956192147E+02  0.19549667946E+03  0.12510009685E+03 0.  0.
         23    2    1    2    0    0 -0.11554693471E+03  0.31988303722E+01  0.10195820362E+03  0.17841788552E+03  0.89867346406E+02 0.  0.
          5    1    3    3  502    0 -0.10383584273E+02 -0.29462327215E+02 -0.49459062134E+02  0.58647410638E+02  0.41800000000E+01 0. -1.
         -5    1    3    3    0  502  0.12593051898E+03  0.26263496843E+02 -0.46497130013E+02  0.13684926882E+03  0.41800000000E+01 0. -1.
        -11    1    4    4    0    0 -0.16346428683E+02  0.33153178257E+02  0.50877372542E+02  0.62887566307E+02  0.00000000000E+00 0.  1.
         11    1    4    4    0    0 -0.99200506026E+02 -0.29954347885E+02  0.51080831080E+02  0.11553031921E+03  0.00000000000E+00 0. -1.
</event>
<event>
 8    1  0.7075056E-009  0.1379206E+03  0.7561462E-02  0.1216155E+00
          2   -1    0    0  501    0  0.00000000000E+00  0.00000000000E+00  0.11062252698E+04  0.11062252698E+04  0.00000000000E+00 0. -1.
         -2   -1    0    0    0  501 -0.00000000000E+00 -0.00000000000E+00 -0.21505716966E+02  0.21505716966E+02  0.00000000000E+00 0.  1.
         25    2    1    2    0    0 -0.21179166081E+02 -0.99866332540E+02  0.73645860882E+03  0.75394939074E+03  0.12508620963E+03 0.  0.
         23    2    1    2    0    0  0.21179166081E+02  0.99866332540E+02  0.34826094404E+03  0.37378159605E+03  0.89471531530E+02 0.  0.
          5    1    3    3  502    0 -0.11294493235E+02 -0.12755721675E+03  0.52460355888E+03  0.54002293980E+03  0.41800000000E+01 0.  1.
         -5    1    3    3    0  502 -0.98846728455E+01  0.27690884208E+02  0.21185504994E+03  0.21392645093E+03  0.41800000000E+01 0.  1.
        -11    1    4    4    0    0  0.34867658377E+02  0.98227802514E+02  0.34385893724E+03  0.35930964850E+03  0.00000000000E+00 0. -1.
         11    1    4    4    0    0 -0.13688492296E+02  0.16385300258E+01  0.44020067953E+01  0.14471947547E+02  0.00000000000E+00 0.  1.
</event>
<event>
 8    1  0.7075056E-009  0.1062324E+03  0.7561462E-02  0.1267710E+00
          2   -1    0    0  501    0  0.00000000000E+00  0.00000000000E+00  0.14984944385E+04  0.14984944385E+04  0.00000000000E+00 0. -1.
         -2   -1    0    0    0  501 -0.00000000000E+00 -0.00000000000E+00 -0.14541732737E+02  0.14541732737E+02  0.00000000000E+00 0.  1.
         25    2    1    2    0    0  0.57802785924E+02 -0.40063686380E+02  0.11682066509E+04  0.11769878088E+04  0.12508901536E+03 0.  0.
         23    2    1    2    0    0 -0.57802785924E+02  0.40063686380E+02  0.31574605488E+03  0.33604836248E+03  0.91031147015E+02 0.  0.
          5    1    3    3  502    0 -0.23100413657E+02 -0.43182496785E+01  0.51350328453E+02  0.56626893113E+02  0.41800000000E+01 0. -1.
         -5    1    3    3    0  502  0.80903199581E+02 -0.35745436701E+02  0.11168563224E+04  0.11203609156E+04  0.41800000000E+01 0. -1.
        -11    1    4    4    0    0 -0.47997967821E+02 -0.10004449618E+02  0.23841110457E+03  0.24340038765E+03  0.00000000000E+00 0. -1.
         11    1    4    4    0    0 -0.98048181034E+01  0.50068135998E+02  0.77334950308E+02  0.92647974826E+02  0.00000000000E+00 0.  1.
</event>
<event>
 8    1  0.7075056E-009  0.1907665E+03  0.7561462E-02  0.1157772E+00
         -2   -1    0    0    0  501 -0.00000000000E+00  0.00000000000E+00  0.21499950956E+03  0.21499950956E+03  0.00000000000E+00 0.  1.
          2   -1    0    0  501    0  0.00000000000E+00 -0.00000000000E+00 -0.21596871121E+03  0.21596871121E+03  0.00000000000E+00 0. -1.
         25    2    1    2    0    0  0.15525043924E+03  0.31486232162E+02  0.95740077218E+02  0.22339883206E+03  0.12508714594E+03 0.  0.
         23    2    1    2    0    0 -0.15525043924E+03 -0.31486232162E+02 -0.96709278868E+02  0.20756938871E+03  0.92942373601E+02 0.  0.
          5    1    3    3  502    0  0.17102652016E+03  0.44815561077E+02  0.98030470758E+02  0.20220274654E+03  0.41800000000E+01 0. -1.
         -5    1    3    3    0  502 -0.15776080921E+02 -0.13329328915E+02 -0.22903935404E+01  0.21196085514E+02  0.41800000000E+01 0. -1.
        -11    1    4    4    0    0 -0.17588624898E+02  0.28465472907E+02 -0.15720199155E+02  0.36969819246E+02  0.00000000000E+00 0. -1.
         11    1    4    4    0    0 -0.13766181434E+03 -0.59951705069E+02 -0.80989079712E+02  0.17059956946E+03  0.00000000000E+00 0.  1.
</event>
<event>
 8    1  0.7075056E-009  0.8667797E+02  0.7561462E-02  0.1311102E+00
          1   -1    0    0  501    0  0.00000000000E+00  0.00000000000E+00  0.48938091587E+03  0.48938091587E+03  0.00000000000E+00 0. -1.
         -1   -1    0    0    0  501 -0.00000000000E+00 -0.00000000000E+00 -0.29776801206E+02  0.29776801206E+02  0.00000000000E+00 0.  1.
         25    2    1    2    0    0  0.33457645131E+02 -0.34357290500E+02  0.30960241240E+03  0.33734440958E+03  0.12509100480E+03 0.  0.
         23    2    1    2    0    0 -0.33457645131E+02  0.34357290500E+02  0.15000170226E+03  0.18181330750E+03  0.90861051462E+02 0.  0.
          5    1    3    3  502    0  0.47385686339E+02 -0.38898330067E+02  0.55550265690E+02  0.82835908699E+02  0.41800000000E+01 0.  1.
         -5    1    3    3    0  502 -0.13928041208E+02  0.45410395670E+01  0.25405214671E+03  0.25450850088E+03  0.41800000000E+01 0.  1.
        -11    1    4    4    0    0 -0.57016167669E+02  0.43174478622E+02  0.13431341528E+03  0.15216758034E+03  0.00000000000E+00 0. -1.
         11    1    4    4    0    0  0.23558522538E+02 -0.88171881223E+01  0.15688286980E+02  0.29645727161E+02  0.00000000000E+00 0.  1.
</event>
<event>
 8    1  0.7075056E-009  0.2658762E+03  0.7561462E-02  0.1103663E+00
         -2   -1    0    0    0  501 -0.00000000000E+00  0.00000000000E+00  0.30466488928E+02  0.30466488928E+02  0.00000000000E+00 0.  1.
          2   -1    0    0  501    0  0.00000000000E+00 -0.00000000000E+00 -0.24430454240E+04  0.24430454240E+04  0.00000000000E+00 0. -1.
         25    2    1    2    0    0 -0.21290252432E+03 -0.12043306985E+03 -0.14502379333E+04  0.14760300595E+04  0.12507223681E+03 0.  0.
         23    2    1    2    0    0  0.21290252432E+03  0.12043306985E+03 -0.96234100185E+03  0.99748185343E+03  0.95069631856E+02 0.  0.
          5    1    3    3  502    0 -0.12747269011E+03 -0.13566418137E+03 -0.10609201009E+04  0.10771364768E+04  0.41800000000E+01 0.  1.
         -5    1    3    3    0  502 -0.85429834205E+02  0.15231111517E+02 -0.38931783236E+03  0.39889358271E+03  0.41800000000E+01 0.  1.
        -11    1    4    4    0    0  0.14588508885E+03  0.34883476001E+02 -0.47279237585E+03  0.49601607505E+03  0.00000000000E+00 0.  1.
         11    1    4    4    0    0  0.67017435465E+02  0.85549593851E+02 -0.48954862600E+03  0.50146577837E+03  0.00000000000E+00 0. -1.
</event>
<event>
 8    1  0.7075056E-009  0.8290312E+02  0.7561462E-02  0.1321009E+00
         -1   -1    0    0    0  501 -0.00000000000E+00  0.00000000000E+00  0.66870011555E+02  0.66870011555E+02  0.00000000000E+00 0.  1.
          1   -1    0    0  501    0  0.00000000000E+00 -0.00000000000E+00 -0.20061030929E+03  0.20061030929E+03  0.00000000000E+00 0. -1.
         25    2    1    2    0    0  0.25116727357E+02 -0.26796611026E+02 -0.91821058283E+02  0.15945221394E+03  0.12507994816E+03 0.  0.
         23    2    1    2    0    0 -0.25116727357E+02  0.26796611026E+02 -0.41919239449E+02  0.10802810690E+03  0.92541563037E+02 0.  0.
          5    1    3    3  502    0  0.54869155180E+02  0.68028631014E+01  0.18746237783E+01  0.55478732419E+02  0.41800000000E+01 0.  1.
         -5    1    3    3    0  502 -0.29752427823E+02 -0.33599474127E+02 -0.93695682061E+02  0.10397348152E+03  0.41800000000E+01 0.  1.
        -11    1    4    4    0    0 -0.21069457996E+02  0.43374526938E+02  0.13472148705E+02  0.50067658604E+02  0.00000000000E+00 0.  1.
         11    1    4    4    0    0 -0.40472693605E+01 -0.16577915912E+02 -0.55391388154E+02  0.57960448298E+02  0.00000000000E+00 0. -1.
</event>
<event>
 8    1  0.7075056E-009  0.1041639E+03  0.7561462E-02  0.1271776E+00
          2   -1    0    0  501    0  0.00000000000E+00  0.00000000000E+00  0.83643029847E+02  0.83643029847E+02  0.00000000000E+00 0. -1.
         -2   -1    0    0    0  501 -0.00000000000E+00 -0.00000000000E+00 -0.23720507103E+03  0.23720507103E+03  0.00000000000E+00 0.  1.
         25    2    1    2    0    0 -0.59185797027E+01  0.31030980314E+02  0.11478010068E+02  0.12953103896E+03  0.12509434046E+03 0.  0.
         23    2    1    2    0    0  0.59185797027E+01 -0.31030980314E+02 -0.16504005125E+03  0.19131706192E+03  0.91466104858E+02 0.  0.
          5    1    3    3  502    0  0.56973059170E+02  0.21810717189E+02 -0.10704290234E+02  0.62078104714E+02  0.41800000000E+01 0. -1.
         -5    1    3    3    0  502 -0.62891638872E+02  0.92202631245E+01  0.22182300302E+02  0.67452934249E+02  0.41800000000E+01 0. -1.
        -11    1    4    4    0    0  0.27267092308E+01 -0.57124882313E+02 -0.15110105871E+03  0.16156180571E+03  0.00000000000E+00 0.  1.
         11    1    4    4    0    0  0.31918704719E+01  0.26093901999E+02 -0.13938992547E+02  0.29755256206E+02  0.00000000000E+00 0. -1.
</event>
<event>
 8    1  0.7075056E-009  0.1577907E+03  0.7561462E-02  0.1191214E+00
          2   -1    0    0  501    0  0.00000000000E+00  0.00000000000E+00  0.25851673584E+03  0.25851673584E+03  0.00000000000E+00 0.  1.
         -2   -1    0    0    0  501 -0.00000000000E+00 -0.00000000000E+00 -0.18227641735E+03  0.18227641735E+03  0.00000000000E+00 0. -1.
         25    2    1    2    0    0 -0.43396703625E+02  0.12449836921E+03  0.17622073003E+03  0.25314972892E+03  0.12509165334E+03 0.  0.
         23    2    1    2    0    0  0.43396703625E+02 -0.12449836921E+03 -0.99980411542E+02  0.18764342427E+03  0.88492113539E+02 0.  0.
          5    1    3    3  502    0 -0.54397096342E+02  0.31379343110E+02  0.12107197841E+02  0.64091839606E+02  0.41800000000E+01 0. -1.
         -5    1    3    3    0  502  0.11000392717E+02  0.93119026102E+02  0.16411353219E+03  0.18905788931E+03  0.41800000000E+01 0. -1.
        -11    1    4    4    0    0  0.70901466154E+02 -0.85744541076E+02 -0.69363645418E+02  0.13111239275E+03  0.00000000000E+00 0. -1.
         11    1    4    4    0    0 -0.27504762529E+02 -0.38753828136E+02 -0.30616766123E+02  0.56531031521E+02  0.00000000000E+00 0.  1.
</event>
<event>
 8    1  0.7075056E-009  0.1169145E+03  0.7561462E-02  0.1248276E+00
          1   -1    0    0  501    0  0.00000000000E+00  0.00000000000E+00  0.24695832320E+04  0.24695832320E+04  0.00000000000E+00 0. -1.
         -1   -1    0    0    0  501 -0.00000000000E+00 -0.00000000000E+00 -0.13511886953E+02  0.13511886953E+02  0.00000000000E+00 0.  1.
         25    2    1    2    0    0 -0.82699551375E+02  0.28348778523E+02  0.21023281349E+04  0.21078608254E+04  0.12510317120E+03 0.  0.
         23    2    1    2    0    0  0.82699551375E+02 -0.28348778523E+02  0.35374321018E+03  0.37523429358E+03  0.89574813920E+02 0.  0.
          5    1    3    3  502    0 -0.77410652901E+02  0.50997213501E+02  0.20220244624E+04  0.20241525446E+04  0.41800000000E+01 0. -1.
         -5    1    3    3    0  502 -0.52888984738E+01 -0.22648434978E+02  0.80303672468E+02  0.83708280749E+02  0.41800000000E+01 0. -1.
        -11    1    4    4    0    0  0.23412027744E+02  0.27388846865E+02  0.56152602834E+02  0.66718713872E+02  0.00000000000E+00 0. -1.
         11    1    4    4    0    0  0.59287523631E+02 -0.55737625388E+02  0.29759060735E+03  0.30851557971E+03  0.00000000000E+00 0.  1.
</event>
<event>
 8    1  0.7075056E-009  0.1169430E+03  0.7561462E-02  0.1248227E+00
         -2   -1    0    0    0  501 -0.00000000000E+00  0.00000000000E+00  0.50771672951E+02  0.50771672951E+02  0.00000000000E+00 0.  1.
          2   -1    0    0  501    0  0.00000000000E+00 -0.00000000000E+00 -0.29971648044E+03  0.29971648044E+03  0.00000000000E+00 0. -1.
         25    2    1    2    0    0  0.84762551644E+01 -0.56397649719E+02 -0.15160514139E+03  0.20465611420E+03  0.12508982528E+03 0.  0.
         23    2    1    2    0    0 -0.84762551644E+01  0.56397649719E+02 -0.97339666103E+02  0.14583203919E+03  0.92409043188E+02 0.  0.
          5    1    3    3  502    0  0.37816141417E+02  0.23532229872E+02 -0.22838734034E+02  0.50228543346E+02  0.41800000000E+01 0. -1.
         -5    1    3    3    0  502 -0.29339886253E+02 -0.79929879591E+02 -0.12876640735E+03  0.15442757085E+03  0.41800000000E+01 0. -1.
        -11    1    4    4    0    0 -0.42399746077E+02  0.55266901392E+01 -0.61671922412E+02  0.75044711908E+02  0.00000000000E+00 0.  1.
         11    1    4    4    0    0  0.33923490913E+02  0.50870959580E+02 -0.35667743691E+02  0.70787327286E+02  0.00000000000E+00 0. -1.
</event>
<event>
 8    1  0.7075056E-009  0.9316802E+02  0.7561462E-02  0.1295356E+00
          1   -1    0    0  501    0  0.00000000000E+00  0.00000000000E+00  0.15056369807E+03  0.15056369807E+03  0.00000000000E+00 0. -1.
         -1   -1    0    0    0  501 -0.00000000000E+00 -0.00000000000E+00 -0.95331244844E+02  0.95331244844E+02  0.00000000000E+00 0.  1.
         25    2    1    2    0    0  0.13623869326E+02 -0.36607504760E+02 -0.35815193738E+01  0.13109532185E+03  0.12508971544E+03 0.  0.
         23    2    1    2    0    0 -0.13623869326E+02  0.36607504760E+02  0.58813972596E+02  0.11479962106E+03  0.90521546624E+02 0.  0.
          5    1    3    3  502    0  0.10880807267E+02  0.26222186249E+02 -0.46641587622E+02  0.54762259946E+02  0.41800000000E+01 0.  1.
         -5    1    3    3    0  502  0.27430620585E+01 -0.62829691009E+02  0.43060068248E+02  0.76333061902E+02  0.41800000000E+01 0.  1.
        -11    1    4    4    0    0  0.28052733932E+02 -0.12062154769E+02  0.46291374349E+01  0.30884953815E+02  0.00000000000E+00 0. -1.
         11    1    4    4    0    0 -0.41676603258E+02  0.48669659529E+02  0.54184835161E+02  0.83914667248E+02  0.00000000000E+00 0.  1.
</event>
<event>
 8    1  0.7075056E-009  0.1086921E+03  0.7561462E-02  0.1263011E+00
         -1   -1    0    0    0  501 -0.00000000000E+00  0.00000000000E+00  0.25126501861E+02  0.25126501861E+02  0.00000000000E+00 0.  1.
          1   -1    0    0  501    0  0.00000000000E+00 -0.00000000000E+00 -0.52374244182E+03  0.52374244182E+03  0.00000000000E+00 0. -1.
         25    2    1    2    0    0 -0.33492399840E+02  0.87326608073E+01 -0.31012909256E+03  0.33619323776E+03  0.12509132204E+03 0.  0.
         23    2    1    2    0    0  0.33492399840E+02 -0.87326608073E+01 -0.18848684740E+03  0.21267570593E+03  0.92226157008E+02 0.  0.
          5    1    3    3  502    0 -0.72708369964E+02  0.27080579245E+02 -0.25124598485E+03  0.26298646760E+03  0.41800000000E+01 0. -1.
         -5    1    3    3    0  502  0.39215970124E+02 -0.18347918438E+02 -0.58883107709E+02  0.73206770160E+02  0.41800000000E+01 0. -1.
        -11    1    4    4    0    0  0.43148368387E+02  0.32385389741E+02 -0.82402964843E+02  0.98492861558E+02  0.00000000000E+00 0.  1.
         11    1    4    4    0    0 -0.96559685466E+01 -0.41118050548E+02 -0.10608388256E+03  0.11418284437E+03  0.00000000000E+00 0. -1.
</event>
<event>
 8    1  0.7075056E-009  0.1338532E+03  0.7561462E-02  0.1221848E+00
         -1   -1    0    0    0  501 -0.00000000000E+00  0.00000000000E+00  0.71887327095E+03  0.71887327095E+03  0.00000000000E+00 0.  1.
          1   -1    0    0  501    0  0.00000000000E+00 -0.00000000000E+00 -0.28799569574E+02  0.28799569574E+02  0.00000000000E+00 0. -1.
         25    2    1    2    0    0  0.58090690751E+02 -0.57475761445E+02  0.50786807558E+03  0.52939181489E+03  0.12509084688E+03 0.  0.
         23    2    1    2    0    0 -0.58090690751E+02  0.57475761445E+02  0.18220562579E+03  0.21828102563E+03  0.88146041174E+02 0.  0.
          5    1    3    3  502    0  0.55672255321E+02  0.28488317924E+02  0.19011188642E+03  0.20017738640E+03  0.41800000000E+01 0. -1.
         -5    1    3    3    0  502  0.24184354302E+01 -0.85964079369E+02  0.31775618917E+03  0.32921442849E+03  0.41800000000E+01 0. -1.
        -11    1    4    4    0    0  0.10993846434E+02  0.47946434575E+02  0.91279463381E+02  0.10369023909E+03  0.00000000000E+00 0.  1.
         11    1    4    4    0    0 -0.69084537186E+02  0.95293268693E+01  0.90926162412E+02  0.11459078654E+03  0.00000000000E+00 0. -1.
</event>
<event>
 8    1  0.7075056E-009  0.9173810E+02  0.7561462E-02  0.1298696E+00
         -3   -1    0    0    0  501 -0.00000000000E+00  0.00000000000E+00  0.11892861461E+03  0.11892861461E+03  0.00000000000E+00 0.  1.
          3   -1    0    0  501    0  0.00000000000E+00 -0.00000000000E+00 -0.14427383388E+03  0.14427383388E+03  0.00000000000E+00 0. -1.
         25    2    1    2    0    0  0.32033320393E+01 -0.46272861107E+02  0.43120470153E+02  0.14020011239E+03  0.12508100398E+03 0.  0.
         23    2    1    2    0    0 -0.32033320393E+01  0.46272861107E+02 -0.68465689420E+02  0.12300233610E+03  0.91052649865E+02 0.  0.
          5    1    3    3  502    0 -0.20469084958E+02 -0.53598065748E+02  0.78180596649E+02  0.97063969542E+02  0.41800000000E+01 0. -1.
         -5    1    3    3    0  502  0.23672416998E+02  0.73252046412E+01 -0.35060126496E+02  0.43136142844E+02  0.41800000000E+01 0. -1.
        -11    1    4    4    0    0  0.42602618500E+02  0.14217815589E+02 -0.40561612706E+02  0.60517549591E+02  0.00000000000E+00 0. -1.
         11    1    4    4    0    0 -0.45805950539E+02  0.32055045518E+02 -0.27904076714E+02  0.62484786510E+02  0.00000000000E+00 0.  1.
</event>
<event>
 8    1  0.7075056E-009  0.1308372E+03  0.7561462E-02  0.1226219E+00
         -1   -1    0    0    0  501 -0.00000000000E+00  0.00000000000E+00  0.30222464969E+02  0.30222464969E+02  0.00000000000E+00 0.  1.
          1   -1    0    0  501    0  0.00000000000E+00 -0.00000000000E+00 -0.83126676090E+03  0.83126676090E+03  0.00000000000E+00 0. -1.
         25    2    1    2    0    0  0.11050882699E+03  0.26224275224E+02 -0.39253077384E+03  0.42735127610E+03  0.12509512906E+03 0.  0.
         23    2    1    2    0    0 -0.11050882699E+03 -0.26224275224E+02 -0.40851352208E+03  0.43413794977E+03  0.93233836399E+02 0.  0.
          5    1    3    3  502    0  0.30696428819E+01 -0.12083711974E+02  0.47636282660E+01  0.13985826995E+02  0.41800000000E+01 0. -1.
         -5    1    3    3    0  502  0.10743918411E+03  0.38307987198E+02 -0.39729440211E+03  0.41336544910E+03  0.41800000000E+01 0. -1.
        -11    1    4    4    0    0 -0.63889070283E+02 -0.50854488764E+02 -0.15494406498E+03  0.17514467049E+03  0.00000000000E+00 0.  1.
         11    1    4    4    0    0 -0.46619756705E+02  0.24630213540E+02 -0.25356945710E+03  0.25899327927E+03  0.00000000000E+00 0. -1.
</event>
<event>
 8    1  0.7075056E-009  0.1978434E+03  0.7561462E-02  0.1151571E+00
         -2   -1    0    0    0  501 -0.00000000000E+00  0.00000000000E+00  0.12500727982E+03  0.12500727982E+03  0.00000000000E+00 0. -1.
          2   -1    0    0  501    0  0.00000000000E+00 -0.00000000000E+00 -0.43309998962E+03  0.43309998962E+03  0.00000000000E+00 0.  1.
         25    2    1    2    0    0  0.13132879040E+03  0.11581747986E+03 -0.30964488069E+02  0.21741116494E+03  0.12509146769E+03 0.  0.
         23    2    1    2    0    0 -0.13132879040E+03 -0.11581747986E+03 -0.27712822174E+03  0.34069610451E+03  0.92805412111E+02 0.  0.
          5    1    3    3  502    0  0.99222655141E+01 -0.15453521616E+02 -0.33620331538E+02  0.38536499271E+02  0.41800000000E+01 0.  1.
         -5    1    3    3    0  502  0.12140652488E+03  0.13127100148E+03  0.26558434693E+01  0.17887466566E+03  0.41800000000E+01 0.  1.
        -11    1    4    4    0    0 -0.12898748152E+03 -0.60222943237E+02 -0.19263435071E+03  0.23952571126E+03  0.00000000000E+00 0.  1.
         11    1    4    4    0    0 -0.23413088784E+01 -0.55594536622E+02 -0.84493871025E+02  0.10117039325E+03  0.00000000000E+00 0. -1.
</event>
<event>
 8    1  0.7075056E-009  0.1055291E+03  0.7561462E-02  0.1269081E+00
         -2   -1    0    0    0  501 -0.00000000000E+00  0.00000000000E+00  0.25278144096E+02  0.25278144096E+02  0.00000000000E+00 0.  1.
          2   -1    0    0  501    0  0.00000000000E+00 -0.00000000000E+00 -0.73305437489E+03  0.73305437489E+03  0.00000000000E+00 0. -1.
         25    2    1    2    0    0  0.21839430635E+02 -0.49817561803E+02 -0.55515784628E+03  0.57166993698E+03  0.12509009697E+03 0.  0.
         23    2    1    2    0    0 -0.21839430635E+02  0.49817561803E+02 -0.15261838451E+03  0.18666258200E+03  0.92691952381E+02 0.  0.
          5    1    3    3  502    0 -0.26835378077E+02  0.76303828901E+01 -0.37900761703E+03  0.38005605695E+03  0.41800000000E+01 0. -1.
         -5    1    3    3    0  502  0.48674808711E+02 -0.57447944693E+02 -0.17615022925E+03  0.19161388003E+03  0.41800000000E+01 0. -1.
        -11    1    4    4    0    0  0.23320523280E+02  0.57112649613E+02 -0.85181162542E+02  0.10517381805E+03  0.00000000000E+00 0.  1.
         11    1    4    4    0    0 -0.45159953915E+02 -0.72950878103E+01 -0.67437221965E+02  0.81488763950E+02  0.00000000000E+00 0. -1.
</event>
<event>
 8    1  0.7075056E-009  0.1158429E+03  0.7561462E-02  0.1250117E+00
         -2   -1    0    0    0  501 -0.00000000000E+00  0.00000000000E+00  0.16379718699E+03  0.16379718699E+03  0.00000000000E+00 0. -1.
          2   -1    0    0  501    0  0.00000000000E+00 -0.00000000000E+00 -0.11722276461E+03  0.11722276461E+03  0.00000000000E+00 0.  1.
         25    2    1    2    0    0 -0.48646881979E+02  0.64057457948E+02 -0.51055964205E+01  0.14880665854E+03  0.12508987755E+03 0.  0.
         23    2    1    2    0    0  0.48646881979E+02 -0.64057457948E+02  0.51680018806E+02  0.13221329306E+03  0.91321703189E+02 0.  0.
          5    1    3    3  502    0 -0.16993561574E+02  0.79071306898E+02 -0.47314893356E+02  0.93793519194E+02  0.41800000000E+01 0.  1.
         -5    1    3    3    0  502 -0.31653320405E+02 -0.15013848950E+02  0.42209296935E+02  0.55013139347E+02  0.41800000000E+01 0.  1.
        -11    1    4    4    0    0  0.71416363779E+02 -0.57604512600E+02  0.22183954150E+02  0.94396529116E+02  0.00000000000E+00 0.  1.
         11    1    4    4    0    0 -0.22769481800E+02 -0.64529453478E+01  0.29496064656E+02  0.37816763945E+02  0.00000000000E+00 0. -1.
</event>
<event>
 8    1  0.7075056E-009  0.1335112E+03  0.7561462E-02  0.1222337E+00
          2   -1    0    0  501    0  0.00000000000E+00  0.00000000000E+00  0.10483100582E+03  0.10483100582E+03  0.00000000000E+00 0. -1.
         -2   -1    0    0    0  501 -0.00000000000E+00 -0.00000000000E+00 -0.29688335520E+03  0.29688335520E+03  0.00000000000E+00 0.  1.
         25    2    1    2    0    0 -0.42431143620E+02  0.81453707737E+02 -0.22041555592E+03  0.26956575108E+03  0.12509024108E+03 0.  0.
         23    2    1    2    0    0  0.42431143620E+02 -0.81453707737E+02  0.28363206528E+02  0.13214860994E+03  0.90684481420E+02 0.  0.
          5    1    3    3  502    0 -0.77972702823E+02  0.60288313383E+02 -0.93143422481E+02  0.13567458372E+03  0.41800000000E+01 0. -1.
         -5    1    3    3    0  502  0.35541559203E+02  0.21165394354E+02 -0.12727213344E+03  0.13389116736E+03  0.41800000000E+01 0. -1.
        -11    1    4    4    0    0  0.57491798385E+02 -0.91945443766E+02  0.15062536444E+02  0.10948128386E+03  0.00000000000E+00 0.  1.
         11    1    4    4    0    0 -0.15060654765E+02  0.10491736029E+02  0.13300670085E+02  0.22667326079E+02  0.00000000000E+00 0. -1.
</event>
<event>
 8    1  0.7075056E-009  0.1073930E+03  0.7561462E-02  0.1265475E+00
          1   -1    0    0  501    0  0.00000000000E+00  0.00000000000E+00  0.20985520061E+03  0.20985520061E+03  0.00000000000E+00 0. -1.
         -1   -1    0    0    0  501 -0.00000000000E+00 -0.00000000000E+00 -0.86412625554E+02  0.86412625554E+02  0.00000000000E+00 0.  1.
         25    2    1    2    0    0 -0.75143424282E+02  0.19519360708E+01  0.99211798820E+02  0.17646773972E+03  0.12509011899E+03 0.  0.
         23    2    1    2    0    0  0.75143424282E+02 -0.19519360708E+01  0.24230776234E+02  0.11980008645E+03  0.90080996487E+02 0.  0.
          5    1    3    3  502    0 -0.10717838816E+03  0.52884862214E+00  0.51893461455E+02  0.11915490049E+03  0.41800000000E+01 0.  1.
         -5    1    3    3    0  502  0.32034963880E+02  0.14230874486E+01  0.47318337365E+02  0.57312839222E+02  0.41800000000E+01 0.  1.
        -11    1    4    4    0    0  0.46123371091E+02 -0.20019793759E+01 -0.32239487998E+02  0.56309482936E+02  0.00000000000E+00 0.  1.
         11    1    4    4    0    0  0.29020053191E+02  0.50043305137E-01  0.56470264231E+02  0.63490603509E+02  0.00000000000E+00 0. -1.
</event>
<event>
 8    1  0.7075056E-009  0.1614537E+03  0.7561462E-02  0.1187065E+00
         -1   -1    0    0    0  501 -0.00000000000E+00  0.00000000000E+00  0.41730461763E+03  0.41730461763E+03  0.00000000000E+00 0.  1.
          1   -1    0    0  501    0  0.00000000000E+00 -0.00000000000E+00 -0.74770594031E+02  0.74770594031E+02  0.00000000000E+00 0. -1.
         25    2    1    2    0    0  0.13909871397E+03  0.17667361435E+02  0.18456457535E+03  0.26338662651E+03  0.12509134528E+03 0.  0.
         23    2    1    2    0    0 -0.13909871397E+03 -0.17667361435E+02  0.15796944825E+03  0.22868858515E+03  0.87655772826E+02 0.  0.
          5    1    3    3  502    0  0.15013317509E+03  0.15361708592E+02  0.10736969252E+03  0.18526110122E+03  0.41800000000E+01 0. -1.
         -5    1    3    3    0  502 -0.11034461119E+02  0.23056528425E+01  0.77194882830E+02  0.78125525293E+02  0.41800000000E+01 0. -1.
        -11    1    4    4    0    0 -0.16925271437E+02 -0.32694406434E+02  0.63971069920E+02  0.73808446752E+02  0.00000000000E+00 0.  1.
         11    1    4    4    0    0 -0.12217344253E+03  0.15027044999E+02  0.93998378330E+02  0.15488013840E+03  0.00000000000E+00 0. -1.
</event>
<event>
 8    1  0.7075056E-009  0.8189637E+02  0.7561462E-02  0.1323754E+00
          2   -1    0    0  501    0  0.00000000000E+00  0.00000000000E+00  0.29680767128E+02  0.29680767128E+02  0.00000000000E+00 0. -1.
         -2   -1    0    0    0  501 -0.00000000000E+00 -0.00000000000E+00 -0.42482112440E+03  0.42482112440E+03  0.00000000000E+00 0.  1.
         25    2    1    2    0    0  0.20317216325E+01  0.94240543789E+01 -0.28592543937E+03  0.31223849412E+03  0.12508628878E+03 0.  0.
         23    2    1    2    0    0 -0.20317216325E+01 -0.94240543789E+01 -0.10921491791E+03  0.14226339741E+03  0.90653379723E+02 0.  0.
          5    1    3    3  502    0  0.36185455572E+02  0.30745552424E+02 -0.37807891767E+02  0.60840654735E+02  0.41800000000E+01 0. -1.
         -5    1    3    3    0  502 -0.34153733939E+02 -0.21321498045E+02 -0.24811754760E+03  0.25139783939E+03  0.41800000000E+01 0. -1.
        -11    1    4    4    0    0  0.36213851524E+02  0.17715883891E+00 -0.13334867723E+02  0.38591360751E+02  0.00000000000E+00 0. -1.
         11    1    4    4    0    0 -0.38245573157E+02 -0.96012132178E+01 -0.95880050186E+02  0.10367203666E+03  0.00000000000E+00 0.  1.
</event>
<event>
 8    1  0.7075056E-009  0.1230717E+03  0.7561462E-02  0.1238114E+00
         -1   -1    0    0    0  501 -0.00000000000E+00  0.00000000000E+00  0.79879033706E+02  0.79879033706E+02  0.00000000000E+00 0.  1.
          1   -1    0    0  501    0  0.00000000000E+00 -0.00000000000E+00 -0.20331198786E+03  0.20331198786E+03  0.00000000000E+00 0. -1.
         25    2    1    2    0    0 -0.27909877211E+01  0.57606580344E+02 -0.34673794054E+02  0.14203536383E+03  0.12508183270E+03 0.  0.
         23    2    1    2    0    0  0.27909877211E+01 -0.57606580344E+02 -0.88759160103E+02  0.14115565774E+03  0.93383207801E+02 0.  0.
          5    1    3    3  502    0 -0.63650628085E+02  0.25815253573E+02 -0.14201244944E+02  0.70263628789E+02  0.41800000000E+01 0.  1.
         -5    1    3    3    0  502  0.60859640364E+02  0.31791326771E+02 -0.20472549111E+02  0.71771735037E+02  0.41800000000E+01 0.  1.
        -11    1    4    4    0    0 -0.32689559853E+02  0.82670603585E+01 -0.18223270884E+02  0.38328047329E+02  0.00000000000E+00 0.  1.
         11    1    4    4    0    0  0.35480547574E+02 -0.65873640702E+02 -0.70535889218E+02  0.10282761041E+03  0.00000000000E+00 0. -1.
</event>
<event>
 8    1  0.7075056E-009  0.1239928E+03  0.7561462E-02  0.1236652E+00
          2   -1    0    0  501    0  0.00000000000E+00  0.00000000000E+00  0.32451792378E+03  0.32451792378E+03  0.00000000000E+00 0. -1.
         -2   -1    0    0    0  501 -0.00000000000E+00 -0.00000000000E+00 -0.66478917407E+02  0.66478917407E+02  0.00000000000E+00 0.  1.
         25    2    1    2    0    0 -0.28653870836E+02 -0.88676950883E+02  0.98301314677E+02  0.18437794608E+03  0.12508969823E+03 0.  0.
         23    2    1    2    0    0  0.28653870836E+02  0.88676950883E+02  0.15973769170E+03  0.20661889511E+03  0.92144406957E+02 0.  0.
          5    1    3    3  502    0  0.27789750514E+02 -0.92494594136E+02  0.45351823520E+02  0.10677912003E+03  0.41800000000E+01 0. -1.
         -5    1    3    3    0  502 -0.56443621350E+02  0.38176432525E+01  0.52949491156E+02  0.77598826053E+02  0.41800000000E+01 0. -1.
        -11    1    4    4    0    0  0.16005873290E+02  0.25118503531E+02 -0.44402285986E+01  0.30113831198E+02  0.00000000000E+00 0.  1.
         11    1    4    4    0    0  0.12647997546E+02  0.63558447353E+02  0.16417792030E+03  0.17650506391E+03  0.00000000000E+00 0. -1.
</event>
<event>
 8    1  0.7075056E-009  0.1329574E+03  0.7561462E-02  0.1223132E+00
         -1   -1    0    0    0  501 -0.00000000000E+00  0.00000000000E+00  0.20107647930E+02  0.20107647930E+02  0.00000000000E+00 0.  1.
          1   -1    0    0  501    0  0.00000000000E+00 -0.00000000000E+00 -0.14645641613E+04  0.14645641613E+04  0.00000000000E+00 0. -1.
         25    2    1    2    0    0  0.22565009094E+02 -0.10833163388E+03 -0.10902516542E+04  0.11029688953E+04  0.12508713724E+03 0.  0.
         23    2    1    2    0    0 -0.22565009094E+02  0.10833163388E+03 -0.35420485918E+03  0.38170291398E+03  0.89393007204E+02 0.  0.
          5    1    3    3  502    0  0.27375352193E+02 -0.14037029351E+02 -0.72575909536E+03  0.72642286927E+03  0.41800000000E+01 0. -1.
         -5    1    3    3    0  502 -0.48103430986E+01 -0.94294604525E+02 -0.36449255886E+03  0.37654602601E+03  0.41800000000E+01 0. -1.
        -11    1    4    4    0    0 -0.36632921868E+02  0.60690115931E+01 -0.12341030177E+03  0.12887554635E+03  0.00000000000E+00 0.  1.
         11    1    4    4    0    0  0.14067912774E+02  0.10226262228E+03 -0.23079455742E+03  0.25282736763E+03  0.00000000000E+00 0. -1.
</event>
<event>
 8    1  0.7075056E-009  0.1123524E+03  0.7561462E-02  0.1256275E+00
          1   -1    0    0  501    0  0.00000000000E+00  0.00000000000E+00  0.10457016499E+04  0.10457016499E+04  0.00000000000E+00 0. -1.
         -1   -1    0    0    0  501 -0.00000000000E+00 -0.00000000000E+00 -0.21940210953E+02  0.21940210953E+02  0.00000000000E+00 0.  1.
         25    2    1    2    0    0 -0.50026330022E+02 -0.65221419409E+02  0.78309411111E+03  0.79726970503E+03  0.12508448531E+03 0.  0.
         23    2    1    2    0    0  0.50026330022E+02  0.65221419409E+02  0.24066732787E+03  0.27037215585E+03  0.91781657810E+02 0.  0.
          5    1    3    3  502    0 -0.15074976993E+02  0.13546469435E+02  0.18300101243E+02  0.27624769157E+02  0.41800000000E+01 0.  1.
         -5    1    3    3    0  502 -0.34951353029E+02 -0.78767888845E+02  0.76479400987E+03  0.76964493588E+03  0.41800000000E+01 0.  1.
        -11    1    4    4    0    0  0.35421246084E+02 -0.13323658986E+02  0.43640140359E+02  0.57763711909E+02  0.00000000000E+00 0.  1.
         11    1    4    4    0    0  0.14605083938E+02  0.78545078396E+02  0.19702718751E+03  0.21260844395E+03  0.00000000000E+00 0. -1.
</event>
<event>
 8    1  0.7075056E-009  0.1587667E+03  0.7561462E-02  0.1190096E+00
         -1   -1    0    0    0  501 -0.00000000000E+00  0.00000000000E+00  0.76425839146E+03  0.76425839146E+03  0.00000000000E+00 0.  1.
          1   -1    0    0  501    0  0.00000000000E+00 -0.00000000000E+00 -0.49357643266E+02  0.49357643266E+02  0.00000000000E+00 0. -1.
         25    2    1    2    0    0  0.10655141933E+03  0.10714473114E+03  0.48983982506E+03  0.52765641557E+03  0.12508013554E+03 0.  0.
         23    2    1    2    0    0 -0.10655141933E+03 -0.10714473114E+03  0.22506092313E+03  0.28595961915E+03  0.91034533509E+02 0.  0.
          5    1    3    3  502    0  0.39306232291E+02  0.53859101090E+02  0.61554333041E+02  0.90841570788E+02  0.41800000000E+01 0.  1.
         -5    1    3    3    0  502  0.67245187040E+02  0.53285630052E+02  0.42828549202E+03  0.43681484478E+03  0.41800000000E+01 0.  1.
        -11    1    4    4    0    0 -0.73735148317E+02 -0.10940392646E+03  0.21372681463E+03  0.25116775771E+03  0.00000000000E+00 0.  1.
         11    1    4    4    0    0 -0.32816271014E+02  0.22591953199E+01  0.11334108501E+02  0.34791861437E+02  0.00000000000E+00 0. -1.
</event>
<event>
 8    1  0.7075056E-009  0.9862086E+02  0.7561462E-02  0.1283223E+00
          1   -1    0    0  501    0  0.00000000000E+00  0.00000000000E+00  0.42744094832E+03  0.42744094832E+03  0.00000000000E+00 0. -1.
         -1   -1    0    0    0  501 -0.00000000000E+00 -0.00000000000E+00 -0.37396768528E+02  0.37396768528E+02  0.00000000000E+00 0.  1.
         25    2    1    2    0    0  0.14863953650E+02 -0.25462054440E+01  0.33285017707E+03  0.35589757345E+03  0.12508565918E+03 0.  0.
         23    2    1    2    0    0 -0.14863953650E+02  0.25462054440E+01  0.57194002717E+02  0.10894014339E+03  0.91484318960E+02 0.  0.
          5    1    3    3  502    0 -0.12951157166E+02 -0.49979670146E+02  0.68630555168E+02  0.85984448609E+02  0.41800000000E+01 0.  1.
         -5    1    3    3    0  502  0.27815110816E+02  0.47433464702E+02  0.26421962190E+03  0.26991312484E+03  0.41800000000E+01 0.  1.
        -11    1    4    4    0    0 -0.52554434329E+02  0.23082603681E+01  0.45285706733E+02  0.69412476313E+02  0.00000000000E+00 0.  1.
         11    1    4    4    0    0  0.37690480679E+02  0.23794507595E+00  0.11908295984E+02  0.39527667081E+02  0.00000000000E+00 0. -1.
</event>
<event>
 8    1  0.7075056E-009  0.3521537E+03  0.7561462E-02  0.1061735E+00
          1   -1    0    0  501    0  0.00000000000E+00  0.00000000000E+00  0.47508764599E+03  0.47508764599E+03  0.00000000000E+00 0. -1.
         -1   -1    0    0    0  501 -0.00000000000E+00 -0.00000000000E+00 -0.56408452557E+03  0.56408452557E+03  0.00000000000E+00 0.  1.
         25    2    1    2    0    0  0.27575250558E+03  0.20620639044E+03  0.32723370633E+03  0.49121134570E+03  0.12508464254E+03 0.  0.
         23    2    1    2    0    0 -0.27575250558E+03 -0.20620639044E+03 -0.41623058592E+03  0.54796082585E+03  0.91938273997E+02 0.  0.
          5    1    3    3  502    0  0.87927633339E+02  0.95532735350E+02  0.51643349812E+02  0.13979370590E+03  0.41800000000E+01 0.  1.
         -5    1    3    3    0  502  0.18782487224E+03  0.11067365509E+03  0.27559035652E+03  0.35141763981E+03  0.41800000000E+01 0.  1.
        -11    1    4    4    0    0 -0.61308559333E+02 -0.99398768262E+02 -0.13292319277E+03  0.17693905662E+03  0.00000000000E+00 0. -1.
         11    1    4    4    0    0 -0.21444394625E+03 -0.10680762218E+03 -0.28330739315E+03  0.37102176924E+03  0.00000000000E+00 0.  1.
</event>
<event>
 8    1  0.7075056E-009  0.1851684E+03  0.7561462E-02  0.1162893E+00
         -1   -1    0    0    0  501 -0.00000000000E+00  0.00000000000E+00  0.56295310519E+02  0.56295310519E+02  0.00000000000E+00 0.  1.
          1   -1    0    0  501    0  0.00000000000E+00 -0.00000000000E+00 -0.72897832599E+03  0.72897832599E+03  0.00000000000E+00 0. -1.
         25    2    1    2    0    0 -0.12923054846E+03  0.11172762512E+03 -0.35481503771E+03  0.41318870309E+03  0.12509035337E+03 0.  0.
         23    2    1    2    0    0  0.12923054846E+03 -0.11172762512E+03 -0.31786797777E+03  0.37208493342E+03  0.90683788647E+02 0.  0.
          5    1    3    3  502    0 -0.79489478358E+02  0.48595754147E+01 -0.74767711782E+02  0.10931548732E+03  0.41800000000E+01 0. -1.
         -5    1    3    3    0  502 -0.49741070098E+02  0.10686804970E+03 -0.28004732593E+03  0.30387321577E+03  0.41800000000E+01 0. -1.
        -11    1    4    4    0    0  0.63899806792E+02 -0.71602743817E+02 -0.25654716709E+03  0.27390981576E+03  0.00000000000E+00 0. -1.
         11    1    4    4    0    0  0.65330741664E+02 -0.40124881302E+02 -0.61320810680E+02  0.98175117664E+02  0.00000000000E+00 0.  1.
</event>
<event>
 8    1  0.7075056E-009  0.9104155E+02  0.7561462E-02  0.1300349E+00
         -2   -1    0    0    0  501 -0.00000000000E+00  0.00000000000E+00  0.97625877612E+02  0.97625877612E+02  0.00000000000E+00 0.  1.
          2   -1    0    0  501    0  0.00000000000E+00 -0.00000000000E+00 -0.13487658589E+03  0.13487658589E+03  0.00000000000E+00 0. -1.
         25    2    1    2    0    0 -0.23904327777E+02 -0.18070626651E+02  0.30428124533E+01  0.12866075209E+03  0.12508543475E+03 0.  0.
         23    2    1    2    0    0  0.23904327777E+02  0.18070626651E+02 -0.40293520731E+02  0.10384171141E+03  0.90893172366E+02 0.  0.
          5    1    3    3  502    0 -0.22559462399E+01  0.53199192129E+02 -0.49083006251E+01  0.53635875602E+02  0.41800000000E+01 0.  1.
         -5    1    3    3    0  502 -0.21648381537E+02 -0.71269818780E+02  0.79511130784E+01  0.75024876483E+02  0.41800000000E+01 0.  1.
        -11    1    4    4    0    0  0.37060903410E+02  0.17274997630E+02 -0.64448115819E+02  0.76324935226E+02  0.00000000000E+00 0. -1.
         11    1    4    4    0    0 -0.13156575633E+02  0.79562902115E+00  0.24154595088E+02  0.27516776189E+02  0.00000000000E+00 0.  1.
</event>
<event>
 8    1  0.7075056E-009  0.2147095E+03  0.7561462E-02  0.1137890E+00
          1   -1    0    0  501    0  0.00000000000E+00  0.00000000000E+00  0.30339500035E+03  0.30339500035E+03  0.00000000000E+00 0. -1.
         -1   -1    0    0    0  501 -0.00000000000E+00 -0.00000000000E+00 -0.32586987899E+03  0.32586987899E+03  0.00000000000E+00 0.  1.
         25    2    1    2    0    0 -0.16065080724E+03  0.12314928981E+03 -0.22565580701E+03  0.32793900286E+03  0.12509603077E+03 0.  0.
         23    2    1    2    0    0  0.16065080724E+03 -0.12314928981E+03  0.20318092837E+03  0.30132587648E+03  0.92414093808E+02 0.  0.
          5    1    3    3  502    0 -0.99015525518E+02  0.10404082189E+03 -0.70923116710E+02  0.16023772276E+03  0.41800000000E+01 0. -1.
         -5    1    3    3    0  502 -0.61635281724E+02  0.19108467923E+02 -0.15473269030E+03  0.16770128010E+03  0.41800000000E+01 0. -1.
        -11    1    4    4    0    0  0.11103310712E+03 -0.13001736903E+03  0.14199252137E+03  0.22224928178E+03  0.00000000000E+00 0.  1.
         11    1    4    4    0    0  0.49617700122E+02  0.68680792248E+01  0.61188407007E+02  0.79076594702E+02  0.00000000000E+00 0. -1.
</event>
<event>
 8    1  0.7075056E-009  0.1326020E+03  0.7561462E-02  0.1223645E+00
          4   -1    0    0  501    0  0.00000000000E+00  0.00000000000E+00  0.12313163085E+03  0.12313163085E+03  0.00000000000E+00 0. -1.
         -4   -1    0    0    0  501 -0.00000000000E+00 -0.00000000000E+00 -0.21786525251E+03  0.21786525251E+03  0.00000000000E+00 0.  1.
         25    2    1    2    0    0 -0.31127678016E+02 -0.10626325318E+03  0.30859163251E+01  0.16708837676E+03  0.12509273142E+03 0.  0.
         23    2    1    2    0    0  0.31127678016E+02  0.10626325318E+03 -0.97819537991E+02  0.17390850660E+03  0.91731648518E+02 0.  0.
          5    1    3    3  502    0 -0.70624034675E+02 -0.67631754368E+02 -0.30231454808E+02  0.10243642776E+03  0.41800000000E+01 0.  1.
         -5    1    3    3    0  502  0.39496356660E+02 -0.38631498817E+02  0.33317371133E+02  0.64651948999E+02  0.41800000000E+01 0.  1.
        -11    1    4    4    0    0  0.34905519147E+01  0.39676095344E+02 -0.93563402237E+02  0.10168818384E+03  0.00000000000E+00 0.  1.
         11    1    4    4    0    0  0.27637126101E+02  0.66587157840E+02 -0.42561357539E+01  0.72220322763E+02  0.00000000000E+00 0. -1.
</event>
<event>
 8    1  0.7075056E-009  0.1152263E+03  0.7561462E-02  0.1251187E+00
          2   -1    0    0  501    0  0.00000000000E+00  0.00000000000E+00  0.22927805641E+03  0.22927805641E+03  0.00000000000E+00 0. -1.
         -2   -1    0    0    0  501 -0.00000000000E+00 -0.00000000000E+00 -0.67965908890E+02  0.67965908890E+02  0.00000000000E+00 0.  1.
         25    2    1    2    0    0 -0.49809017158E+02  0.13244680835E+02  0.47582600460E+02  0.14341536620E+03  0.12508998216E+03 0.  0.
         23    2    1    2    0    0  0.49809017158E+02 -0.13244680835E+02  0.11372954706E+03  0.15382859910E+03  0.89846915726E+02 0.  0.
          5    1    3    3  502    0  0.11713213740E+02  0.54629871665E+02  0.39840574604E+02  0.68748571179E+02  0.41800000000E+01 0.  1.
         -5    1    3    3    0  502 -0.61522230898E+02 -0.41385190830E+02  0.77420258563E+01  0.74666795024E+02  0.41800000000E+01 0.  1.
        -11    1    4    4    0    0  0.36960725313E+02 -0.49453756071E+02  0.88340485482E+02  0.10777666993E+03  0.00000000000E+00 0.  1.
         11    1    4    4    0    0  0.12848291845E+02  0.36209075235E+02  0.25389061580E+02  0.46051929174E+02  0.00000000000E+00 0. -1.
</event>
<event>
 8    1  0.7075056E-009  0.1217199E+03  0.7561462E-02  0.1240286E+00
         -2   -1    0    0    0  501 -0.00000000000E+00  0.00000000000E+00  0.82074051627E+02  0.82074051627E+02  0.00000000000E+00 0.  1.
          2   -1    0    0  501    0  0.00000000000E+00 -0.00000000000E+00 -0.28491619584E+03  0.28491619584E+03  0.00000000000E+00 0. -1.
         25    2    1    2    0    0 -0.79485681689E+02  0.34903943705E+02 -0.18436551647E+03  0.23910967677E+03  0.12508611027E+03 0.  0.
         23    2    1    2    0    0  0.79485681689E+02 -0.34903943705E+02 -0.18476627741E+02  0.12788057070E+03  0.92064084794E+02 0.  0.
          5    1    3    3  502    0  0.26037777564E+01 -0.20096314291E+02  0.84969357583E+01  0.22367651284E+02  0.41800000000E+01 0. -1.
         -5    1    3    3    0  502 -0.82089459446E+02  0.55000257997E+02 -0.19286245223E+03  0.21674202549E+03  0.41800000000E+01 0. -1.
        -11    1    4    4    0    0  0.87146218825E+02 -0.54516469668E+02 -0.25089323474E+02  0.10581107254E+03  0.00000000000E+00 0.  1.
         11    1    4    4    0    0 -0.76605371354E+01  0.19612525962E+02  0.66126957325E+01  0.22069498152E+02  0.00000000000E+00 0. -1.
</event>
<event>
 8    1  0.7075056E-009  0.1203402E+03  0.7561462E-02  0.1242537E+00
          1   -1    0    0  501    0  0.00000000000E+00  0.00000000000E+00  0.51650577645E+02  0.51650577645E+02  0.00000000000E+00 0. -1.
         -1   -1    0    0    0  501 -0.00000000000E+00 -0.00000000000E+00 -0.32021043821E+03  0.32021043821E+03  0.00000000000E+00 0.  1.
         25    2    1    2    0    0  0.55319515379E+01 -0.65884636876E+02 -0.17286373125E+03  0.22338351602E+03  0.12508772034E+03 0.  0.
         23    2    1    2    0    0 -0.55319515379E+01  0.65884636876E+02 -0.95696129307E+02  0.14847749983E+03  0.92284510773E+02 0.  0.
          5    1    3    3  502    0  0.27073539396E+02 -0.98441149249E+02 -0.12733008024E+03  0.16326070604E+03  0.41800000000E+01 0. -1.
         -5    1    3    3    0  502 -0.21541587858E+02  0.32556512374E+02 -0.45533651013E+02  0.60122809981E+02  0.41800000000E+01 0. -1.
        -11    1    4    4    0    0 -0.39810265096E+02  0.38235172463E+02 -0.87839055509E+02  0.10374239872E+03  0.00000000000E+00 0.  1.
         11    1    4    4    0    0  0.34278313558E+02  0.27649464413E+02 -0.78570737981E+01  0.44735101111E+02  0.00000000000E+00 0. -1.
</event>
<event>
 8    1  0.7075056E-009  0.1058430E+03  0.7561462E-02  0.1268468E+00
          2   -1    0    0  501    0  0.00000000000E+00  0.00000000000E+00  0.52054965500E+03  0.52054965500E+03  0.00000000000E+00 0.  1.
         -2   -1    0    0    0  501 -0.00000000000E+00 -0.00000000000E+00 -0.32642112329E+02  0.32642112329E+02  0.00000000000E+00 0. -1.
         25    2    1    2    0    0  0.29824357981E+02 -0.65064089180E+02  0.28585064277E+03  0.32012743740E+03  0.12509259840E+03 0.  0.
         23    2    1    2    0    0 -0.29824357981E+02  0.65064089180E+02  0.20205689990E+03  0.23306432993E+03  0.91483129911E+02 0.  0.
          5    1    3    3  502    0 -0.16735624693E+02  0.63058747819E+01  0.19361263966E+03  0.19448180333E+03  0.41800000000E+01 0. -1.
         -5    1    3    3    0  502  0.46559982674E+02 -0.71369963962E+02  0.92238003109E+02  0.12564563407E+03  0.41800000000E+01 0. -1.
        -11    1    4    4    0    0 -0.38138281740E+02  0.81278333074E+02  0.19268227786E+03  0.21257270794E+03  0.00000000000E+00 0.  1.
         11    1    4    4    0    0  0.83139237586E+01 -0.16214243894E+02  0.93746220479E+01  0.20491621992E+02  0.00000000000E+00 0. -1.
</event>
<event>
 8    1  0.7075056E-009  0.1572476E+03  0.7561462E-02  0.1191840E+00
          2   -1    0    0  501    0  0.00000000000E+00  0.00000000000E+00  0.80323639999E+03  0.80323639999E+03  0.00000000000E+00 0. -1.
         -2   -1    0    0    0  501 -0.00000000000E+00 -0.00000000000E+00 -0.32639232110E+02  0.32639232110E+02  0.00000000000E+00 0.  1.
         25    2    1    2    0    0  0.23157947968E+01 -0.11956863287E+03  0.42678194755E+03  0.46053546404E+03  0.12509221406E+03 0.  0.
         23    2    1    2    0    0 -0.23157947968E+01  0.11956863287E+03  0.34381522033E+03  0.37534016806E+03  0.91483961188E+02 0.  0.
          5    1    3    3  502    0  0.56873454970E+02 -0.98840330457E+02  0.26628592588E+03  0.28970617447E+03  0.41800000000E+01 0. -1.
         -5    1    3    3    0  502 -0.54557660174E+02 -0.20728302408E+02  0.16049602167E+03  0.17082928957E+03  0.41800000000E+01 0. -1.
        -11    1    4    4    0    0  0.36558543441E+02  0.46978521868E+02  0.85224550309E+02  0.10395543560E+03  0.00000000000E+00 0.  1.
         11    1    4    4    0    0 -0.38874338238E+02  0.72590110998E+02  0.25859067003E+03  0.27138473246E+03  0.00000000000E+00 0. -1.
</event>
<event>
 8    1  0.7075056E-009  0.1067723E+03  0.7561462E-02  0.1266667E+00
         -1   -1    0    0    0  501 -0.00000000000E+00  0.00000000000E+00  0.23432360371E+03  0.23432360371E+03  0.00000000000E+00 0.  1.
          1   -1    0    0  501    0  0.00000000000E+00 -0.00000000000E+00 -0.69376300716E+02  0.69376300716E+02  0.00000000000E+00 0. -1.
         25    2    1    2    0    0 -0.25919503917E+02  0.68141112398E+01  0.18722933939E+02  0.12928939810E+03  0.12508775883E+03 0.  0.
         23    2    1    2    0    0  0.25919503917E+02 -0.68141112398E+01  0.14622436906E+03  0.17441050633E+03  0.91209680498E+02 0.  0.
          5    1    3    3  502    0  0.42348396057E+02  0.26206883295E+02 -0.12696264639E+02  0.51564085528E+02  0.41800000000E+01 0. -1.
         -5    1    3    3    0  502 -0.68267899973E+02 -0.19392772055E+02  0.31419198578E+02  0.77725312570E+02  0.41800000000E+01 0. -1.
        -11    1    4    4    0    0  0.20895261632E+02 -0.47284218986E+02  0.61196524039E+02  0.80108825220E+02  0.00000000000E+00 0. -1.
         11    1    4    4    0    0  0.50242422847E+01  0.40470107746E+02  0.85027845018E+02  0.94301681109E+02  0.00000000000E+00 0.  1.
</event>
<event>
 8    1  0.7075056E-009  0.1160998E+03  0.7561462E-02  0.1249673E+00
          2   -1    0    0  501    0  0.00000000000E+00  0.00000000000E+00  0.16441751976E+03  0.16441751976E+03  0.00000000000E+00 0. -1.
         -2   -1    0    0    0  501 -0.00000000000E+00 -0.00000000000E+00 -0.97576283156E+02  0.97576283156E+02  0.00000000000E+00 0.  1.
         25    2    1    2    0    0 -0.45456559543E+02 -0.37976576524E+02  0.12248145299E+02  0.13894553682E+03  0.12508927200E+03 0.  0.
         23    2    1    2    0    0  0.45456559543E+02  0.37976576524E+02  0.54593091307E+02  0.12304826610E+03  0.93015864246E+02 0.  0.
          5    1    3    3  502    0  0.17182923562E+02  0.34667271331E+02 -0.10432060739E+02  0.40291101436E+02  0.41800000000E+01 0. -1.
         -5    1    3    3    0  502 -0.62639483105E+02 -0.72643847855E+02  0.22680206037E+02  0.98654435383E+02  0.41800000000E+01 0. -1.
        -11    1    4    4    0    0  0.66188617750E+02  0.18263122356E+02  0.90369065364E+01  0.69254172709E+02  0.00000000000E+00 0.  1.
         11    1    4    4    0    0 -0.20732058207E+02  0.19713454168E+02  0.45556184770E+02  0.53794093389E+02  0.00000000000E+00 0. -1.
</event>
<event>
 8    1  0.7075056E-009  0.3467352E+03  0.7561462E-02  0.1063963E+00
          2   -1    0    0  501    0  0.00000000000E+00  0.00000000000E+00  0.21979850582E+03  0.21979850582E+03  0.00000000000E+00 0. -1.
         -2   -1    0    0    0  501 -0.00000000000E+00 -0.00000000000E+00 -0.60655412511E+03  0.60655412511E+03  0.00000000000E+00 0.  1.
         25    2    1    2    0    0  0.17424061290E+02 -0.34189998200E+03 -0.27037480324E+03  0.45381600256E+03  0.12508890577E+03 0.  0.
         23    2    1    2    0    0 -0.17424061290E+02  0.34189998200E+03 -0.11638081605E+03  0.37253662837E+03  0.89665208043E+02 0.  0.
          5    1    3    3  502    0 -0.22800767111E+02 -0.18465717949E+03 -0.77228229502E+02  0.20149397199E+03  0.41800000000E+01 0. -1.
         -5    1    3    3    0  502  0.40224828401E+02 -0.15724280251E+03 -0.19314657374E+03  0.25232203056E+03  0.41800000000E+01 0. -1.
        -11    1    4    4    0    0 -0.31126645981E+02  0.27185241676E+03 -0.56571554751E+02  0.27941536356E+03  0.00000000000E+00 0. -1.
         11    1    4    4    0    0  0.13702584692E+02  0.70047565240E+02 -0.59809261295E+02  0.93121264811E+02  0.00000000000E+00 0.  1.
</event>
<event>
 8    1  0.7075056E-009  0.1052563E+03  0.7561462E-02  0.1269616E+00
          4   -1    0    0  501    0  0.00000000000E+00  0.00000000000E+00  0.28790279021E+02  0.28790279021E+02  0.00000000000E+00 0. -1.
         -4   -1    0    0    0  501 -0.00000000000E+00 -0.00000000000E+00 -0.60082552163E+03  0.60082552163E+03  0.00000000000E+00 0.  1.
         25    2    1    2    0    0  0.55603890609E+02 -0.50650284462E+02 -0.33467526311E+03  0.36511932358E+03  0.12508934708E+03 0.  0.
         23    2    1    2    0    0 -0.55603890609E+02  0.50650284462E+02 -0.23735997950E+03  0.26449647707E+03  0.89226579807E+02 0.  0.
          5    1    3    3  502    0  0.36778441355E+02 -0.68608190968E+02 -0.32907160959E+03  0.33817944091E+03  0.41800000000E+01 0.  1.
         -5    1    3    3    0  502  0.18825449253E+02  0.17957906506E+02 -0.56036535135E+01  0.26939882672E+02  0.41800000000E+01 0.  1.
        -11    1    4    4    0    0  0.12646393981E+02  0.33537173991E+02 -0.34375073422E+02  0.49662047811E+02  0.00000000000E+00 0. -1.
         11    1    4    4    0    0 -0.68250284590E+02  0.17113110471E+02 -0.20298490608E+03  0.21483442925E+03  0.00000000000E+00 0.  1.
</event>
<event>
 8    1  0.7075056E-009  0.1068603E+03  0.7561462E-02  0.1266497E+00
          2   -1    0    0  501    0  0.00000000000E+00  0.00000000000E+00  0.43495875719E+03  0.43495875719E+03  0.00000000000E+00 0.  1.
         -2   -1    0    0    0  501 -0.00000000000E+00 -0.00000000000E+00 -0.37985182194E+02  0.37985182194E+02  0.00000000000E+00 0. -1.
         25    2    1    2    0    0  0.89214776016E+01  0.55275963652E+02  0.29940380137E+03  0.32927817701E+03  0.12508579721E+03 0.  0.
         23    2    1    2    0    0 -0.89214776016E+01 -0.55275963652E+02  0.97569773624E+02  0.14366576237E+03  0.89358634903E+02 0.  0.
          5    1    3    3  502    0 -0.55477213285E+02  0.44295724855E+02  0.14225616411E+03  0.15904125585E+03  0.41800000000E+01 0. -1.
         -5    1    3    3    0  502  0.64398690886E+02  0.10980238796E+02  0.15714763726E+03  0.17023692116E+03  0.41800000000E+01 0. -1.
        -11    1    4    4    0    0 -0.27371772027E+02 -0.11594797491E+02 -0.54824020936E+01  0.30227635790E+02  0.00000000000E+00 0. -1.
         11    1    4    4    0    0  0.18450294425E+02 -0.43681166161E+02  0.10305217572E+03  0.11343812658E+03  0.00000000000E+00 0.  1.
</event>
<event>
 8    1  0.7075056E-009  0.1028603E+03  0.7561462E-02  0.1274394E+00
          2   -1    0    0  501    0  0.00000000000E+00  0.00000000000E+00  0.20042057510E+03  0.20042057510E+03  0.00000000000E+00 0.  1.
         -2   -1    0    0    0  501 -0.00000000000E+00 -0.00000000000E+00 -0.67315222042E+02  0.67315222042E+02  0.00000000000E+00 0. -1.
         25    2    1    2    0    0 -0.36671086519E+02  0.46820529801E+01  0.46997424832E+02  0.13865366186E+03  0.12509752115E+03 0.  0.
         23    2    1    2    0    0  0.36671086519E+02 -0.46820529801E+01  0.86107928221E+02  0.12908213528E+03  0.88774614276E+02 0.  0.
          5    1    3    3  502    0 -0.54477748613E+02 -0.35979757855E+02  0.63443164433E+02  0.91131090099E+02  0.41800000000E+01 0. -1.
         -5    1    3    3    0  502  0.17806662094E+02  0.40661810835E+02 -0.16445739601E+02  0.47522571757E+02  0.41800000000E+01 0. -1.
        -11    1    4    4    0    0  0.18610965173E+02  0.41849114383E+02  0.34986369190E+02  0.57634732831E+02  0.00000000000E+00 0. -1.
         11    1    4    4    0    0  0.18060121346E+02 -0.46531167364E+02  0.51121559031E+02  0.71447402451E+02  0.00000000000E+00 0.  1.
</event>
<event>
 8    1  0.7075056E-009  0.1020576E+03  0.7561462E-02  0.1276028E+00
         -1   -1    0    0    0  501 -0.00000000000E+00  0.00000000000E+00  0.45223670876E+03  0.45223670876E+03  0.00000000000E+00 0.  1.
          1   -1    0    0  501    0  0.00000000000E+00 -0.00000000000E+00 -0.28877563372E+02  0.28877563372E+02  0.00000000000E+00 0. -1.
         25    2    1    2    0    0 -0.12164917645E+02  0.16307378739E+02  0.17565643930E+03  0.21659875170E+03  0.12508364702E+03 0.  0.
         23    2    1    2    0    0  0.12164917645E+02 -0.16307378739E+02  0.24770270609E+03  0.26451552042E+03  0.90542333298E+02 0.  0.
          5    1    3    3  502    0 -0.58438119166E+02 -0.19429977706E+02  0.55939255425E+02  0.83301923764E+02  0.41800000000E+01 0.  1.
         -5    1    3    3    0  502  0.46273201521E+02  0.35737356446E+02  0.11971718387E+03  0.13329682794E+03  0.41800000000E+01 0.  1.
        -11    1    4    4    0    0  0.47135356243E+02 -0.77052210573E+01  0.19444417563E+03  0.20022399875E+03  0.00000000000E+00 0.  1.
         11    1    4    4    0    0 -0.34970438597E+02 -0.86021576820E+01  0.53258530462E+02  0.64291521676E+02  0.00000000000E+00 0. -1.
</event>
<event>
 8    1  0.7075056E-009  0.1092980E+03  0.7561462E-02  0.1261875E+00
          3   -1    0    0  501    0  0.00000000000E+00  0.00000000000E+00  0.16200228725E+03  0.16200228725E+03  0.00000000000E+00 0. -1.
         -3   -1    0    0    0  501 -0.00000000000E+00 -0.00000000000E+00 -0.10190222375E+03  0.10190222375E+03  0.00000000000E+00 0.  1.
         25    2    1    2    0    0 -0.27079855907E+02  0.59200987552E+02  0.59973796339E+01  0.14114409586E+03  0.12509041414E+03 0.  0.
         23    2    1    2    0    0  0.27079855907E+02 -0.59200987552E+02  0.54102683871E+02  0.12276041514E+03  0.88909749753E+02 0.  0.
          5    1    3    3  502    0 -0.63659382335E+02 -0.73604109909E+00  0.24607998124E+02  0.68381903216E+02  0.41800000000E+01 0.  1.
         -5    1    3    3    0  502  0.36579526428E+02  0.59937028651E+02 -0.18610618490E+02  0.72762192640E+02  0.41800000000E+01 0.  1.
        -11    1    4    4    0    0  0.34938564184E+02 -0.12517698987E+02 -0.14131178349E+02  0.39712545331E+02  0.00000000000E+00 0.  1.
         11    1    4    4    0    0 -0.78587082769E+01 -0.46683288565E+02  0.68233862220E+02  0.83047869813E+02  0.00000000000E+00 0. -1.
</event>
<event>
 8    1  0.7075056E-009  0.7768569E+02  0.7561462E-02  0.1335750E+00
         -2   -1    0    0    0  501 -0.00000000000E+00  0.00000000000E+00  0.63590686398E+03  0.63590686398E+03  0.00000000000E+00 0. -1.
          2   -1    0    0  501    0  0.00000000000E+00 -0.00000000000E+00 -0.24325035970E+02  0.24325035970E+02  0.00000000000E+00 0.  1.
         25    2    1    2    0    0 -0.82400319295E+01 -0.36927970931E+02  0.21634877733E+03  0.25275532980E+03  0.12508752987E+03 0.  0.
         23    2    1    2    0    0  0.82400319295E+01  0.36927970931E+02  0.39523305068E+03  0.40747657015E+03  0.91631968794E+02 0.  0.
          5    1    3    3  502    0  0.95578204401E+01  0.72209124189E+01  0.20264895795E+03  0.20304572408E+03  0.41800000000E+01 0.  1.
         -5    1    3    3    0  502 -0.17797852370E+02 -0.44148883349E+02  0.13699819374E+02  0.49709605720E+02  0.41800000000E+01 0.  1.
        -11    1    4    4    0    0  0.46460195773E+02  0.31883327849E+02  0.17360904836E+03  0.18252451358E+03  0.00000000000E+00 0.  1.
         11    1    4    4    0    0 -0.38220163843E+02  0.50446430818E+01  0.22162400232E+03  0.22495205657E+03  0.00000000000E+00 0. -1.
</event>
<event>
 8    1  0.7075056E-009  0.1601188E+03  0.7561462E-02  0.1188563E+00
          2   -1    0    0  501    0  0.00000000000E+00  0.00000000000E+00  0.18182112538E+03  0.18182112538E+03  0.00000000000E+00 0. -1.
         -2   -1    0    0    0  501 -0.00000000000E+00 -0.00000000000E+00 -0.22425652867E+03  0.22425652867E+03  0.00000000000E+00 0.  1.
         25    2    1    2    0    0 -0.13092128200E+03 -0.69985266195E+02 -0.10434671487E+03  0.22039819800E+03  0.12509520061E+03 0.  0.
         23    2    1    2    0    0  0.13092128200E+03  0.69985266195E+02  0.61911311587E+02  0.18567945605E+03  0.92765997719E+02 0.  0.
          5    1    3    3  502    0 -0.13071241545E+03 -0.39773786302E+02 -0.29871391142E+02  0.13991948413E+03  0.41800000000E+01 0. -1.
         -5    1    3    3    0  502 -0.20886654415E+00 -0.30211479893E+02 -0.74475323726E+02  0.80478713874E+02  0.41800000000E+01 0. -1.
        -11    1    4    4    0    0  0.74057963531E+02  0.59994478255E+02 -0.72531639515E+01  0.95585185938E+02  0.00000000000E+00 0.  1.
         11    1    4    4    0    0  0.56863318464E+02  0.99907879400E+01  0.69164475539E+02  0.90094270112E+02  0.00000000000E+00 0. -1.
</event>
<event>
 8    1  0.7075056E-009  0.9461216E+02  0.7561462E-02  0.1292052E+00
         -1   -1    0    0    0  501 -0.00000000000E+00  0.00000000000E+00  0.25236873309E+03  0.25236873309E+03  0.00000000000E+00 0.  1.
          1   -1    0    0  501    0  0.00000000000E+00 -0.00000000000E+00 -0.52931539053E+02  0.52931539053E+02  0.00000000000E+00 0. -1.
         25    2    1    2    0    0  0.13883171248E+02  0.22858862607E+02  0.15332868275E+03  0.19968177138E+03  0.12509138588E+03 0.  0.
         23    2    1    2    0    0 -0.13883171248E+02 -0.22858862607E+02  0.46108511278E+02  0.10561850076E+03  0.91181154012E+02 0.  0.
          5    1    3    3  502    0 -0.32660178542E+02  0.55487900832E+02  0.11208484265E+03  0.12932934220E+03  0.41800000000E+01 0. -1.
         -5    1    3    3    0  502  0.46543349790E+02 -0.32629038225E+02  0.41243840101E+02  0.70352429179E+02  0.41800000000E+01 0. -1.
        -11    1    4    4    0    0 -0.12831638132E+01 -0.43503105433E+02  0.62674237824E+02  0.76303517471E+02  0.00000000000E+00 0.  1.
         11    1    4    4    0    0 -0.12600007435E+02  0.20644242826E+02 -0.16565726546E+02  0.29314983289E+02  0.00000000000E+00 0. -1.
</event>
<event>
 8    1  0.7075056E-009  0.1015934E+03  0.7561462E-02  0.1276980E+00
         -1   -1    0    0    0  501 -0.00000000000E+00  0.00000000000E+00  0.99386403056E+02  0.99386403056E+02  0.00000000000E+00 0.  1.
          1   -1    0    0  501    0  0.00000000000E+00 -0.00000000000E+00 -0.16398839931E+03  0.16398839931E+03  0.00000000000E+00 0. -1.
         25    2    1    2    0    0  0.17963751951E+02  0.16979298490E+02  0.30810920954E+02  0.13117977936E+03  0.12509128148E+03 0.  0.
         23    2    1    2    0    0 -0.17963751951E+02 -0.16979298490E+02 -0.95412917204E+02  0.13219502300E+03  0.88096006581E+02 0.  0.
          5    1    3    3  502    0  0.63506873673E+02  0.41102779930E+02  0.19930198528E+02  0.78340581662E+02  0.41800000000E+01 0. -1.
         -5    1    3    3    0  502 -0.45543121722E+02 -0.24123481441E+02  0.10880722426E+02  0.52839197700E+02  0.41800000000E+01 0. -1.
        -11    1    4    4    0    0 -0.28348049016E+02  0.21679619844E+02 -0.82900339690E+02  0.90255659769E+02  0.00000000000E+00 0. -1.
         11    1    4    4    0    0  0.10384297065E+02 -0.38658918334E+02 -0.12512577514E+02  0.41939363232E+02  0.00000000000E+00 0.  1.
</event>
<event>
 8    1  0.7075056E-009  0.2574920E+03  0.7561462E-02  0.1108659E+00
          2   -1    0    0  501    0  0.00000000000E+00  0.00000000000E+00  0.27486400953E+04  0.27486400953E+04  0.00000000000E+00 0. -1.
         -2   -1    0    0    0  501 -0.00000000000E+00 -0.00000000000E+00 -0.36442324045E+02  0.36442324045E+02  0.00000000000E+00 0.  1.
         25    2    1    2    0    0 -0.26546222231E+02 -0.23714597375E+03  0.21577764208E+04  0.21745325666E+04  0.12509950595E+03 0.  0.
         23    2    1    2    0    0  0.26546222231E+02  0.23714597375E+03  0.55442135039E+03  0.61054985265E+03  0.91897627939E+02 0.  0.
          5    1    3    3  502    0  0.35427946251E+02 -0.41842780107E+02  0.73736135038E+03  0.73940867662E+03  0.41800000000E+01 0. -1.
         -5    1    3    3    0  502 -0.61974168482E+02 -0.19530319365E+03  0.14204150704E+04  0.14351238900E+04  0.41800000000E+01 0. -1.
        -11    1    4    4    0    0  0.52919754284E+02  0.21238904196E+03  0.49005801206E+03  0.53671823215E+03  0.00000000000E+00 0.  1.
         11    1    4    4    0    0 -0.26373532052E+02  0.24756931797E+02  0.64363338333E+02  0.73831620504E+02  0.00000000000E+00 0. -1.
</event>
<event>
 8    1  0.7075056E-009  0.1088899E+03  0.7561462E-02  0.1262640E+00
         -1   -1    0    0    0  501 -0.00000000000E+00  0.00000000000E+00  0.51997674292E+03  0.51997674292E+03  0.00000000000E+00 0.  1.
          1   -1    0    0  501    0  0.00000000000E+00 -0.00000000000E+00 -0.31032791512E+02  0.31032791512E+02  0.00000000000E+00 0. -1.
         25    2    1    2    0    0 -0.23387213459E+02 -0.13958250350E+02  0.41230512130E+03  0.43172229474E+03  0.12508729840E+03 0.  0.
         23    2    1    2    0    0  0.23387213459E+02  0.13958250350E+02  0.76638830108E+02  0.11928723969E+03  0.87259044038E+02 0.  0.
          5    1    3    3  502    0 -0.15781391133E+01  0.54545411950E+02  0.14846032145E+03  0.15822652096E+03  0.41800000000E+01 0. -1.
         -5    1    3    3    0  502 -0.21809074345E+02 -0.68503662300E+02  0.26384479984E+03  0.27349577378E+03  0.41800000000E+01 0. -1.
        -11    1    4    4    0    0  0.18671112704E+02  0.50682801221E+02  0.40128572207E+02  0.67287882242E+02  0.00000000000E+00 0. -1.
         11    1    4    4    0    0  0.47161007545E+01 -0.36724550871E+02  0.36510257901E+02  0.51999357448E+02  0.00000000000E+00 0.  1.
</event>
<event>
 8    1  0.7075056E-009  0.1044917E+03  0.7561462E-02  0.1271124E+00
         -2   -1    0    0    0  501 -0.00000000000E+00  0.00000000000E+00  0.17473947435E+03  0.17473947435E+03  0.00000000000E+00 0.  1.
          2   -1    0    0  501    0  0.00000000000E+00 -0.00000000000E+00 -0.94814716952E+02  0.94814716952E+02  0.00000000000E+00 0. -1.
         25    2    1    2    0    0 -0.16472821201E+02 -0.31242815997E+02 -0.17773345308E+02  0.13119078262E+03  0.12509061616E+03 0.  0.
         23    2    1    2    0    0  0.16472821201E+02  0.31242815997E+02  0.97698102707E+02  0.13836340868E+03  0.91389530038E+02 0.  0.
          5    1    3    3  502    0 -0.66417123940E+02 -0.10060967817E+02  0.13192039492E+02  0.68585419237E+02  0.41800000000E+01 0.  1.
         -5    1    3    3    0  502  0.49944302739E+02 -0.21181848180E+02 -0.30965384799E+02  0.62605363382E+02  0.41800000000E+01 0.  1.
        -11    1    4    4    0    0  0.42529996960E+02  0.41350699985E+02  0.32984651302E+02  0.67872441036E+02  0.00000000000E+00 0. -1.
         11    1    4    4    0    0 -0.26057175759E+02 -0.10107883988E+02  0.64713451405E+02  0.70490967649E+02  0.00000000000E+00 0.  1.
</event>
<event>
 8    1  0.7075056E-009  0.1389612E+03  0.7561462E-02  0.1214734E+00
          1   -1    0    0  501    0  0.00000000000E+00  0.00000000000E+00  0.13672995967E+03  0.13672995967E+03  0.00000000000E+00 0. -1.
         -1   -1    0    0    0  501 -0.00000000000E+00 -0.00000000000E+00 -0.17787580990E+03  0.17787580990E+03  0.00000000000E+00 0.  1.
         25    2    1    2    0    0  0.10968806435E+03  0.13232197579E+02 -0.36981920090E+02  0.17094830872E+03  0.12509636016E+03 0.  0.
         23    2    1    2    0    0 -0.10968806435E+03 -0.13232197579E+02 -0.41639301403E+01  0.14365746085E+03  0.91725488445E+02 0.  0.
          5    1    3    3  502    0  0.13573082954E+03 -0.31825637592E+01 -0.30322053798E+02  0.13917573835E+03  0.41800000000E+01 0.  1.
         -5    1    3    3    0  502 -0.26042765190E+02  0.16414761339E+02 -0.66598662921E+01  0.31772570365E+02  0.41800000000E+01 0.  1.
        -11    1    4    4    0    0 -0.43508004053E+02  0.12747445945E+00 -0.46726474105E+02  0.63846112244E+02  0.00000000000E+00 0.  1.
         11    1    4    4    0    0 -0.66180060296E+02 -0.13359672039E+02  0.42562543964E+02  0.79811348607E+02  0.00000000000E+00 0. -1.
</event>
<event>
 8    1  0.7075056E-009  0.1310289E+03  0.7561462E-02  0.1225937E+00
         -1   -1    0    0    0  501 -0.00000000000E+00  0.00000000000E+00  0.48563632920E+02  0.48563632920E+02  0.00000000000E+00 0.  1.
          1   -1    0    0  501    0  0.00000000000E+00 -0.00000000000E+00 -0.47250438930E+03  0.47250438930E+03  0.00000000000E+00 0. -1.
         25    2    1    2    0    0 -0.75837643615E+02  0.34971368077E+02 -0.33633872286E+03  0.36843577544E+03  0.12508732693E+03 0.  0.
         23    2    1    2    0    0  0.75837643615E+02 -0.34971368077E+02 -0.87602033522E+02  0.15263224678E+03  0.92995385397E+02 0.  0.
          5    1    3    3  502    0 -0.98530683592E+02  0.43273400639E+01 -0.16022566247E+03  0.18819340263E+03  0.41800000000E+01 0. -1.
         -5    1    3    3    0  502  0.22693039976E+02  0.30644028013E+02 -0.17611306039E+03  0.18024237281E+03  0.41800000000E+01 0. -1.
        -11    1    4    4    0    0 -0.17426086750E+02  0.11403998574E+02 -0.14022506122E+02  0.25106779180E+02  0.00000000000E+00 0. -1.
         11    1    4    4    0    0  0.93263730365E+02 -0.46375366651E+02 -0.73579527401E+02  0.12752546760E+03  0.00000000000E+00 0.  1.
</event>
<event>
 8    1  0.7075056E-009  0.1670630E+03  0.7561462E-02  0.1180946E+00
         -2   -1    0    0    0  501 -0.00000000000E+00  0.00000000000E+00  0.10598686979E+03  0.10598686979E+03  0.00000000000E+00 0.  1.
          2   -1    0    0  501    0  0.00000000000E+00 -0.00000000000E+00 -0.31323541439E+03  0.31323541439E+03  0.00000000000E+00 0. -1.
         25    2    1    2    0    0 -0.10668461185E+03 -0.76888388451E+02 -0.18259408810E+03  0.25745222950E+03  0.12509044240E+03 0.  0.
         23    2    1    2    0    0  0.10668461185E+03  0.76888388451E+02 -0.24654456506E+02  0.16177005469E+03  0.90930070297E+02 0.  0.
          5    1    3    3  502    0 -0.56888790220E+02 -0.10655578398E+03 -0.14247848142E+03  0.18683698675E+03  0.41800000000E+01 0. -1.
         -5    1    3    3    0  502 -0.49795821625E+02  0.29667395524E+02 -0.40115606681E+02  0.70615242745E+02  0.41800000000E+01 0. -1.
        -11    1    4    4    0    0  0.61026185064E+02 -0.51681175775E+01  0.92368934834E+01  0.61937265875E+02  0.00000000000E+00 0.  1.
         11    1    4    4    0    0  0.45658426781E+02  0.82056506029E+02 -0.33891349989E+02  0.99832788811E+02  0.00000000000E+00 0. -1.
</event>
<event>
 8    1  0.7075056E-009  0.6141015E+02  0.7561462E-02  0.1392007E+00
          1   -1    0    0  501    0  0.00000000000E+00  0.00000000000E+00  0.13904059702E+03  0.13904059702E+03  0.00000000000E+00 0. -1.
         -1   -1    0    0    0  501 -0.00000000000E+00 -0.00000000000E+00 -0.10211752663E+03  0.10211752663E+03  0.00000000000E+00 0.  1.
         25    2    1    2    0    0  0.18976786643E+02  0.16016273228E+02 -0.22888930667E+02  0.12957181102E+03  0.12509321174E+03 0.  0.
         23    2    1    2    0    0 -0.18976786643E+02 -0.16016273228E+02  0.59812001055E+02  0.11158631263E+03  0.90870183535E+02 0.  0.
          5    1    3    3  502    0  0.38611410156E+02  0.14711705192E+02  0.43535960933E+02  0.60167495861E+02  0.41800000000E+01 0. -1.
         -5    1    3    3    0  502 -0.19634623513E+02  0.13045680367E+01 -0.66424891600E+02  0.69404315156E+02  0.41800000000E+01 0. -1.
        -11    1    4    4    0    0  0.12870216686E+02  0.12852775942E+02 -0.16138144055E+02  0.24316167883E+02  0.00000000000E+00 0.  1.
         11    1    4    4    0    0 -0.31847003330E+02 -0.28869049170E+02  0.75950145110E+02  0.87270144742E+02  0.00000000000E+00 0. -1.
</event>
<event>
 8    1  0.7075056E-009  0.1529102E+03  0.7561462E-02  0.1196942E+00
          2   -1    0    0  501    0  0.00000000000E+00  0.00000000000E+00  0.87912022407E+02  0.87912022407E+02  0.00000000000E+00 0.  1.
         -2   -1    0    0    0  501 -0.00000000000E+00 -0.00000000000E+00 -0.46419661010E+03  0.46419661010E+03  0.00000000000E+00 0. -1.
         25    2    1    2    0    0  0.12937251275E+03 -0.63443068488E+02 -0.74010776157E+02  0.20466346324E+03  0.12508904110E+03 0.  0.
         23    2    1    2    0    0 -0.12937251275E+03  0.63443068488E+02 -0.30227381153E+03  0.34744516926E+03  0.92662929532E+02 0.  0.
          5    1    3    3  502    0  0.90165299147E+02 -0.18717785883E+02 -0.10311743431E+03  0.13831418705E+03  0.41800000000E+01 0. -1.
         -5    1    3    3    0  502  0.39207213606E+02 -0.44725282606E+02  0.29106658156E+02  0.66349276197E+02  0.41800000000E+01 0. -1.
        -11    1    4    4    0    0 -0.34146941702E+02  0.45863256655E+02 -0.45673945046E+02  0.73181699862E+02  0.00000000000E+00 0.  1.
         11    1    4    4    0    0 -0.95225571051E+02  0.17579811833E+02 -0.25659986649E+03  0.27426346940E+03  0.00000000000E+00 0. -1.
</event>
<event>
 8    1  0.7075056E-009  0.9518450E+02  0.7561462E-02  0.1290761E+00
         -1   -1    0    0    0  501 -0.00000000000E+00  0.00000000000E+00  0.72974424492E+03  0.72974424492E+03  0.00000000000E+00 0.  1.
          1   -1    0    0  501    0  0.00000000000E+00 -0.00000000000E+00 -0.28312125413E+02  0.28312125413E+02  0.00000000000E+00 0. -1.
         25    2    1    2    0    0  0.17952992790E+02  0.64740256910E+02  0.20558405888E+03  0.24985154687E+03  0.12508948554E+03 0.  0.
         23    2    1    2    0    0 -0.17952992790E+02 -0.64740256910E+02  0.49584806063E+03  0.50820482347E+03  0.88843866150E+02 0.  0.
          5    1    3    3  502    0  0.34406728632E+02  0.55495868958E+02  0.21751028236E+03  0.22713830540E+03  0.41800000000E+01 0.  1.
         -5    1    3    3    0  502 -0.16453735842E+02  0.92443879511E+01 -0.11926223476E+02  0.22713241472E+02  0.41800000000E+01 0.  1.
        -11    1    4    4    0    0 -0.66273030734E+01 -0.83463703554E+02  0.44561588377E+03  0.45341330684E+03  0.00000000000E+00 0.  1.
         11    1    4    4    0    0 -0.11325689717E+02  0.18723446644E+02  0.50232176858E+02  0.54791516621E+02  0.00000000000E+00 0. -1.
</event>
<event>
 8    1  0.7075056E-009  0.1218360E+03  0.7561462E-02  0.1240099E+00
          3   -1    0    0  501    0  0.00000000000E+00  0.00000000000E+00  0.31872945158E+02  0.31872945158E+02  0.00000000000E+00 0. -1.
         -3   -1    0    0    0  501 -0.00000000000E+00 -0.00000000000E+00 -0.48519556456E+03  0.48519556456E+03  0.00000000000E+00 0.  1.
         25    2    1    2    0    0 -0.38631541673E+02  0.46491886565E+02 -0.24364071707E+03  0.28046896024E+03  0.12509255420E+03 0.  0.
         23    2    1    2    0    0  0.38631541673E+02 -0.46491886565E+02 -0.20968190232E+03  0.23659954947E+03  0.91427321508E+02 0.  0.
          5    1    3    3  502    0 -0.12648730581E+02  0.87071250341E+02 -0.18130954253E+03  0.20157384660E+03  0.41800000000E+01 0.  1.
         -5    1    3    3    0  502 -0.25982811093E+02 -0.40579363776E+02 -0.62331174543E+02  0.78895113642E+02  0.41800000000E+01 0.  1.
        -11    1    4    4    0    0 -0.28582372015E+02 -0.20424613746E+02 -0.47163678319E+02  0.58809262785E+02  0.00000000000E+00 0. -1.
         11    1    4    4    0    0  0.67213913688E+02 -0.26067272819E+02 -0.16251822401E+03  0.17779028668E+03  0.00000000000E+00 0.  1.
</event>
<event>
 8    1  0.7075056E-009  0.1101534E+03  0.7561462E-02  0.1260286E+00
          1   -1    0    0  501    0  0.00000000000E+00  0.00000000000E+00  0.24232334889E+03  0.24232334889E+03  0.00000000000E+00 0. -1.
         -1   -1    0    0    0  501 -0.00000000000E+00 -0.00000000000E+00 -0.65073761909E+02  0.65073761909E+02  0.00000000000E+00 0.  1.
         25    2    1    2    0    0 -0.56454766248E+02 -0.24946204600E+02  0.10165042388E+03  0.17260300667E+03  0.12509810342E+03 0.  0.
         23    2    1    2    0    0  0.56454766248E+02  0.24946204600E+02  0.75599163097E+02  0.13479410413E+03  0.92977219208E+02 0.  0.
          5    1    3    3  502    0 -0.22468623460E+02  0.50325095393E+02  0.53441880069E+02  0.76882775781E+02  0.41800000000E+01 0.  1.
         -5    1    3    3    0  502 -0.33986142788E+02 -0.75271299992E+02  0.48208543813E+02  0.95720230885E+02  0.41800000000E+01 0.  1.
        -11    1    4    4    0    0  0.46124911093E+02 -0.88810479551E+01 -0.45457949743E+01  0.47191574333E+02  0.00000000000E+00 0.  1.
         11    1    4    4    0    0  0.10329855155E+02  0.33827252555E+02  0.80144958071E+02  0.87602529799E+02  0.00000000000E+00 0. -1.
</event>
<event>
 8    1  0.7075056E-009  0.1551601E+03  0.7561462E-02  0.1194272E+00
          2   -1    0    0  501    0  0.00000000000E+00  0.00000000000E+00  0.24363879627E+03  0.24363879627E+03  0.00000000000E+00 0. -1.
         -2   -1    0    0    0  501 -0.00000000000E+00 -0.00000000000E+00 -0.11698214469E+03  0.11698214469E+03  0.00000000000E+00 0.  1.
         25    2    1    2    0    0  0.12857849486E+03 -0.29819138212E+01  0.83558847750E+02  0.19791647309E+03  0.12509008008E+03 0.  0.
         23    2    1    2    0    0 -0.12857849486E+03  0.29819138212E+01  0.43097803828E+02  0.16270446786E+03  0.89855450686E+02 0.  0.
          5    1    3    3  502    0  0.68315516499E+02  0.60611170782E+02  0.48153772599E+02  0.10332948289E+03  0.41800000000E+01 0. -1.
         -5    1    3    3    0  502  0.60262978359E+02 -0.63593084603E+02  0.35405075151E+02  0.94586990208E+02  0.41800000000E+01 0. -1.
        -11    1    4    4    0    0 -0.81445171449E+02  0.14354191762E+02  0.69025700000E+02  0.10772142792E+03  0.00000000000E+00 0.  1.
         11    1    4    4    0    0 -0.47133323409E+02 -0.11372277941E+02 -0.25927896172E+02  0.54983039940E+02  0.00000000000E+00 0. -1.
</event>
<event>
 8    1  0.7075056E-009  0.1105492E+03  0.7561462E-02  0.1259556E+00
          2   -1    0    0  501    0  0.00000000000E+00  0.00000000000E+00  0.10118786733E+04  0.10118786733E+04  0.00000000000E+00 0. -1.
         -2   -1    0    0    0  501 -0.00000000000E+00 -0.00000000000E+00 -0.18055127614E+02  0.18055127614E+02  0.00000000000E+00 0.  1.
         25    2    1    2    0    0 -0.78219725868E+02 -0.12951165367E+02  0.60712193610E+03  0.62492441944E+03  0.12508967392E+03 0.  0.
         23    2    1    2    0    0  0.78219725868E+02  0.12951165367E+02  0.38670160961E+03  0.40500938150E+03  0.90600254005E+02 0.  0.
          5    1    3    3  502    0 -0.10030503851E+03 -0.76419582110E+01  0.29033928514E+03  0.30730094886E+03  0.41800000000E+01 0.  1.
         -5    1    3    3    0  502  0.22085312638E+02 -0.53092071565E+01  0.31678265096E+03  0.31762347058E+03  0.41800000000E+01 0.  1.
        -11    1    4    4    0    0  0.42536015807E+02  0.35248415754E+02  0.32894161998E+03  0.33354812667E+03  0.00000000000E+00 0. -1.
         11    1    4    4    0    0  0.35683710061E+02 -0.22297250387E+02  0.57759989635E+02  0.71461254825E+02  0.00000000000E+00 0.  1.
</event>
<event>
 8    1  0.7075056E-009  0.9685901E+02  0.7561462E-02  0.1287043E+00
         -1   -1    0    0    0  501 -0.00000000000E+00  0.00000000000E+00  0.30765220174E+02  0.30765220174E+02  0.00000000000E+00 0.  1.
          1   -1    0    0  501    0  0.00000000000E+00 -0.00000000000E+00 -0.63238168377E+03  0.63238168377E+03  0.00000000000E+00 0. -1.
         25    2    1    2    0    0 -0.61327419160E+02 -0.67524001043E+02 -0.36515466068E+03  0.39661864971E+03  0.12509150261E+03 0.  0.
         23    2    1    2    0    0  0.61327419160E+02  0.67524001043E+02 -0.23646180292E+03  0.26652825423E+03  0.82477772810E+02 0.  0.
          5    1    3    3  502    0 -0.31824273358E+02 -0.58737244184E+02 -0.35869629153E+03  0.36488813380E+03  0.41800000000E+01 0. -1.
         -5    1    3    3    0  502 -0.29503145802E+02 -0.87867568585E+01 -0.64583691525E+01  0.31730515917E+02  0.41800000000E+01 0. -1.
        -11    1    4    4    0    0  0.32585850865E+02  0.55918525551E+02 -0.63004409019E+02  0.90323168303E+02  0.00000000000E+00 0.  1.
         11    1    4    4    0    0  0.28741568295E+02  0.11605475492E+02 -0.17345739390E+03  0.17620508593E+03  0.00000000000E+00 0. -1.
</event>
<event>
 8    1  0.7075056E-009  0.1020347E+03  0.7561462E-02  0.1276074E+00
          1   -1    0    0  501    0  0.00000000000E+00  0.00000000000E+00  0.14889354714E+04  0.14889354714E+04  0.00000000000E+00 0. -1.
         -1   -1    0    0    0  501 -0.00000000000E+00 -0.00000000000E+00 -0.11214346886E+02  0.11214346886E+02  0.00000000000E+00 0.  1.
         25    2    1    2    0    0 -0.29970734933E+02 -0.63252027983E-01  0.11904056601E+04  0.11973351266E+04  0.12509005073E+03 0.  0.
         23    2    1    2    0    0  0.29970734933E+02  0.63252027983E-01  0.28731546443E+03  0.30281469172E+03  0.90820220592E+02 0.  0.
          5    1    3    3  502    0  0.43946092330E+02  0.22596761460E+02  0.37574198282E+03  0.37900050490E+03  0.41800000000E+01 0.  1.
         -5    1    3    3    0  502 -0.73916827263E+02 -0.22660013488E+02  0.81466367730E+03  0.81833462170E+03  0.41800000000E+01 0.  1.
        -11    1    4    4    0    0  0.42472766798E+02 -0.24828581162E+02  0.25691266234E+03  0.26158079140E+03  0.00000000000E+00 0. -1.
         11    1    4    4    0    0 -0.12502031866E+02  0.24891833190E+02  0.30402802092E+02  0.41233900317E+02  0.00000000000E+00 0.  1.
</event>
<event>
 8    1  0.7075056E-009  0.9076659E+02  0.7561462E-02  0.1301006E+00
          2   -1    0    0  501    0  0.00000000000E+00  0.00000000000E+00  0.28221573594E+03  0.28221573594E+03  0.00000000000E+00 0. -1.
         -2   -1    0    0    0  501 -0.00000000000E+00 -0.00000000000E+00 -0.48921837920E+02  0.48921837920E+02  0.00000000000E+00 0.  1.
         25    2    1    2    0    0  0.10398489509E+02 -0.24458488463E+02  0.81386999674E+02  0.15158599170E+03  0.12509245749E+03 0.  0.
         23    2    1    2    0    0 -0.10398489509E+02  0.24458488463E+02  0.15190689834E+03  0.17955158216E+03  0.91960418928E+02 0.  0.
          5    1    3    3  502    0 -0.63064268157E+01 -0.69732984928E+02  0.19128692422E+02  0.72703778993E+02  0.41800000000E+01 0. -1.
         -5    1    3    3    0  502  0.16704916325E+02  0.45274496464E+02  0.62258307252E+02  0.78882212706E+02  0.41800000000E+01 0. -1.
        -11    1    4    4    0    0  0.97309413713E+01  0.37648874128E+02  0.15050198207E+03  0.15544444522E+03  0.00000000000E+00 0. -1.
         11    1    4    4    0    0 -0.20129430881E+02 -0.13190385665E+02  0.14049162728E+01  0.24107136937E+02  0.00000000000E+00 0.  1.
</event>
<event>
 8    1  0.7075056E-009  0.1461423E+03  0.7561462E-02  0.1205295E+00
         -1   -1    0    0    0  501 -0.00000000000E+00  0.00000000000E+00  0.13033153874E+03  0.13033153874E+03  0.00000000000E+00 0.  1.
          1   -1    0    0  501    0  0.00000000000E+00 -0.00000000000E+00 -0.18016666317E+03  0.18016666317E+03  0.00000000000E+00 0. -1.
         25    2    1    2    0    0  0.67312738776E+02  0.73164197955E+02  0.14579396027E+02  0.16045283526E+03  0.12509416010E+03 0.  0.
         23    2    1    2    0    0 -0.67312738776E+02 -0.73164197955E+02 -0.64414520459E+02  0.15004536665E+03  0.92088962122E+02 0.  0.
          5    1    3    3  502    0  0.27590198466E+02  0.10493202227E+03  0.64079364674E+01  0.10876802103E+03  0.41800000000E+01 0.  1.
         -5    1    3    3    0  502  0.39722540311E+02 -0.31767824318E+02  0.81714595600E+01  0.51684814230E+02  0.41800000000E+01 0.  1.
        -11    1    4    4    0    0  0.20163291111E+02 -0.27186412078E+02 -0.30507433489E+02  0.45567124204E+02  0.00000000000E+00 0. -1.
         11    1    4    4    0    0 -0.87476029887E+02 -0.45977785877E+02 -0.33907086970E+02  0.10447824245E+03  0.00000000000E+00 0.  1.
</event>
<event>
 8    1  0.7075056E-009  0.8835432E+02  0.7561462E-02  0.1306887E+00
         -1   -1    0    0    0  501 -0.00000000000E+00  0.00000000000E+00  0.22849850905E+02  0.22849850905E+02  0.00000000000E+00 0.  1.
          1   -1    0    0  501    0  0.00000000000E+00 -0.00000000000E+00 -0.55448565047E+03  0.55448565047E+03  0.00000000000E+00 0. -1.
         25    2    1    2    0    0 -0.22762259346E+02  0.19148921302E+02 -0.31847847120E+03  0.34345438693E+03  0.12509027797E+03 0.  0.
         23    2    1    2    0    0  0.22762259346E+02 -0.19148921302E+02 -0.21315732836E+03  0.23388111445E+03  0.91539758704E+02 0.  0.
          5    1    3    3  502    0 -0.35096651375E+02  0.51443854847E+02 -0.29482293027E+03  0.30135739207E+03  0.41800000000E+01 0. -1.
         -5    1    3    3    0  502  0.12334392029E+02 -0.32294933545E+02 -0.23655540928E+02  0.42096994857E+02  0.41800000000E+01 0. -1.
        -11    1    4    4    0    0  0.22955464347E+02 -0.46637938694E+02 -0.19277257872E+03  0.19965800203E+03  0.00000000000E+00 0. -1.
         11    1    4    4    0    0 -0.19320500172E+00  0.27489017392E+02 -0.20384749638E+02  0.34223112412E+02  0.00000000000E+00 0.  1.
</event>
<event>
 8    1  0.7075056E-009  0.1361763E+03  0.7561462E-02  0.1218569E+00
         -1   -1    0    0    0  501 -0.00000000000E+00  0.00000000000E+00  0.85043917434E+02  0.85043917434E+02  0.00000000000E+00 0.  1.
          1   -1    0    0  501    0  0.00000000000E+00 -0.00000000000E+00 -0.42538195793E+03  0.42538195793E+03  0.00000000000E+00 0. -1.
         25    2    1    2    0    0 -0.12575485893E+02 -0.10263073072E+03 -0.33667088880E+03  0.37374419515E+03  0.12508487642E+03 0.  0.
         23    2    1    2    0    0  0.12575485893E+02  0.10263073072E+03 -0.36671517009E+01  0.13668168022E+03  0.89315306491E+02 0.  0.
          5    1    3    3  502    0  0.36227065803E+02  0.37374878307E+01 -0.37363884381E+02  0.52344067171E+02  0.41800000000E+01 0.  1.
         -5    1    3    3    0  502 -0.48802551695E+02 -0.10636821855E+03 -0.29930700442E+03  0.32140012798E+03  0.41800000000E+01 0.  1.
        -11    1    4    4    0    0 -0.22741543043E+02  0.28375546226E+02 -0.33271785468E+02  0.49288549501E+02  0.00000000000E+00 0. -1.
         11    1    4    4    0    0  0.35317028936E+02  0.74255184492E+02  0.29604633767E+02  0.87393130721E+02  0.00000000000E+00 0.  1.
</event>
<event>
 8    1  0.7075056E-009  0.1094284E+03  0.7561462E-02  0.1261632E+00
          1   -1    0    0  501    0  0.00000000000E+00  0.00000000000E+00  0.39376094075E+03  0.39376094075E+03  0.00000000000E+00 0. -1.
         -1   -1    0    0    0  501 -0.00000000000E+00 -0.00000000000E+00 -0.67738708105E+02  0.67738708105E+02  0.00000000000E+00 0.  1.
         25    2    1    2    0    0  0.27554211024E+02  0.20646204627E+01  0.64256770942E+01  0.12826777488E+03  0.12509130883E+03 0.  0.
         23    2    1    2    0    0 -0.27554211024E+02 -0.20646204627E+01  0.31959655556E+03  0.33323187398E+03  0.90211009919E+02 0.  0.
          5    1    3    3  502    0  0.76892490902E+02 -0.85030881439E+01  0.34952689993E+01  0.77552865650E+02  0.41800000000E+01 0. -1.
         -5    1    3    3    0  502 -0.49338279878E+02  0.10567708607E+02  0.29304080948E+01  0.50714909230E+02  0.41800000000E+01 0. -1.
        -11    1    4    4    0    0 -0.16551779805E+02 -0.44203669928E+02  0.12022077134E+03  0.12915478974E+03  0.00000000000E+00 0.  1.
         11    1    4    4    0    0 -0.11002431219E+02  0.42139049466E+02  0.19937578421E+03  0.20407708424E+03  0.00000000000E+00 0. -1.
</event>
<event>
 8    1  0.7075056E-009  0.1208149E+03  0.7561462E-02  0.1241759E+00
         -2   -1    0    0    0  501 -0.00000000000E+00  0.00000000000E+00  0.11884361359E+02  0.11884361359E+02  0.00000000000E+00 0.  1.
          2   -1    0    0  501    0  0.00000000000E+00 -0.00000000000E+00 -0.16015746349E+04  0.16015746349E+04  0.00000000000E+00 0. -1.
         25    2    1    2    0    0 -0.55780606568E+01  0.82552728690E+02 -0.10142628938E+04  0.10252918953E+04  0.12509270548E+03 0.  0.
         23    2    1    2    0    0  0.55780606568E+01 -0.82552728690E+02 -0.57542737970E+03  0.58816710097E+03  0.89318539904E+02 0.  0.
          5    1    3    3  502    0 -0.29087464267E+02 -0.59971706611E+01 -0.64736164290E+02  0.71346268301E+02  0.41800000000E+01 0.  1.
         -5    1    3    3    0  502  0.23509403611E+02  0.88549899351E+02 -0.94952672955E+03  0.95394562699E+03  0.41800000000E+01 0.  1.
        -11    1    4    4    0    0  0.39831584424E+02 -0.12169602805E+02 -0.15403917974E+03  0.15957043349E+03  0.00000000000E+00 0.  1.
         11    1    4    4    0    0 -0.34253523767E+02 -0.70383125885E+02 -0.42138819997E+03  0.42859666748E+03  0.00000000000E+00 0. -1.
</event>
<event>
 8    1  0.7075056E-009  0.1061876E+03  0.7561462E-02  0.1267797E+00
         -2   -1    0    0    0  501 -0.00000000000E+00  0.00000000000E+00  0.12811857023E+02  0.12811857023E+02  0.00000000000E+00 0. -1.
          2   -1    0    0  501    0  0.00000000000E+00 -0.00000000000E+00 -0.10495099373E+04  0.10495099373E+04  0.00000000000E+00 0.  1.
         25    2    1    2    0    0  0.32765125317E+02  0.15040220314E+02 -0.68677060617E+03  0.69899968902E+03  0.12508772156E+03 0.  0.
         23    2    1    2    0    0 -0.32765125317E+02 -0.15040220314E+02 -0.34992747413E+03  0.36332210533E+03  0.90851270790E+02 0.  0.
          5    1    3    3  502    0 -0.33109099576E+02  0.39706624891E+02 -0.41556515149E+03  0.41878956060E+03  0.41800000000E+01 0. -1.
         -5    1    3    3    0  502  0.65874224893E+02 -0.24666404577E+02 -0.27120545468E+03  0.28021012842E+03  0.41800000000E+01 0. -1.
        -11    1    4    4    0    0 -0.11746264485E+02 -0.48843945484E+02 -0.26243815003E+03  0.26720308443E+03  0.00000000000E+00 0.  1.
         11    1    4    4    0    0 -0.21018860832E+02  0.33803725170E+02 -0.87489324103E+02  0.96119020897E+02  0.00000000000E+00 0. -1.
</event>
<event>
 8    1  0.7075056E-009  0.4770254E+03  0.7561462E-02  0.1019956E+00
         -1   -1    0    0    0  501 -0.00000000000E+00  0.00000000000E+00  0.38355136665E+03  0.38355136665E+03  0.00000000000E+00 0.  1.
          1   -1    0    0  501    0  0.00000000000E+00 -0.00000000000E+00 -0.62061529307E+03  0.62061529307E+03  0.00000000000E+00 0. -1.
         25    2    1    2    0    0 -0.45712047038E+03  0.11400209457E+03 -0.53104950771E+02  0.49033169641E+03  0.12509770062E+03 0.  0.
         23    2    1    2    0    0  0.45712047038E+03 -0.11400209457E+03 -0.18395897565E+03  0.51383496331E+03  0.90718591175E+02 0.  0.
          5    1    3    3  502    0 -0.35222457585E+03  0.12842417325E+03 -0.75942368161E+01  0.37500675319E+03  0.41800000000E+01 0. -1.
         -5    1    3    3    0  502 -0.10489589453E+03 -0.14422078684E+02 -0.45510713955E+02  0.11532494322E+03  0.41800000000E+01 0. -1.
        -11    1    4    4    0    0  0.10824643551E+03 -0.80381717801E+01 -0.75962422976E+01  0.10880995314E+03  0.00000000000E+00 0. -1.
         11    1    4    4    0    0  0.34887403487E+03 -0.10596392279E+03 -0.17636273336E+03  0.40502501016E+03  0.00000000000E+00 0.  1.
</event>
<event>
 8    1  0.7075056E-009  0.1138705E+03  0.7561462E-02  0.1253566E+00
          1   -1    0    0  501    0  0.00000000000E+00  0.00000000000E+00  0.31997346824E+03  0.31997346824E+03  0.00000000000E+00 0. -1.
         -1   -1    0    0    0  501 -0.00000000000E+00 -0.00000000000E+00 -0.84976727195E+02  0.84976727195E+02  0.00000000000E+00 0.  1.
         25    2    1    2    0    0 -0.55704404725E+02  0.30774647081E+02  0.25553316125E+03  0.29154021947E+03  0.12509373868E+03 0.  0.
         23    2    1    2    0    0  0.55704404725E+02 -0.30774647081E+02 -0.20536420214E+02  0.11340997596E+03  0.91597044077E+02 0.  0.
          5    1    3    3  502    0  0.29794760477E+02  0.27817171742E+02  0.15066932022E+03  0.15614172809E+03  0.41800000000E+01 0.  1.
         -5    1    3    3    0  502 -0.85499165202E+02  0.29574753389E+01  0.10486384103E+03  0.13539849137E+03  0.41800000000E+01 0.  1.
        -11    1    4    4    0    0  0.43644273267E+02 -0.57268503379E+02  0.82451623268E+01  0.72474042043E+02  0.00000000000E+00 0.  1.
         11    1    4    4    0    0  0.12060131458E+02  0.26493856297E+02 -0.28781582540E+02  0.40935933919E+02  0.00000000000E+00 0. -1.
</event>
<event>
 8    1  0.7075056E-009  0.7328530E+02  0.7561462E-02  0.1349265E+00
          3   -1    0    0  501    0  0.00000000000E+00  0.00000000000E+00  0.18333316706E+03  0.18333316706E+03  0.00000000000E+00 0. -1.
         -3   -1    0    0    0  501 -0.00000000000E+00 -0.00000000000E+00 -0.11767852606E+03  0.11767852606E+03  0.00000000000E+00 0.  1.
         25    2    1    2    0    0 -0.46413896062E+02 -0.11815060074E+02 -0.52448602032E+02  0.14384649337E+03  0.12508841836E+03 0.  0.
         23    2    1    2    0    0  0.46413896062E+02  0.11815060074E+02  0.11810324303E+03  0.15716519975E+03  0.91971074831E+02 0.  0.
          5    1    3    3  502    0 -0.29224275280E+02 -0.47777406397E+02  0.21174675444E+02  0.60021480387E+02  0.41800000000E+01 0.  1.
         -5    1    3    3    0  502 -0.17189620782E+02  0.35962346323E+02 -0.73623277476E+02  0.83825012985E+02  0.41800000000E+01 0.  1.
        -11    1    4    4    0    0  0.28388918613E+02 -0.68146414304E+00 -0.77334915258E+01  0.29431309596E+02  0.00000000000E+00 0.  1.
         11    1    4    4    0    0  0.18024977449E+02  0.12496524218E+02  0.12583673456E+03  0.12773389015E+03  0.00000000000E+00 0. -1.
</event>
<event>
 8    1  0.7075056E-009  0.1301101E+03  0.7561462E-02  0.1227293E+00
         -1   -1    0    0    0  501 -0.00000000000E+00  0.00000000000E+00  0.18816852633E+02  0.18816852633E+02  0.00000000000E+00 0.  1.
          1   -1    0    0  501    0  0.00000000000E+00 -0.00000000000E+00 -0.10393534488E+04  0.10393534488E+04  0.00000000000E+00 0. -1.
         25    2    1    2    0    0 -0.84311528899E+02  0.12260744892E+02 -0.46536660348E+03  0.48935908891E+03  0.12508989765E+03 0.  0.
         23    2    1    2    0    0  0.84311528899E+02 -0.12260744892E+02 -0.55516999271E+03  0.56881121255E+03  0.89853853241E+02 0.  0.
          5    1    3    3  502    0 -0.11141482081E+03 -0.15179681619E+02 -0.34165147894E+03  0.35970389279E+03  0.41800000000E+01 0. -1.
         -5    1    3    3    0  502  0.27103291910E+02  0.27440426511E+02 -0.12371512455E+03  0.12965519612E+03  0.41800000000E+01 0. -1.
        -11    1    4    4    0    0  0.83936652466E+02 -0.31505807365E+02 -0.52773969390E+03  0.53530100134E+03  0.00000000000E+00 0. -1.
         11    1    4    4    0    0  0.37487643277E+00  0.19245062472E+02 -0.27430298815E+02  0.33510211205E+02  0.00000000000E+00 0.  1.
</event>
<event>
 8    1  0.7075056E-009  0.1156629E+03  0.7561462E-02  0.1250428E+00
         -2   -1    0    0    0  501 -0.00000000000E+00  0.00000000000E+00  0.24122048532E+02  0.24122048532E+02  0.00000000000E+00 0.  1.
          2   -1    0    0  501    0  0.00000000000E+00 -0.00000000000E+00 -0.65269483285E+03  0.65269483285E+03  0.00000000000E+00 0. -1.
         25    2    1    2    0    0 -0.59648420468E+02  0.20821340607E+01 -0.29455811736E+03  0.32553741974E+03  0.12509139777E+03 0.  0.
         23    2    1    2    0    0  0.59648420468E+02 -0.20821340607E+01 -0.33401466695E+03  0.35127946165E+03  0.90935103710E+02 0.  0.
          5    1    3    3  502    0  0.20461943488E+02 -0.40597917435E+02 -0.12650917516E+03  0.13449507735E+03  0.41800000000E+01 0. -1.
         -5    1    3    3    0  502 -0.80110363956E+02  0.42680051496E+02 -0.16804894220E+03  0.19104234238E+03  0.41800000000E+01 0. -1.
        -11    1    4    4    0    0 -0.17104637727E+02  0.47389768515E+01 -0.15460867734E+02  0.23538584589E+02  0.00000000000E+00 0.  1.
         11    1    4    4    0    0  0.76753058195E+02 -0.68211109123E+01 -0.31855379922E+03  0.32774087706E+03  0.00000000000E+00 0. -1.
</event>
<event>
 8    1  0.7075056E-009  0.1177119E+03  0.7561462E-02  0.1246920E+00
          2   -1    0    0  501    0  0.00000000000E+00  0.00000000000E+00  0.54413261142E+02  0.54413261142E+02  0.00000000000E+00 0. -1.
         -2   -1    0    0    0  501 -0.00000000000E+00 -0.00000000000E+00 -0.30604973727E+03  0.30604973727E+03  0.00000000000E+00 0.  1.
         25    2    1    2    0    0 -0.19643181156E+02 -0.59384508647E+02 -0.10011020351E+03  0.17199426085E+03  0.12509036128E+03 0.  0.
         23    2    1    2    0    0  0.19643181156E+02  0.59384508647E+02 -0.15152627262E+03  0.18846873756E+03  0.92993974599E+02 0.  0.
          5    1    3    3  502    0  0.23780615723E+02 -0.73609284567E+02 -0.20544988370E+02  0.80146200196E+02  0.41800000000E+01 0.  1.
         -5    1    3    3    0  502 -0.43423796879E+02  0.14224775920E+02 -0.79565215141E+02  0.91848060654E+02  0.41800000000E+01 0.  1.
        -11    1    4    4    0    0 -0.34732599064E+02  0.43009649748E+02 -0.75296554328E+02  0.93411747135E+02  0.00000000000E+00 0. -1.
         11    1    4    4    0    0  0.54375780220E+02  0.16374858899E+02 -0.76229718289E+02  0.95056990427E+02  0.00000000000E+00 0.  1.
</event>
<event>
 8    1  0.7075056E-009  0.1478943E+03  0.7561462E-02  0.1203085E+00
         -3   -1    0    0    0  501 -0.00000000000E+00  0.00000000000E+00  0.33127998310E+02  0.33127998310E+02  0.00000000000E+00 0.  1.
          3   -1    0    0  501    0  0.00000000000E+00 -0.00000000000E+00 -0.67263394944E+03  0.67263394944E+03  0.00000000000E+00 0. -1.
         25    2    1    2    0    0  0.85895719861E+02  0.56273333470E+02 -0.38527651274E+03  0.41788791387E+03  0.12509018563E+03 0.  0.
         23    2    1    2    0    0 -0.85895719861E+02 -0.56273333470E+02 -0.25422943839E+03  0.28787403387E+03  0.87715957990E+02 0.  0.
          5    1    3    3  502    0  0.10605915964E+03  0.55267909106E+01 -0.23411936341E+03  0.25711561502E+03  0.41800000000E+01 0.  1.
         -5    1    3    3    0  502 -0.20163439784E+02  0.50746542560E+02 -0.15115714933E+03  0.16077229885E+03  0.41800000000E+01 0.  1.
        -11    1    4    4    0    0 -0.86702568013E+02 -0.86779689350E+01 -0.17360841941E+03  0.19424861836E+03  0.00000000000E+00 0. -1.
         11    1    4    4    0    0  0.80684815247E+00 -0.47595364535E+02 -0.80621018976E+02  0.93625415512E+02  0.00000000000E+00 0.  1.
</event>
<event>
 8    1  0.7075056E-009  0.1166073E+03  0.7561462E-02  0.1248801E+00
         -2   -1    0    0    0  501 -0.00000000000E+00  0.00000000000E+00  0.17506991326E+03  0.17506991326E+03  0.00000000000E+00 0.  1.
          2   -1    0    0  501    0  0.00000000000E+00 -0.00000000000E+00 -0.11392347348E+03  0.11392347348E+03  0.00000000000E+00 0. -1.
         25    2    1    2    0    0 -0.12807663177E+02  0.46006775769E+02  0.11174255764E+03  0.17440066289E+03  0.12509409409E+03 0.  0.
         23    2    1    2    0    0  0.12807663177E+02 -0.46006775769E+02 -0.50596117858E+02  0.11459272385E+03  0.91054190262E+02 0.  0.
          5    1    3    3  502    0  0.19266929297E+02 -0.38577801218E+02  0.37504699256E+02  0.57302148107E+02  0.41800000000E+01 0. -1.
         -5    1    3    3    0  502 -0.32074592474E+02  0.84584576988E+02  0.74237858383E+02  0.11709851478E+03  0.41800000000E+01 0. -1.
        -11    1    4    4    0    0  0.47902057697E+02 -0.97715113044E+01 -0.10138473000E+02  0.49928731203E+02  0.00000000000E+00 0.  1.
         11    1    4    4    0    0 -0.35094394520E+02 -0.36235264465E+02 -0.40457644858E+02  0.64663992646E+02  0.00000000000E+00 0. -1.
</event>
<event>
 8    1  0.7075056E-009  0.1035140E+03  0.7561462E-02  0.1273075E+00
          1   -1    0    0  501    0  0.00000000000E+00  0.00000000000E+00  0.88235732102E+03  0.88235732102E+03  0.00000000000E+00 0. -1.
         -1   -1    0    0    0  501 -0.00000000000E+00 -0.00000000000E+00 -0.21711326956E+02  0.21711326956E+02  0.00000000000E+00 0.  1.
         25    2    1    2    0    0 -0.54359664074E+02 -0.61721035332E+02  0.41308688527E+03  0.43937782833E+03  0.12509053510E+03 0.  0.
         23    2    1    2    0    0  0.54359664074E+02  0.61721035332E+02  0.44755910880E+03  0.46469081965E+03  0.94148514133E+02 0.  0.
          5    1    3    3  502    0 -0.12187544605E+02 -0.18414442955E+02  0.61880869074E+00  0.22482955256E+02  0.41800000000E+01 0. -1.
         -5    1    3    3    0  502 -0.42172119469E+02 -0.43306592376E+02  0.41246807657E+03  0.41689487308E+03  0.41800000000E+01 0. -1.
        -11    1    4    4    0    0 -0.20893628889E+02 -0.70164691656E+01  0.10513350398E+03  0.10741893793E+03  0.00000000000E+00 0. -1.
         11    1    4    4    0    0  0.75253292963E+02  0.68737504497E+02  0.34242560482E+03  0.35727188172E+03  0.00000000000E+00 0.  1.
</event>
<event>
 8    1  0.7075056E-009  0.1030063E+03  0.7561462E-02  0.1274098E+00
          1   -1    0    0  501    0  0.00000000000E+00  0.00000000000E+00  0.44115692869E+02  0.44115692869E+02  0.00000000000E+00 0. -1.
         -1   -1    0    0    0  501 -0.00000000000E+00 -0.00000000000E+00 -0.48003199897E+03  0.48003199897E+03  0.00000000000E+00 0.  1.
         25    2    1    2    0    0 -0.43232603506E+01 -0.77309392559E+02 -0.34097914257E+03  0.37136854898E+03  0.12510951499E+03 0.  0.
         23    2    1    2    0    0  0.43232603506E+01  0.77309392559E+02 -0.94937163523E+02  0.15277914286E+03  0.91285095807E+02 0.  0.
          5    1    3    3  502    0  0.24307706238E+02  0.55698894816E+01 -0.72753208938E+01  0.26311422339E+02  0.41800000000E+01 0. -1.
         -5    1    3    3    0  502 -0.28630966589E+02 -0.82879282041E+02 -0.33370382168E+03  0.34505712664E+03  0.41800000000E+01 0. -1.
        -11    1    4    4    0    0 -0.17147364866E+02  0.55246527220E+01  0.12404952812E+02  0.21873197385E+02  0.00000000000E+00 0. -1.
         11    1    4    4    0    0  0.21470625217E+02  0.71784739837E+02 -0.10734211633E+03  0.13090594547E+03  0.00000000000E+00 0.  1.
</event>
<event>
 8    1  0.7075056E-009  0.7705757E+02  0.7561462E-02  0.1337615E+00
          2   -1    0    0  501    0  0.00000000000E+00  0.00000000000E+00  0.38636113262E+03  0.38636113262E+03  0.00000000000E+00 0. -1.
         -2   -1    0    0    0  501 -0.00000000000E+00 -0.00000000000E+00 -0.46484325550E+02  0.46484325550E+02  0.00000000000E+00 0.  1.
         25    2    1    2    0    0  0.12098372113E+02 -0.13908876282E+02  0.60404813740E+02  0.14013089041E+03  0.12509235578E+03 0.  0.
         23    2    1    2    0    0 -0.12098372113E+02  0.13908876282E+02  0.27947199333E+03  0.29271456776E+03  0.85072884512E+02 0.  0.
          5    1    3    3  502    0  0.10201308689E+02  0.26817460644E+02  0.86711133436E+02  0.91430497954E+02  0.41800000000E+01 0.  1.
         -5    1    3    3    0  502  0.18970634246E+01 -0.40726336925E+02 -0.26306319696E+02  0.48700392451E+02  0.41800000000E+01 0.  1.
        -11    1    4    4    0    0  0.34892730699E+02  0.12690809413E+02  0.87116477695E+02  0.94698679955E+02  0.00000000000E+00 0.  1.
         11    1    4    4    0    0 -0.46991102812E+02  0.12180668687E+01  0.19235551563E+03  0.19801588781E+03  0.00000000000E+00 0. -1.
</event>
<event>
 8    1  0.7075056E-009  0.1236128E+03  0.7561462E-02  0.1237253E+00
          2   -1    0    0  501    0  0.00000000000E+00  0.00000000000E+00  0.14546858546E+04  0.14546858546E+04  0.00000000000E+00 0. -1.
         -2   -1    0    0    0  501 -0.00000000000E+00 -0.00000000000E+00 -0.18608454276E+02  0.18608454276E+02  0.00000000000E+00 0.  1.
         25    2    1    2    0    0  0.66660418262E+01 -0.10450463996E+03  0.10647089094E+04  0.10771343990E+04  0.12509114990E+03 0.  0.
         23    2    1    2    0    0 -0.66660418262E+01  0.10450463996E+03  0.37136849092E+03  0.39615990991E+03  0.89791214959E+02 0.  0.
          5    1    3    3  502    0  0.38001716779E+02 -0.37499826009E+02  0.14719327681E+03  0.15663237394E+03  0.41800000000E+01 0.  1.
         -5    1    3    3    0  502 -0.31335674953E+02 -0.67004813954E+02  0.91751563260E+03  0.92050202503E+03  0.41800000000E+01 0.  1.
        -11    1    4    4    0    0  0.15390861038E+02  0.29602852286E+01  0.68230014576E+01  0.17093719344E+02  0.00000000000E+00 0.  1.
         11    1    4    4    0    0 -0.22056902864E+02  0.10154435473E+03  0.36454548946E+03  0.37906619056E+03  0.00000000000E+00 0. -1.
</event>
<event>
 8    1  0.7075056E-009  0.1244540E+03  0.7561462E-02  0.1235925E+00
          1   -1    0    0  501    0  0.00000000000E+00  0.00000000000E+00  0.76153024061E+02  0.76153024061E+02  0.00000000000E+00 0. -1.
         -1   -1    0    0    0  501 -0.00000000000E+00 -0.00000000000E+00 -0.50440820556E+03  0.50440820556E+03  0.00000000000E+00 0.  1.
         25    2    1    2    0    0 -0.39888863134E+02 -0.10215795405E+03 -0.46938497414E+02  0.17284881634E+03  0.12508445864E+03 0.  0.
         23    2    1    2    0    0  0.39888863134E+02  0.10215795405E+03 -0.38131668408E+03  0.40771241328E+03  0.93806339894E+02 0.  0.
          5    1    3    3  502    0 -0.36323636278E+02 -0.86850534928E+02 -0.87844966054E+02  0.12882791790E+03  0.41800000000E+01 0. -1.
         -5    1    3    3    0  502 -0.35652268559E+01 -0.15307419119E+02  0.40906468640E+02  0.44020898437E+02  0.41800000000E+01 0. -1.
        -11    1    4    4    0    0 -0.23311155950E+02  0.72993790208E+01 -0.31927218697E+02  0.40199977855E+02  0.00000000000E+00 0.  1.
         11    1    4    4    0    0  0.63200019085E+02  0.94858575027E+02 -0.34938946538E+03  0.36751243542E+03  0.00000000000E+00 0. -1.
</event>
<event>
 8    1  0.7075056E-009  0.6120775E+02  0.7561462E-02  0.1392832E+00
          3   -1    0    0  501    0  0.00000000000E+00  0.00000000000E+00  0.29537918287E+02  0.29537918287E+02  0.00000000000E+00 0. -1.
         -3   -1    0    0    0  501 -0.00000000000E+00 -0.00000000000E+00 -0.40357107133E+03  0.40357107133E+03  0.00000000000E+00 0.  1.
         25    2    1    2    0    0  0.57172399147E+01  0.84185918901E+01 -0.24014186939E+03  0.27095800566E+03  0.12508622577E+03 0.  0.
         23    2    1    2    0    0 -0.57172399147E+01 -0.84185918901E+01 -0.13389128366E+03  0.16215098396E+03  0.90898329120E+02 0.  0.
          5    1    3    3  502    0 -0.17314112673E+02  0.26132108881E+02 -0.23951812842E+03  0.24159692021E+03  0.41800000000E+01 0.  1.
         -5    1    3    3    0  502  0.23031352588E+02 -0.17713516991E+02 -0.62374096545E+00  0.29361085453E+02  0.41800000000E+01 0.  1.
        -11    1    4    4    0    0  0.27568797640E+02 -0.40435933305E+01 -0.12408616134E+03  0.12717611681E+03  0.00000000000E+00 0.  1.
         11    1    4    4    0    0 -0.33286037554E+02 -0.43749985596E+01 -0.98051223203E+01  0.34974867150E+02  0.00000000000E+00 0. -1.
</event>
<event>
 8    1  0.7075056E-009  0.1163487E+03  0.7561462E-02  0.1249245E+00
          3   -1    0    0  501    0  0.00000000000E+00  0.00000000000E+00  0.44333233044E+02  0.44333233044E+02  0.00000000000E+00 0. -1.
         -3   -1    0    0    0  501 -0.00000000000E+00 -0.00000000000E+00 -0.31317586893E+03  0.31317586893E+03  0.00000000000E+00 0.  1.
         25    2    1    2    0    0 -0.43631915907E+02 -0.10091261934E+02 -0.15423660395E+03  0.20357667613E+03  0.12509578495E+03 0.  0.
         23    2    1    2    0    0  0.43631915907E+02  0.10091261934E+02 -0.11460603194E+03  0.15393242585E+03  0.92493629603E+02 0.  0.
          5    1    3    3  502    0 -0.15647110608E+02  0.56581087992E+02 -0.84945997207E+02  0.10334189097E+03  0.41800000000E+01 0.  1.
         -5    1    3    3    0  502 -0.27984805300E+02 -0.66672349926E+02 -0.69290606742E+02  0.10023478515E+03  0.41800000000E+01 0.  1.
        -11    1    4    4    0    0 -0.34582066516E+01  0.43526122506E+02 -0.61862635169E+02  0.75719668275E+02  0.00000000000E+00 0.  1.
         11    1    4    4    0    0  0.47090122559E+02 -0.33434860572E+02 -0.52743396770E+02  0.78212757571E+02  0.00000000000E+00 0. -1.
</event>
<event>
 8    1  0.7075056E-009  0.1003242E+03  0.7561462E-02  0.1279616E+00
         -1   -1    0    0    0  501 -0.00000000000E+00  0.00000000000E+00  0.15751616091E+03  0.15751616091E+03  0.00000000000E+00 0.  1.
          1   -1    0    0  501    0  0.00000000000E+00 -0.00000000000E+00 -0.78130288854E+02  0.78130288854E+02  0.00000000000E+00 0. -1.
         25    2    1    2    0    0  0.65913378716E+01 -0.17179718700E+02  0.32367205304E+02  0.13051673453E+03  0.12509353918E+03 0.  0.
         23    2    1    2    0    0 -0.65913378716E+01  0.17179718700E+02  0.47018666754E+02  0.10512971524E+03  0.92211244070E+02 0.  0.
          5    1    3    3  502    0 -0.51089022882E+02 -0.34471428822E+02 -0.52601735024E+00  0.61774725886E+02  0.41800000000E+01 0.  1.
         -5    1    3    3    0  502  0.57680360754E+02  0.17291710122E+02  0.32893222654E+02  0.68742008643E+02  0.41800000000E+01 0.  1.
        -11    1    4    4    0    0 -0.39886931314E+01  0.47708544058E+02  0.55541202587E+02  0.73326939346E+02  0.00000000000E+00 0.  1.
         11    1    4    4    0    0 -0.26026447402E+01 -0.30528825358E+02 -0.85225358332E+01  0.31802775891E+02  0.00000000000E+00 0. -1.
</event>
<event>
 8    1  0.7075056E-009  0.2431631E+03  0.7561462E-02  0.1117703E+00
         -1   -1    0    0    0  501 -0.00000000000E+00  0.00000000000E+00  0.43476701955E+02  0.43476701955E+02  0.00000000000E+00 0.  1.
          1   -1    0    0  501    0  0.00000000000E+00 -0.00000000000E+00 -0.14078972309E+04  0.14078972309E+04  0.00000000000E+00 0. -1.
         25    2    1    2    0    0  0.20787270929E+03 -0.65824874062E+02 -0.82524137517E+03  0.86267816735E+03  0.12508523417E+03 0.  0.
         23    2    1    2    0    0 -0.20787270929E+03  0.65824874062E+02 -0.53917915374E+03  0.58869576547E+03  0.91129397818E+02 0.  0.
          5    1    3    3  502    0  0.20456509951E+03 -0.92209711048E+02 -0.74110080423E+03  0.77433673888E+03  0.41800000000E+01 0. -1.
         -5    1    3    3    0  502  0.33076097839E+01  0.26384836986E+02 -0.84140570945E+02  0.88341428471E+02  0.41800000000E+01 0. -1.
        -11    1    4    4    0    0 -0.15781629524E+03  0.87482523089E+02 -0.38590366640E+03  0.42600565093E+03  0.00000000000E+00 0.  1.
         11    1    4    4    0    0 -0.50056414056E+02 -0.21657649027E+02 -0.15327548734E+03  0.16269011454E+03  0.00000000000E+00 0. -1.
</event>
<event>
 8    1  0.7075056E-009  0.2020327E+03  0.7561462E-02  0.1148035E+00
         -1   -1    0    0    0  501 -0.00000000000E+00  0.00000000000E+00  0.42735906142E+03  0.42735906142E+03  0.00000000000E+00 0.  1.
          1   -1    0    0  501    0  0.00000000000E+00 -0.00000000000E+00 -0.10600278500E+03  0.10600278500E+03  0.00000000000E+00 0. -1.
         25    2    1    2    0    0  0.14526887483E+03  0.10240435515E+03  0.21382326609E+03  0.30488866586E+03  0.12508801503E+03 0.  0.
         23    2    1    2    0    0 -0.14526887483E+03 -0.10240435515E+03  0.10753301034E+03  0.22847318056E+03  0.95115445518E+02 0.  0.
          5    1    3    3  502    0  0.16079741009E+03  0.59741052874E+02  0.17359579698E+03  0.24408558667E+03  0.41800000000E+01 0. -1.
         -5    1    3    3    0  502 -0.15528535266E+02  0.42663302272E+02  0.40227469104E+02  0.60803079188E+02  0.41800000000E+01 0. -1.
        -11    1    4    4    0    0 -0.13465345003E+03 -0.10996634463E+03  0.67709240582E+02  0.18657087077E+03  0.00000000000E+00 0. -1.
         11    1    4    4    0    0 -0.10615424794E+02  0.75619894863E+01  0.39823769756E+02  0.41902309794E+02  0.00000000000E+00 0.  1.
</event>
<event>
 8    1  0.7075056E-009  0.1289801E+03  0.7561462E-02  0.1228977E+00
          2   -1    0    0  501    0  0.00000000000E+00  0.00000000000E+00  0.12586621243E+04  0.12586621243E+04  0.00000000000E+00 0. -1.
         -2   -1    0    0    0  501 -0.00000000000E+00 -0.00000000000E+00 -0.20502585187E+02  0.20502585187E+02  0.00000000000E+00 0.  1.
         25    2    1    2    0    0  0.93336520337E+02 -0.58288961709E+02  0.49534430078E+03  0.52261198516E+03  0.12509197269E+03 0.  0.
         23    2    1    2    0    0 -0.93336520337E+02  0.58288961709E+02  0.74281523836E+03  0.75655272435E+03  0.92131630300E+02 0.  0.
          5    1    3    3  502    0  0.24441958707E+01  0.62841413837E+01 -0.53944512535E+01  0.95935932116E+01  0.41800000000E+01 0.  1.
         -5    1    3    3    0  502  0.90892324466E+02 -0.64573103093E+02  0.50073875204E+03  0.51301839195E+03  0.41800000000E+01 0.  1.
        -11    1    4    4    0    0  0.16099522445E+02  0.88063141553E+01  0.47134047907E+02  0.50580275445E+02  0.00000000000E+00 0.  1.
         11    1    4    4    0    0 -0.10943604278E+03  0.49482647554E+02  0.69568119045E+03  0.70597244891E+03  0.00000000000E+00 0. -1.
</event>
<event>
 8    1  0.7075056E-009  0.1157877E+03  0.7561462E-02  0.1250212E+00
          2   -1    0    0  501    0  0.00000000000E+00  0.00000000000E+00  0.42505811316E+02  0.42505811316E+02  0.00000000000E+00 0. -1.
         -2   -1    0    0    0  501 -0.00000000000E+00 -0.00000000000E+00 -0.59079587604E+03  0.59079587604E+03  0.00000000000E+00 0.  1.
         25    2    1    2    0    0  0.82251437913E+02  0.50148654727E+02 -0.16739195800E+03  0.23010226287E+03  0.12508715827E+03 0.  0.
         23    2    1    2    0    0 -0.82251437913E+02 -0.50148654727E+02 -0.38089810672E+03  0.40319942449E+03  0.90588197861E+02 0.  0.
          5    1    3    3  502    0  0.99396811185E+02  0.37976769561E+02 -0.17703648201E+03  0.20659465013E+03  0.41800000000E+01 0. -1.
         -5    1    3    3    0  502 -0.17145373271E+02  0.12171885166E+02  0.96445240126E+01  0.23507612736E+02  0.41800000000E+01 0. -1.
        -11    1    4    4    0    0 -0.57755603360E+02 -0.13078143665E+02 -0.33154348535E+03  0.33679048419E+03  0.00000000000E+00 0.  1.
         11    1    4    4    0    0 -0.24495834553E+02 -0.37070511062E+02 -0.49354621373E+02  0.66408940300E+02  0.00000000000E+00 0. -1.
</event>
<event>
 8    1  0.7075056E-009  0.1045995E+03  0.7561462E-02  0.1270911E+00
         -1   -1    0    0    0  501 -0.00000000000E+00  0.00000000000E+00  0.29795989356E+03  0.29795989356E+03  0.00000000000E+00 0.  1.
          1   -1    0    0  501    0  0.00000000000E+00 -0.00000000000E+00 -0.40985193810E+02  0.40985193810E+02  0.00000000000E+00 0. -1.
         25    2    1    2    0    0 -0.16210929825E+02 -0.16066298233E+02  0.15551611053E+03  0.20088326252E+03  0.12509158381E+03 0.  0.
         23    2    1    2    0    0  0.16210929825E+02  0.16066298233E+02  0.10145858922E+03  0.13806182485E+03  0.90809151357E+02 0.  0.
          5    1    3    3  502    0 -0.55363264903E+02 -0.49701608657E+02  0.10300135900E+03  0.12713022205E+03  0.41800000000E+01 0.  1.
         -5    1    3    3    0  502  0.39152335078E+02  0.33635310424E+02  0.52514751536E+02  0.73753040468E+02  0.41800000000E+01 0.  1.
        -11    1    4    4    0    0 -0.71698963633E+00 -0.31963235833E+02  0.10205614562E+02  0.33560647902E+02  0.00000000000E+00 0.  1.
         11    1    4    4    0    0  0.16927919461E+02  0.48029534066E+02  0.91252974657E+02  0.10450117695E+03  0.00000000000E+00 0. -1.
</event>
<event>
 8    1  0.7075056E-009  0.1035515E+03  0.7561462E-02  0.1273000E+00
          2   -1    0    0  501    0  0.00000000000E+00  0.00000000000E+00  0.20573969008E+03  0.20573969008E+03  0.00000000000E+00 0. -1.
         -2   -1    0    0    0  501 -0.00000000000E+00 -0.00000000000E+00 -0.12179924379E+03  0.12179924379E+03  0.00000000000E+00 0.  1.
         25    2    1    2    0    0 -0.13393984876E+02 -0.49599106523E+02  0.15027685759E+03  0.20216077426E+03  0.12508546887E+03 0.  0.
         23    2    1    2    0    0  0.13393984876E+02  0.49599106523E+02 -0.66336411304E+02  0.12537815961E+03  0.93164871301E+02 0.  0.
          5    1    3    3  502    0 -0.46840178814E+01 -0.78602386466E+02  0.15232261407E+03  0.17152237854E+03  0.41800000000E+01 0. -1.
         -5    1    3    3    0  502 -0.87099669944E+01  0.29003279943E+02 -0.20457564882E+01  0.30638395717E+02  0.41800000000E+01 0. -1.
        -11    1    4    4    0    0  0.48556573928E+02  0.33604065608E+02 -0.14631426400E+02  0.60836278120E+02  0.00000000000E+00 0.  1.
         11    1    4    4    0    0 -0.35162589052E+02  0.15995040915E+02 -0.51704984905E+02  0.64541881493E+02  0.00000000000E+00 0. -1.
</event>
<event>
 8    1  0.7075056E-009  0.1106943E+03  0.7561462E-02  0.1259290E+00
         -1   -1    0    0    0  501 -0.00000000000E+00  0.00000000000E+00  0.57005780569E+02  0.57005780569E+02  0.00000000000E+00 0.  1.
          1   -1    0    0  501    0  0.00000000000E+00 -0.00000000000E+00 -0.28633056488E+03  0.28633056488E+03  0.00000000000E+00 0. -1.
         25    2    1    2    0    0 -0.51617540095E+02 -0.45475007930E+02 -0.14836411185E+03  0.20589182746E+03  0.12508872108E+03 0.  0.
         23    2    1    2    0    0  0.51617540095E+02  0.45475007930E+02 -0.80960672467E+02  0.13744451799E+03  0.87201022053E+02 0.  0.
          5    1    3    3  502    0  0.30928965455E+01 -0.57072191374E+02 -0.12147215928E+02  0.58581808542E+02  0.41800000000E+01 0. -1.
         -5    1    3    3    0  502 -0.54710436641E+02  0.11597183443E+02 -0.13621689592E+03  0.14731001892E+03  0.41800000000E+01 0. -1.
        -11    1    4    4    0    0 -0.18231032952E+02 -0.81191577445E+01 -0.29033179916E+02  0.35230907184E+02  0.00000000000E+00 0. -1.
         11    1    4    4    0    0  0.69848573047E+02  0.53594165675E+02 -0.51927492551E+02  0.10221361080E+03  0.00000000000E+00 0.  1.
</event>
<event>
 8    1  0.7075056E-009  0.8697460E+02  0.7561462E-02  0.1310348E+00
          1   -1    0    0  501    0  0.00000000000E+00  0.00000000000E+00  0.19755353085E+03  0.19755353085E+03  0.00000000000E+00 0. -1.
         -1   -1    0    0    0  501 -0.00000000000E+00 -0.00000000000E+00 -0.64342381616E+02  0.64342381616E+02  0.00000000000E+00 0.  1.
         25    2    1    2    0    0 -0.51771577861E+01 -0.24201540504E+02  0.58121466183E+02  0.14013902579E+03  0.12509326198E+03 0.  0.
         23    2    1    2    0    0  0.51771577861E+01  0.24201540504E+02  0.75089683047E+02  0.12175688667E+03  0.92594607978E+02 0.  0.
          5    1    3    3  502    0  0.10770676757E+02  0.24819567360E+02 -0.28331061032E+02  0.39397205750E+02  0.41800000000E+01 0.  1.
         -5    1    3    3    0  502 -0.15947834543E+02 -0.49021107864E+02  0.86452527214E+02  0.10074182004E+03  0.41800000000E+01 0.  1.
        -11    1    4    4    0    0 -0.16797183514E+02 -0.31099751630E+02  0.36631888368E+02  0.50904176359E+02  0.00000000000E+00 0. -1.
         11    1    4    4    0    0  0.21974341300E+02  0.55301292133E+02  0.38457794679E+02  0.70852710313E+02  0.00000000000E+00 0.  1.
</event>
<event>
 8    1  0.7075056E-009  0.9710785E+02  0.7561462E-02  0.1286498E+00
          1   -1    0    0  501    0  0.00000000000E+00  0.00000000000E+00  0.16137947144E+03  0.16137947144E+03  0.00000000000E+00 0. -1.
         -1   -1    0    0    0  501 -0.00000000000E+00 -0.00000000000E+00 -0.16140795332E+03  0.16140795332E+03  0.00000000000E+00 0.  1.
         25    2    1    2    0    0 -0.68276956484E+02 -0.31529634359E+02  0.92309482611E+02  0.17269418144E+03  0.12508548715E+03 0.  0.
         23    2    1    2    0    0  0.68276956484E+02  0.31529634359E+02 -0.92337964498E+02  0.15009324332E+03  0.91355467120E+02 0.  0.
          5    1    3    3  502    0 -0.18448023460E+02 -0.45705783551E+02 -0.16470436975E+02  0.52135361452E+02  0.41800000000E+01 0.  1.
         -5    1    3    3    0  502 -0.49828933024E+02  0.14176149192E+02  0.10877991959E+03  0.12055881999E+03  0.41800000000E+01 0.  1.
        -11    1    4    4    0    0 -0.16193370659E+01 -0.10893106754E+02 -0.61862926092E+02  0.62835528580E+02  0.00000000000E+00 0.  1.
         11    1    4    4    0    0  0.69896293550E+02  0.42422741113E+02 -0.30475038407E+02  0.87257714739E+02  0.00000000000E+00 0. -1.
</event>
<event>
 8    1  0.7075056E-009  0.1204301E+03  0.7561462E-02  0.1242389E+00
         -1   -1    0    0    0  501 -0.00000000000E+00  0.00000000000E+00  0.21719895844E+02  0.21719895844E+02  0.00000000000E+00 0.  1.
          1   -1    0    0  501    0  0.00000000000E+00 -0.00000000000E+00 -0.10713637016E+04  0.10713637016E+04  0.00000000000E+00 0. -1.
         25    2    1    2    0    0  0.36621140478E+02 -0.51126869053E+02 -0.87719063250E+03  0.88829581527E+03  0.12510389684E+03 0.  0.
         23    2    1    2    0    0 -0.36621140478E+02  0.51126869053E+02 -0.17245317328E+03  0.20478778220E+03  0.90790275335E+02 0.  0.
          5    1    3    3  502    0 -0.10377888758E+02  0.34004710234E+02 -0.37894194402E+03  0.38062907171E+03  0.41800000000E+01 0.  1.
         -5    1    3    3    0  502  0.46999029236E+02 -0.85131579287E+02 -0.49824868847E+03  0.50766674355E+03  0.41800000000E+01 0.  1.
        -11    1    4    4    0    0 -0.57944824802E+02  0.61083768843E+02 -0.15127895270E+03  0.17313044523E+03  0.00000000000E+00 0. -1.
         11    1    4    4    0    0  0.21323684325E+02 -0.99568997903E+01 -0.21174220584E+02  0.31657336969E+02  0.00000000000E+00 0.  1.
</event>
<event>
 8    1  0.7075056E-009  0.3045612E+03  0.7561462E-02  0.1082982E+00
         -2   -1    0    0    0  501 -0.00000000000E+00  0.00000000000E+00  0.92751080480E+02  0.92751080480E+02  0.00000000000E+00 0.  1.
          2   -1    0    0  501    0  0.00000000000E+00 -0.00000000000E+00 -0.11694408025E+04  0.11694408025E+04  0.00000000000E+00 0. -1.
         25    2    1    2    0    0 -0.77571071481E+02  0.28578431734E+03 -0.73465083930E+03  0.80190220273E+03  0.12508133311E+03 0.  0.
         23    2    1    2    0    0  0.77571071481E+02 -0.28578431734E+03 -0.34203888277E+03  0.46028968030E+03  0.84770544945E+02 0.  0.
          5    1    3    3  502    0  0.22419073219E+02  0.46309318930E+02 -0.60581738829E+02  0.79591377317E+02  0.41800000000E+01 0.  1.
         -5    1    3    3    0  502 -0.99990144701E+02  0.23947499841E+03 -0.67406910047E+03  0.72231082541E+03  0.41800000000E+01 0.  1.
        -11    1    4    4    0    0  0.54037294559E+02 -0.13612158570E+03 -0.10997158263E+03  0.18314711104E+03  0.00000000000E+00 0.  1.
         11    1    4    4    0    0  0.23533776922E+02 -0.14966273165E+03 -0.23206730014E+03  0.27714256926E+03  0.00000000000E+00 0. -1.
</event>
<event>
 8    1  0.7075056E-009  0.1954589E+03  0.7561462E-02  0.1153628E+00
          1   -1    0    0  501    0  0.00000000000E+00  0.00000000000E+00  0.74485311477E+03  0.74485311477E+03  0.00000000000E+00 0. -1.
         -1   -1    0    0    0  501 -0.00000000000E+00 -0.00000000000E+00 -0.61271088188E+02  0.61271088188E+02  0.00000000000E+00 0.  1.
         25    2    1    2    0    0  0.15456193534E+03 -0.98481889674E+02  0.33358483696E+03  0.40064333961E+03  0.12509263635E+03 0.  0.
         23    2    1    2    0    0 -0.15456193534E+03  0.98481889674E+02  0.34999718962E+03  0.40548086335E+03  0.91261291652E+02 0.  0.
          5    1    3    3  502    0  0.11896914014E+03 -0.19599504439E+02  0.26130259311E+03  0.28780951070E+03  0.41800000000E+01 0.  1.
         -5    1    3    3    0  502  0.35592795199E+02 -0.78882385235E+02  0.72282243848E+02  0.11283382891E+03  0.41800000000E+01 0.  1.
        -11    1    4    4    0    0 -0.83855602729E+02  0.46618590194E+02  0.91748672266E+02  0.13275117296E+03  0.00000000000E+00 0.  1.
         11    1    4    4    0    0 -0.70706332609E+02  0.51863299480E+02  0.25824851735E+03  0.27272969039E+03  0.00000000000E+00 0. -1.
</event>
<event>
 8    1  0.7075056E-009  0.9849163E+02  0.7561462E-02  0.1283500E+00
          1   -1    0    0  501    0  0.00000000000E+00  0.00000000000E+00  0.40328433550E+03  0.40328433550E+03  0.00000000000E+00 0. -1.
         -1   -1    0    0    0  501 -0.00000000000E+00 -0.00000000000E+00 -0.32125971038E+02  0.32125971038E+02  0.00000000000E+00 0.  1.
         25    2    1    2    0    0  0.25215538743E+02  0.80265385922E+01  0.25393730696E+03  0.28430886917E+03  0.12508848269E+03 0.  0.
         23    2    1    2    0    0 -0.25215538743E+02 -0.80265385922E+01  0.11722105750E+03  0.15110143738E+03  0.91600323905E+02 0.  0.
          5    1    3    3  502    0 -0.44015024036E+02 -0.15138570561E+01  0.16660825867E+03  0.17238154878E+03  0.41800000000E+01 0.  1.
         -5    1    3    3    0  502  0.69230562779E+02  0.95403956483E+01  0.87329048294E+02  0.11192732038E+03  0.41800000000E+01 0.  1.
        -11    1    4    4    0    0 -0.41383860045E+02  0.23292319607E+02  0.27900016090E+02  0.55077826053E+02  0.00000000000E+00 0.  1.
         11    1    4    4    0    0  0.16168321302E+02 -0.31318858199E+02  0.89321041413E+02  0.96023611324E+02  0.00000000000E+00 0. -1.
</event>
<event>
 8    1  0.7075056E-009  0.1105217E+03  0.7561462E-02  0.1259607E+00
         -2   -1    0    0    0  501 -0.00000000000E+00  0.00000000000E+00  0.12082960784E+03  0.12082960784E+03  0.00000000000E+00 0.  1.
          2   -1    0    0  501    0  0.00000000000E+00 -0.00000000000E+00 -0.13179797013E+03  0.13179797013E+03  0.00000000000E+00 0. -1.
         25    2    1    2    0    0  0.57751604538E+02  0.29158572805E+02 -0.56223455214E+01  0.14093924458E+03  0.12508712844E+03 0.  0.
         23    2    1    2    0    0 -0.57751604538E+02 -0.29158572805E+02 -0.53460167698E+01  0.11168833338E+03  0.90885827961E+02 0.  0.
          5    1    3    3  502    0 -0.36616212301E+02 -0.12044007526E+01 -0.17852447463E+02  0.40968034671E+02  0.41800000000E+01 0. -1.
         -5    1    3    3    0  502  0.94367816838E+02  0.30362973558E+02  0.12230101942E+02  0.99971209914E+02  0.41800000000E+01 0. -1.
        -11    1    4    4    0    0  0.54305603053E+01 -0.20463445810E+02 -0.35350254291E+02  0.41205388945E+02  0.00000000000E+00 0. -1.
         11    1    4    4    0    0 -0.63182164843E+02 -0.86951269950E+01  0.30004237521E+02  0.70482944440E+02  0.00000000000E+00 0.  1.
</event>
<event>
 8    1  0.7075056E-009  0.8847224E+02  0.7561462E-02  0.1306594E+00
         -2   -1    0    0    0  501 -0.00000000000E+00  0.00000000000E+00  0.49695701199E+02  0.49695701199E+02  0.00000000000E+00 0. -1.
          2   -1    0    0  501    0  0.00000000000E+00 -0.00000000000E+00 -0.29782536865E+03  0.29782536865E+03  0.00000000000E+00 0.  1.
         25    2    1    2    0    0 -0.33428887280E+02  0.87449651843E+01 -0.75758783249E+02  0.15026882775E+03  0.12508941775E+03 0.  0.
         23    2    1    2    0    0  0.33428887280E+02 -0.87449651843E+01 -0.17237088420E+03  0.19725224210E+03  0.89458148720E+02 0.  0.
          5    1    3    3  502    0 -0.54152669374E+02  0.27645204033E+02  0.83446831130E+01  0.61513210310E+02  0.41800000000E+01 0. -1.
         -5    1    3    3    0  502  0.20723782094E+02 -0.18900238849E+02 -0.84103466362E+02  0.88755617439E+02  0.41800000000E+01 0. -1.
        -11    1    4    4    0    0 -0.86320268032E+00 -0.40735670737E+02 -0.12108729348E+03  0.12775864993E+03  0.00000000000E+00 0.  1.
         11    1    4    4    0    0  0.34292089961E+02  0.31990705553E+02 -0.51283590720E+02  0.69493592171E+02  0.00000000000E+00 0. -1.
</event>
<event>
 8    1  0.7075056E-009  0.9986332E+02  0.7561462E-02  0.1280584E+00
          1   -1    0    0  501    0  0.00000000000E+00  0.00000000000E+00  0.96604252300E+02  0.96604252300E+02  0.00000000000E+00 0. -1.
         -1   -1    0    0    0  501 -0.00000000000E+00 -0.00000000000E+00 -0.12949690555E+03  0.12949690555E+03  0.00000000000E+00 0.  1.
         25    2    1    2    0    0  0.18737354394E+02  0.10156048849E+02 -0.11777340513E+01  0.12689846168E+03  0.12509036230E+03 0.  0.
         23    2    1    2    0    0 -0.18737354394E+02 -0.10156048849E+02 -0.31714919196E+02  0.99202696170E+02  0.91548375463E+02 0.  0.
          5    1    3    3  502    0 -0.21748027320E+02 -0.39645513814E+02 -0.32023116739E+02  0.55567039363E+02  0.41800000000E+01 0. -1.
         -5    1    3    3    0  502  0.40485381714E+02  0.49801562663E+02  0.30845382688E+02  0.71331422315E+02  0.41800000000E+01 0. -1.
        -11    1    4    4    0    0 -0.44888993075E+02 -0.32646517776E+02 -0.52999670185E+01  0.55757568747E+02  0.00000000000E+00 0. -1.
         11    1    4    4    0    0  0.26151638681E+02  0.22490468927E+02 -0.26414952177E+02  0.43445127423E+02  0.00000000000E+00 0.  1.
</event>
<event>
 8    1  0.7075056E-009  0.1287630E+03  0.7561462E-02  0.1229303E+00
          2   -1    0    0  501    0  0.00000000000E+00  0.00000000000E+00  0.14500303446E+04  0.14500303446E+04  0.00000000000E+00 0. -1.
         -2   -1    0    0    0  501 -0.00000000000E+00 -0.00000000000E+00 -0.15167654061E+02  0.15167654061E+02  0.00000000000E+00 0.  1.
         25    2    1    2    0    0 -0.20900064430E+02  0.90373246692E+02  0.98315909318E+03  0.99541595048E+03  0.12508787132E+03 0.  0.
         23    2    1    2    0    0  0.20900064430E+02 -0.90373246692E+02  0.45170359737E+03  0.46978204819E+03  0.89749075311E+02 0.  0.
          5    1    3    3  502    0  0.18888027428E+02 -0.21346427177E+02  0.92385283131E+02  0.96772622536E+02  0.41800000000E+01 0. -1.
         -5    1    3    3    0  502 -0.39788091858E+02  0.11171967387E+03  0.89077381005E+03  0.89864332794E+03  0.41800000000E+01 0. -1.
        -11    1    4    4    0    0 -0.20833539892E+02 -0.25733869038E+02  0.45021690059E+02  0.55885785097E+02  0.00000000000E+00 0.  1.
         11    1    4    4    0    0  0.41733604323E+02 -0.64639377653E+02  0.40668190731E+03  0.41389626310E+03  0.00000000000E+00 0. -1.
</event>
<event>
 8    1  0.7075056E-009  0.1039252E+03  0.7561462E-02  0.1272252E+00
         -4   -1    0    0    0  501 -0.00000000000E+00  0.00000000000E+00  0.28595022846E+03  0.28595022846E+03  0.00000000000E+00 0.  1.
          4   -1    0    0  501    0  0.00000000000E+00 -0.00000000000E+00 -0.50628002625E+02  0.50628002625E+02  0.00000000000E+00 0. -1.
         25    2    1    2    0    0  0.14932860150E+01 -0.52797221549E+02  0.14092593135E+03  0.19569567414E+03  0.12508757830E+03 0.  0.
         23    2    1    2    0    0 -0.14932860150E+01  0.52797221549E+02  0.94396294482E+02  0.14088255694E+03  0.90263270109E+02 0.  0.
          5    1    3    3  502    0  0.33774109666E+02 -0.83078277279E+02  0.10759265720E+03  0.14012973604E+03  0.41800000000E+01 0. -1.
         -5    1    3    3    0  502 -0.32280823651E+02  0.30281055729E+02  0.33333274144E+02  0.55565938099E+02  0.41800000000E+01 0. -1.
        -11    1    4    4    0    0 -0.68609756764E+01  0.62312816312E+02  0.10711785377E+03  0.12411363608E+03  0.00000000000E+00 0.  1.
         11    1    4    4    0    0  0.53676896613E+01 -0.95155947623E+01 -0.12721559290E+02  0.16768920858E+02  0.00000000000E+00 0. -1.
</event>
<event>
 8    1  0.7075056E-009  0.9059876E+02  0.7561462E-02  0.1301408E+00
         -4   -1    0    0    0  501 -0.00000000000E+00  0.00000000000E+00  0.10231746477E+04  0.10231746477E+04  0.00000000000E+00 0.  1.
          4   -1    0    0  501    0  0.00000000000E+00 -0.00000000000E+00 -0.17406404437E+02  0.17406404437E+02  0.00000000000E+00 0. -1.
         25    2    1    2    0    0 -0.72621969847E+01  0.71157898039E+02  0.43808875155E+03  0.46117360533E+03  0.12507259514E+03 0.  0.
         23    2    1    2    0    0  0.72621969847E+01 -0.71157898039E+02  0.56767949169E+03  0.57940744679E+03  0.91306068540E+02 0.  0.
          5    1    3    3  502    0  0.24678521388E+00  0.35019721972E+02  0.18280562615E+02  0.39725221201E+02  0.41800000000E+01 0.  1.
         -5    1    3    3    0  502 -0.75089821986E+01  0.36138176067E+02  0.41980818894E+03  0.42144838413E+03  0.41800000000E+01 0.  1.
        -11    1    4    4    0    0  0.23949039020E+01 -0.89639031987E+02  0.52555980338E+03  0.53315476041E+03  0.00000000000E+00 0.  1.
         11    1    4    4    0    0  0.48672930827E+01  0.18481133948E+02  0.42119688308E+02  0.46252686377E+02  0.00000000000E+00 0. -1.
</event>
<event>
 8    1  0.7075056E-009  0.1014610E+03  0.7561462E-02  0.1277253E+00
         -1   -1    0    0    0  501 -0.00000000000E+00  0.00000000000E+00  0.47569928842E+03  0.47569928842E+03  0.00000000000E+00 0.  1.
          1   -1    0    0  501    0  0.00000000000E+00 -0.00000000000E+00 -0.32395459904E+02  0.32395459904E+02  0.00000000000E+00 0. -1.
         25    2    1    2    0    0 -0.28629509962E+02 -0.39665536774E+02  0.31243674967E+03  0.34008251181E+03  0.12508552533E+03 0.  0.
         23    2    1    2    0    0  0.28629509962E+02  0.39665536774E+02  0.13086707885E+03  0.16801223651E+03  0.93321571161E+02 0.  0.
          5    1    3    3  502    0  0.40754470760E+02 -0.96784201615E+01  0.42848999175E+02  0.60067527284E+02  0.41800000000E+01 0.  1.
         -5    1    3    3    0  502 -0.69383980721E+02 -0.29987116613E+02  0.26958775050E+03  0.28001498453E+03  0.41800000000E+01 0.  1.
        -11    1    4    4    0    0 -0.11497644740E+02 -0.13999227391E+02 -0.29513348426E+01  0.18354415803E+02  0.00000000000E+00 0. -1.
         11    1    4    4    0    0  0.40127154702E+02  0.53664764165E+02  0.13381841369E+03  0.14965782071E+03  0.00000000000E+00 0.  1.
</event>
<event>
 8    1  0.7075056E-009  0.9220642E+02  0.7561462E-02  0.1297595E+00
          2   -1    0    0  501    0  0.00000000000E+00  0.00000000000E+00  0.97298085390E+02  0.97298085390E+02  0.00000000000E+00 0. -1.
         -2   -1    0    0    0  501 -0.00000000000E+00 -0.00000000000E+00 -0.15159978928E+03  0.15159978928E+03  0.00000000000E+00 0.  1.
         25    2    1    2    0    0 -0.34702018906E+02  0.13769440160E+02 -0.70262136431E+02  0.14824797565E+03  0.12508743690E+03 0.  0.
         23    2    1    2    0    0  0.34702018906E+02 -0.13769440160E+02  0.15960432541E+02  0.10064989902E+03  0.92096900960E+02 0.  0.
          5    1    3    3  502    0 -0.52068377323E+02 -0.45089967695E+02 -0.35702888114E+02  0.77694206499E+02  0.41800000000E+01 0. -1.
         -5    1    3    3    0  502  0.17366358417E+02  0.58859407856E+02 -0.34559248316E+02  0.70553769155E+02  0.41800000000E+01 0. -1.
        -11    1    4    4    0    0  0.69163617956E+01  0.13372584203E+02  0.47995464609E+02  0.50301358747E+02  0.00000000000E+00 0. -1.
         11    1    4    4    0    0  0.27785657111E+02 -0.27142024363E+02 -0.32035032068E+02  0.50348540269E+02  0.00000000000E+00 0.  1.
</event>
<event>
 8    1  0.7075056E-009  0.1117772E+03  0.7561462E-02  0.1257314E+00
         -3   -1    0    0    0  501 -0.00000000000E+00  0.00000000000E+00  0.14619190629E+03  0.14619190629E+03  0.00000000000E+00 0.  1.
          3   -1    0    0  501    0  0.00000000000E+00 -0.00000000000E+00 -0.15717131736E+03  0.15717131736E+03  0.00000000000E+00 0. -1.
         25    2    1    2    0    0 -0.81226479475E+02  0.34139348703E+02 -0.70710077853E+02  0.16855525316E+03  0.12509085562E+03 0.  0.
         23    2    1    2    0    0  0.81226479475E+02 -0.34139348703E+02  0.59730666785E+02  0.13480797048E+03  0.82717593369E+02 0.  0.
          5    1    3    3  502    0 -0.48488321012E+01  0.51441973431E+02  0.13413218370E+02  0.53546004802E+02  0.41800000000E+01 0. -1.
         -5    1    3    3    0  502 -0.76377647373E+02 -0.17302624729E+02 -0.84123296223E+02  0.11500924836E+03  0.41800000000E+01 0. -1.
        -11    1    4    4    0    0  0.59038234887E+01 -0.14193553351E+02  0.54597417539E+02  0.56720279358E+02  0.00000000000E+00 0.  1.
         11    1    4    4    0    0  0.75322655986E+02 -0.19945795352E+02  0.51332492458E+01  0.78087691122E+02  0.00000000000E+00 0. -1.
</event>
<event>
 8    1  0.7075056E-009  0.6197014E+02  0.7561462E-02  0.1389745E+00
         -1   -1    0    0    0  501 -0.00000000000E+00  0.00000000000E+00  0.33138885433E+03  0.33138885433E+03  0.00000000000E+00 0.  1.
          1   -1    0    0  501    0  0.00000000000E+00 -0.00000000000E+00 -0.41819151731E+02  0.41819151731E+02  0.00000000000E+00 0. -1.
         25    2    1    2    0    0  0.26681722022E+01  0.20339144405E+02  0.23495997645E+03  0.26697414279E+03  0.12509277537E+03 0.  0.
         23    2    1    2    0    0 -0.26681722022E+01 -0.20339144405E+02  0.54609726152E+02  0.10623386327E+03  0.88784072767E+02 0.  0.
          5    1    3    3  502    0  0.25016720037E+02  0.28891844679E+02  0.23923920257E+03  0.24230857067E+03  0.41800000000E+01 0. -1.
         -5    1    3    3    0  502 -0.22348547835E+02 -0.85527002741E+01 -0.42792261208E+01  0.24665572130E+02  0.41800000000E+01 0. -1.
        -11    1    4    4    0    0 -0.20481851214E+02  0.12391901445E+02 -0.14306395322E+02  0.27887961519E+02  0.00000000000E+00 0. -1.
         11    1    4    4    0    0  0.17813679011E+02 -0.32731045850E+02  0.68916121474E+02  0.78345901752E+02  0.00000000000E+00 0.  1.
</event>
<event>
 8    1  0.7075056E-009  0.9417900E+02  0.7561462E-02  0.1293036E+00
          2   -1    0    0  501    0  0.00000000000E+00  0.00000000000E+00  0.24284811725E+03  0.24284811725E+03  0.00000000000E+00 0. -1.
         -2   -1    0    0    0  501 -0.00000000000E+00 -0.00000000000E+00 -0.67681940652E+02  0.67681940652E+02  0.00000000000E+00 0.  1.
         25    2    1    2    0    0 -0.21726262779E+01  0.62482453537E+02  0.64393331692E+02  0.15395616802E+03  0.12508886122E+03 0.  0.
         23    2    1    2    0    0  0.21726262779E+01 -0.62482453537E+02  0.11077284490E+03  0.15657388988E+03  0.91301601950E+02 0.  0.
          5    1    3    3  502    0 -0.38903814256E+02 -0.28477075305E+01  0.68326884871E+02  0.78788652724E+02  0.41800000000E+01 0. -1.
         -5    1    3    3    0  502  0.36731187978E+02  0.65330161067E+02 -0.39335531796E+01  0.75167515297E+02  0.41800000000E+01 0. -1.
        -11    1    4    4    0    0 -0.16356535593E+02 -0.11998915130E+02 -0.11271588841E+02  0.23206872601E+02  0.00000000000E+00 0.  1.
         11    1    4    4    0    0  0.18529161871E+02 -0.50483538407E+02  0.12204443374E+03  0.13336701728E+03  0.00000000000E+00 0. -1.
</event>
<event>
 8    1  0.7075056E-009  0.1019541E+03  0.7561462E-02  0.1276240E+00
          2   -1    0    0  501    0  0.00000000000E+00  0.00000000000E+00  0.54321495045E+03  0.54321495045E+03  0.00000000000E+00 0. -1.
         -2   -1    0    0    0  501 -0.00000000000E+00 -0.00000000000E+00 -0.24111899037E+02  0.24111899037E+02  0.00000000000E+00 0.  1.
         25    2    1    2    0    0 -0.28736518406E+02  0.19514851500E+02  0.26014033635E+03  0.29073591359E+03  0.12509100662E+03 0.  0.
         23    2    1    2    0    0  0.28736518406E+02 -0.19514851500E+02  0.25896271507E+03  0.27659093590E+03  0.90742719303E+02 0.  0.
          5    1    3    3  502    0 -0.23837901621E+02  0.65540002768E+02  0.21453035235E+03  0.22562021628E+03  0.41800000000E+01 0. -1.
         -5    1    3    3    0  502 -0.48986167855E+01 -0.46025151268E+02  0.45609983996E+02  0.65115697307E+02  0.41800000000E+01 0. -1.
        -11    1    4    4    0    0 -0.28233935636E+02 -0.39358031285E+01  0.35900887945E+02  0.45842332216E+02  0.00000000000E+00 0.  1.
         11    1    4    4    0    0  0.56970454042E+02 -0.15579048372E+02  0.22306182712E+03  0.23074860368E+03  0.00000000000E+00 0. -1.
</event>
<event>
 8    1  0.7075056E-009  0.2195705E+03  0.7561462E-02  0.1134204E+00
         -2   -1    0    0    0  501 -0.00000000000E+00  0.00000000000E+00  0.15215406034E+03  0.15215406034E+03  0.00000000000E+00 0.  1.
          2   -1    0    0  501    0  0.00000000000E+00 -0.00000000000E+00 -0.35083782501E+03  0.35083782501E+03  0.00000000000E+00 0. -1.
         25    2    1    2    0    0  0.10819202407E+03 -0.16859165271E+03 -0.65803626393E+02  0.24516593178E+03  0.12509019717E+03 0.  0.
         23    2    1    2    0    0 -0.10819202407E+03  0.16859165271E+03 -0.13288013828E+03  0.25782595357E+03  0.93211757573E+02 0.  0.
          5    1    3    3  502    0  0.50018155701E+02 -0.16397234533E+03 -0.72695718312E+02  0.18625489469E+03  0.41800000000E+01 0.  1.
         -5    1    3    3    0  502  0.58173868364E+02 -0.46193073734E+01  0.68920919190E+01  0.58911037099E+02  0.41800000000E+01 0.  1.
        -11    1    4    4    0    0 -0.91713111120E+02  0.88736971621E+02 -0.38915191581E+02  0.13341640461E+03  0.00000000000E+00 0.  1.
         11    1    4    4    0    0 -0.16478912945E+02  0.79854681084E+02 -0.93964946699E+02  0.12440954895E+03  0.00000000000E+00 0. -1.
</event>
<event>
 8    1  0.7075056E-009  0.1375434E+03  0.7561462E-02  0.1216673E+00
         -2   -1    0    0    0  501 -0.00000000000E+00  0.00000000000E+00  0.17150889707E+02  0.17150889707E+02  0.00000000000E+00 0.  1.
          2   -1    0    0  501    0  0.00000000000E+00 -0.00000000000E+00 -0.12914414061E+04  0.12914414061E+04  0.00000000000E+00 0. -1.
         25    2    1    2    0    0  0.51498352549E+01 -0.99801143414E+02 -0.76426873022E+03  0.78085837918E+03  0.12508528018E+03 0.  0.
         23    2    1    2    0    0 -0.51498352549E+01  0.99801143414E+02 -0.51002178615E+03  0.52773391660E+03  0.91619186599E+02 0.  0.
          5    1    3    3  502    0 -0.17000573576E+02  0.20050851483E+02 -0.54091209659E+02  0.60285881510E+02  0.41800000000E+01 0. -1.
         -5    1    3    3    0  502  0.22150408830E+02 -0.11985199490E+03 -0.71017752056E+03  0.72057249767E+03  0.41800000000E+01 0. -1.
        -11    1    4    4    0    0  0.27060583156E+02  0.88234805807E+02 -0.44263704062E+03  0.45215617418E+03  0.00000000000E+00 0. -1.
         11    1    4    4    0    0 -0.32210418411E+02  0.11566337607E+02 -0.67384745529E+02  0.75577742424E+02  0.00000000000E+00 0.  1.
</event>
<event>
 8    1  0.7075056E-009  0.1822116E+03  0.7561462E-02  0.1165680E+00
          1   -1    0    0  501    0  0.00000000000E+00  0.00000000000E+00  0.37086904477E+02  0.37086904477E+02  0.00000000000E+00 0. -1.
         -1   -1    0    0    0  501 -0.00000000000E+00 -0.00000000000E+00 -0.10162480989E+04  0.10162480989E+04  0.00000000000E+00 0.  1.
         25    2    1    2    0    0  0.14976939287E+03 -0.50481178056E+02 -0.43570044131E+03  0.48006499932E+03  0.12509319981E+03 0.  0.
         23    2    1    2    0    0 -0.14976939287E+03  0.50481178056E+02 -0.54346075314E+03  0.57327000408E+03  0.91157484591E+02 0.  0.
          5    1    3    3  502    0  0.60291865357E+02  0.39055757059E+02 -0.19900777949E+03  0.21161765022E+03  0.41800000000E+01 0.  1.
         -5    1    3    3    0  502  0.89477527513E+02 -0.89536935115E+02 -0.23669266182E+03  0.26844734910E+03  0.41800000000E+01 0.  1.
        -11    1    4    4    0    0 -0.62939522212E+02 -0.44015853971E+01 -0.33482905622E+03  0.34072166691E+03  0.00000000000E+00 0.  1.
         11    1    4    4    0    0 -0.86829870659E+02  0.54882763453E+02 -0.20863169691E+03  0.23254833717E+03  0.00000000000E+00 0. -1.
</event>
<event>
 8    1  0.7075056E-009  0.1182090E+03  0.7561462E-02  0.1246081E+00
         -3   -1    0    0    0  501 -0.00000000000E+00  0.00000000000E+00  0.27595985260E+03  0.27595985260E+03  0.00000000000E+00 0.  1.
          3   -1    0    0  501    0  0.00000000000E+00 -0.00000000000E+00 -0.90313181487E+02  0.90313181487E+02  0.00000000000E+00 0. -1.
         25    2    1    2    0    0 -0.36550697927E+02 -0.55425681713E+02 -0.73213807890E+01  0.14180912463E+03  0.12509302738E+03 0.  0.
         23    2    1    2    0    0  0.36550697927E+02  0.55425681713E+02  0.19296805191E+03  0.22446390946E+03  0.93484853762E+02 0.  0.
          5    1    3    3  502    0  0.25225771504E+02  0.23318703909E+02  0.17250450383E+02  0.38667194602E+02  0.41800000000E+01 0. -1.
         -5    1    3    3    0  502 -0.61776469431E+02 -0.78744385621E+02 -0.24571831172E+02  0.10314193003E+03  0.41800000000E+01 0. -1.
        -11    1    4    4    0    0  0.50793723556E+01  0.67677345367E+02  0.17151440987E+03  0.18445383133E+03  0.00000000000E+00 0. -1.
         11    1    4    4    0    0  0.31471325572E+02 -0.12251663655E+02  0.21453642035E+02  0.40010078132E+02  0.00000000000E+00 0.  1.
</event>
<event>
 8    1  0.7075056E-009  0.1550144E+03  0.7561462E-02  0.1194443E+00
          2   -1    0    0  501    0  0.00000000000E+00  0.00000000000E+00  0.23465939676E+03  0.23465939676E+03  0.00000000000E+00 0. -1.
         -2   -1    0    0    0  501 -0.00000000000E+00 -0.00000000000E+00 -0.12192532868E+03  0.12192532868E+03  0.00000000000E+00 0.  1.
         25    2    1    2    0    0  0.12581222462E+03  0.26512828277E+02  0.42945860295E+02  0.18445482995E+03  0.12509033316E+03 0.  0.
         23    2    1    2    0    0 -0.12581222462E+03 -0.26512828277E+02  0.69788207787E+02  0.17212989549E+03  0.90700942940E+02 0.  0.
          5    1    3    3  502    0 -0.25339277277E+02  0.86979629036E+01  0.56139695416E+01  0.27689755968E+02  0.41800000000E+01 0.  1.
         -5    1    3    3    0  502  0.15115150190E+03  0.17814865373E+02  0.37331890753E+02  0.15676507398E+03  0.41800000000E+01 0.  1.
        -11    1    4    4    0    0 -0.67919606564E+02 -0.24470554239E+01 -0.12063469782E+02  0.69025997561E+02  0.00000000000E+00 0.  1.
         11    1    4    4    0    0 -0.57892618054E+02 -0.24065772853E+02  0.81851677569E+02  0.10310389793E+03  0.00000000000E+00 0. -1.
</event>
<event>
 8    1  0.7075056E-009  0.1389867E+03  0.7561462E-02  0.1214699E+00
         -2   -1    0    0    0  501 -0.00000000000E+00  0.00000000000E+00  0.59647133364E+02  0.59647133364E+02  0.00000000000E+00 0.  1.
          2   -1    0    0  501    0  0.00000000000E+00 -0.00000000000E+00 -0.59142280274E+03  0.59142280274E+03  0.00000000000E+00 0. -1.
         25    2    1    2    0    0  0.90325770358E+02  0.49469695956E+02 -0.84416474867E+02  0.18270094612E+03  0.12508996313E+03 0.  0.
         23    2    1    2    0    0 -0.90325770358E+02 -0.49469695956E+02 -0.44735919451E+03  0.46836898998E+03  0.92915371463E+02 0.  0.
          5    1    3    3  502    0  0.58400742763E+02  0.77504653541E+02 -0.97918514181E+02  0.13792434845E+03  0.41800000000E+01 0.  1.
         -5    1    3    3    0  502  0.31925027595E+02 -0.28034957585E+02  0.13502039314E+02  0.44776597675E+02  0.41800000000E+01 0.  1.
        -11    1    4    4    0    0 -0.89614095664E+02 -0.72399535298E+02 -0.38755089530E+03  0.40431185402E+03  0.00000000000E+00 0.  1.
         11    1    4    4    0    0 -0.71167469333E+00  0.22929839342E+02 -0.59808299213E+02  0.64057135964E+02  0.00000000000E+00 0. -1.
</event>
<event>
 8    1  0.7075056E-009  0.1099977E+03  0.7561462E-02  0.1260574E+00
          2   -1    0    0  501    0  0.00000000000E+00  0.00000000000E+00  0.30459431772E+03  0.30459431772E+03  0.00000000000E+00 0. -1.
         -2   -1    0    0    0  501 -0.00000000000E+00 -0.00000000000E+00 -0.50481212349E+02  0.50481212349E+02  0.00000000000E+00 0.  1.
         25    2    1    2    0    0  0.30479922249E+02  0.46413785918E+02  0.11521144125E+03  0.17889719416E+03  0.12508902709E+03 0.  0.
         23    2    1    2    0    0 -0.30479922249E+02 -0.46413785918E+02  0.13890166412E+03  0.17617833592E+03  0.93069160128E+02 0.  0.
          5    1    3    3  502    0  0.55287061430E+01 -0.30473488504E+02 -0.72702269086E+01  0.32086269533E+02  0.41800000000E+01 0. -1.
         -5    1    3    3    0  502  0.24951216106E+02  0.76887274422E+02  0.12248166816E+03  0.14681092462E+03  0.41800000000E+01 0. -1.
        -11    1    4    4    0    0 -0.47351024738E+02  0.10447423954E+02  0.71560072241E+02  0.86441379849E+02  0.00000000000E+00 0.  1.
         11    1    4    4    0    0  0.16871102489E+02 -0.56861209871E+02  0.67341591880E+02  0.89736956067E+02  0.00000000000E+00 0. -1.
</event>
<event>
 8    1  0.7075056E-009  0.1727212E+03  0.7561462E-02  0.1175039E+00
          2   -1    0    0  501    0  0.00000000000E+00  0.00000000000E+00  0.15210285893E+04  0.15210285893E+04  0.00000000000E+00 0.  1.
         -2   -1    0    0    0  501 -0.00000000000E+00 -0.00000000000E+00 -0.20467061813E+02  0.20467061813E+02  0.00000000000E+00 0. -1.
         25    2    1    2    0    0 -0.62481272828E+02 -0.12102710944E+03  0.90004124783E+03  0.91884371961E+03  0.12509221631E+03 0.  0.
         23    2    1    2    0    0  0.62481272828E+02  0.12102710944E+03  0.60052027968E+03  0.62265193153E+03  0.92300329694E+02 0.  0.
          5    1    3    3  502    0  0.12959097245E+02 -0.10230237987E+03  0.41765547227E+03  0.43021771354E+03  0.41800000000E+01 0. -1.
         -5    1    3    3    0  502 -0.75440370073E+02 -0.18724729573E+02  0.48238577557E+03  0.48862600607E+03  0.41800000000E+01 0. -1.
        -11    1    4    4    0    0  0.68197656786E+02  0.32256055084E+02  0.28823273893E+03  0.29794208376E+03  0.00000000000E+00 0. -1.
         11    1    4    4    0    0 -0.57163839570E+01  0.88771054359E+02  0.31228754075E+03  0.32470984778E+03  0.00000000000E+00 0.  1.
</event>
<event>
 8    1  0.7075056E-009  0.1646438E+03  0.7561462E-02  0.1183551E+00
          1   -1    0    0  501    0  0.00000000000E+00  0.00000000000E+00  0.11808514383E+03  0.11808514383E+03  0.00000000000E+00 0. -1.
         -1   -1    0    0    0  501 -0.00000000000E+00 -0.00000000000E+00 -0.35790700382E+03  0.35790700382E+03  0.00000000000E+00 0.  1.
         25    2    1    2    0    0  0.54752769972E+02  0.13750018063E+03 -0.23178642754E+03  0.30211916592E+03  0.12508747712E+03 0.  0.
         23    2    1    2    0    0 -0.54752769972E+02 -0.13750018063E+03 -0.80354324450E+01  0.17387298172E+03  0.90901485724E+02 0.  0.
          5    1    3    3  502    0  0.74195588891E+02  0.14194957407E+03 -0.15594158494E+03  0.22358425102E+03  0.41800000000E+01 0.  1.
         -5    1    3    3    0  502 -0.19442818919E+02 -0.44493934423E+01 -0.75844842604E+02  0.78534914905E+02  0.41800000000E+01 0.  1.
        -11    1    4    4    0    0 -0.40439816544E+02 -0.82885902136E+02  0.39248851471E+02  0.10022935636E+03  0.00000000000E+00 0. -1.
         11    1    4    4    0    0 -0.14312953428E+02 -0.54614278493E+02 -0.47284283916E+02  0.73643625363E+02  0.00000000000E+00 0.  1.
</event>
<event>
 8    1  0.7075056E-009  0.1305251E+03  0.7561462E-02  0.1226679E+00
          2   -1    0    0  501    0  0.00000000000E+00  0.00000000000E+00  0.48342298909E+03  0.48342298909E+03  0.00000000000E+00 0.  1.
         -2   -1    0    0    0  501 -0.00000000000E+00 -0.00000000000E+00 -0.10832575323E+03  0.10832575323E+03  0.00000000000E+00 0. -1.
         25    2    1    2    0    0  0.68318108825E+02  0.42344578378E+02  0.43240001262E+03  0.45725086170E+03  0.12509257490E+03 0.  0.
         23    2    1    2    0    0 -0.68318108825E+02 -0.42344578378E+02 -0.57302776764E+02  0.13449788062E+03  0.91354498270E+02 0.  0.
          5    1    3    3  502    0 -0.84719196287E+01  0.59806292806E+02  0.27013440306E+03  0.27683683678E+03  0.41800000000E+01 0.  1.
         -5    1    3    3    0  502  0.76790028454E+02 -0.17461714428E+02  0.16226560956E+03  0.18041402492E+03  0.41800000000E+01 0.  1.
        -11    1    4    4    0    0 -0.88681290732E+02 -0.47547713465E+02 -0.48676662641E+02  0.11177912984E+03  0.00000000000E+00 0. -1.
         11    1    4    4    0    0  0.20363181907E+02  0.52031350867E+01 -0.86261141223E+01  0.22718750779E+02  0.00000000000E+00 0.  1.
</event>
<event>
 8    1  0.7075056E-009  0.1217097E+03  0.7561462E-02  0.1240303E+00
          2   -1    0    0  501    0  0.00000000000E+00  0.00000000000E+00  0.18331120670E+03  0.18331120670E+03  0.00000000000E+00 0. -1.
         -2   -1    0    0    0  501 -0.00000000000E+00 -0.00000000000E+00 -0.13613112240E+03  0.13613112240E+03  0.00000000000E+00 0.  1.
         25    2    1    2    0    0 -0.51129080398E+02  0.87565169694E+02  0.79977450855E+02  0.17979302391E+03  0.12508915619E+03 0.  0.
         23    2    1    2    0    0  0.51129080398E+02 -0.87565169694E+02 -0.32797366552E+02  0.13964930518E+03  0.90246436937E+02 0.  0.
          5    1    3    3  502    0 -0.30351500378E+02  0.10271870779E+03  0.10026264122E+03  0.14677334953E+03  0.41800000000E+01 0.  1.
         -5    1    3    3    0  502 -0.20777580019E+02 -0.15153538099E+02 -0.20285190369E+02  0.33019674388E+02  0.41800000000E+01 0.  1.
        -11    1    4    4    0    0  0.45812813551E+02 -0.35811504344E+02 -0.57746134192E+02  0.81950556696E+02  0.00000000000E+00 0.  1.
         11    1    4    4    0    0  0.53162668472E+01 -0.51753665350E+02  0.24948767639E+02  0.57698748488E+02  0.00000000000E+00 0. -1.
</event>
<event>
 8    1  0.7075056E-009  0.1709983E+03  0.7561462E-02  0.1176811E+00
         -2   -1    0    0    0  501 -0.00000000000E+00  0.00000000000E+00  0.93297848058E+02  0.93297848058E+02  0.00000000000E+00 0. -1.
          2   -1    0    0  501    0  0.00000000000E+00 -0.00000000000E+00 -0.33103597491E+03  0.33103597491E+03  0.00000000000E+00 0.  1.
         25    2    1    2    0    0 -0.13320670950E+03  0.26217333117E+02 -0.15838783578E+03  0.24324005031E+03  0.12509052538E+03 0.  0.
         23    2    1    2    0    0  0.13320670950E+03 -0.26217333117E+02 -0.79350291073E+02  0.18109377266E+03  0.89817090755E+02 0.  0.
          5    1    3    3  502    0 -0.15365247165E+03  0.91096848700E+01 -0.11515334299E+03  0.19227540977E+03  0.41800000000E+01 0. -1.
         -5    1    3    3    0  502  0.20445762150E+02  0.17107648247E+02 -0.43234492784E+02  0.50964640533E+02  0.41800000000E+01 0. -1.
        -11    1    4    4    0    0  0.79324523033E+01 -0.34581610253E+02 -0.28989215836E+02  0.45816876825E+02  0.00000000000E+00 0.  1.
         11    1    4    4    0    0  0.12527425719E+03  0.83642771363E+01 -0.50361075237E+02  0.13527689583E+03  0.00000000000E+00 0. -1.
</event>
<event>
 8    1  0.7075056E-009  0.2243838E+03  0.7561462E-02  0.1130656E+00
          1   -1    0    0  501    0  0.00000000000E+00  0.00000000000E+00  0.48755269942E+03  0.48755269942E+03  0.00000000000E+00 0. -1.
         -1   -1    0    0    0  501 -0.00000000000E+00 -0.00000000000E+00 -0.16876913376E+03  0.16876913376E+03  0.00000000000E+00 0.  1.
         25    2    1    2    0    0 -0.59669678118E+02  0.21372334349E+03  0.32942250238E+03  0.41642052374E+03  0.12509488188E+03 0.  0.
         23    2    1    2    0    0  0.59669678118E+02 -0.21372334349E+03 -0.10638936731E+02  0.23990130944E+03  0.90561102350E+02 0.  0.
          5    1    3    3  502    0 -0.36591495663E+02  0.12144960109E+03  0.81451927996E+02  0.15080063705E+03  0.41800000000E+01 0.  1.
         -5    1    3    3    0  502 -0.23078182455E+02  0.92273742401E+02  0.24797057439E+03  0.26561988669E+03  0.41800000000E+01 0.  1.
        -11    1    4    4    0    0  0.10903198916E+02 -0.12442764607E+03  0.33004813429E+02  0.12919147249E+03  0.00000000000E+00 0.  1.
         11    1    4    4    0    0  0.48766479202E+02 -0.89295697417E+02 -0.43643750160E+02  0.11070983696E+03  0.00000000000E+00 0. -1.
</event>
<event>
 8    1  0.7075056E-009  0.7562103E+02  0.7561462E-02  0.1341959E+00
          1   -1    0    0  501    0  0.00000000000E+00  0.00000000000E+00  0.62222989677E+03  0.62222989677E+03  0.00000000000E+00 0. -1.
         -1   -1    0    0    0  501 -0.00000000000E+00 -0.00000000000E+00 -0.37240775080E+02  0.37240775080E+02  0.00000000000E+00 0.  1.
         25    2    1    2    0    0 -0.48270168364E+02 -0.29240080800E+02  0.50713081551E+03  0.52537138392E+03  0.12509370697E+03 0.  0.
         23    2    1    2    0    0  0.48270168364E+02  0.29240080800E+02  0.77858306184E+02  0.13409928793E+03  0.93465029308E+02 0.  0.
          5    1    3    3  502    0 -0.57244555299E+02 -0.34832722019E+02  0.50937564215E+03  0.51378134926E+03  0.41800000000E+01 0.  1.
         -5    1    3    3    0  502  0.89743869355E+01  0.55926412197E+01 -0.22448266415E+01  0.11590034656E+02  0.41800000000E+01 0.  1.
        -11    1    4    4    0    0  0.34844241754E+02 -0.56942415681E+01 -0.11571373705E+02  0.37154303382E+02  0.00000000000E+00 0.  1.
         11    1    4    4    0    0  0.13425926610E+02  0.34934322368E+02  0.89429679889E+02  0.96944984552E+02  0.00000000000E+00 0. -1.
</event>
<event>
 8    1  0.7075056E-009  0.1341085E+03  0.7561462E-02  0.1221484E+00
          1   -1    0    0  501    0  0.00000000000E+00  0.00000000000E+00  0.78696674098E+03  0.78696674098E+03  0.00000000000E+00 0. -1.
         -1   -1    0    0    0  501 -0.00000000000E+00 -0.00000000000E+00 -0.41060775529E+02  0.41060775529E+02  0.00000000000E+00 0.  1.
         25    2    1    2    0    0 -0.12897708000E+03  0.27200652381E+02  0.52367801968E+03  0.55431145159E+03  0.12509018512E+03 0.  0.
         23    2    1    2    0    0  0.12897708000E+03 -0.27200652381E+02  0.22222794577E+03  0.27371606491E+03  0.90334166611E+02 0.  0.
          5    1    3    3  502    0 -0.99861807286E+02  0.18518274650E+02  0.16143303344E+03  0.19077055259E+03  0.41800000000E+01 0.  1.
         -5    1    3    3    0  502 -0.29115272714E+02  0.86823777311E+01  0.36224498624E+03  0.36354089900E+03  0.41800000000E+01 0.  1.
        -11    1    4    4    0    0  0.79766822490E+02 -0.19949098326E+00  0.53885913647E+02  0.96262544411E+02  0.00000000000E+00 0.  1.
         11    1    4    4    0    0  0.49210257509E+02 -0.27001161398E+02  0.16834203212E+03  0.17745352050E+03  0.00000000000E+00 0. -1.
</event>
<event>
 8    1  0.7075056E-009  0.7739460E+02  0.7561462E-02  0.1336612E+00
          1   -1    0    0  501    0  0.00000000000E+00  0.00000000000E+00  0.12343244922E+03  0.12343244922E+03  0.00000000000E+00 0. -1.
         -1   -1    0    0    0  501 -0.00000000000E+00 -0.00000000000E+00 -0.11259715298E+03  0.11259715298E+03  0.00000000000E+00 0.  1.
         25    2    1    2    0    0  0.28213145871E+01 -0.95530081859E+01  0.44545922303E+02  0.13315805835E+03  0.12509000570E+03 0.  0.
         23    2    1    2    0    0 -0.28213145871E+01  0.95530081859E+01 -0.33710626071E+02  0.10287154385E+03  0.96679514084E+02 0.  0.
          5    1    3    3  502    0 -0.14906965560E+01  0.24507976813E+02 -0.36987830044E+02  0.44591872298E+02  0.41800000000E+01 0. -1.
         -5    1    3    3    0  502  0.43120111431E+01 -0.34060984999E+02  0.81533752347E+02  0.88566186047E+02  0.41800000000E+01 0. -1.
        -11    1    4    4    0    0  0.32742509443E+01 -0.42631469055E+02 -0.25248085494E+02  0.49655097364E+02  0.00000000000E+00 0.  1.
         11    1    4    4    0    0 -0.60955655314E+01  0.52184477241E+02 -0.84625405767E+01  0.53216446491E+02  0.00000000000E+00 0. -1.
</event>
<event>
 8    1  0.7075056E-009  0.1260968E+03  0.7561462E-02  0.1233365E+00
          2   -1    0    0  501    0  0.00000000000E+00  0.00000000000E+00  0.53156845109E+02  0.53156845109E+02  0.00000000000E+00 0. -1.
         -2   -1    0    0    0  501 -0.00000000000E+00 -0.00000000000E+00 -0.39406117857E+03  0.39406117857E+03  0.00000000000E+00 0.  1.
         25    2    1    2    0    0 -0.32409719190E+00  0.96771964713E+02 -0.18105047828E+03  0.24039879625E+03  0.12508951738E+03 0.  0.
         23    2    1    2    0    0  0.32409719190E+00 -0.96771964713E+02 -0.15985385518E+03  0.20681922743E+03  0.88634189941E+02 0.  0.
          5    1    3    3  502    0 -0.58027170900E+02  0.25700306353E+02 -0.52184878182E+02  0.82270238970E+02  0.41800000000E+01 0.  1.
         -5    1    3    3    0  502  0.57703073708E+02  0.71071658360E+02 -0.12886560010E+03  0.15812855728E+03  0.41800000000E+01 0.  1.
        -11    1    4    4    0    0  0.29012191456E+01 -0.68306327665E+02 -0.16424099363E+03  0.17790243242E+03  0.00000000000E+00 0.  1.
         11    1    4    4    0    0 -0.25771219537E+01 -0.28465637048E+02  0.43871384503E+01  0.28916795015E+02  0.00000000000E+00 0. -1.
</event>
<event>
 8    1  0.7075056E-009  0.7664727E+02  0.7561462E-02  0.1338845E+00
         -4   -1    0    0    0  501 -0.00000000000E+00  0.00000000000E+00  0.12663002414E+03  0.12663002414E+03  0.00000000000E+00 0.  1.
          4   -1    0    0  501    0  0.00000000000E+00 -0.00000000000E+00 -0.10970086351E+03  0.10970086351E+03  0.00000000000E+00 0. -1.
         25    2    1    2    0    0 -0.13714312913E+02  0.90574981643E+01  0.48590193168E+02  0.13519801164E+03  0.12508946730E+03 0.  0.
         23    2    1    2    0    0  0.13714312913E+02 -0.90574981643E+01 -0.31661032537E+02  0.10113287601E+03  0.94632536572E+02 0.  0.
          5    1    3    3  502    0 -0.37544617209E+02 -0.13208513207E+02 -0.29994354773E+02  0.50011966776E+02  0.41800000000E+01 0. -1.
         -5    1    3    3    0  502  0.23830304295E+02  0.22266011371E+02  0.78584547941E+02  0.85186044868E+02  0.41800000000E+01 0. -1.
        -11    1    4    4    0    0  0.36556658813E+02  0.21372129397E+02 -0.44064308378E+02  0.61113177723E+02  0.00000000000E+00 0. -1.
         11    1    4    4    0    0 -0.22842345900E+02 -0.30429627562E+02  0.12403275841E+02  0.40019698292E+02  0.00000000000E+00 0.  1.
</event>
<event>
 8    1  0.7075056E-009  0.9198902E+02  0.7561462E-02  0.1298105E+00
         -2   -1    0    0    0  501 -0.00000000000E+00  0.00000000000E+00  0.87593172553E+02  0.87593172553E+02  0.00000000000E+00 0.  1.
          2   -1    0    0  501    0  0.00000000000E+00 -0.00000000000E+00 -0.17039922651E+03  0.17039922651E+03  0.00000000000E+00 0. -1.
         25    2    1    2    0    0 -0.45121104412E+02 -0.21837224606E+02 -0.20356572305E+02  0.13628974155E+03  0.12509086767E+03 0.  0.
         23    2    1    2    0    0  0.45121104412E+02  0.21837224606E+02 -0.62449481652E+02  0.12170265752E+03  0.91645079769E+02 0.  0.
          5    1    3    3  502    0  0.27226689268E+02 -0.13998884940E+02 -0.49036298889E+02  0.57959403006E+02  0.41800000000E+01 0. -1.
         -5    1    3    3    0  502 -0.72347793680E+02 -0.78383396660E+01  0.28679726584E+02  0.78330338542E+02  0.41800000000E+01 0. -1.
        -11    1    4    4    0    0  0.26035586193E+02 -0.20897664234E+02  0.10528566865E+02  0.35005925771E+02  0.00000000000E+00 0.  1.
         11    1    4    4    0    0  0.19085518219E+02  0.42734888840E+02 -0.72978048517E+02  0.86696731744E+02  0.00000000000E+00 0. -1.
</event>
<event>
 8    1  0.7075056E-009  0.8391510E+02  0.7561462E-02  0.1318294E+00
         -1   -1    0    0    0  501 -0.00000000000E+00  0.00000000000E+00  0.96784404087E+02  0.96784404087E+02  0.00000000000E+00 0.  1.
          1   -1    0    0  501    0  0.00000000000E+00 -0.00000000000E+00 -0.16592249044E+03  0.16592249044E+03  0.00000000000E+00 0. -1.
         25    2    1    2    0    0  0.64628628871E+02  0.17076621391E+01 -0.52912665253E+02  0.15042352247E+03  0.12509080777E+03 0.  0.
         23    2    1    2    0    0 -0.64628628871E+02 -0.17076621391E+01 -0.16225421101E+02  0.11228337205E+03  0.90357708970E+02 0.  0.
          5    1    3    3  502    0  0.64157786487E+01 -0.26710025449E+02  0.32746696298E+02  0.42946550427E+02  0.41800000000E+01 0.  1.
         -5    1    3    3    0  502  0.58212850222E+02  0.28417687588E+02 -0.85659361551E+02  0.10747697205E+03  0.41800000000E+01 0.  1.
        -11    1    4    4    0    0 -0.34956745492E+01 -0.12563975940E+02  0.31420560349E+02  0.34019477430E+02  0.00000000000E+00 0.  1.
         11    1    4    4    0    0 -0.61132954322E+02  0.10856313800E+02 -0.47645981450E+02  0.78263894624E+02  0.00000000000E+00 0. -1.
</event>
<event>
 8    1  0.7075056E-009  0.2300689E+03  0.7561462E-02  0.1126591E+00
         -2   -1    0    0    0  501 -0.00000000000E+00  0.00000000000E+00  0.18925597883E+03  0.18925597883E+03  0.00000000000E+00 0.  1.
          2   -1    0    0  501    0  0.00000000000E+00 -0.00000000000E+00 -0.41630356599E+03  0.41630356599E+03  0.00000000000E+00 0. -1.
         25    2    1    2    0    0 -0.15553145641E+02  0.21475792584E+03 -0.27026051878E+03  0.36749291624E+03  0.12508968152E+03 0.  0.
         23    2    1    2    0    0  0.15553145641E+02 -0.21475792584E+03  0.43212931627E+02  0.23806662858E+03  0.91899375048E+02 0.  0.
          5    1    3    3  502    0  0.48933600399E+02  0.10414803281E+03 -0.16752820668E+03  0.20328424046E+03  0.41800000000E+01 0.  1.
         -5    1    3    3    0  502 -0.64486746040E+02  0.11060989303E+03 -0.10273231210E+03  0.16420867578E+03  0.41800000000E+01 0.  1.
        -11    1    4    4    0    0  0.15385344196E+02 -0.54517061345E+02  0.52936094366E+02  0.77530954337E+02  0.00000000000E+00 0.  1.
         11    1    4    4    0    0  0.16780144502E+00 -0.16024086450E+03 -0.97231627393E+01  0.16053567425E+03  0.00000000000E+00 0. -1.
</event>
<event>
 8    1  0.7075056E-009  0.1134779E+03  0.7561462E-02  0.1254262E+00
         -1   -1    0    0    0  501 -0.00000000000E+00  0.00000000000E+00  0.27163606470E+03  0.27163606470E+03  0.00000000000E+00 0.  1.
          1   -1    0    0  501    0  0.00000000000E+00 -0.00000000000E+00 -0.76841872407E+02  0.76841872407E+02  0.00000000000E+00 0. -1.
         25    2    1    2    0    0 -0.50668002997E+02 -0.41287545052E+02  0.20782010932E+02  0.14265126337E+03  0.12508230514E+03 0.  0.
         23    2    1    2    0    0  0.50668002997E+02  0.41287545052E+02  0.17401218136E+03  0.20582667374E+03  0.88388191829E+02 0.  0.
          5    1    3    3  502    0 -0.33397080374E+01  0.31436590731E+02 -0.28507042480E+02  0.42773084498E+02  0.41800000000E+01 0.  1.
         -5    1    3    3    0  502 -0.47328294959E+02 -0.72724135782E+02  0.49289053412E+02  0.99878178874E+02  0.41800000000E+01 0.  1.
        -11    1    4    4    0    0  0.24019283222E+02  0.66995054174E+02  0.96313105228E+02  0.11975590795E+03  0.00000000000E+00 0. -1.
         11    1    4    4    0    0  0.26648719774E+02 -0.25707509122E+02  0.77699076136E+02  0.86070765788E+02  0.00000000000E+00 0.  1.
</event>
<event>
 8    1  0.7075056E-009  0.1103937E+03  0.7561462E-02  0.1259843E+00
         -1   -1    0    0    0  501 -0.00000000000E+00  0.00000000000E+00  0.78375656806E+02  0.78375656806E+02  0.00000000000E+00 0.  1.
          1   -1    0    0  501    0  0.00000000000E+00 -0.00000000000E+00 -0.16021416800E+03  0.16021416800E+03  0.00000000000E+00 0. -1.
         25    2    1    2    0    0  0.26087449936E+02 -0.10766829448E+02 -0.55999839036E+02  0.13993010473E+03  0.12509185656E+03 0.  0.
         23    2    1    2    0    0 -0.26087449936E+02  0.10766829448E+02 -0.25838672155E+02  0.98659720076E+02  0.90937471519E+02 0.  0.
          5    1    3    3  502    0  0.33465463522E+02  0.53171688849E+02 -0.35333071174E+02  0.72201551662E+02  0.41800000000E+01 0.  1.
         -5    1    3    3    0  502 -0.73780135858E+01 -0.63938518297E+02 -0.20666767863E+02  0.67728553066E+02  0.41800000000E+01 0.  1.
        -11    1    4    4    0    0 -0.55877665928E+02  0.23890764347E+02 -0.73255076749E+01  0.61210662742E+02  0.00000000000E+00 0.  1.
         11    1    4    4    0    0  0.29790215992E+02 -0.13123934899E+02 -0.18513164480E+02  0.37449057333E+02  0.00000000000E+00 0. -1.
</event>
<event>
 8    1  0.7075056E-009  0.1074461E+03  0.7561462E-02  0.1265374E+00
          2   -1    0    0  501    0  0.00000000000E+00  0.00000000000E+00  0.47661169628E+03  0.47661169628E+03  0.00000000000E+00 0. -1.
         -2   -1    0    0    0  501 -0.00000000000E+00 -0.00000000000E+00 -0.42823570524E+02  0.42823570524E+02  0.00000000000E+00 0.  1.
         25    2    1    2    0    0 -0.69121130918E+02  0.56638124039E+02  0.27609951916E+03  0.31601252572E+03  0.12508942440E+03 0.  0.
         23    2    1    2    0    0  0.69121130918E+02 -0.56638124039E+02  0.15768860660E+03  0.20342274109E+03  0.92355330687E+02 0.  0.
          5    1    3    3  502    0 -0.43871917280E+02  0.36996369511E+02  0.27780945447E+03  0.28370590737E+03  0.41800000000E+01 0. -1.
         -5    1    3    3    0  502 -0.25249213638E+02  0.19641754528E+02 -0.17099353127E+01  0.32306618348E+02  0.41800000000E+01 0. -1.
        -11    1    4    4    0    0  0.56948116035E+02 -0.80321483234E+02  0.10241107978E+03  0.14206568147E+03  0.00000000000E+00 0.  1.
         11    1    4    4    0    0  0.12173014883E+02  0.23683359195E+02  0.55277526816E+02  0.61357059618E+02  0.00000000000E+00 0. -1.
</event>
<event>
 8    1  0.7075056E-009  0.1155800E+03  0.7561462E-02  0.1250572E+00
          1   -1    0    0  501    0  0.00000000000E+00  0.00000000000E+00  0.36241937708E+03  0.36241937708E+03  0.00000000000E+00 0. -1.
         -1   -1    0    0    0  501 -0.00000000000E+00 -0.00000000000E+00 -0.65457659101E+02  0.65457659101E+02  0.00000000000E+00 0.  1.
         25    2    1    2    0    0  0.13938325011E+01 -0.69042217831E+02  0.28518060331E+03  0.31897507462E+03  0.12509336958E+03 0.  0.
         23    2    1    2    0    0 -0.13938325011E+01  0.69042217831E+02  0.11781114669E+02  0.10890196156E+03  0.83379085849E+02 0.  0.
          5    1    3    3  502    0 -0.55463983200E+02 -0.39563033339E+01  0.97735430275E+02  0.11252374194E+03  0.41800000000E+01 0.  1.
         -5    1    3    3    0  502  0.56857815701E+02 -0.65085914497E+02  0.18744517303E+03  0.20645133268E+03  0.41800000000E+01 0.  1.
        -11    1    4    4    0    0  0.22413342433E+02  0.87662866340E+01 -0.24738243955E+02  0.34513568554E+02  0.00000000000E+00 0.  1.
         11    1    4    4    0    0 -0.23807174934E+02  0.60275931197E+02  0.36519358624E+02  0.74388393008E+02  0.00000000000E+00 0. -1.
</event>
<event>
 8    1  0.7075056E-009  0.1383707E+03  0.7561462E-02  0.1215538E+00
         -1   -1    0    0    0  501 -0.00000000000E+00  0.00000000000E+00  0.44887015473E+02  0.44887015473E+02  0.00000000000E+00 0.  1.
          1   -1    0    0  501    0  0.00000000000E+00 -0.00000000000E+00 -0.50087985051E+03  0.50087985051E+03  0.00000000000E+00 0. -1.
         25    2    1    2    0    0 -0.37127939962E+02 -0.91593033388E+02 -0.29631196312E+03  0.33647537993E+03  0.12508850516E+03 0.  0.
         23    2    1    2    0    0  0.37127939962E+02  0.91593033388E+02 -0.15968087192E+03  0.20929148605E+03  0.92396848354E+02 0.  0.
          5    1    3    3  502    0 -0.66687538147E+02 -0.91100086249E+02 -0.15360763155E+03  0.19068096478E+03  0.41800000000E+01 0.  1.
         -5    1    3    3    0  502  0.29559598185E+02 -0.49294713882E+00 -0.14270433156E+03  0.14579441515E+03  0.41800000000E+01 0.  1.
        -11    1    4    4    0    0  0.31173333421E+02 -0.95381245739E+01 -0.26824945432E+02  0.42217653113E+02  0.00000000000E+00 0.  1.
         11    1    4    4    0    0  0.59546065408E+01  0.10113115796E+03 -0.13285592649E+03  0.16707383294E+03  0.00000000000E+00 0. -1.
</event>
<event>
 8    1  0.7075056E-009  0.1059661E+03  0.7561462E-02  0.1268228E+00
         -1   -1    0    0    0  501 -0.00000000000E+00  0.00000000000E+00  0.24912579945E+02  0.24912579945E+02  0.00000000000E+00 0.  1.
          1   -1    0    0  501    0  0.00000000000E+00 -0.00000000000E+00 -0.68562367328E+03  0.68562367328E+03  0.00000000000E+00 0. -1.
         25    2    1    2    0    0 -0.77265924369E+01 -0.34896343489E+02 -0.18962161882E+03  0.22995954759E+03  0.12509028813E+03 0.  0.
         23    2    1    2    0    0  0.77265924369E+01  0.34896343489E+02 -0.47108947451E+03  0.48057670563E+03  0.88041024407E+02 0.  0.
          5    1    3    3  502    0 -0.28047822496E+01  0.41070668784E+02 -0.11917847537E+03  0.12615723534E+03  0.41800000000E+01 0.  1.
         -5    1    3    3    0  502 -0.49218101874E+01 -0.75967012273E+02 -0.70443143454E+02  0.10380231225E+03  0.41800000000E+01 0.  1.
        -11    1    4    4    0    0 -0.25873434682E+02  0.50898445785E+02 -0.25586798946E+03  0.26216123747E+03  0.00000000000E+00 0. -1.
         11    1    4    4    0    0  0.33600027119E+02 -0.16002102296E+02 -0.21522148506E+03  0.21841546816E+03  0.00000000000E+00 0.  1.
</event>
<event>
 8    1  0.7075056E-009  0.9878483E+02  0.7561462E-02  0.1282872E+00
         -2   -1    0    0    0  501 -0.00000000000E+00  0.00000000000E+00  0.33383631914E+02  0.33383631914E+02  0.00000000000E+00 0. -1.
          2   -1    0    0  501    0  0.00000000000E+00 -0.00000000000E+00 -0.39606056161E+03  0.39606056161E+03  0.00000000000E+00 0.  1.
         25    2    1    2    0    0  0.30493044157E+02 -0.27511949313E+02 -0.26722575225E+03  0.29789910354E+03  0.12509012802E+03 0.  0.
         23    2    1    2    0    0 -0.30493044157E+02  0.27511949313E+02 -0.95451177440E+02  0.13154508998E+03  0.80662570785E+02 0.  0.
          5    1    3    3  502    0  0.44113455277E+02 -0.63575341101E+02 -0.23510523831E+03  0.24754750335E+03  0.41800000000E+01 0.  1.
         -5    1    3    3    0  502 -0.13620411121E+02  0.36063391788E+02 -0.32120513942E+02  0.50351600196E+02  0.41800000000E+01 0.  1.
        -11    1    4    4    0    0 -0.85981056556E+01  0.49517057767E+02 -0.28569811171E+02  0.57810903307E+02  0.00000000000E+00 0. -1.
         11    1    4    4    0    0 -0.21894938501E+02 -0.22005108455E+02 -0.66881366268E+02  0.73734186671E+02  0.00000000000E+00 0.  1.
</event>
<event>
 8    1  0.7075056E-009  0.1050843E+03  0.7561462E-02  0.1269954E+00
         -1   -1    0    0    0  501 -0.00000000000E+00  0.00000000000E+00  0.84527199483E+02  0.84527199483E+02  0.00000000000E+00 0.  1.
          1   -1    0    0  501    0  0.00000000000E+00 -0.00000000000E+00 -0.18282418950E+03  0.18282418950E+03  0.00000000000E+00 0. -1.
         25    2    1    2    0    0 -0.44375433532E+02  0.39074109969E+02 -0.47415865300E+02  0.14625979014E+03  0.12509075409E+03 0.  0.
         23    2    1    2    0    0  0.44375433532E+02 -0.39074109969E+02 -0.50881124716E+02  0.12109159884E+03  0.92619227416E+02 0.  0.
          5    1    3    3  502    0 -0.69810625633E+02  0.48200200481E+02  0.71384187072E+01  0.85236214130E+02  0.41800000000E+01 0.  1.
         -5    1    3    3    0  502  0.25435192101E+02 -0.91260905115E+01 -0.54554284008E+02  0.61023576008E+02  0.41800000000E+01 0.  1.
        -11    1    4    4    0    0 -0.22686209190E+02 -0.10223965486E+02 -0.40245379374E+02  0.47316848148E+02  0.00000000000E+00 0. -1.
         11    1    4    4    0    0  0.67061642722E+02 -0.28850144484E+02 -0.10635745342E+02  0.73774750696E+02  0.00000000000E+00 0.  1.
</event>
<event>
 8    1  0.7075056E-009  0.1027315E+03  0.7561462E-02  0.1274655E+00
          2   -1    0    0  501    0  0.00000000000E+00  0.00000000000E+00  0.66446226485E+03  0.66446226485E+03  0.00000000000E+00 0. -1.
         -2   -1    0    0    0  501 -0.00000000000E+00 -0.00000000000E+00 -0.21589229854E+02  0.21589229854E+02  0.00000000000E+00 0.  1.
         25    2    1    2    0    0  0.45508837147E+02 -0.43396193916E+01  0.28980495521E+03  0.31894244111E+03  0.12508989616E+03 0.  0.
         23    2    1    2    0    0 -0.45508837147E+02  0.43396193916E+01  0.35306807978E+03  0.36710905359E+03  0.89566186214E+02 0.  0.
          5    1    3    3  502    0  0.70588873112E+02  0.16968032151E+02  0.27146560967E+03  0.28103692419E+03  0.41800000000E+01 0. -1.
         -5    1    3    3    0  502 -0.25080035966E+02 -0.21307651542E+02  0.18339345539E+02  0.37905516921E+02  0.41800000000E+01 0. -1.
        -11    1    4    4    0    0 -0.26010397241E+02 -0.41939561471E+02  0.20070201777E+03  0.20668035107E+03  0.00000000000E+00 0.  1.
         11    1    4    4    0    0 -0.19498439906E+02  0.46279180862E+02  0.15236606201E+03  0.16042870253E+03  0.00000000000E+00 0. -1.
</event>
<event>
 8    1  0.7075056E-009  0.1020969E+03  0.7561462E-02  0.1275947E+00
         -2   -1    0    0    0  501 -0.00000000000E+00  0.00000000000E+00  0.65376530840E+03  0.65376530840E+03  0.00000000000E+00 0. -1.
          2   -1    0    0  501    0  0.00000000000E+00 -0.00000000000E+00 -0.33934315301E+02  0.33934315301E+02  0.00000000000E+00 0.  1.
         25    2    1    2    0    0 -0.24213356775E+02  0.68864632694E+02  0.17116094345E+03  0.22421470592E+03  0.12509013353E+03 0.  0.
         23    2    1    2    0    0  0.24213356775E+02 -0.68864632694E+02  0.44867004965E+03  0.46348491778E+03  0.90470057352E+02 0.  0.
          5    1    3    3  502    0 -0.33865153004E+02  0.69495552468E+02  0.18858159408E+03  0.20385526834E+03  0.41800000000E+01 0. -1.
         -5    1    3    3    0  502  0.96517962288E+01 -0.63091977419E+00 -0.17420650634E+02  0.20359437584E+02  0.41800000000E+01 0. -1.
        -11    1    4    4    0    0  0.54547989371E+02 -0.18796801818E+02  0.21948598936E+03  0.22694250908E+03  0.00000000000E+00 0. -1.
         11    1    4    4    0    0 -0.30334632595E+02 -0.50067830876E+02  0.22918406029E+03  0.23654240870E+03  0.00000000000E+00 0.  1.
</event>
<event>
 8    1  0.7075056E-009  0.5131887E+02  0.7561462E-02  0.1438355E+00
          1   -1    0    0  501    0  0.00000000000E+00  0.00000000000E+00  0.17064092907E+03  0.17064092907E+03  0.00000000000E+00 0. -1.
         -1   -1    0    0    0  501 -0.00000000000E+00 -0.00000000000E+00 -0.69535037684E+02  0.69535037684E+02  0.00000000000E+00 0.  1.
         25    2    1    2    0    0  0.72187239793E+01  0.11173517846E+02  0.38065589183E+02  0.13142840440E+03  0.12508988339E+03 0.  0.
         23    2    1    2    0    0 -0.72187239793E+01 -0.11173517846E+02  0.63040302204E+02  0.10874756235E+03  0.87607049592E+02 0.  0.
          5    1    3    3  502    0 -0.11452312660E+02  0.29963995866E+01  0.81926235643E+02  0.82882533518E+02  0.41800000000E+01 0.  1.
         -5    1    3    3    0  502  0.18671036640E+02  0.81771182591E+01 -0.43860646460E+02  0.48545870886E+02  0.41800000000E+01 0.  1.
        -11    1    4    4    0    0 -0.50846327486E+01  0.28800211263E+02 -0.51307209055E+01  0.29692254141E+02  0.00000000000E+00 0.  1.
         11    1    4    4    0    0 -0.21340912308E+01 -0.39973729109E+02  0.68171023110E+02  0.79055308209E+02  0.00000000000E+00 0. -1.
</event>
<event>
 8    1  0.7075056E-009  0.1026388E+03  0.7561462E-02  0.1274843E+00
          4   -1    0    0  501    0  0.00000000000E+00  0.00000000000E+00  0.32770653518E+03  0.32770653518E+03  0.00000000000E+00 0. -1.
         -4   -1    0    0    0  501 -0.00000000000E+00 -0.00000000000E+00 -0.62389812289E+02  0.62389812289E+02  0.00000000000E+00 0.  1.
         25    2    1    2    0    0 -0.17352855279E+02 -0.19801920772E+02  0.26399763734E+03  0.29331734964E+03  0.12508827853E+03 0.  0.
         23    2    1    2    0    0  0.17352855279E+02  0.19801920772E+02  0.13190855503E+01  0.96778997827E+02  0.93119261064E+02 0.  0.
          5    1    3    3  502    0 -0.57952994794E+02 -0.38655702386E+02  0.91611351033E+02  0.11516477313E+03  0.41800000000E+01 0.  1.
         -5    1    3    3    0  502  0.40600139515E+02  0.18853781614E+02  0.17238628630E+03  0.17815257651E+03  0.41800000000E+01 0.  1.
        -11    1    4    4    0    0  0.38596808812E+02 -0.21430866285E+02 -0.16443750492E+02  0.47110429955E+02  0.00000000000E+00 0.  1.
         11    1    4    4    0    0 -0.21243953533E+02  0.41232787057E+02  0.17762836043E+02  0.49668567873E+02  0.00000000000E+00 0. -1.
</event>
<event>
 8    1  0.7075056E-009  0.1752563E+03  0.7561462E-02  0.1172475E+00
         -4   -1    0    0    0  501 -0.00000000000E+00  0.00000000000E+00  0.10021573244E+04  0.10021573244E+04  0.00000000000E+00 0. -1.
          4   -1    0    0  501    0  0.00000000000E+00 -0.00000000000E+00 -0.11833624918E+03  0.11833624918E+03  0.00000000000E+00 0.  1.
         25    2    1    2    0    0  0.65279927819E+02  0.13687906345E+03  0.91891150676E+03  0.93970337009E+03  0.12508684792E+03 0.  0.
         23    2    1    2    0    0 -0.65279927819E+02 -0.13687906345E+03 -0.35090431500E+02  0.18079020352E+03  0.91958753351E+02 0.  0.
          5    1    3    3  502    0  0.79898237090E+02  0.15142161627E+03  0.73999215483E+03  0.75955124631E+03  0.41800000000E+01 0. -1.
         -5    1    3    3    0  502 -0.14618309271E+02 -0.14542552815E+02  0.17891935193E+03  0.18015212378E+03  0.41800000000E+01 0. -1.
        -11    1    4    4    0    0 -0.21370752274E+02 -0.93300720550E+01  0.24051335215E+02  0.33499642132E+02  0.00000000000E+00 0. -1.
         11    1    4    4    0    0 -0.43909175545E+02 -0.12754899140E+03 -0.59141766715E+02  0.14729056139E+03  0.00000000000E+00 0.  1.
</event>
<event>
 8    1  0.7075056E-009  0.1106461E+03  0.7561462E-02  0.1259378E+00
         -2   -1    0    0    0  501 -0.00000000000E+00  0.00000000000E+00  0.54220279259E+02  0.54220279259E+02  0.00000000000E+00 0.  1.
          2   -1    0    0  501    0  0.00000000000E+00 -0.00000000000E+00 -0.30628738379E+03  0.30628738379E+03  0.00000000000E+00 0. -1.
         25    2    1    2    0    0 -0.14305215137E+02  0.25776688328E+02 -0.52348482464E+02  0.13877283499E+03  0.12509380190E+03 0.  0.
         23    2    1    2    0    0  0.14305215137E+02 -0.25776688328E+02 -0.19971862207E+03  0.22173482805E+03  0.91704575300E+02 0.  0.
          5    1    3    3  502    0 -0.64669672057E+02 -0.10470567369E+02 -0.19732488488E+02  0.68546646650E+02  0.41800000000E+01 0.  1.
         -5    1    3    3    0  502  0.50364456920E+02  0.36247255697E+02 -0.32615993975E+02  0.70226188345E+02  0.41800000000E+01 0.  1.
        -11    1    4    4    0    0 -0.33357218040E+02  0.88861366109E+01 -0.49311830323E+02  0.60194053104E+02  0.00000000000E+00 0.  1.
         11    1    4    4    0    0  0.47662433177E+02 -0.34662824939E+02 -0.15040679174E+03  0.16154077495E+03  0.00000000000E+00 0. -1.
</event>
<event>
 8    1  0.7075056E-009  0.1181227E+03  0.7561462E-02  0.1246226E+00
          1   -1    0    0  501    0  0.00000000000E+00  0.00000000000E+00  0.86182288693E+03  0.86182288693E+03  0.00000000000E+00 0. -1.
         -1   -1    0    0    0  501 -0.00000000000E+00 -0.00000000000E+00 -0.21169705823E+02  0.21169705823E+02  0.00000000000E+00 0.  1.
         25    2    1    2    0    0  0.63693238146E+02  0.31138312703E+02  0.60966789540E+03  0.62639348361E+03  0.12508968991E+03 0.  0.
         23    2    1    2    0    0 -0.63693238146E+02 -0.31138312703E+02  0.23098528571E+03  0.25659910915E+03  0.86385632475E+02 0.  0.
          5    1    3    3  502    0  0.85185072458E+02  0.61711184489E+02  0.41638792955E+03  0.42948940282E+03  0.41800000000E+01 0.  1.
         -5    1    3    3    0  502 -0.21491834312E+02 -0.30572871786E+02  0.19327996585E+03  0.19690408079E+03  0.41800000000E+01 0.  1.
        -11    1    4    4    0    0 -0.32071376400E+02  0.16595920826E+02  0.28005556212E+02  0.45698019115E+02  0.00000000000E+00 0.  1.
         11    1    4    4    0    0 -0.31621861746E+02 -0.47734233530E+02  0.20297972949E+03  0.21090109003E+03  0.00000000000E+00 0. -1.
</event>
<event>
 8    1  0.7075056E-009  0.1198195E+03  0.7561462E-02  0.1243395E+00
         -3   -1    0    0    0  501 -0.00000000000E+00  0.00000000000E+00  0.72401316749E+02  0.72401316749E+02  0.00000000000E+00 0.  1.
          3   -1    0    0  501    0  0.00000000000E+00 -0.00000000000E+00 -0.24750621038E+03  0.24750621038E+03  0.00000000000E+00 0. -1.
         25    2    1    2    0    0  0.15062810918E+02 -0.71904599791E+02 -0.13473832300E+03  0.19798655463E+03  0.12508837030E+03 0.  0.
         23    2    1    2    0    0 -0.15062810918E+02  0.71904599791E+02 -0.40366570635E+02  0.12192097250E+03  0.88533065955E+02 0.  0.
          5    1    3    3  502    0  0.32119137307E+02 -0.10262836175E+03 -0.11485201638E+03  0.15739338513E+03  0.41800000000E+01 0.  1.
         -5    1    3    3    0  502 -0.17056326389E+02  0.30723761957E+02 -0.19886306612E+02  0.40593169491E+02  0.41800000000E+01 0.  1.
        -11    1    4    4    0    0 -0.38824070967E+02  0.55606158854E+02  0.51901865999E+01  0.68016846633E+02  0.00000000000E+00 0.  1.
         11    1    4    4    0    0  0.23761260048E+02  0.16298440937E+02 -0.45556757235E+02  0.53904125870E+02  0.00000000000E+00 0. -1.
</event>
<event>
 8    1  0.7075056E-009  0.6940514E+02  0.7561462E-02  0.1362128E+00
          1   -1    0    0  501    0  0.00000000000E+00  0.00000000000E+00  0.48401870357E+03  0.48401870357E+03  0.00000000000E+00 0. -1.
         -1   -1    0    0    0  501 -0.00000000000E+00 -0.00000000000E+00 -0.28424105860E+02  0.28424105860E+02  0.00000000000E+00 0.  1.
         25    2    1    2    0    0 -0.39659643025E+01 -0.38481983113E+02  0.30503481099E+03  0.33195012103E+03  0.12509218617E+03 0.  0.
         23    2    1    2    0    0  0.39659643025E+01  0.38481983113E+02  0.15055978672E+03  0.18049268839E+03  0.91721149635E+02 0.  0.
          5    1    3    3  502    0  0.80153611619E+01 -0.46173063751E+02  0.28481001130E+02  0.54998524126E+02  0.41800000000E+01 0. -1.
         -5    1    3    3    0  502 -0.11981325464E+02  0.76910806379E+01  0.27655380986E+03  0.27695159691E+03  0.41800000000E+01 0. -1.
        -11    1    4    4    0    0  0.26374021320E+02 -0.60600600386E+01  0.11771608344E+03  0.12078654572E+03  0.00000000000E+00 0. -1.
         11    1    4    4    0    0 -0.22408057018E+02  0.44542043151E+02  0.32843703280E+02  0.59706142670E+02  0.00000000000E+00 0.  1.
</event>
<event>
 8    1  0.7075056E-009  0.9994117E+02  0.7561462E-02  0.1280420E+00
          4   -1    0    0  501    0  0.00000000000E+00  0.00000000000E+00  0.23050789352E+03  0.23050789352E+03  0.00000000000E+00 0. -1.
         -4   -1    0    0    0  501 -0.00000000000E+00 -0.00000000000E+00 -0.87504262901E+02  0.87504262901E+02  0.00000000000E+00 0.  1.
         25    2    1    2    0    0 -0.42342834042E+02  0.16941538090E+02  0.16633949188E+03  0.21306499620E+03  0.12509170531E+03 0.  0.
         23    2    1    2    0    0  0.42342834042E+02 -0.16941538090E+02 -0.23335861262E+02  0.10494716023E+03  0.91593737292E+02 0.  0.
          5    1    3    3  502    0  0.42300679764E+02 -0.27658729166E+01  0.79175615932E+02  0.89906885830E+02  0.41800000000E+01 0. -1.
         -5    1    3    3    0  502 -0.84643513807E+02  0.19707411006E+02  0.87163875950E+02  0.12315811037E+03  0.41800000000E+01 0. -1.
        -11    1    4    4    0    0  0.52994336752E+02 -0.23280829590E+02 -0.49392744149E+02  0.76092311890E+02  0.00000000000E+00 0.  1.
         11    1    4    4    0    0 -0.10651502710E+02  0.63392915001E+01  0.26056882887E+02  0.28854848336E+02  0.00000000000E+00 0. -1.
</event>
<event>
 8    1  0.7075056E-009  0.1199758E+03  0.7561462E-02  0.1243137E+00
         -2   -1    0    0    0  501 -0.00000000000E+00  0.00000000000E+00  0.71241875102E+02  0.71241875102E+02  0.00000000000E+00 0.  1.
          2   -1    0    0  501    0  0.00000000000E+00 -0.00000000000E+00 -0.25146772464E+03  0.25146772464E+03  0.00000000000E+00 0. -1.
         25    2    1    2    0    0 -0.41073670556E+02 -0.68442460776E+02 -0.82852465766E+02  0.16995346532E+03  0.12509289524E+03 0.  0.
         23    2    1    2    0    0  0.41073670556E+02  0.68442460776E+02 -0.97373383771E+02  0.15275613442E+03  0.86495340260E+02 0.  0.
          5    1    3    3  502    0 -0.75484725609E+01 -0.99228246864E+02 -0.40112554176E+02  0.10737650495E+03  0.41800000000E+01 0. -1.
         -5    1    3    3    0  502 -0.33525197995E+02  0.30785786087E+02 -0.42739911590E+02  0.62576960364E+02  0.41800000000E+01 0. -1.
        -11    1    4    4    0    0 -0.74697305412E+01  0.34768347353E+02  0.36263012169E+01  0.35746117447E+02  0.00000000000E+00 0.  1.
         11    1    4    4    0    0  0.48543401097E+02  0.33674113423E+02 -0.10099968499E+03  0.11701001698E+03  0.00000000000E+00 0. -1.
</event>
<event>
 8    1  0.7075056E-009  0.1370737E+03  0.7561462E-02  0.1217322E+00
          2   -1    0    0  501    0  0.00000000000E+00  0.00000000000E+00  0.83795731308E+02  0.83795731308E+02  0.00000000000E+00 0. -1.
         -2   -1    0    0    0  501 -0.00000000000E+00 -0.00000000000E+00 -0.30087168015E+03  0.30087168015E+03  0.00000000000E+00 0.  1.
         25    2    1    2    0    0  0.48967074531E+02  0.80797997741E+02 -0.35730598961E+02  0.16078083452E+03  0.12509080790E+03 0.  0.
         23    2    1    2    0    0 -0.48967074531E+02 -0.80797997741E+02 -0.18134534988E+03  0.22388657693E+03  0.91175504281E+02 0.  0.
          5    1    3    3  502    0  0.23140302117E+02 -0.29983985048E+02  0.78300427312E+01  0.38901091380E+02  0.41800000000E+01 0.  1.
         -5    1    3    3    0  502  0.25826772414E+02  0.11078198279E+03 -0.43560641692E+02  0.12187974314E+03  0.41800000000E+01 0.  1.
        -11    1    4    4    0    0 -0.52901143390E+02 -0.13229700296E+02 -0.12292825008E+03  0.13448014950E+03  0.00000000000E+00 0. -1.
         11    1    4    4    0    0  0.39340688589E+01 -0.67568297446E+02 -0.58417099801E+02  0.89406427435E+02  0.00000000000E+00 0.  1.
</event>
<event>
 8    1  0.7075056E-009  0.6463239E+02  0.7561462E-02  0.1379360E+00
         -2   -1    0    0    0  501 -0.00000000000E+00  0.00000000000E+00  0.53885432616E+02  0.53885432616E+02  0.00000000000E+00 0.  1.
          2   -1    0    0  501    0  0.00000000000E+00 -0.00000000000E+00 -0.25117755427E+03  0.25117755427E+03  0.00000000000E+00 0. -1.
         25    2    1    2    0    0  0.38406134076E+02 -0.10460780792E+02 -0.12822073061E+03  0.18350137059E+03  0.12509091966E+03 0.  0.
         23    2    1    2    0    0 -0.38406134076E+02  0.10460780792E+02 -0.69071391043E+02  0.12156161629E+03  0.91770967227E+02 0.  0.
          5    1    3    3  502    0 -0.74050216113E+01 -0.12032207007E+02 -0.13602114784E+03  0.13681678775E+03  0.41800000000E+01 0.  1.
         -5    1    3    3    0  502  0.45811155688E+02  0.15714262148E+01  0.78004172340E+01  0.46684582839E+02  0.41800000000E+01 0.  1.
        -11    1    4    4    0    0 -0.29856381211E+01 -0.20949594904E+02  0.14402498321E+02  0.25597490493E+02  0.00000000000E+00 0.  1.
         11    1    4    4    0    0 -0.35420495955E+02  0.31410375696E+02 -0.83473889365E+02  0.95964125801E+02  0.00000000000E+00 0. -1.
</event>
<event>
 8    1  0.7075056E-009  0.9338528E+02  0.7561462E-02  0.1294855E+00
          2   -1    0    0  501    0  0.00000000000E+00  0.00000000000E+00  0.38504970236E+03  0.38504970236E+03  0.00000000000E+00 0. -1.
         -2   -1    0    0    0  501 -0.00000000000E+00 -0.00000000000E+00 -0.33581705204E+02  0.33581705204E+02  0.00000000000E+00 0.  1.
         25    2    1    2    0    0 -0.10432711358E+01  0.30195752699E+02  0.16510087162E+03  0.20933061749E+03  0.12509251662E+03 0.  0.
         23    2    1    2    0    0  0.10432711358E+01 -0.30195752699E+02  0.18636712554E+03  0.20930079007E+03  0.90339600116E+02 0.  0.
          5    1    3    3  502    0  0.52560679359E+02  0.35125680579E+02  0.13087728515E+03  0.14540555223E+03  0.41800000000E+01 0.  1.
         -5    1    3    3    0  502 -0.53603950495E+02 -0.49299278799E+01  0.34223586466E+02  0.63925065257E+02  0.41800000000E+01 0.  1.
        -11    1    4    4    0    0  0.28025639792E+02 -0.31807008347E+02  0.33415005478E+02  0.53978559233E+02  0.00000000000E+00 0.  1.
         11    1    4    4    0    0 -0.26982368657E+02  0.16112556481E+01  0.15295212006E+03  0.15532223084E+03  0.00000000000E+00 0. -1.
</event>
<event>
 8    1  0.7075056E-009  0.1775505E+03  0.7561462E-02  0.1170195E+00
         -4   -1    0    0    0  501 -0.00000000000E+00  0.00000000000E+00  0.59829131912E+02  0.59829131912E+02  0.00000000000E+00 0.  1.
          4   -1    0    0  501    0  0.00000000000E+00 -0.00000000000E+00 -0.80433241309E+03  0.80433241309E+03  0.00000000000E+00 0. -1.
         25    2    1    2    0    0  0.82295381786E+02 -0.14538771070E+03 -0.20985132298E+03  0.29596569804E+03  0.12509196768E+03 0.  0.
         23    2    1    2    0    0 -0.82295381786E+02  0.14538771070E+03 -0.53465195820E+03  0.56819584696E+03  0.95308382676E+02 0.  0.
          5    1    3    3  502    0 -0.10875068048E+02 -0.50309529391E+02 -0.13189401823E+03  0.14164328539E+03  0.41800000000E+01 0.  1.
         -5    1    3    3    0  502  0.93170449833E+02 -0.95078181305E+02 -0.77957304750E+02  0.15432241265E+03  0.41800000000E+01 0.  1.
        -11    1    4    4    0    0 -0.35367464526E+02  0.95240910722E+02 -0.43799230679E+03  0.44962089524E+03  0.00000000000E+00 0.  1.
         11    1    4    4    0    0 -0.46927917259E+02  0.50146799974E+02 -0.96659651408E+02  0.11857495172E+03  0.00000000000E+00 0. -1.
</event>
<event>
 8    1  0.7075056E-009  0.1507727E+03  0.7561462E-02  0.1199527E+00
         -1   -1    0    0    0  501 -0.00000000000E+00  0.00000000000E+00  0.65729541982E+02  0.65729541982E+02  0.00000000000E+00 0.  1.
          1   -1    0    0  501    0  0.00000000000E+00 -0.00000000000E+00 -0.60065858654E+03  0.60065858654E+03  0.00000000000E+00 0. -1.
         25    2    1    2    0    0 -0.74551873116E+02  0.92617135483E+02 -0.47406261786E+03  0.50449791355E+03  0.12508742364E+03 0.  0.
         23    2    1    2    0    0  0.74551873116E+02 -0.92617135483E+02 -0.60866426695E+02  0.16189021497E+03  0.91475702971E+02 0.  0.
          5    1    3    3  502    0 -0.90381325484E+00 -0.25761474914E+02 -0.34074003850E+02  0.42929949994E+02  0.41800000000E+01 0.  1.
         -5    1    3    3    0  502 -0.73648059861E+02  0.11837861040E+03 -0.43998861401E+03  0.46156796355E+03  0.41800000000E+01 0.  1.
        -11    1    4    4    0    0 -0.99264076589E+01 -0.27655083274E+02  0.13098025422E+02  0.32169791262E+02  0.00000000000E+00 0. -1.
         11    1    4    4    0    0  0.84478280775E+02 -0.64962052209E+02 -0.73964452117E+02  0.12972042371E+03  0.00000000000E+00 0.  1.
</event>
<event>
 8    1  0.7075056E-009  0.1015800E+03  0.7561462E-02  0.1277008E+00
         -2   -1    0    0    0  501 -0.00000000000E+00  0.00000000000E+00  0.43733184017E+03  0.43733184017E+03  0.00000000000E+00 0.  1.
          2   -1    0    0  501    0  0.00000000000E+00 -0.00000000000E+00 -0.36805990261E+02  0.36805990261E+02  0.00000000000E+00 0. -1.
         25    2    1    2    0    0  0.13420308142E+02  0.58164714677E+02  0.26666670470E+03  0.30053590010E+03  0.12508979634E+03 0.  0.
         23    2    1    2    0    0 -0.13420308142E+02 -0.58164714677E+02  0.13385914521E+03  0.17360193034E+03  0.93038275753E+02 0.  0.
          5    1    3    3  502    0 -0.22293586977E+02 -0.97868811012E+01  0.18354003217E+01  0.24771519056E+02  0.41800000000E+01 0. -1.
         -5    1    3    3    0  502  0.35713895120E+02  0.67951595778E+02  0.26483130438E+03  0.27576438104E+03  0.41800000000E+01 0. -1.
        -11    1    4    4    0    0 -0.44451052517E+02 -0.12157349338E+02  0.27578324434E+02  0.53705318092E+02  0.00000000000E+00 0. -1.
         11    1    4    4    0    0  0.31030744375E+02 -0.46007365340E+02  0.10628082078E+03  0.11989661224E+03  0.00000000000E+00 0.  1.
</event>
<event>
 8    1  0.7075056E-009  0.1046728E+03  0.7561462E-02  0.1270766E+00
          2   -1    0    0  501    0  0.00000000000E+00  0.00000000000E+00  0.37708660648E+03  0.37708660648E+03  0.00000000000E+00 0. -1.
         -2   -1    0    0    0  501 -0.00000000000E+00 -0.00000000000E+00 -0.32849486265E+02  0.32849486265E+02  0.00000000000E+00 0.  1.
         25    2    1    2    0    0  0.30102184318E+01 -0.56833459219E+01  0.24409335655E+03  0.27435434936E+03  0.12508948982E+03 0.  0.
         23    2    1    2    0    0 -0.30102184318E+01  0.56833459219E+01  0.10014376367E+03  0.13558174339E+03  0.91171672700E+02 0.  0.
          5    1    3    3  502    0 -0.15689311642E+02  0.57097905930E+02  0.10723833822E+03  0.12257185217E+03  0.41800000000E+01 0.  1.
         -5    1    3    3    0  502  0.18699530073E+02 -0.62781251852E+02  0.13685501833E+03  0.15178249719E+03  0.41800000000E+01 0.  1.
        -11    1    4    4    0    0  0.96184042231E+01 -0.37830724655E+02  0.72953340761E+02  0.82739756804E+02  0.00000000000E+00 0. -1.
         11    1    4    4    0    0 -0.12628622655E+02  0.43514070577E+02  0.27190422904E+02  0.52841986583E+02  0.00000000000E+00 0.  1.
</event>
<event>
 8    1  0.7075056E-009  0.1620218E+03  0.7561462E-02  0.1186433E+00
         -1   -1    0    0    0  501 -0.00000000000E+00  0.00000000000E+00  0.17666689043E+03  0.17666689043E+03  0.00000000000E+00 0.  1.
          1   -1    0    0  501    0  0.00000000000E+00 -0.00000000000E+00 -0.25804317218E+03  0.25804317218E+03  0.00000000000E+00 0. -1.
         25    2    1    2    0    0  0.10274397228E+03 -0.85049928198E+02  0.86849095239E+02  0.20243561108E+03  0.12509035599E+03 0.  0.
         23    2    1    2    0    0 -0.10274397228E+03  0.85049928198E+02 -0.16822537699E+03  0.23227445153E+03  0.88666956882E+02 0.  0.
          5    1    3    3  502    0  0.29387332462E+02  0.31657838579E+02  0.32432593871E+02  0.54177297810E+02  0.41800000000E+01 0. -1.
         -5    1    3    3    0  502  0.73356639822E+02 -0.11670776678E+03  0.54416501368E+02  0.14825831327E+03  0.41800000000E+01 0. -1.
        -11    1    4    4    0    0 -0.32013570974E+02  0.59438022643E+02 -0.27882575426E+02  0.73042352608E+02  0.00000000000E+00 0.  1.
         11    1    4    4    0    0 -0.70730401309E+02  0.25611905555E+02 -0.14034280157E+03  0.15923209892E+03  0.00000000000E+00 0. -1.
</event>
<event>
 8    1  0.7075056E-009  0.9542268E+02  0.7561462E-02  0.1290227E+00
          2   -1    0    0  501    0  0.00000000000E+00  0.00000000000E+00  0.17869003292E+03  0.17869003292E+03  0.00000000000E+00 0. -1.
         -2   -1    0    0    0  501 -0.00000000000E+00 -0.00000000000E+00 -0.10945647536E+03  0.10945647536E+03  0.00000000000E+00 0.  1.
         25    2    1    2    0    0  0.74826535857E+02 -0.61333506218E+01 -0.10141396158E+02  0.14625547382E+03  0.12510470513E+03 0.  0.
         23    2    1    2    0    0 -0.74826535857E+02  0.61333506218E+01  0.79374953720E+02  0.14189103447E+03  0.90532060212E+02 0.  0.
          5    1    3    3  502    0  0.23404792492E+02  0.39454859481E+02 -0.48955777758E+02  0.67220613090E+02  0.41800000000E+01 0.  1.
         -5    1    3    3    0  502  0.51421743365E+02 -0.45588210103E+02  0.38814381600E+02  0.79034860726E+02  0.41800000000E+01 0.  1.
        -11    1    4    4    0    0 -0.22280453679E+02  0.70818387384E+01 -0.19153237580E+02  0.30222798776E+02  0.00000000000E+00 0.  1.
         11    1    4    4    0    0 -0.52546082178E+02 -0.94848811660E+00  0.98528191299E+02  0.11166823569E+03  0.00000000000E+00 0. -1.
</event>
<event>
 8    1  0.7075056E-009  0.1614410E+03  0.7561462E-02  0.1187079E+00
         -1   -1    0    0    0  501 -0.00000000000E+00  0.00000000000E+00  0.24931275909E+02  0.24931275909E+02  0.00000000000E+00 0.  1.
          1   -1    0    0  501    0  0.00000000000E+00 -0.00000000000E+00 -0.12366387608E+04  0.12366387608E+04  0.00000000000E+00 0. -1.
         25    2    1    2    0    0  0.97232503734E+02 -0.78894564597E+02 -0.84146034097E+03  0.85987323294E+03  0.12509180311E+03 0.  0.
         23    2    1    2    0    0 -0.97232503734E+02  0.78894564597E+02 -0.37024714392E+03  0.40169680377E+03  0.92730051585E+02 0.  0.
          5    1    3    3  502    0  0.34749437488E+02 -0.10146226600E+03 -0.59387637963E+03  0.60349709321E+03  0.41800000000E+01 0. -1.
         -5    1    3    3    0  502  0.62483066246E+02  0.22567701401E+02 -0.24758396134E+03  0.25637613974E+03  0.41800000000E+01 0. -1.
        -11    1    4    4    0    0 -0.47328513140E+02  0.86408470384E+02 -0.18379320896E+03  0.20853382356E+03  0.00000000000E+00 0.  1.
         11    1    4    4    0    0 -0.49903990593E+02 -0.75139057875E+01 -0.18645393496E+03  0.19316298020E+03  0.00000000000E+00 0. -1.
</event>
<event>
 8    1  0.7075056E-009  0.1605716E+03  0.7561462E-02  0.1188053E+00
         -2   -1    0    0    0  501 -0.00000000000E+00  0.00000000000E+00  0.72986323297E+02  0.72986323297E+02  0.00000000000E+00 0.  1.
          2   -1    0    0  501    0  0.00000000000E+00 -0.00000000000E+00 -0.45450155960E+03  0.45450155960E+03  0.00000000000E+00 0. -1.
         25    2    1    2    0    0 -0.12211976022E+03 -0.37949857805E+02 -0.10006982053E+03  0.20497561820E+03  0.12509039744E+03 0.  0.
         23    2    1    2    0    0  0.12211976022E+03  0.37949857805E+02 -0.28144541577E+03  0.32251226470E+03  0.91919591370E+02 0.  0.
          5    1    3    3  502    0  0.19156761762E+02  0.14668662967E+02 -0.29865658017E+02  0.38620993297E+02  0.41800000000E+01 0. -1.
         -5    1    3    3    0  502 -0.14127652198E+03 -0.52618520772E+02 -0.70204162510E+02  0.16635462490E+03  0.41800000000E+01 0. -1.
        -11    1    4    4    0    0  0.98280490031E+02 -0.31461940353E+01 -0.12516885308E+03  0.15917347467E+03  0.00000000000E+00 0.  1.
         11    1    4    4    0    0  0.23839270189E+02  0.41096051841E+02 -0.15627656270E+03  0.16333879003E+03  0.00000000000E+00 0. -1.
</event>
<event>
 8    1  0.7075056E-009  0.1289693E+03  0.7561462E-02  0.1228993E+00
          2   -1    0    0  501    0  0.00000000000E+00  0.00000000000E+00  0.56572351338E+03  0.56572351338E+03  0.00000000000E+00 0. -1.
         -2   -1    0    0    0  501 -0.00000000000E+00 -0.00000000000E+00 -0.33348966215E+02  0.33348966215E+02  0.00000000000E+00 0.  1.
         25    2    1    2    0    0 -0.78971454695E+02  0.67331710467E+01  0.33836002447E+03  0.36934205748E+03  0.12507686842E+03 0.  0.
         23    2    1    2    0    0  0.78971454695E+02 -0.67331710467E+01  0.19401452270E+03  0.22973042212E+03  0.94088286094E+02 0.  0.
          5    1    3    3  502    0  0.82984960994E+00 -0.45137422225E+02  0.60497400013E+02  0.75600815762E+02  0.41800000000E+01 0.  1.
         -5    1    3    3    0  502 -0.79801304305E+02  0.51870593272E+02  0.27786262445E+03  0.29374124171E+03  0.41800000000E+01 0.  1.
        -11    1    4    4    0    0  0.28102966173E+02 -0.45427887117E+02  0.54707614151E+02  0.76461707290E+02  0.00000000000E+00 0.  1.
         11    1    4    4    0    0  0.50868488523E+02  0.38694716070E+02  0.13930690855E+03  0.15326871483E+03  0.00000000000E+00 0. -1.
</event>
<event>
 8    1  0.7075056E-009  0.1208546E+03  0.7561462E-02  0.1241694E+00
         -2   -1    0    0    0  501 -0.00000000000E+00  0.00000000000E+00  0.23495838292E+02  0.23495838292E+02  0.00000000000E+00 0.  1.
          2   -1    0    0  501    0  0.00000000000E+00 -0.00000000000E+00 -0.12389975873E+04  0.12389975873E+04  0.00000000000E+00 0. -1.
         25    2    1    2    0    0  0.24215389003E+02 -0.74732239254E+02 -0.10343841176E+04  0.10448776349E+04  0.12508987401E+03 0.  0.
         23    2    1    2    0    0 -0.24215389003E+02  0.74732239254E+02 -0.18111763146E+03  0.21761579072E+03  0.91551861232E+02 0.  0.
          5    1    3    3  502    0 -0.14883690030E+02  0.31116185015E+02 -0.23199369979E+03  0.23458109544E+03  0.41800000000E+01 0. -1.
         -5    1    3    3    0  502  0.39099079033E+02 -0.10584842427E+03 -0.80239041777E+03  0.81029653944E+03  0.41800000000E+01 0. -1.
        -11    1    4    4    0    0  0.11976612381E+02  0.46862839141E+02 -0.24006336045E+02  0.53998788012E+02  0.00000000000E+00 0.  1.
         11    1    4    4    0    0 -0.36192001385E+02  0.27869400113E+02 -0.15711129542E+03  0.16361700271E+03  0.00000000000E+00 0. -1.
</event>
<event>
 8    1  0.7075056E-009  0.1210200E+03  0.7561462E-02  0.1241424E+00
         -4   -1    0    0    0  501 -0.00000000000E+00  0.00000000000E+00  0.71533026214E+02  0.71533026214E+02  0.00000000000E+00 0.  1.
          4   -1    0    0  501    0  0.00000000000E+00 -0.00000000000E+00 -0.21199755506E+03  0.21199755506E+03  0.00000000000E+00 0. -1.
         25    2    1    2    0    0 -0.52337257491E+02  0.16729985589E+02 -0.10331960262E+03  0.17129406319E+03  0.12509050668E+03 0.  0.
         23    2    1    2    0    0  0.52337257491E+02 -0.16729985589E+02 -0.37144926234E+02  0.11223651809E+03  0.90543964504E+02 0.  0.
          5    1    3    3  502    0 -0.62840898900E+02  0.62925888085E+02 -0.69270730406E+02  0.11280315801E+03  0.41800000000E+01 0.  1.
         -5    1    3    3    0  502  0.10503641409E+02 -0.46195902496E+02 -0.34048872210E+02  0.58490905182E+02  0.41800000000E+01 0.  1.
        -11    1    4    4    0    0  0.17492067419E+02  0.37278573959E+02 -0.94437668179E+01  0.42247476028E+02  0.00000000000E+00 0.  1.
         11    1    4    4    0    0  0.34845190072E+02 -0.54008559547E+02 -0.27701159416E+02  0.69989042061E+02  0.00000000000E+00 0. -1.
</event>
<event>
 8    1  0.7075056E-009  0.9994331E+02  0.7561462E-02  0.1280415E+00
          4   -1    0    0  501    0  0.00000000000E+00  0.00000000000E+00  0.26299271524E+03  0.26299271524E+03  0.00000000000E+00 0. -1.
         -4   -1    0    0    0  501 -0.00000000000E+00 -0.00000000000E+00 -0.53320856775E+02  0.53320856775E+02  0.00000000000E+00 0.  1.
         25    2    1    2    0    0  0.13685948848E+01 -0.20827434360E+02  0.63675823833E+02  0.14190876593E+03  0.12509129559E+03 0.  0.
         23    2    1    2    0    0 -0.13685948848E+01  0.20827434360E+02  0.14599603463E+03  0.17440480608E+03  0.93094248931E+02 0.  0.
          5    1    3    3  502    0 -0.16292235575E+01  0.44530139845E+02 -0.72336713929E+01  0.45336366482E+02  0.41800000000E+01 0.  1.
         -5    1    3    3    0  502  0.29978184423E+01 -0.65357574205E+02  0.70909495226E+02  0.96572399445E+02  0.41800000000E+01 0.  1.
        -11    1    4    4    0    0  0.22835196452E+02  0.48016531793E+02  0.11460219520E+03  0.12633565081E+03  0.00000000000E+00 0. -1.
         11    1    4    4    0    0 -0.24203791337E+02 -0.27189097432E+02  0.31393839434E+02  0.48069155274E+02  0.00000000000E+00 0.  1.
</event>
<event>
 8    1  0.7075056E-009  0.1759625E+03  0.7561462E-02  0.1171769E+00
          2   -1    0    0  501    0  0.00000000000E+00  0.00000000000E+00  0.13491815163E+04  0.13491815163E+04  0.00000000000E+00 0.  1.
         -2   -1    0    0    0  501 -0.00000000000E+00 -0.00000000000E+00 -0.33216493001E+02  0.33216493001E+02  0.00000000000E+00 0. -1.
         25    2    1    2    0    0  0.10227083374E+03  0.10748459991E+03  0.10255063597E+04  0.10437066234E+04  0.12509180280E+03 0.  0.
         23    2    1    2    0    0 -0.10227083374E+03 -0.10748459991E+03  0.29045866353E+03  0.33869138591E+03  0.91287222649E+02 0.  0.
          5    1    3    3  502    0 -0.66132895562E+00 -0.16387300514E+02  0.24257220159E+02  0.29578135572E+02  0.41800000000E+01 0. -1.
         -5    1    3    3    0  502  0.10293216270E+03  0.12387190042E+03  0.10012491396E+04  0.10141284878E+04  0.41800000000E+01 0. -1.
        -11    1    4    4    0    0 -0.46036082791E+02 -0.10826792897E+03  0.18687127094E+03  0.22082150544E+03  0.00000000000E+00 0.  1.
         11    1    4    4    0    0 -0.56234750952E+02  0.78332905897E+00  0.10358739259E+03  0.11786988047E+03  0.00000000000E+00 0. -1.
</event>
<event>
 8    1  0.7075056E-009  0.2507219E+03  0.7561462E-02  0.1112849E+00
         -2   -1    0    0    0  501 -0.00000000000E+00  0.00000000000E+00  0.14860550807E+03  0.14860550807E+03  0.00000000000E+00 0.  1.
          2   -1    0    0  501    0  0.00000000000E+00 -0.00000000000E+00 -0.60632503523E+03  0.60632503523E+03  0.00000000000E+00 0. -1.
         25    2    1    2    0    0  0.24014388134E+03 -0.10530846541E+02 -0.56255596750E+02  0.27675534200E+03  0.12509534238E+03 0.  0.
         23    2    1    2    0    0 -0.24014388134E+03  0.10530846541E+02 -0.40146393042E+03  0.47817520130E+03  0.98479709801E+02 0.  0.
          5    1    3    3  502    0  0.82756456462E+02  0.84636338075E+01 -0.81079662354E+02  0.11623961558E+03  0.41800000000E+01 0. -1.
         -5    1    3    3    0  502  0.15738742488E+03 -0.18994480349E+02  0.24824065605E+02  0.16051572642E+03  0.41800000000E+01 0. -1.
        -11    1    4    4    0    0 -0.13654133710E+03  0.54504010962E+02 -0.21805869078E+03  0.26299014539E+03  0.00000000000E+00 0.  1.
         11    1    4    4    0    0 -0.10360254424E+03 -0.43973164421E+02 -0.18340523963E+03  0.21518505591E+03  0.00000000000E+00 0. -1.
</event>
<event>
 8    1  0.7075056E-009  0.1060065E+03  0.7561462E-02  0.1268149E+00
          1   -1    0    0  501    0  0.00000000000E+00  0.00000000000E+00  0.42435744423E+03  0.42435744423E+03  0.00000000000E+00 0. -1.
         -1   -1    0    0    0  501 -0.00000000000E+00 -0.00000000000E+00 -0.44072192044E+02  0.44072192044E+02  0.00000000000E+00 0.  1.
         25    2    1    2    0    0  0.47616120787E+02 -0.67571971783E+01  0.32443790251E+03  0.35102607420E+03  0.12508556076E+03 0.  0.
         23    2    1    2    0    0 -0.47616120787E+02  0.67571971783E+01  0.55847349676E+02  0.11740356207E+03  0.91387719354E+02 0.  0.
          5    1    3    3  502    0 -0.29131329114E+02  0.82742208751E+01  0.19660258819E+02  0.36346873921E+02  0.41800000000E+01 0. -1.
         -5    1    3    3    0  502  0.76747449901E+02 -0.15031418053E+02  0.30477764369E+03  0.31467920028E+03  0.41800000000E+01 0. -1.
        -11    1    4    4    0    0 -0.75085809364E+02  0.86920625776E+01  0.43649415969E+02  0.87285177631E+02  0.00000000000E+00 0.  1.
         11    1    4    4    0    0  0.27469688576E+02 -0.19348653992E+01  0.12197933707E+02  0.30118384441E+02  0.00000000000E+00 0. -1.
</event>
<event>
 8    1  0.7075056E-009  0.1353851E+03  0.7561462E-02  0.1219677E+00
          1   -1    0    0  501    0  0.00000000000E+00  0.00000000000E+00  0.14775561050E+03  0.14775561050E+03  0.00000000000E+00 0. -1.
         -1   -1    0    0    0  501 -0.00000000000E+00 -0.00000000000E+00 -0.13340624468E+03  0.13340624468E+03  0.00000000000E+00 0.  1.
         25    2    1    2    0    0 -0.89383090923E+02 -0.12424148087E+02  0.18253923113E+02  0.15532270426E+03  0.12509292686E+03 0.  0.
         23    2    1    2    0    0  0.89383090923E+02  0.12424148087E+02 -0.39045572992E+01  0.12583915092E+03  0.87615922854E+02 0.  0.
          5    1    3    3  502    0 -0.74042768914E+02  0.44116951359E+02 -0.15364162091E+02  0.87647971468E+02  0.41800000000E+01 0. -1.
         -5    1    3    3    0  502 -0.15340322009E+02 -0.56541099446E+02  0.33618085204E+02  0.67674732793E+02  0.41800000000E+01 0. -1.
        -11    1    4    4    0    0  0.52804209728E+02 -0.36840458884E+02 -0.55308755370E+00  0.64387963795E+02  0.00000000000E+00 0. -1.
         11    1    4    4    0    0  0.36578881195E+02  0.49264606971E+02 -0.33514697455E+01  0.61451187124E+02  0.00000000000E+00 0.  1.
</event>
<event>
 8    1  0.7075056E-009  0.7712740E+02  0.7561462E-02  0.1337407E+00
         -1   -1    0    0    0  501 -0.00000000000E+00  0.00000000000E+00  0.53364242958E+02  0.53364242958E+02  0.00000000000E+00 0.  1.
          1   -1    0    0  501    0  0.00000000000E+00 -0.00000000000E+00 -0.23042046821E+03  0.23042046821E+03  0.00000000000E+00 0. -1.
         25    2    1    2    0    0 -0.77797335039E+01  0.21572199007E+02 -0.93633518433E+02  0.15792296002E+03  0.12508613633E+03 0.  0.
         23    2    1    2    0    0  0.77797335039E+01 -0.21572199007E+02 -0.83422706820E+02  0.12586175115E+03  0.91410876631E+02 0.  0.
          5    1    3    3  502    0 -0.14289023696E+02  0.38874656796E+02  0.17520428238E+02  0.45164731205E+02  0.41800000000E+01 0.  1.
         -5    1    3    3    0  502  0.65092901920E+01 -0.17302457789E+02 -0.11115394667E+03  0.11275822881E+03  0.41800000000E+01 0.  1.
        -11    1    4    4    0    0  0.26875107056E+02 -0.51547611033E+02 -0.58357424085E+02  0.82371211769E+02  0.00000000000E+00 0.  1.
         11    1    4    4    0    0 -0.19095373552E+02  0.29975412026E+02 -0.25065282735E+02  0.43490539383E+02  0.00000000000E+00 0. -1.
</event>
<event>
 8    1  0.7075056E-009  0.4934866E+02  0.7561462E-02  0.1448887E+00
          2   -1    0    0  501    0  0.00000000000E+00  0.00000000000E+00  0.26498821411E+03  0.26498821411E+03  0.00000000000E+00 0. -1.
         -2   -1    0    0    0  501 -0.00000000000E+00 -0.00000000000E+00 -0.45475778555E+02  0.45475778555E+02  0.00000000000E+00 0.  1.
         25    2    1    2    0    0 -0.12922526735E+02  0.83921754476E+01  0.14328213130E+03  0.19082263466E+03  0.12508432533E+03 0.  0.
         23    2    1    2    0    0  0.12922526735E+02 -0.83921754476E+01  0.76230304257E+02  0.11964135800E+03  0.90915207483E+02 0.  0.
          5    1    3    3  502    0 -0.34147133889E+02  0.88444976784E+01  0.15973747809E+03  0.16363919517E+03  0.41800000000E+01 0. -1.
         -5    1    3    3    0  502  0.21224607154E+02 -0.45232223084E+00 -0.16455346791E+02  0.27183439485E+02  0.41800000000E+01 0. -1.
        -11    1    4    4    0    0  0.14227237028E+02  0.13497425494E+02 -0.15706571046E+02  0.25125507804E+02  0.00000000000E+00 0.  1.
         11    1    4    4    0    0 -0.13047102929E+01 -0.21889600941E+02  0.91936875302E+02  0.94515850198E+02  0.00000000000E+00 0. -1.
</event>
<event>
 8    1  0.7075056E-009  0.3689329E+03  0.7561462E-02  0.1055102E+00
         -1   -1    0    0    0  501 -0.00000000000E+00  0.00000000000E+00  0.59677039155E+03  0.59677039155E+03  0.00000000000E+00 0.  1.
          1   -1    0    0  501    0  0.00000000000E+00 -0.00000000000E+00 -0.34804939282E+03  0.34804939282E+03  0.00000000000E+00 0. -1.
         25    2    1    2    0    0  0.36269238308E+03  0.18542202152E+02  0.38755366167E+03  0.54565072833E+03  0.12508916276E+03 0.  0.
         23    2    1    2    0    0 -0.36269238308E+03 -0.18542202152E+02 -0.13883266294E+03  0.39916905604E+03  0.90398279842E+02 0.  0.
          5    1    3    3  502    0  0.17324045577E+03  0.25038406546E+02  0.10126215173E+03  0.20226386995E+03  0.41800000000E+01 0.  1.
         -5    1    3    3    0  502  0.18945192732E+03 -0.64962043939E+01  0.28629150995E+03  0.34338685837E+03  0.41800000000E+01 0.  1.
        -11    1    4    4    0    0 -0.13743329156E+03 -0.48893251563E+02 -0.69158542658E+02  0.16143532358E+03  0.00000000000E+00 0.  1.
         11    1    4    4    0    0 -0.22525909152E+03  0.30351049411E+02 -0.69674120281E+02  0.23773373246E+03  0.00000000000E+00 0. -1.
</event>
<event>
 8    1  0.7075056E-009  0.1338544E+03  0.7561462E-02  0.1221846E+00
          1   -1    0    0  501    0  0.00000000000E+00  0.00000000000E+00  0.22270118993E+03  0.22270118993E+03  0.00000000000E+00 0. -1.
         -1   -1    0    0    0  501 -0.00000000000E+00 -0.00000000000E+00 -0.83676284046E+02  0.83676284046E+02  0.00000000000E+00 0.  1.
         25    2    1    2    0    0 -0.35744150682E+02 -0.74577733853E+02  0.94581160046E+02  0.17729049701E+03  0.12508733669E+03 0.  0.
         23    2    1    2    0    0  0.35744150682E+02  0.74577733853E+02  0.44443745841E+02  0.12908697697E+03  0.88592992859E+02 0.  0.
          5    1    3    3  502    0 -0.12055722604E+02  0.33573023813E+02  0.82967332200E+01  0.36861857761E+02  0.41800000000E+01 0.  1.
         -5    1    3    3    0  502 -0.23688428078E+02 -0.10815075767E+03  0.86284426826E+02  0.14042863925E+03  0.41800000000E+01 0.  1.
        -11    1    4    4    0    0 -0.29178118963E+02  0.32284727299E+02  0.19523569760E+02  0.47695241054E+02  0.00000000000E+00 0.  1.
         11    1    4    4    0    0  0.64922269645E+02  0.42293006554E+02  0.24920176081E+02  0.81391735914E+02  0.00000000000E+00 0. -1.
</event>
<event>
 8    1  0.7075056E-009  0.1561453E+03  0.7561462E-02  0.1193119E+00
         -3   -1    0    0    0  501 -0.00000000000E+00  0.00000000000E+00  0.11925769990E+04  0.11925769990E+04  0.00000000000E+00 0.  1.
          3   -1    0    0  501    0  0.00000000000E+00 -0.00000000000E+00 -0.24400599933E+02  0.24400599933E+02  0.00000000000E+00 0. -1.
         25    2    1    2    0    0  0.54302151026E+02 -0.11958436054E+03  0.58430780225E+03  0.61181227191E+03  0.12509798316E+03 0.  0.
         23    2    1    2    0    0 -0.54302151026E+02  0.11958436054E+03  0.58386859679E+03  0.60516532700E+03  0.89852055043E+02 0.  0.
          5    1    3    3  502    0  0.27535689749E+02 -0.14266905630E+03  0.45188117410E+03  0.47468594011E+03  0.41800000000E+01 0. -1.
         -5    1    3    3    0  502  0.26766461277E+02  0.23084695758E+02  0.13242662816E+03  0.13712633180E+03  0.41800000000E+01 0. -1.
        -11    1    4    4    0    0 -0.48981726059E+02  0.10793075204E+03  0.57970104042E+03  0.59169380003E+03  0.00000000000E+00 0.  1.
         11    1    4    4    0    0 -0.53204249672E+01  0.11653608500E+02  0.41675563654E+01  0.13471526972E+02  0.00000000000E+00 0. -1.
</event>
<event>
 8    1  0.7075056E-009  0.1053349E+03  0.7561462E-02  0.1269461E+00
         -1   -1    0    0    0  501 -0.00000000000E+00  0.00000000000E+00  0.28379586823E+03  0.28379586823E+03  0.00000000000E+00 0.  1.
          1   -1    0    0  501    0  0.00000000000E+00 -0.00000000000E+00 -0.45922648265E+02  0.45922648265E+02  0.00000000000E+00 0. -1.
         25    2    1    2    0    0  0.24183769596E+02  0.11699139583E+02  0.16858773224E+03  0.21163739258E+03  0.12508732110E+03 0.  0.
         23    2    1    2    0    0 -0.24183769596E+02 -0.11699139583E+02  0.69285487730E+02  0.11808112392E+03  0.91765725826E+02 0.  0.
          5    1    3    3  502    0  0.67240474719E+02  0.22261799070E+02  0.14457060262E+03  0.16104347451E+03  0.41800000000E+01 0.  1.
         -5    1    3    3    0  502 -0.43056705123E+02 -0.10562659488E+02  0.24017129617E+02  0.50593918079E+02  0.41800000000E+01 0.  1.
        -11    1    4    4    0    0  0.34112678218E+02 -0.13930764048E+02  0.21437348872E+02  0.42629812676E+02  0.00000000000E+00 0.  1.
         11    1    4    4    0    0 -0.58296447814E+02  0.22316244653E+01  0.47848138859E+02  0.75451311239E+02  0.00000000000E+00 0. -1.
</event>
<event>
 8    1  0.7075056E-009  0.1644594E+03  0.7561462E-02  0.1183752E+00
         -3   -1    0    0    0  501 -0.00000000000E+00  0.00000000000E+00  0.44624463184E+03  0.44624463184E+03  0.00000000000E+00 0.  1.
          3   -1    0    0  501    0  0.00000000000E+00 -0.00000000000E+00 -0.93037103681E+02  0.93037103681E+02  0.00000000000E+00 0. -1.
         25    2    1    2    0    0  0.12609588132E+03 -0.64895078368E+02  0.30942952489E+03  0.36263864173E+03  0.12509440884E+03 0.  0.
         23    2    1    2    0    0 -0.12609588132E+03  0.64895078368E+02  0.43778003264E+02  0.17664309378E+03  0.95784792786E+02 0.  0.
          5    1    3    3  502    0  0.79610089993E+02  0.26826701483E+02  0.16616890804E+03  0.18624450794E+03  0.41800000000E+01 0. -1.
         -5    1    3    3    0  502  0.46485791326E+02 -0.91721779851E+02  0.14326061685E+03  0.17639413379E+03  0.41800000000E+01 0. -1.
        -11    1    4    4    0    0 -0.38951465689E+02  0.17633564640E+02 -0.30709362345E+02  0.52642418418E+02  0.00000000000E+00 0. -1.
         11    1    4    4    0    0 -0.87144415630E+02  0.47261513728E+02  0.74487365609E+02  0.12400067536E+03  0.00000000000E+00 0.  1.
</event>
<event>
 8    1  0.7075056E-009  0.1021339E+03  0.7561462E-02  0.1275872E+00
         -1   -1    0    0    0  501 -0.00000000000E+00  0.00000000000E+00  0.41470537395E+02  0.41470537395E+02  0.00000000000E+00 0.  1.
          1   -1    0    0  501    0  0.00000000000E+00 -0.00000000000E+00 -0.45539738079E+03  0.45539738079E+03  0.00000000000E+00 0. -1.
         25    2    1    2    0    0 -0.38071549208E+02 -0.50622112568E+02 -0.12862715138E+03  0.19027642372E+03  0.12509249463E+03 0.  0.
         23    2    1    2    0    0  0.38071549208E+02  0.50622112568E+02 -0.28529969202E+03  0.30659149447E+03  0.92684351833E+02 0.  0.
          5    1    3    3  502    0  0.43287991538E+02 -0.16510874528E+02 -0.70781658522E+02  0.84699319786E+02  0.41800000000E+01 0. -1.
         -5    1    3    3    0  502 -0.81359540746E+02 -0.34111238040E+02 -0.57845492856E+02  0.10557710393E+03  0.41800000000E+01 0. -1.
        -11    1    4    4    0    0  0.41854771733E+02  0.39004893822E+02 -0.28837271331E+03  0.29399324047E+03  0.00000000000E+00 0. -1.
         11    1    4    4    0    0 -0.37832225251E+01  0.11617218746E+02  0.30730212897E+01  0.12598254002E+02  0.00000000000E+00 0.  1.
</event>
<event>
 8    1  0.7075056E-009  0.1397183E+03  0.7561462E-02  0.1213709E+00
          2   -1    0    0  501    0  0.00000000000E+00  0.00000000000E+00  0.47471861353E+03  0.47471861353E+03  0.00000000000E+00 0.  1.
         -2   -1    0    0    0  501 -0.00000000000E+00 -0.00000000000E+00 -0.83568402241E+02  0.83568402241E+02  0.00000000000E+00 0. -1.
         25    2    1    2    0    0 -0.83428708235E+02  0.98654596502E+02  0.35140439908E+03  0.39474849656E+03  0.12509294572E+03 0.  0.
         23    2    1    2    0    0  0.83428708235E+02 -0.98654596502E+02  0.39745812203E+02  0.16353851921E+03  0.92043679358E+02 0.  0.
          5    1    3    3  502    0 -0.80020674677E+02  0.94216267109E+02  0.36172538919E+03  0.38228620554E+03  0.41800000000E+01 0. -1.
         -5    1    3    3    0  502 -0.34080335583E+01  0.44383293931E+01 -0.10320990107E+02  0.12462291014E+02  0.41800000000E+01 0. -1.
        -11    1    4    4    0    0  0.22781449537E+02 -0.83089594356E+02 -0.54339698131E+01  0.86327302525E+02  0.00000000000E+00 0. -1.
         11    1    4    4    0    0  0.60647258698E+02 -0.15565002146E+02  0.45179782016E+02  0.77211216688E+02  0.00000000000E+00 0.  1.
</event>
<event>
 8    1  0.7075056E-009  0.1067089E+03  0.7561462E-02  0.1266789E+00
         -2   -1    0    0    0  501 -0.00000000000E+00  0.00000000000E+00  0.12787915200E+03  0.12787915200E+03  0.00000000000E+00 0.  1.
          2   -1    0    0  501    0  0.00000000000E+00 -0.00000000000E+00 -0.11064295183E+03  0.11064295183E+03  0.00000000000E+00 0. -1.
         25    2    1    2    0    0  0.32687309311E+02  0.23926942319E+02 -0.17440342099E+02  0.13262482360E+03  0.12507685455E+03 0.  0.
         23    2    1    2    0    0 -0.32687309311E+02 -0.23926942319E+02  0.34676542264E+02  0.10589728023E+03  0.91492145114E+02 0.  0.
          5    1    3    3  502    0  0.62998529032E+02  0.45460130568E+02  0.19329675051E+02  0.80165746233E+02  0.41800000000E+01 0.  1.
         -5    1    3    3    0  502 -0.30311219721E+02 -0.21533188249E+02 -0.36770017150E+02  0.52459077368E+02  0.41800000000E+01 0.  1.
        -11    1    4    4    0    0 -0.20030294943E+02 -0.58261574343E+02  0.31423599278E+02  0.69159716251E+02  0.00000000000E+00 0.  1.
         11    1    4    4    0    0 -0.12657014369E+02  0.34334632023E+02  0.32529429867E+01  0.36737563977E+02  0.00000000000E+00 0. -1.
</event>
<event>
 8    1  0.7075056E-009  0.1723172E+03  0.7561462E-02  0.1175453E+00
         -2   -1    0    0    0  501 -0.00000000000E+00  0.00000000000E+00  0.61520447611E+02  0.61520447611E+02  0.00000000000E+00 0.  1.
          2   -1    0    0  501    0  0.00000000000E+00 -0.00000000000E+00 -0.90999784182E+03  0.90999784182E+03  0.00000000000E+00 0. -1.
         25    2    1    2    0    0  0.50441513729E+02  0.13692305825E+03 -0.12718348389E+03  0.23046956097E+03  0.12509320433E+03 0.  0.
         23    2    1    2    0    0 -0.50441513729E+02 -0.13692305825E+03 -0.72129391031E+03  0.74104872846E+03  0.87155279339E+02 0.  0.
          5    1    3    3  502    0 -0.34483981833E+02  0.71387852385E+02 -0.81573973539E+02  0.11382950422E+03  0.41800000000E+01 0. -1.
         -5    1    3    3    0  502  0.84925495561E+02  0.65535205863E+02 -0.45609510355E+02  0.11664005675E+03  0.41800000000E+01 0. -1.
        -11    1    4    4    0    0 -0.61066947560E+02 -0.83651640404E+02 -0.58900279252E+03  0.59803934538E+03  0.00000000000E+00 0. -1.
         11    1    4    4    0    0  0.10625433832E+02 -0.53271417843E+02 -0.13229111780E+03  0.14300938309E+03  0.00000000000E+00 0.  1.
</event>
<event>
 8    1  0.7075056E-009  0.1102964E+03  0.7561462E-02  0.1260022E+00
         -3   -1    0    0    0  501 -0.00000000000E+00  0.00000000000E+00  0.76564237093E+02  0.76564237093E+02  0.00000000000E+00 0.  1.
          3   -1    0    0  501    0  0.00000000000E+00 -0.00000000000E+00 -0.16862307146E+03  0.16862307146E+03  0.00000000000E+00 0. -1.
         25    2    1    2    0    0  0.23234592160E+02  0.54701651064E+01 -0.24420952236E+02  0.12966233901E+03  0.12508465241E+03 0.  0.
         23    2    1    2    0    0 -0.23234592160E+02 -0.54701651064E+01 -0.67637882133E+02  0.11552496955E+03  0.90561396360E+02 0.  0.
          5    1    3    3  502    0  0.72789702602E+02  0.19833972497E+02 -0.13400837055E+02  0.76738400451E+02  0.41800000000E+01 0.  1.
         -5    1    3    3    0  502 -0.49555110442E+02 -0.14363807391E+02 -0.11020115181E+02  0.52923938556E+02  0.41800000000E+01 0.  1.
        -11    1    4    4    0    0  0.33294558441E+02  0.98136998537E+01 -0.30300493675E+02  0.46075549302E+02  0.00000000000E+00 0.  1.
         11    1    4    4    0    0 -0.56529150601E+02 -0.15283864960E+02 -0.37337388458E+02  0.69449420247E+02  0.00000000000E+00 0. -1.
</event>
<event>
 8    1  0.7075056E-009  0.1299122E+03  0.7561462E-02  0.1227586E+00
          1   -1    0    0  501    0  0.00000000000E+00  0.00000000000E+00  0.48773037024E+03  0.48773037024E+03  0.00000000000E+00 0. -1.
         -1   -1    0    0    0  501 -0.00000000000E+00 -0.00000000000E+00 -0.59184812854E+02  0.59184812854E+02  0.00000000000E+00 0.  1.
         25    2    1    2    0    0 -0.10025632237E+03 -0.28674139622E+02  0.35627027221E+03  0.39172531963E+03  0.12508670083E+03 0.  0.
         23    2    1    2    0    0  0.10025632237E+03  0.28674139622E+02  0.72275285176E+02  0.15518986346E+03  0.89368005538E+02 0.  0.
          5    1    3    3  502    0 -0.13403466257E+02 -0.34645285612E+02  0.25665520650E+03  0.25936328989E+03  0.41800000000E+01 0.  1.
         -5    1    3    3    0  502 -0.86852856116E+02  0.59711459906E+01  0.99615065710E+02  0.13236202974E+03  0.41800000000E+01 0.  1.
        -11    1    4    4    0    0  0.67798861635E+02  0.59734249747E+02  0.35315894679E+02  0.97015868026E+02  0.00000000000E+00 0.  1.
         11    1    4    4    0    0  0.32457460738E+02 -0.31060110126E+02  0.36959390497E+02  0.58173995431E+02  0.00000000000E+00 0. -1.
</event>
<event>
 8    1  0.7075056E-009  0.2135783E+03  0.7561462E-02  0.1138763E+00
          3   -1    0    0  501    0  0.00000000000E+00  0.00000000000E+00  0.31111214429E+03  0.31111214429E+03  0.00000000000E+00 0. -1.
         -3   -1    0    0    0  501 -0.00000000000E+00 -0.00000000000E+00 -0.19452330561E+03  0.19452330561E+03  0.00000000000E+00 0.  1.
         25    2    1    2    0    0 -0.17373168535E+03 -0.96004482383E+02 -0.38723434814E+02  0.23779394002E+03  0.12508754684E+03 0.  0.
         23    2    1    2    0    0  0.17373168535E+03  0.96004482383E+02  0.15531227350E+03  0.26784150988E+03  0.90651050647E+02 0.  0.
          5    1    3    3  502    0 -0.18970045597E+03 -0.90229135327E+02 -0.18294560795E+02  0.21090216503E+03  0.41800000000E+01 0.  1.
         -5    1    3    3    0  502  0.15968770620E+02 -0.57753470557E+01 -0.20428874020E+02  0.26891774996E+02  0.41800000000E+01 0.  1.
        -11    1    4    4    0    0  0.12471187454E+03  0.58022166642E+02  0.51413502128E+02  0.14684335761E+03  0.00000000000E+00 0.  1.
         11    1    4    4    0    0  0.49019810814E+02  0.37982315741E+02  0.10389877137E+03  0.12099815227E+03  0.00000000000E+00 0. -1.
</event>
<event>
 8    1  0.7075056E-009  0.1085703E+03  0.7561462E-02  0.1263241E+00
         -1   -1    0    0    0  501 -0.00000000000E+00  0.00000000000E+00  0.24802873367E+03  0.24802873367E+03  0.00000000000E+00 0.  1.
          1   -1    0    0  501    0  0.00000000000E+00 -0.00000000000E+00 -0.50180709387E+02  0.50180709387E+02  0.00000000000E+00 0. -1.
         25    2    1    2    0    0  0.35707095919E+01 -0.16763325147E+02  0.14179155977E+03  0.18986398943E+03  0.12509887699E+03 0.  0.
         23    2    1    2    0    0 -0.35707095919E+01  0.16763325147E+02  0.56056464513E+02  0.10834545362E+03  0.91118884269E+02 0.  0.
          5    1    3    3  502    0  0.41751661865E+01  0.54529248104E+02  0.62065473027E+02  0.82827931603E+02  0.41800000000E+01 0.  1.
         -5    1    3    3    0  502 -0.60445659460E+00 -0.71292573251E+02  0.79726086743E+02  0.10703605783E+03  0.41800000000E+01 0.  1.
        -11    1    4    4    0    0 -0.45247155845E+02  0.19143642954E+02  0.40927687179E+02  0.63944192507E+02  0.00000000000E+00 0.  1.
         11    1    4    4    0    0  0.41676446253E+02 -0.23803178072E+01  0.15128777334E+02  0.44401261117E+02  0.00000000000E+00 0. -1.
</event>
<event>
 8    1  0.7075056E-009  0.1394503E+03  0.7561462E-02  0.1214071E+00
         -2   -1    0    0    0  501 -0.00000000000E+00  0.00000000000E+00  0.35946724137E+02  0.35946724137E+02  0.00000000000E+00 0. -1.
          2   -1    0    0  501    0  0.00000000000E+00 -0.00000000000E+00 -0.67183489653E+03  0.67183489653E+03  0.00000000000E+00 0.  1.
         25    2    1    2    0    0 -0.39585663026E+02 -0.10402308334E+03 -0.33653865875E+03  0.37588966528E+03  0.12508774937E+03 0.  0.
         23    2    1    2    0    0  0.39585663026E+02  0.10402308334E+03 -0.29934951364E+03  0.33189195539E+03  0.90301230052E+02 0.  0.
          5    1    3    3  502    0  0.30500135984E+02  0.67716916813E+01 -0.35256515425E+02  0.47292794199E+02  0.41800000000E+01 0. -1.
         -5    1    3    3    0  502 -0.70085799010E+02 -0.11079477502E+03 -0.30128214333E+03  0.32859687108E+03  0.41800000000E+01 0. -1.
        -11    1    4    4    0    0  0.41733543261E+02  0.65738281665E+02 -0.27650035183E+03  0.28725538266E+03  0.00000000000E+00 0.  1.
         11    1    4    4    0    0 -0.21478802346E+01  0.38284801679E+02 -0.22849161818E+02  0.44636572728E+02  0.00000000000E+00 0. -1.
</event>
<event>
 8    1  0.7075056E-009  0.9816980E+02  0.7561462E-02  0.1284192E+00
          1   -1    0    0  501    0  0.00000000000E+00  0.00000000000E+00  0.79733675165E+02  0.79733675165E+02  0.00000000000E+00 0. -1.
         -1   -1    0    0    0  501 -0.00000000000E+00 -0.00000000000E+00 -0.15974071345E+03  0.15974071345E+03  0.00000000000E+00 0.  1.
         25    2    1    2    0    0  0.18651006907E+02 -0.18539478447E+02 -0.36902912320E+02  0.13302701328E+03  0.12507113578E+03 0.  0.
         23    2    1    2    0    0 -0.18651006907E+02  0.18539478447E+02 -0.43104125961E+02  0.10644737533E+03  0.93709688510E+02 0.  0.
          5    1    3    3  502    0  0.56977737561E+02 -0.21012999238E+02 -0.62055467535E+02  0.86927338424E+02  0.41800000000E+01 0. -1.
         -5    1    3    3    0  502 -0.38326730655E+02  0.24735207912E+01  0.25152555215E+02  0.46099674854E+02  0.41800000000E+01 0. -1.
        -11    1    4    4    0    0 -0.30187085009E+02 -0.32587853694E+02 -0.25140090884E+02  0.51041673947E+02  0.00000000000E+00 0.  1.
         11    1    4    4    0    0  0.11536078102E+02  0.51127332141E+02 -0.17964035077E+02  0.55405701386E+02  0.00000000000E+00 0. -1.
</event>
<event>
 8    1  0.7075056E-009  0.1084662E+03  0.7561462E-02  0.1263437E+00
          3   -1    0    0  501    0  0.00000000000E+00  0.00000000000E+00  0.28270439377E+02  0.28270439377E+02  0.00000000000E+00 0. -1.
         -3   -1    0    0    0  501 -0.00000000000E+00 -0.00000000000E+00 -0.65816656686E+03  0.65816656686E+03  0.00000000000E+00 0.  1.
         25    2    1    2    0    0  0.30385557458E+02  0.66127237139E+02 -0.24764465980E+03  0.28682585123E+03  0.12508036543E+03 0.  0.
         23    2    1    2    0    0 -0.30385557458E+02 -0.66127237139E+02 -0.38225146769E+03  0.39961115501E+03  0.90976904003E+02 0.  0.
          5    1    3    3  502    0 -0.73962548472E+01  0.65874323790E+02 -0.23870798308E+03  0.24777631990E+03  0.41800000000E+01 0. -1.
         -5    1    3    3    0  502  0.37781812306E+02  0.25291334928E+00 -0.89366767210E+01  0.39049531330E+02  0.41800000000E+01 0. -1.
        -11    1    4    4    0    0 -0.15335661225E+02 -0.86120206286E+02 -0.33389459181E+03  0.34516296278E+03  0.00000000000E+00 0.  1.
         11    1    4    4    0    0 -0.15049896233E+02  0.19992969146E+02 -0.48356875880E+02  0.54448192227E+02  0.00000000000E+00 0. -1.
</event>
<event>
 8    1  0.7075056E-009  0.2116695E+03  0.7561462E-02  0.1140251E+00
         -2   -1    0    0    0  501 -0.00000000000E+00  0.00000000000E+00  0.38250949993E+02  0.38250949993E+02  0.00000000000E+00 0.  1.
          2   -1    0    0  501    0  0.00000000000E+00 -0.00000000000E+00 -0.14891743423E+04  0.14891743423E+04  0.00000000000E+00 0. -1.
         25    2    1    2    0    0 -0.28179081372E+02 -0.19773375217E+03 -0.97963320831E+03  0.10075824070E+04  0.12509351138E+03 0.  0.
         23    2    1    2    0    0  0.28179081372E+02  0.19773375217E+03 -0.47129018398E+03  0.51984288533E+03  0.90716539490E+02 0.  0.
          5    1    3    3  502    0 -0.21595620631E+02 -0.18310702323E+02 -0.31376928963E+02  0.42469244415E+02  0.41800000000E+01 0.  1.
         -5    1    3    3    0  502 -0.65834607416E+01 -0.17942304985E+03 -0.94825627935E+03  0.96511316254E+03  0.41800000000E+01 0.  1.
        -11    1    4    4    0    0  0.48655121380E+02  0.18435354163E+03 -0.44392888150E+03  0.48314221610E+03  0.00000000000E+00 0.  1.
         11    1    4    4    0    0 -0.20476040007E+02  0.13380210544E+02 -0.27361302481E+02  0.36700669231E+02  0.00000000000E+00 0. -1.
</event>
<event>
 8    1  0.7075056E-009  0.1290532E+03  0.7561462E-02  0.1228867E+00
         -2   -1    0    0    0  501 -0.00000000000E+00  0.00000000000E+00  0.13970827911E+03  0.13970827911E+03  0.00000000000E+00 0.  1.
          2   -1    0    0  501    0  0.00000000000E+00 -0.00000000000E+00 -0.12278777085E+03  0.12278777085E+03  0.00000000000E+00 0. -1.
         25    2    1    2    0    0 -0.35052231485E+02  0.63446426957E+02  0.21203382775E+00  0.14457381140E+03  0.12508970365E+03 0.  0.
         23    2    1    2    0    0  0.35052231485E+02 -0.63446426957E+02  0.16708474431E+02  0.11792223856E+03  0.91500673238E+02 0.  0.
          5    1    3    3  502    0  0.41373497294E+02  0.51885587708E+02  0.70412253192E+01  0.66865026316E+02  0.41800000000E+01 0.  1.
         -5    1    3    3    0  502 -0.76425728779E+02  0.11560839249E+02 -0.68291914914E+01  0.77708785089E+02  0.41800000000E+01 0.  1.
        -11    1    4    4    0    0  0.10324569171E+02  0.22508728781E+02 -0.63330940926E+01  0.25560666671E+02  0.00000000000E+00 0. -1.
         11    1    4    4    0    0  0.24727662314E+02 -0.85955155738E+02  0.23041568524E+02  0.92361571887E+02  0.00000000000E+00 0.  1.
</event>
<event>
 8    1  0.7075056E-009  0.1094122E+03  0.7561462E-02  0.1261662E+00
          2   -1    0    0  501    0  0.00000000000E+00  0.00000000000E+00  0.34800827979E+03  0.34800827979E+03  0.00000000000E+00 0. -1.
         -2   -1    0    0    0  501 -0.00000000000E+00 -0.00000000000E+00 -0.55018591081E+02  0.55018591081E+02  0.00000000000E+00 0.  1.
         25    2    1    2    0    0 -0.29973585493E+02 -0.18942765310E+02  0.46037184393E+02  0.13792982286E+03  0.12509184427E+03 0.  0.
         23    2    1    2    0    0  0.29973585493E+02  0.18942765310E+02  0.24695250432E+03  0.26509704802E+03  0.89630693922E+02 0.  0.
          5    1    3    3  502    0 -0.78283260388E+02 -0.18686690792E+01  0.24103301986E+02  0.82037810476E+02  0.41800000000E+01 0.  1.
         -5    1    3    3    0  502  0.48309674895E+02 -0.17074096231E+02  0.21933882407E+02  0.55892012381E+02  0.41800000000E+01 0.  1.
        -11    1    4    4    0    0  0.30772695491E+02  0.49578765988E+02  0.20499932907E+03  0.21314252918E+03  0.00000000000E+00 0. -1.
         11    1    4    4    0    0 -0.79910999773E+00 -0.30636000679E+02  0.41953175244E+02  0.51954518835E+02  0.00000000000E+00 0.  1.
</event>
<event>
 8    1  0.7075056E-009  0.1545802E+03  0.7561462E-02  0.1194955E+00
          1   -1    0    0  501    0  0.00000000000E+00  0.00000000000E+00  0.15626712306E+04  0.15626712306E+04  0.00000000000E+00 0. -1.
         -1   -1    0    0    0  501 -0.00000000000E+00 -0.00000000000E+00 -0.18624257057E+02  0.18624257057E+02  0.00000000000E+00 0.  1.
         25    2    1    2    0    0  0.50250741495E+02 -0.11082170988E+03  0.10543809693E+04  0.10687248936E+04  0.12508829444E+03 0.  0.
         23    2    1    2    0    0 -0.50250741495E+02  0.11082170988E+03  0.48966600425E+03  0.51257059405E+03  0.90273084391E+02 0.  0.
          5    1    3    3  502    0  0.72014590259E+02 -0.12090114512E+03  0.98876865691E+03  0.99874126649E+03  0.41800000000E+01 0. -1.
         -5    1    3    3    0  502 -0.21763848764E+02  0.10079435244E+02  0.65612312345E+02  0.69983627079E+02  0.41800000000E+01 0. -1.
        -11    1    4    4    0    0 -0.71118781932E+02  0.86380663808E+02  0.43497928607E+03  0.44913971049E+03  0.00000000000E+00 0.  1.
         11    1    4    4    0    0  0.20868040436E+02  0.24441046071E+02  0.54686718178E+02  0.63430883565E+02  0.00000000000E+00 0. -1.
</event>
<event>
 8    1  0.7075056E-009  0.1550485E+03  0.7561462E-02  0.1194403E+00
          2   -1    0    0  501    0  0.00000000000E+00  0.00000000000E+00  0.89902065333E+03  0.89902065333E+03  0.00000000000E+00 0. -1.
         -2   -1    0    0    0  501 -0.00000000000E+00 -0.00000000000E+00 -0.27249791548E+02  0.27249791548E+02  0.00000000000E+00 0.  1.
         25    2    1    2    0    0 -0.75156072217E+02 -0.80915739158E+02  0.41106843946E+03  0.44364399803E+03  0.12508774133E+03 0.  0.
         23    2    1    2    0    0  0.75156072217E+02  0.80915739158E+02  0.46070242233E+03  0.48262644685E+03  0.92118256769E+02 0.  0.
          5    1    3    3  502    0 -0.81167381098E+02  0.42325851117E+01  0.19765928406E+03  0.21375856358E+03  0.41800000000E+01 0. -1.
         -5    1    3    3    0  502  0.60113088812E+01 -0.85148324270E+02  0.21340915540E+03  0.22988543444E+03  0.41800000000E+01 0. -1.
        -11    1    4    4    0    0  0.74825694894E+02  0.13744860264E+02  0.26582418051E+03  0.27649647511E+03  0.00000000000E+00 0. -1.
         11    1    4    4    0    0  0.33037732248E+00  0.67170878894E+02  0.19487824181E+03  0.20612997175E+03  0.00000000000E+00 0.  1.
</event>
<event>
 8    1  0.7075056E-009  0.6724977E+02  0.7561462E-02  0.1369703E+00
          1   -1    0    0  501    0  0.00000000000E+00  0.00000000000E+00  0.43821838436E+03  0.43821838436E+03  0.00000000000E+00 0. -1.
         -1   -1    0    0    0  501 -0.00000000000E+00 -0.00000000000E+00 -0.33276911055E+02  0.33276911055E+02  0.00000000000E+00 0.  1.
         25    2    1    2    0    0 -0.33838750985E+02  0.29334040696E+02  0.29126886778E+03  0.32014883793E+03  0.12510866507E+03 0.  0.
         23    2    1    2    0    0  0.33838750985E+02 -0.29334040696E+02  0.11367260552E+03  0.15134645749E+03  0.89323803859E+02 0.  0.
          5    1    3    3  502    0 -0.33611880028E+02  0.31829543588E+02  0.30347083492E+03  0.30700960632E+03  0.41800000000E+01 0. -1.
         -5    1    3    3    0  502 -0.22687095661E+00 -0.24955028923E+01 -0.12201967142E+02  0.13139231608E+02  0.41800000000E+01 0. -1.
        -11    1    4    4    0    0  0.10302930355E+02  0.23307447815E+02  0.81337041904E+02  0.85235567009E+02  0.00000000000E+00 0. -1.
         11    1    4    4    0    0  0.23535820629E+02 -0.52641488511E+02  0.32335563621E+02  0.66110890480E+02  0.00000000000E+00 0.  1.
</event>
<event>
 8    1  0.7075056E-009  0.1333906E+03  0.7561462E-02  0.1222510E+00
          2   -1    0    0  501    0  0.00000000000E+00  0.00000000000E+00  0.70370234212E+02  0.70370234212E+02  0.00000000000E+00 0. -1.
         -2   -1    0    0    0  501 -0.00000000000E+00 -0.00000000000E+00 -0.26758594024E+03  0.26758594024E+03  0.00000000000E+00 0.  1.
         25    2    1    2    0    0  0.13770559616E+02  0.81963932185E+02 -0.12379131577E+03  0.19462577313E+03  0.12508871738E+03 0.  0.
         23    2    1    2    0    0 -0.13770559616E+02 -0.81963932185E+02 -0.73424390256E+02  0.14333040132E+03  0.90800596725E+02 0.  0.
          5    1    3    3  502    0  0.29108832918E+02 -0.23208778608E+02 -0.98163280116E+01  0.38727306309E+02  0.41800000000E+01 0.  1.
         -5    1    3    3    0  502 -0.15338273302E+02  0.10517271079E+03 -0.11397498776E+03  0.15589846682E+03  0.41800000000E+01 0.  1.
        -11    1    4    4    0    0 -0.52412360603E+02 -0.53992882861E+02 -0.41537198654E+02  0.85951299092E+02  0.00000000000E+00 0.  1.
         11    1    4    4    0    0  0.38641800987E+02 -0.27971049324E+02 -0.31887191602E+02  0.57379102224E+02  0.00000000000E+00 0. -1.
</event>
<event>
 8    1  0.7075056E-009  0.8080661E+02  0.7561462E-02  0.1326778E+00
          1   -1    0    0  501    0  0.00000000000E+00  0.00000000000E+00  0.34739061911E+02  0.34739061911E+02  0.00000000000E+00 0. -1.
         -1   -1    0    0    0  501 -0.00000000000E+00 -0.00000000000E+00 -0.36264607437E+03  0.36264607437E+03  0.00000000000E+00 0.  1.
         25    2    1    2    0    0  0.27926657845E+02 -0.15681509429E+01 -0.17402070567E+03  0.21613147255E+03  0.12508896877E+03 0.  0.
         23    2    1    2    0    0 -0.27926657845E+02  0.15681509429E+01 -0.15388630679E+03  0.18125366373E+03  0.91594420596E+02 0.  0.
          5    1    3    3  502    0  0.67853741248E+01  0.33273500394E+02  0.30810350496E+01  0.34353053830E+02  0.41800000000E+01 0.  1.
         -5    1    3    3    0  502  0.21141283720E+02 -0.34841651337E+02 -0.17710174072E+03  0.18177841872E+03  0.41800000000E+01 0.  1.
        -11    1    4    4    0    0 -0.10566671067E+02 -0.40005848485E+02 -0.35271749999E+02  0.54371120997E+02  0.00000000000E+00 0. -1.
         11    1    4    4    0    0 -0.17359986778E+02  0.41573999428E+02 -0.11861455679E+03  0.12688254274E+03  0.00000000000E+00 0.  1.
</event>
<event>
 8    1  0.7075056E-009  0.9510344E+02  0.7561462E-02  0.1290943E+00
          1   -1    0    0  501    0  0.00000000000E+00  0.00000000000E+00  0.56650406007E+03  0.56650406007E+03  0.00000000000E+00 0. -1.
         -1   -1    0    0    0  501 -0.00000000000E+00 -0.00000000000E+00 -0.23172166223E+02  0.23172166223E+02  0.00000000000E+00 0.  1.
         25    2    1    2    0    0 -0.93264428926E+01 -0.31869182590E+02  0.35994546987E+03  0.38250753408E+03  0.12509454428E+03 0.  0.
         23    2    1    2    0    0  0.93264428926E+01  0.31869182590E+02  0.18338642397E+03  0.20716869222E+03  0.90474632912E+02 0.  0.
          5    1    3    3  502    0 -0.50454687880E+02 -0.37063257890E+02  0.31513119800E+03  0.32131682958E+03  0.41800000000E+01 0. -1.
         -5    1    3    3    0  502  0.41128244988E+02  0.51940752997E+01  0.44814271870E+02  0.61190704500E+02  0.41800000000E+01 0. -1.
        -11    1    4    4    0    0  0.41077817077E+02  0.38031151987E+00  0.41463374508E+02  0.58367312070E+02  0.00000000000E+00 0.  1.
         11    1    4    4    0    0 -0.31751374184E+02  0.31488871070E+02  0.14192304947E+03  0.14880138015E+03  0.00000000000E+00 0. -1.
</event>
<event>
 8    1  0.7075056E-009  0.5678354E+02  0.7561462E-02  0.1411848E+00
         -1   -1    0    0    0  501 -0.00000000000E+00  0.00000000000E+00  0.17246861221E+02  0.17246861221E+02  0.00000000000E+00 0.  1.
          1   -1    0    0  501    0  0.00000000000E+00 -0.00000000000E+00 -0.14240579607E+04  0.14240579607E+04  0.00000000000E+00 0. -1.
         25    2    1    2    0    0  0.50106481213E+02  0.12993177548E+02 -0.12238963003E+04  0.12313604487E+04  0.12508764352E+03 0.  0.
         23    2    1    2    0    0 -0.50106481213E+02 -0.12993177548E+02 -0.18291479918E+03  0.20994437324E+03  0.89102940324E+02 0.  0.
          5    1    3    3  502    0  0.48642228763E+02  0.20105747134E+02 -0.12215070046E+04  0.12226475953E+04  0.41800000000E+01 0. -1.
         -5    1    3    3    0  502  0.14642524498E+01 -0.71125695855E+01 -0.23892957346E+01  0.87128534622E+01  0.41800000000E+01 0. -1.
        -11    1    4    4    0    0 -0.39826366241E+02 -0.13616624291E+02 -0.19178673279E+03  0.19635096837E+03  0.00000000000E+00 0. -1.
         11    1    4    4    0    0 -0.10280114972E+02  0.62344674276E+00  0.88719336191E+01  0.13593404865E+02  0.00000000000E+00 0.  1.
</event>
<event>
 8    1  0.7075056E-009  0.1336775E+03  0.7561462E-02  0.1222099E+00
          1   -1    0    0  501    0  0.00000000000E+00  0.00000000000E+00  0.10256789336E+04  0.10256789336E+04  0.00000000000E+00 0. -1.
         -1   -1    0    0    0  501 -0.00000000000E+00 -0.00000000000E+00 -0.23127914632E+02  0.23127914632E+02  0.00000000000E+00 0.  1.
         25    2    1    2    0    0 -0.99235814059E+02 -0.23388519199E+02  0.67216155305E+03  0.69126182194E+03  0.12508790290E+03 0.  0.
         23    2    1    2    0    0  0.99235814059E+02  0.23388519199E+02  0.33038946588E+03  0.35754502625E+03  0.91030088498E+02 0.  0.
          5    1    3    3  502    0  0.20242653976E+02  0.24854502005E+02  0.12397050293E+03  0.12811584331E+03  0.41800000000E+01 0.  1.
         -5    1    3    3    0  502 -0.11947846803E+03 -0.48243021205E+02  0.54819105013E+03  0.56314597864E+03  0.41800000000E+01 0.  1.
        -11    1    4    4    0    0  0.15583528412E+02 -0.70345433918E+01  0.18928883846E+01  0.17202156404E+02  0.00000000000E+00 0.  1.
         11    1    4    4    0    0  0.83652285646E+02  0.30423062591E+02  0.32849657750E+03  0.34034286985E+03  0.00000000000E+00 0. -1.
</event>
<event>
 8    1  0.7075056E-009  0.1219525E+03  0.7561462E-02  0.1239910E+00
          2   -1    0    0  501    0  0.00000000000E+00  0.00000000000E+00  0.12300116849E+03  0.12300116849E+03  0.00000000000E+00 0. -1.
         -2   -1    0    0    0  501 -0.00000000000E+00 -0.00000000000E+00 -0.14491825187E+03  0.14491825187E+03  0.00000000000E+00 0.  1.
         25    2    1    2    0    0  0.21542268079E+02  0.74414208711E+02 -0.21200858780E+02  0.14865495331E+03  0.12508906810E+03 0.  0.
         23    2    1    2    0    0 -0.21542268079E+02 -0.74414208711E+02 -0.71622459579E+00  0.11926446705E+03  0.90675004003E+02 0.  0.
          5    1    3    3  502    0 -0.49853965035E+02  0.46214088990E+02  0.26608793723E+01  0.68159463979E+02  0.41800000000E+01 0. -1.
         -5    1    3    3    0  502  0.71396233114E+02  0.28200119721E+02 -0.23861738152E+02  0.80495489332E+02  0.41800000000E+01 0. -1.
        -11    1    4    4    0    0 -0.27735514043E+02 -0.37534416605E+01 -0.31327787652E+02  0.42009253061E+02  0.00000000000E+00 0.  1.
         11    1    4    4    0    0  0.61932459647E+01 -0.70660767050E+02  0.30611563057E+02  0.77255213989E+02  0.00000000000E+00 0. -1.
</event>
<event>
 8    1  0.7075056E-009  0.2364626E+03  0.7561462E-02  0.1122172E+00
          2   -1    0    0  501    0  0.00000000000E+00  0.00000000000E+00  0.39400834719E+03  0.39400834719E+03  0.00000000000E+00 0. -1.
         -2   -1    0    0    0  501 -0.00000000000E+00 -0.00000000000E+00 -0.17889835551E+03  0.17889835551E+03  0.00000000000E+00 0.  1.
         25    2    1    2    0    0 -0.18902815271E+03  0.11843345506E+03  0.10180325752E+02  0.25594763403E+03  0.12508967400E+03 0.  0.
         23    2    1    2    0    0  0.18902815271E+03 -0.11843345506E+03  0.20492966592E+03  0.31695906866E+03  0.93320723532E+02 0.  0.
          5    1    3    3  502    0 -0.12474243399E+02  0.54561287673E+02 -0.30378421621E+02  0.63818976497E+02  0.41800000000E+01 0. -1.
         -5    1    3    3    0  502 -0.17655390931E+03  0.63872167386E+02  0.40558747372E+02  0.19212865754E+03  0.41800000000E+01 0. -1.
        -11    1    4    4    0    0  0.14573884718E+03 -0.11486857342E+03  0.11834781569E+03  0.22009272186E+03  0.00000000000E+00 0.  1.
         11    1    4    4    0    0  0.43289305527E+02 -0.35648816420E+01  0.86581850230E+02  0.96866346805E+02  0.00000000000E+00 0. -1.
</event>
<event>
 8    1  0.7075056E-009  0.1165925E+03  0.7561462E-02  0.1248827E+00
          2   -1    0    0  501    0  0.00000000000E+00  0.00000000000E+00  0.39683383927E+03  0.39683383927E+03  0.00000000000E+00 0. -1.
         -2   -1    0    0    0  501 -0.00000000000E+00 -0.00000000000E+00 -0.55300068150E+02  0.55300068150E+02  0.00000000000E+00 0.  1.
         25    2    1    2    0    0 -0.26296358459E+02 -0.82860232519E+02  0.26226839729E+03  0.30329865692E+03  0.12509215191E+03 0.  0.
         23    2    1    2    0    0  0.26296358459E+02  0.82860232519E+02  0.79265373836E+02  0.14883525051E+03  0.91168062956E+02 0.  0.
          5    1    3    3  502    0  0.21300530622E+02 -0.40870182550E+02  0.22471694782E+03  0.22943248128E+03  0.41800000000E+01 0. -1.
         -5    1    3    3    0  502 -0.47596889081E+02 -0.41990049969E+02  0.37551449468E+02  0.73866175640E+02  0.41800000000E+01 0. -1.
        -11    1    4    4    0    0  0.52156712846E+02  0.20953885151E+02  0.21090115590E+02  0.60034831335E+02  0.00000000000E+00 0.  1.
         11    1    4    4    0    0 -0.25860354387E+02  0.61906347368E+02  0.58175258245E+02  0.88800419173E+02  0.00000000000E+00 0. -1.
</event>
<event>
 8    1  0.7075056E-009  0.1305361E+03  0.7561462E-02  0.1226662E+00
          2   -1    0    0  501    0  0.00000000000E+00  0.00000000000E+00  0.56928692282E+03  0.56928692282E+03  0.00000000000E+00 0. -1.
         -2   -1    0    0    0  501 -0.00000000000E+00 -0.00000000000E+00 -0.42963920873E+02  0.42963920873E+02  0.00000000000E+00 0.  1.
         25    2    1    2    0    0  0.16787939002E+02  0.10151980248E+03  0.20020041136E+03  0.25751918052E+03  0.12509124045E+03 0.  0.
         23    2    1    2    0    0 -0.16787939002E+02 -0.10151980248E+03  0.32612259059E+03  0.35473166317E+03  0.94289466935E+02 0.  0.
          5    1    3    3  502    0  0.41704900849E+02  0.78366159604E+02  0.47002164774E+02  0.10053471848E+03  0.41800000000E+01 0.  1.
         -5    1    3    3    0  502 -0.24916961847E+02  0.23153642873E+02  0.15319824658E+03  0.15698446204E+03  0.41800000000E+01 0.  1.
        -11    1    4    4    0    0  0.16417125396E+01  0.17457884050E+02  0.25998741838E+02  0.31359328959E+02  0.00000000000E+00 0.  1.
         11    1    4    4    0    0 -0.18429651541E+02 -0.11897768653E+03  0.30012384875E+03  0.32337233421E+03  0.00000000000E+00 0. -1.
</event>
<event>
 8    1  0.7075056E-009  0.1056117E+03  0.7561462E-02  0.1268919E+00
         -1   -1    0    0    0  501 -0.00000000000E+00  0.00000000000E+00  0.37201144177E+02  0.37201144177E+02  0.00000000000E+00 0. -1.
          1   -1    0    0  501    0  0.00000000000E+00 -0.00000000000E+00 -0.58236864213E+03  0.58236864213E+03  0.00000000000E+00 0.  1.
         25    2    1    2    0    0  0.73273380568E+02  0.52801764980E+02 -0.38782340590E+03  0.41738658424E+03  0.12509017489E+03 0.  0.
         23    2    1    2    0    0 -0.73273380568E+02 -0.52801764980E+02 -0.15734409205E+03  0.20218320206E+03  0.89240513273E+02 0.  0.
          5    1    3    3  502    0  0.18618560177E+02  0.25039995328E+02 -0.78080669636E+01  0.32435943932E+02  0.41800000000E+01 0. -1.
         -5    1    3    3    0  502  0.54654820392E+02  0.27761769652E+02 -0.38001533894E+03  0.38495064031E+03  0.41800000000E+01 0. -1.
        -11    1    4    4    0    0 -0.15336303721E+02 -0.58127089479E+02 -0.43076849942E+02  0.73956580127E+02  0.00000000000E+00 0.  1.
         11    1    4    4    0    0 -0.57937076847E+02  0.53253244995E+01 -0.11426724211E+03  0.12822662194E+03  0.00000000000E+00 0. -1.
</event>
<event>
 8    1  0.7075056E-009  0.1031761E+03  0.7561462E-02  0.1273755E+00
         -2   -1    0    0    0  501 -0.00000000000E+00  0.00000000000E+00  0.48712880027E+02  0.48712880027E+02  0.00000000000E+00 0. -1.
          2   -1    0    0  501    0  0.00000000000E+00 -0.00000000000E+00 -0.23693098045E+03  0.23693098045E+03  0.00000000000E+00 0.  1.
         25    2    1    2    0    0 -0.13470749866E+02  0.11770145631E+02 -0.10190376957E+03  0.16233499753E+03  0.12509306831E+03 0.  0.
         23    2    1    2    0    0  0.13470749866E+02 -0.11770145631E+02 -0.86314330852E+02  0.12330886295E+03  0.86225950508E+02 0.  0.
          5    1    3    3  502    0  0.45059616906E+02  0.40503839626E+02 -0.54653698210E+02  0.81703299983E+02  0.41800000000E+01 0. -1.
         -5    1    3    3    0  502 -0.58530366773E+02 -0.28733693995E+02 -0.47250071358E+02  0.80631697542E+02  0.41800000000E+01 0. -1.
        -11    1    4    4    0    0 -0.12610187325E+02  0.29148560505E+02 -0.10794582253E+02  0.33543679135E+02  0.00000000000E+00 0. -1.
         11    1    4    4    0    0  0.26080937191E+02 -0.40918706136E+02 -0.75519748599E+02  0.89765183813E+02  0.00000000000E+00 0.  1.
</event>
<event>
 8    1  0.7075056E-009  0.1072803E+03  0.7561462E-02  0.1265691E+00
          1   -1    0    0  501    0  0.00000000000E+00  0.00000000000E+00  0.26666195993E+03  0.26666195993E+03  0.00000000000E+00 0. -1.
         -1   -1    0    0    0  501 -0.00000000000E+00 -0.00000000000E+00 -0.44051824958E+02  0.44051824958E+02  0.00000000000E+00 0.  1.
         25    2    1    2    0    0 -0.84077592173E+01 -0.38688062123E+01  0.11965112345E+03  0.17334800744E+03  0.12508989674E+03 0.  0.
         23    2    1    2    0    0  0.84077592173E+01  0.38688062123E+01  0.10295901152E+03  0.13736577744E+03  0.90460713471E+02 0.  0.
          5    1    3    3  502    0 -0.25073947392E+02  0.56562960641E+02  0.67852273338E+02  0.91921024534E+02  0.41800000000E+01 0. -1.
         -5    1    3    3    0  502  0.16666188175E+02 -0.60431766853E+02  0.51798850109E+02  0.81426982910E+02  0.41800000000E+01 0. -1.
        -11    1    4    4    0    0  0.16640736940E+02  0.44893580371E+02  0.66001525825E+02  0.81538635601E+02  0.00000000000E+00 0. -1.
         11    1    4    4    0    0 -0.82329777225E+01 -0.41024774159E+02  0.36957485698E+02  0.55827141840E+02  0.00000000000E+00 0.  1.
</event>
<event>
 8    1  0.7075056E-009  0.9858360E+02  0.7561462E-02  0.1283303E+00
         -1   -1    0    0    0  501 -0.00000000000E+00  0.00000000000E+00  0.33880793666E+02  0.33880793666E+02  0.00000000000E+00 0.  1.
          1   -1    0    0  501    0  0.00000000000E+00 -0.00000000000E+00 -0.54134177629E+03  0.54134177629E+03  0.00000000000E+00 0. -1.
         25    2    1    2    0    0  0.40253917352E+02  0.63696631800E+02 -0.33919222792E+03  0.36929104601E+03  0.12508745107E+03 0.  0.
         23    2    1    2    0    0 -0.40253917352E+02 -0.63696631800E+02 -0.16826875470E+03  0.20593152394E+03  0.91737560362E+02 0.  0.
          5    1    3    3  502    0  0.44044972626E+02  0.25890708086E+02 -0.32420590412E+03  0.32823349775E+03  0.41800000000E+01 0. -1.
         -5    1    3    3    0  502 -0.37910552744E+01  0.37805923715E+02 -0.14986323804E+02  0.41057548261E+02  0.41800000000E+01 0. -1.
        -11    1    4    4    0    0  0.22229966804E+02 -0.69944774889E+01 -0.77004117284E+01  0.24543644396E+02  0.00000000000E+00 0.  1.
         11    1    4    4    0    0 -0.62483884156E+02 -0.56702154311E+02 -0.16056834297E+03  0.18138787955E+03  0.00000000000E+00 0. -1.
</event>
<event>
 8    1  0.7075056E-009  0.1221678E+03  0.7561462E-02  0.1239563E+00
         -1   -1    0    0    0  501 -0.00000000000E+00  0.00000000000E+00  0.67330177261E+02  0.67330177261E+02  0.00000000000E+00 0.  1.
          1   -1    0    0  501    0  0.00000000000E+00 -0.00000000000E+00 -0.35658276287E+03  0.35658276287E+03  0.00000000000E+00 0. -1.
         25    2    1    2    0    0 -0.44185431597E+02 -0.45651506755E+02 -0.30301941272E+02  0.14353012566E+03  0.12508507862E+03 0.  0.
         23    2    1    2    0    0  0.44185431597E+02  0.45651506755E+02 -0.25895064433E+03  0.28038281447E+03  0.86733350071E+02 0.  0.
          5    1    3    3  502    0 -0.17477336425E+02 -0.86220166570E+02 -0.40625014224E+01  0.88166607793E+02  0.41800000000E+01 0. -1.
         -5    1    3    3    0  502 -0.26708095172E+02  0.40568659815E+02 -0.26239439850E+02  0.55363517866E+02  0.41800000000E+01 0. -1.
        -11    1    4    4    0    0  0.14511627025E+01  0.61808494367E+02 -0.14829583784E+03  0.16066751809E+03  0.00000000000E+00 0.  1.
         11    1    4    4    0    0  0.42734268894E+02 -0.16156987612E+02 -0.11065480650E+03  0.11971529638E+03  0.00000000000E+00 0. -1.
</event>
<event>
 8    1  0.7075056E-009  0.1558986E+03  0.7561462E-02  0.1193407E+00
         -2   -1    0    0    0  501 -0.00000000000E+00  0.00000000000E+00  0.84373534854E+02  0.84373534854E+02  0.00000000000E+00 0.  1.
          2   -1    0    0  501    0  0.00000000000E+00 -0.00000000000E+00 -0.31924852471E+03  0.31924852471E+03  0.00000000000E+00 0. -1.
         25    2    1    2    0    0  0.82048359077E+02  0.93337336125E+02 -0.12499108598E+03  0.21613594837E+03  0.12509270586E+03 0.  0.
         23    2    1    2    0    0 -0.82048359077E+02 -0.93337336125E+02 -0.10988390388E+03  0.18748611120E+03  0.87365771436E+02 0.  0.
          5    1    3    3  502    0 -0.16641734540E+02  0.66325072722E+02 -0.76931155575E+02  0.10301377431E+03  0.41800000000E+01 0. -1.
         -5    1    3    3    0  502  0.98690093617E+02  0.27012263403E+02 -0.48059930401E+02  0.11312217405E+03  0.41800000000E+01 0. -1.
        -11    1    4    4    0    0 -0.97579971023E+01 -0.60851675086E+02 -0.83856669827E+02  0.10406769884E+03  0.00000000000E+00 0. -1.
         11    1    4    4    0    0 -0.72290361975E+02 -0.32485661039E+02 -0.26027234056E+02  0.83418412357E+02  0.00000000000E+00 0.  1.
</event>
<event>
 8    1  0.7075056E-009  0.1168899E+03  0.7561462E-02  0.1248318E+00
          3   -1    0    0  501    0  0.00000000000E+00  0.00000000000E+00  0.92298606975E+03  0.92298606975E+03  0.00000000000E+00 0. -1.
         -3   -1    0    0    0  501 -0.00000000000E+00 -0.00000000000E+00 -0.19495040638E+02  0.19495040638E+02  0.00000000000E+00 0.  1.
         25    2    1    2    0    0  0.99682435969E+01 -0.79432961948E+02  0.49756673086E+03  0.51925844906E+03  0.12509086274E+03 0.  0.
         23    2    1    2    0    0 -0.99682435969E+01  0.79432961948E+02  0.40592429825E+03  0.42322266132E+03  0.89072576157E+02 0.  0.
          5    1    3    3  502    0  0.20831680400E+02  0.10643012908E+02  0.30947561997E+03  0.31038663694E+03  0.41800000000E+01 0. -1.
         -5    1    3    3    0  502 -0.10863436803E+02 -0.90075974855E+02  0.18809111088E+03  0.20887181212E+03  0.41800000000E+01 0. -1.
        -11    1    4    4    0    0  0.39181025792E+02  0.28801451593E+02  0.18624417706E+03  0.19248784348E+03  0.00000000000E+00 0. -1.
         11    1    4    4    0    0 -0.49149269389E+02  0.50631510355E+02  0.21968012119E+03  0.23073481785E+03  0.00000000000E+00 0.  1.
</event>
<event>
 8    1  0.7075056E-009  0.1048422E+03  0.7561462E-02  0.1270431E+00
         -1   -1    0    0    0  501 -0.00000000000E+00  0.00000000000E+00  0.14685892225E+02  0.14685892225E+02  0.00000000000E+00 0.  1.
          1   -1    0    0  501    0  0.00000000000E+00 -0.00000000000E+00 -0.10118055123E+04  0.10118055123E+04  0.00000000000E+00 0. -1.
         25    2    1    2    0    0  0.17771276333E+01 -0.63459481791E+01 -0.79394723303E+03  0.80376786141E+03  0.12508851648E+03 0.  0.
         23    2    1    2    0    0 -0.17771276333E+01  0.63459481791E+01 -0.20317238703E+03  0.22272354310E+03  0.91012793385E+02 0.  0.
          5    1    3    3  502    0 -0.55916642803E+02  0.13607516253E+02 -0.25997910458E+03  0.26630516829E+03  0.41800000000E+01 0. -1.
         -5    1    3    3    0  502  0.57693770437E+02 -0.19953464432E+02 -0.53396812845E+03  0.53746269312E+03  0.41800000000E+01 0. -1.
        -11    1    4    4    0    0 -0.24212631897E+02  0.42110683292E+02 -0.97528882585E+02  0.10895615691E+03  0.00000000000E+00 0.  1.
         11    1    4    4    0    0  0.22435504264E+02 -0.35764735113E+02 -0.10564350444E+03  0.11376738619E+03  0.00000000000E+00 0. -1.
</event>
<event>
 8    1  0.7075056E-009  0.1948319E+03  0.7561462E-02  0.1154174E+00
          2   -1    0    0  501    0  0.00000000000E+00  0.00000000000E+00  0.71710172188E+03  0.71710172188E+03  0.00000000000E+00 0. -1.
         -2   -1    0    0    0  501 -0.00000000000E+00 -0.00000000000E+00 -0.61727239087E+02  0.61727239087E+02  0.00000000000E+00 0.  1.
         25    2    1    2    0    0  0.37108555716E+02 -0.16597270329E+03  0.23554954023E+03  0.31631529436E+03  0.12509115237E+03 0.  0.
         23    2    1    2    0    0 -0.37108555716E+02  0.16597270329E+03  0.41982494257E+03  0.46251366661E+03  0.93498268707E+02 0.  0.
          5    1    3    3  502    0 -0.12107377139E+02 -0.15191769824E+03  0.20844133885E+03  0.25824569650E+03  0.41800000000E+01 0.  1.
         -5    1    3    3    0  502  0.49215932855E+02 -0.14055005049E+02  0.27108201374E+02  0.58069597858E+02  0.41800000000E+01 0.  1.
        -11    1    4    4    0    0  0.18767138284E+02  0.12561323707E+02  0.11007549349E+03  0.11236817432E+03  0.00000000000E+00 0. -1.
         11    1    4    4    0    0 -0.55875694000E+02  0.15341137958E+03  0.30974944907E+03  0.35014549228E+03  0.00000000000E+00 0.  1.
</event>
<event>
 8    1  0.7075056E-009  0.1094544E+03  0.7561462E-02  0.1261584E+00
         -1   -1    0    0    0  501 -0.00000000000E+00  0.00000000000E+00  0.31883078863E+02  0.31883078863E+02  0.00000000000E+00 0.  1.
          1   -1    0    0  501    0  0.00000000000E+00 -0.00000000000E+00 -0.49914421684E+03  0.49914421684E+03  0.00000000000E+00 0. -1.
         25    2    1    2    0    0  0.61829613128E+02 -0.59718895212E+01 -0.22839748431E+03  0.26771549678E+03  0.12509041472E+03 0.  0.
         23    2    1    2    0    0 -0.61829613128E+02  0.59718895212E+01 -0.23886365367E+03  0.26331179892E+03  0.91753440722E+02 0.  0.
          5    1    3    3  502    0  0.31638722828E+02  0.47358216111E+02 -0.40441820001E+02  0.69977300750E+02  0.41800000000E+01 0.  1.
         -5    1    3    3    0  502  0.30190890300E+02 -0.53330105632E+02 -0.18795566431E+03  0.19773819603E+03  0.41800000000E+01 0.  1.
        -11    1    4    4    0    0 -0.21361929536E+02  0.41403176632E+02 -0.56765615101E+02  0.73436299788E+02  0.00000000000E+00 0.  1.
         11    1    4    4    0    0 -0.40467683592E+02 -0.35431287111E+02 -0.18209803857E+03  0.18987549914E+03  0.00000000000E+00 0. -1.
</event>
<event>
 8    1  0.7075056E-009  0.9885456E+02  0.7561462E-02  0.1282723E+00
         -2   -1    0    0    0  501 -0.00000000000E+00  0.00000000000E+00  0.18469314537E+02  0.18469314537E+02  0.00000000000E+00 0. -1.
          2   -1    0    0  501    0  0.00000000000E+00 -0.00000000000E+00 -0.68712870133E+03  0.68712870133E+03  0.00000000000E+00 0.  1.
         25    2    1    2    0    0 -0.47325407735E+01  0.26581730999E+02 -0.38374683534E+03  0.40452136713E+03  0.12508763913E+03 0.  0.
         23    2    1    2    0    0  0.47325407735E+01 -0.26581730999E+02 -0.28491255145E+03  0.30107664874E+03  0.93504016359E+02 0.  0.
          5    1    3    3  502    0  0.20951478008E+02  0.72070517015E+02 -0.21033299404E+03  0.22336195879E+03  0.41800000000E+01 0. -1.
         -5    1    3    3    0  502 -0.25684018781E+02 -0.45488786016E+02 -0.17341384130E+03  0.18115940834E+03  0.41800000000E+01 0. -1.
        -11    1    4    4    0    0 -0.61709516749E+01 -0.46776916723E+02 -0.26910259842E+03  0.27320755674E+03  0.00000000000E+00 0.  1.
         11    1    4    4    0    0  0.10903492448E+02  0.20195185724E+02 -0.15809953032E+02  0.27869091999E+02  0.00000000000E+00 0. -1.
</event>
<event>
 8    1  0.7075056E-009  0.9741033E+02  0.7561462E-02  0.1285838E+00
          1   -1    0    0  501    0  0.00000000000E+00  0.00000000000E+00  0.81531573639E+02  0.81531573639E+02  0.00000000000E+00 0. -1.
         -1   -1    0    0    0  501 -0.00000000000E+00 -0.00000000000E+00 -0.22599193516E+03  0.22599193516E+03  0.00000000000E+00 0.  1.
         25    2    1    2    0    0  0.83299933418E+02 -0.84225757126E+01 -0.86701114520E+02  0.17370587593E+03  0.12508728706E+03 0.  0.
         23    2    1    2    0    0 -0.83299933418E+02  0.84225757126E+01 -0.57759247003E+02  0.13381763287E+03  0.86955215854E+02 0.  0.
          5    1    3    3  502    0  0.61918684196E+02  0.67622073447E+01 -0.11749095813E+03  0.13304603918E+03  0.41800000000E+01 0.  1.
         -5    1    3    3    0  502  0.21381249221E+02 -0.15184783057E+02  0.30789843608E+02  0.40659836746E+02  0.41800000000E+01 0.  1.
        -11    1    4    4    0    0 -0.15791688696E+02  0.30887260593E+02  0.94400341187E+01  0.35951558283E+02  0.00000000000E+00 0. -1.
         11    1    4    4    0    0 -0.67508244722E+02 -0.22464684881E+02 -0.67199281122E+02  0.97866074589E+02  0.00000000000E+00 0.  1.
</event>
<event>
 8    1  0.7075056E-009  0.1058906E+03  0.7561462E-02  0.1268375E+00
          2   -1    0    0  501    0  0.00000000000E+00  0.00000000000E+00  0.51470347553E+02  0.51470347553E+02  0.00000000000E+00 0. -1.
         -2   -1    0    0    0  501 -0.00000000000E+00 -0.00000000000E+00 -0.25172288063E+03  0.25172288063E+03  0.00000000000E+00 0.  1.
         25    2    1    2    0    0  0.58597994823E+01  0.32588762336E+02 -0.91258904190E+02  0.15834143439E+03  0.12508979802E+03 0.  0.
         23    2    1    2    0    0 -0.58597994823E+01 -0.32588762336E+02 -0.10899362889E+03  0.14485179380E+03  0.89476624585E+02 0.  0.
          5    1    3    3  502    0 -0.25115140174E+02  0.65930927702E+02 -0.87510550591E+02  0.11248656079E+03  0.41800000000E+01 0.  1.
         -5    1    3    3    0  502  0.30974939657E+02 -0.33342165366E+02 -0.37483535984E+01  0.45854873599E+02  0.41800000000E+01 0.  1.
        -11    1    4    4    0    0  0.34502174467E+02  0.10791439682E+02 -0.41867379342E+02  0.55314850324E+02  0.00000000000E+00 0.  1.
         11    1    4    4    0    0 -0.40361973949E+02 -0.43380202018E+02 -0.67126249547E+02  0.89536943473E+02  0.00000000000E+00 0. -1.
</event>
<event>
 8    1  0.7075056E-009  0.2207201E+03  0.7561462E-02  0.1133347E+00
         -1   -1    0    0    0  501 -0.00000000000E+00  0.00000000000E+00  0.54931610657E+02  0.54931610657E+02  0.00000000000E+00 0.  1.
          1   -1    0    0  501    0  0.00000000000E+00 -0.00000000000E+00 -0.15776105806E+04  0.15776105806E+04  0.00000000000E+00 0. -1.
         25    2    1    2    0    0 -0.15718854063E+03 -0.12549412501E+03 -0.12859624464E+04  0.13075947630E+04  0.12509051913E+03 0.  0.
         23    2    1    2    0    0  0.15718854063E+03  0.12549412501E+03 -0.23671652357E+03  0.32494742827E+03  0.95389233647E+02 0.  0.
          5    1    3    3  502    0 -0.11536975591E+03 -0.33524408676E+02 -0.45932420612E+03  0.47479497184E+03  0.41800000000E+01 0. -1.
         -5    1    3    3    0  502 -0.41818784723E+02 -0.91969716334E+02 -0.82663824028E+03  0.83279979117E+03  0.41800000000E+01 0. -1.
        -11    1    4    4    0    0  0.63654233825E+02  0.78089776094E-01 -0.47486082474E+02  0.79415336117E+02  0.00000000000E+00 0. -1.
         11    1    4    4    0    0  0.93534306803E+02  0.12541603523E+03 -0.18923044109E+03  0.24553209216E+03  0.00000000000E+00 0.  1.
</event>
<event>
 8    1  0.7075056E-009  0.1270908E+03  0.7561462E-02  0.1231837E+00
         -1   -1    0    0    0  501 -0.00000000000E+00  0.00000000000E+00  0.35637988909E+03  0.35637988909E+03  0.00000000000E+00 0.  1.
          1   -1    0    0  501    0  0.00000000000E+00 -0.00000000000E+00 -0.58878609864E+02  0.58878609864E+02  0.00000000000E+00 0. -1.
         25    2    1    2    0    0 -0.81363903025E+02  0.51212869245E+02  0.15284664895E+03  0.21966304896E+03  0.12508762645E+03 0.  0.
         23    2    1    2    0    0  0.81363903025E+02 -0.51212869245E+02  0.14465463028E+03  0.19559545000E+03  0.89943178214E+02 0.  0.
          5    1    3    3  502    0 -0.60188127728E+02 -0.78625107387E+01  0.14377257952E+03  0.15611680505E+03  0.41800000000E+01 0. -1.
         -5    1    3    3    0  502 -0.21175775296E+02  0.59075379983E+02  0.90740694283E+01  0.63546243914E+02  0.41800000000E+01 0. -1.
        -11    1    4    4    0    0  0.46719339988E+02  0.20331977767E+02  0.69706670556E+02  0.86342955525E+02  0.00000000000E+00 0. -1.
         11    1    4    4    0    0  0.34644563036E+02 -0.71544847012E+02  0.74947959719E+02  0.10925249447E+03  0.00000000000E+00 0.  1.
</event>
<event>
 8    1  0.7075056E-009  0.1125264E+03  0.7561462E-02  0.1255962E+00
         -2   -1    0    0    0  501 -0.00000000000E+00  0.00000000000E+00  0.14322098746E+02  0.14322098746E+02  0.00000000000E+00 0.  1.
          2   -1    0    0  501    0  0.00000000000E+00 -0.00000000000E+00 -0.10898613992E+04  0.10898613992E+04  0.00000000000E+00 0. -1.
         25    2    1    2    0    0  0.27091254197E+02  0.40090042764E+02 -0.78031229903E+03  0.79175494164E+03  0.12508979180E+03 0.  0.
         23    2    1    2    0    0 -0.27091254197E+02 -0.40090042764E+02 -0.29522700143E+03  0.31242855632E+03  0.90063715460E+02 0.  0.
          5    1    3    3  502    0 -0.42540396454E+01  0.77901482089E+02 -0.34918341243E+03  0.35781736359E+03  0.41800000000E+01 0. -1.
         -5    1    3    3    0  502  0.31345293843E+02 -0.37811439324E+02 -0.43112888660E+03  0.43393757806E+03  0.41800000000E+01 0. -1.
        -11    1    4    4    0    0  0.30262473115E+02 -0.58139212142E+01 -0.14137299239E+03  0.14469257733E+03  0.00000000000E+00 0.  1.
         11    1    4    4    0    0 -0.57353727312E+02 -0.34276121550E+02 -0.15385400905E+03  0.16773597898E+03  0.00000000000E+00 0. -1.
</event>
<event>
 8    1  0.7075056E-009  0.9427139E+02  0.7561462E-02  0.1292826E+00
          2   -1    0    0  501    0  0.00000000000E+00  0.00000000000E+00  0.13097657513E+03  0.13097657513E+03  0.00000000000E+00 0. -1.
         -2   -1    0    0    0  501 -0.00000000000E+00 -0.00000000000E+00 -0.12749230259E+03  0.12749230259E+03  0.00000000000E+00 0.  1.
         25    2    1    2    0    0 -0.36311956262E+02  0.58285549422E+02 -0.33604585711E+01  0.14273998451E+03  0.12509055543E+03 0.  0.
         23    2    1    2    0    0  0.36311956262E+02 -0.58285549422E+02  0.68447311152E+01  0.11572889321E+03  0.92900823139E+02 0.  0.
          5    1    3    3  502    0 -0.83660446500E+01 -0.27697421110E+02 -0.36136780953E+02  0.46480933477E+02  0.41800000000E+01 0. -1.
         -5    1    3    3    0  502 -0.27945911612E+02  0.85982970532E+02  0.32776322382E+02  0.96259051035E+02  0.41800000000E+01 0. -1.
        -11    1    4    4    0    0  0.13918341300E+02 -0.18553153242E+02  0.48626990906E+02  0.53875077395E+02  0.00000000000E+00 0. -1.
         11    1    4    4    0    0  0.22393614962E+02 -0.39732396181E+02 -0.41782259791E+02  0.61853815812E+02  0.00000000000E+00 0.  1.
</event>
<event>
 8    1  0.7075056E-009  0.1757705E+03  0.7561462E-02  0.1171960E+00
          1   -1    0    0  501    0  0.00000000000E+00  0.00000000000E+00  0.31436718104E+03  0.31436718104E+03  0.00000000000E+00 0. -1.
         -1   -1    0    0    0  501 -0.00000000000E+00 -0.00000000000E+00 -0.11972817783E+03  0.11972817783E+03  0.00000000000E+00 0.  1.
         25    2    1    2    0    0  0.14710928216E+03 -0.59007924902E+02  0.13067906807E+03  0.24051451268E+03  0.12508851219E+03 0.  0.
         23    2    1    2    0    0 -0.14710928216E+03  0.59007924902E+02  0.63959935147E+02  0.19358084619E+03  0.90882311846E+02 0.  0.
          5    1    3    3  502    0  0.95092898270E+02  0.18756631172E+02  0.10594293667E+03  0.14365183168E+03  0.41800000000E+01 0.  1.
         -5    1    3    3    0  502  0.52016383891E+02 -0.77764556074E+02  0.24736131393E+02  0.96862681002E+02  0.41800000000E+01 0.  1.
        -11    1    4    4    0    0 -0.10577228571E+03  0.28637510124E+02 -0.25236723860E+01  0.10960954490E+03  0.00000000000E+00 0.  1.
         11    1    4    4    0    0 -0.41336996454E+02  0.30370414779E+02  0.66483607533E+02  0.83971301289E+02  0.00000000000E+00 0. -1.
</event>
<event>
 8    1  0.7075056E-009  0.1749294E+03  0.7561462E-02  0.1172803E+00
          1   -1    0    0  501    0  0.00000000000E+00  0.00000000000E+00  0.15733610735E+03  0.15733610735E+03  0.00000000000E+00 0. -1.
         -1   -1    0    0    0  501 -0.00000000000E+00 -0.00000000000E+00 -0.63832088611E+03  0.63832088611E+03  0.00000000000E+00 0.  1.
         25    2    1    2    0    0  0.88174195212E+02  0.13052556526E+03  0.71922238878E+02  0.21361193953E+03  0.12508253427E+03 0.  0.
         23    2    1    2    0    0 -0.88174195212E+02 -0.13052556526E+03 -0.55290701764E+03  0.58204505394E+03  0.90877185109E+02 0.  0.
          5    1    3    3  502    0  0.55971316301E+02  0.13893704396E+03  0.90711192700E+02  0.17516359015E+03  0.41800000000E+01 0.  1.
         -5    1    3    3    0  502  0.32202878911E+02 -0.84114787079E+01 -0.18788953822E+02  0.38448349379E+02  0.41800000000E+01 0.  1.
        -11    1    4    4    0    0 -0.21047588063E+02 -0.79252840481E+02 -0.15588218181E+03  0.17613423373E+03  0.00000000000E+00 0. -1.
         11    1    4    4    0    0 -0.67126607149E+02 -0.51272724775E+02 -0.39702483583E+03  0.40591082020E+03  0.00000000000E+00 0.  1.
</event>
<event>
 8    1  0.7075056E-009  0.1820965E+03  0.7561462E-02  0.1165789E+00
         -1   -1    0    0    0  501 -0.00000000000E+00  0.00000000000E+00  0.42846426129E+02  0.42846426129E+02  0.00000000000E+00 0.  1.
          1   -1    0    0  501    0  0.00000000000E+00 -0.00000000000E+00 -0.97276433296E+03  0.97276433296E+03  0.00000000000E+00 0. -1.
         25    2    1    2    0    0  0.14702456786E+03 -0.47541285642E+02 -0.29258588286E+03  0.35373768902E+03  0.12508979332E+03 0.  0.
         23    2    1    2    0    0 -0.14702456786E+03  0.47541285642E+02 -0.63733202397E+03  0.66187307006E+03  0.89484382472E+02 0.  0.
          5    1    3    3  502    0 -0.13239924842E+02  0.79315719350E+01 -0.80886246935E+02  0.82451578435E+02  0.41800000000E+01 0.  1.
         -5    1    3    3    0  502  0.16026449270E+03 -0.55472857577E+02 -0.21169963593E+03  0.27128611059E+03  0.41800000000E+01 0.  1.
        -11    1    4    4    0    0 -0.72039014327E+02  0.69831343779E+02 -0.35983870876E+03  0.37356382652E+03  0.00000000000E+00 0.  1.
         11    1    4    4    0    0 -0.74985553530E+02 -0.22290058137E+02 -0.27749331521E+03  0.28830924355E+03  0.00000000000E+00 0. -1.
</event>
<event>
 8    1  0.7075056E-009  0.8711702E+02  0.7561462E-02  0.1309987E+00
          1   -1    0    0  501    0  0.00000000000E+00  0.00000000000E+00  0.24689518569E+03  0.24689518569E+03  0.00000000000E+00 0. -1.
         -1   -1    0    0    0  501 -0.00000000000E+00 -0.00000000000E+00 -0.76004463905E+02  0.76004463905E+02  0.00000000000E+00 0.  1.
         25    2    1    2    0    0  0.72785226516E+02  0.38843802956E+02  0.87156451156E+02  0.17334895113E+03  0.12508829543E+03 0.  0.
         23    2    1    2    0    0 -0.72785226516E+02 -0.38843802956E+02  0.83734270627E+02  0.14955069846E+03  0.92452436993E+02 0.  0.
          5    1    3    3  502    0  0.69689631369E+02  0.43303554652E+02  0.11686967574E+03  0.14285599768E+03  0.41800000000E+01 0.  1.
         -5    1    3    3    0  502  0.30955951471E+01 -0.44597516965E+01 -0.29713224588E+02  0.30492953447E+02  0.41800000000E+01 0.  1.
        -11    1    4    4    0    0 -0.19378443596E+02 -0.32697718241E+00 -0.19248938711E+02  0.27315794548E+02  0.00000000000E+00 0.  1.
         11    1    4    4    0    0 -0.53406782921E+02 -0.38516825773E+02  0.10298320934E+03  0.12223490391E+03  0.00000000000E+00 0. -1.
</event>
<event>
 8    1  0.7075056E-009  0.9584115E+02  0.7561462E-02  0.1289293E+00
         -2   -1    0    0    0  501 -0.00000000000E+00  0.00000000000E+00  0.39483354083E+02  0.39483354083E+02  0.00000000000E+00 0.  1.
          2   -1    0    0  501    0  0.00000000000E+00 -0.00000000000E+00 -0.34885268351E+03  0.34885268351E+03  0.00000000000E+00 0. -1.
         25    2    1    2    0    0  0.42489339891E+02 -0.65137401748E+01 -0.14992069747E+03  0.19991805791E+03  0.12507294486E+03 0.  0.
         23    2    1    2    0    0 -0.42489339891E+02  0.65137401748E+01 -0.15944863195E+03  0.18841797968E+03  0.90717672025E+02 0.  0.
          5    1    3    3  502    0 -0.24038493816E+02 -0.14912386276E+02 -0.12504785854E+03  0.12827574897E+03  0.41800000000E+01 0. -1.
         -5    1    3    3    0  502  0.66527833707E+02  0.83986461010E+01 -0.24872838931E+02  0.71642308942E+02  0.41800000000E+01 0. -1.
        -11    1    4    4    0    0 -0.69030514322E+02  0.26641198898E+01 -0.86529514398E+02  0.11072337741E+03  0.00000000000E+00 0.  1.
         11    1    4    4    0    0  0.26541174432E+02  0.38496202850E+01 -0.72919117556E+02  0.77694602269E+02  0.00000000000E+00 0. -1.
</event>
<event>
 8    1  0.7075056E-009  0.1181444E+03  0.7561462E-02  0.1246190E+00
         -1   -1    0    0    0  501 -0.00000000000E+00  0.00000000000E+00  0.13911413658E+03  0.13911413658E+03  0.00000000000E+00 0.  1.
          1   -1    0    0  501    0  0.00000000000E+00 -0.00000000000E+00 -0.20186896678E+03  0.20186896678E+03  0.00000000000E+00 0. -1.
         25    2    1    2    0    0  0.53035389375E+02 -0.44860955725E+02  0.73426346138E+02  0.16082052536E+03  0.12508619107E+03 0.  0.
         23    2    1    2    0    0 -0.53035389375E+02  0.44860955725E+02 -0.13618117634E+03  0.18016257799E+03  0.95330917571E+02 0.  0.
          5    1    3    3  502    0  0.94132610548E+02 -0.35113999174E+02  0.54082524609E+02  0.11417676285E+03  0.41800000000E+01 0. -1.
         -5    1    3    3    0  502 -0.41097221173E+02 -0.97469565514E+01  0.19343821529E+02  0.46643762515E+02  0.41800000000E+01 0. -1.
        -11    1    4    4    0    0 -0.38427007954E+02  0.60637647161E+02 -0.14091398750E+03  0.15814648611E+03  0.00000000000E+00 0. -1.
         11    1    4    4    0    0 -0.14608381421E+02 -0.15776691436E+02  0.47328111649E+01  0.22016091886E+02  0.00000000000E+00 0.  1.
</event>
<event>
 8    1  0.7075056E-009  0.9156829E+02  0.7561462E-02  0.1299098E+00
         -2   -1    0    0    0  501 -0.00000000000E+00  0.00000000000E+00  0.50796902335E+02  0.50796902335E+02  0.00000000000E+00 0.  1.
          2   -1    0    0  501    0  0.00000000000E+00 -0.00000000000E+00 -0.25526891768E+03  0.25526891768E+03  0.00000000000E+00 0. -1.
         25    2    1    2    0    0  0.16798751840E+02  0.19946570441E+02 -0.14584125295E+03  0.19390089741E+03  0.12509125956E+03 0.  0.
         23    2    1    2    0    0 -0.16798751840E+02 -0.19946570441E+02 -0.58630762396E+02  0.11216492261E+03  0.91996412040E+02 0.  0.
          5    1    3    3  502    0  0.57539523385E+02  0.39583389182E+02 -0.12645029062E+03  0.14451570797E+03  0.41800000000E+01 0. -1.
         -5    1    3    3    0  502 -0.40740771545E+02 -0.19636818741E+02 -0.19390962327E+02  0.49385189443E+02  0.41800000000E+01 0. -1.
        -11    1    4    4    0    0 -0.38281419742E+02  0.22760556031E+00  0.81772075717E+01  0.39145697407E+02  0.00000000000E+00 0.  1.
         11    1    4    4    0    0  0.21482667902E+02 -0.20174176001E+02 -0.66807969967E+02  0.73019225199E+02  0.00000000000E+00 0. -1.
</event>
<event>
 8    1  0.7075056E-009  0.3560406E+03  0.7561462E-02  0.1060163E+00
          2   -1    0    0  501    0  0.00000000000E+00  0.00000000000E+00  0.18340944955E+03  0.18340944955E+03  0.00000000000E+00 0.  1.
         -2   -1    0    0    0  501 -0.00000000000E+00 -0.00000000000E+00 -0.70669567012E+03  0.70669567012E+03  0.00000000000E+00 0. -1.
         25    2    1    2    0    0 -0.73715226202E+02  0.33501329428E+03 -0.25772842362E+03  0.44692276396E+03  0.12509266442E+03 0.  0.
         23    2    1    2    0    0  0.73715226202E+02 -0.33501329428E+03 -0.26555779695E+03  0.44318235571E+03  0.90674224401E+02 0.  0.
          5    1    3    3  502    0 -0.94533969190E+02  0.14110012373E+03 -0.11338122888E+03  0.20425154028E+03  0.41800000000E+01 0. -1.
         -5    1    3    3    0  502  0.20818742989E+02  0.19391317055E+03 -0.14434719474E+03  0.24267122368E+03  0.41800000000E+01 0. -1.
        -11    1    4    4    0    0  0.72750721701E+02 -0.21266375978E+03 -0.12633312401E+03  0.25783444389E+03  0.00000000000E+00 0.  1.
         11    1    4    4    0    0  0.96450450051E+00 -0.12234953450E+03 -0.13922467294E+03  0.18534791181E+03  0.00000000000E+00 0. -1.
</event>
<event>
 8    1  0.7075056E-009  0.1341562E+03  0.7561462E-02  0.1221416E+00
         -2   -1    0    0    0  501 -0.00000000000E+00  0.00000000000E+00  0.10031068436E+03  0.10031068436E+03  0.00000000000E+00 0.  1.
          2   -1    0    0  501    0  0.00000000000E+00 -0.00000000000E+00 -0.26274489989E+03  0.26274489989E+03  0.00000000000E+00 0. -1.
         25    2    1    2    0    0  0.12031731021E+03  0.84652303071E+00 -0.86865308185E+02  0.19408883583E+03  0.12509165716E+03 0.  0.
         23    2    1    2    0    0 -0.12031731021E+03 -0.84652303071E+00 -0.75568907344E+02  0.16896674841E+03  0.91444685872E+02 0.  0.
          5    1    3    3  502    0  0.11273642356E+03  0.20940680372E+02 -0.11229093592E+03  0.16054513378E+03  0.41800000000E+01 0. -1.
         -5    1    3    3    0  502  0.75808866549E+01 -0.20094157341E+02  0.25425627735E+02  0.33543702054E+02  0.41800000000E+01 0. -1.
        -11    1    4    4    0    0 -0.82216900493E+02  0.24667402072E+02 -0.65275859720E+01  0.86085473980E+02  0.00000000000E+00 0.  1.
         11    1    4    4    0    0 -0.38100409718E+02 -0.25513925103E+02 -0.69041321372E+02  0.82881274433E+02  0.00000000000E+00 0. -1.
</event>
<event>
 8    1  0.7075056E-009  0.1148644E+03  0.7561462E-02  0.1251818E+00
         -1   -1    0    0    0  501 -0.00000000000E+00  0.00000000000E+00  0.34046779291E+02  0.34046779291E+02  0.00000000000E+00 0.  1.
          1   -1    0    0  501    0  0.00000000000E+00 -0.00000000000E+00 -0.45363783617E+03  0.45363783617E+03  0.00000000000E+00 0. -1.
         25    2    1    2    0    0 -0.44700122348E+02  0.42333581822E+02 -0.23174618152E+03  0.27045109450E+03  0.12508904340E+03 0.  0.
         23    2    1    2    0    0  0.44700122348E+02 -0.42333581822E+02 -0.18784487536E+03  0.21723352096E+03  0.90080366029E+02 0.  0.
          5    1    3    3  502    0 -0.56813267354E+02  0.73371200801E+02 -0.21209568716E+03  0.23154510007E+03  0.41800000000E+01 0. -1.
         -5    1    3    3    0  502  0.12113145007E+02 -0.31037618978E+02 -0.19650494359E+02  0.38905994427E+02  0.41800000000E+01 0. -1.
        -11    1    4    4    0    0 -0.13034604861E+02 -0.43604711309E+02 -0.11881591561E+03  0.12723401108E+03  0.00000000000E+00 0. -1.
         11    1    4    4    0    0  0.57734727208E+02  0.12711294861E+01 -0.69028959746E+02  0.89999509885E+02  0.00000000000E+00 0.  1.
</event>
<event>
 8    1  0.7075056E-009  0.8700443E+02  0.7561462E-02  0.1310272E+00
         -3   -1    0    0    0  501 -0.00000000000E+00  0.00000000000E+00  0.31347817953E+03  0.31347817953E+03  0.00000000000E+00 0.  1.
          3   -1    0    0  501    0  0.00000000000E+00 -0.00000000000E+00 -0.64901777868E+02  0.64901777868E+02  0.00000000000E+00 0. -1.
         25    2    1    2    0    0  0.95625889659E+01 -0.56399748781E+02  0.36921439584E+02  0.14242749044E+03  0.12510005021E+03 0.  0.
         23    2    1    2    0    0 -0.95625889659E+01  0.56399748781E+02  0.21165496208E+03  0.23595246696E+03  0.87197298810E+02 0.  0.
          5    1    3    3  502    0  0.16833864647E+02 -0.80457178664E+02 -0.15859095166E+02  0.83819567506E+02  0.41800000000E+01 0.  1.
         -5    1    3    3    0  502 -0.72712756811E+01  0.24057429883E+02  0.52780534750E+02  0.58607922938E+02  0.41800000000E+01 0.  1.
        -11    1    4    4    0    0  0.11592535733E+02  0.31426979417E+02  0.19745464818E+03  0.20027575991E+03  0.00000000000E+00 0.  1.
         11    1    4    4    0    0 -0.21155124699E+02  0.24972769364E+02  0.14200313899E+02  0.35676707044E+02  0.00000000000E+00 0. -1.
</event>
<event>
 8    1  0.7075056E-009  0.7974035E+02  0.7561462E-02  0.1329790E+00
          2   -1    0    0  501    0  0.00000000000E+00  0.00000000000E+00  0.59492837026E+03  0.59492837026E+03  0.00000000000E+00 0. -1.
         -2   -1    0    0    0  501 -0.00000000000E+00 -0.00000000000E+00 -0.29374010049E+02  0.29374010049E+02  0.00000000000E+00 0.  1.
         25    2    1    2    0    0 -0.61189177237E+02  0.26772069049E+02  0.38863609482E+03  0.41369820219E+03  0.12508928494E+03 0.  0.
         23    2    1    2    0    0  0.61189177237E+02 -0.26772069049E+02  0.17691826539E+03  0.21060417812E+03  0.92699450481E+02 0.  0.
          5    1    3    3  502    0 -0.36708760084E+01  0.53741605674E+01 -0.86929064567E+01  0.11635976759E+02  0.41800000000E+01 0.  1.
         -5    1    3    3    0  502 -0.57518301229E+02  0.21397908481E+02  0.39732900128E+03  0.40206222543E+03  0.41800000000E+01 0.  1.
        -11    1    4    4    0    0  0.86844154762E+01 -0.35905441639E+02  0.14238863958E+03  0.14710249656E+03  0.00000000000E+00 0. -1.
         11    1    4    4    0    0  0.52504761761E+02  0.91333725900E+01  0.34529625810E+02  0.63501681561E+02  0.00000000000E+00 0.  1.
</event>
<event>
 8    1  0.7075056E-009  0.5132728E+02  0.7561462E-02  0.1438311E+00
         -2   -1    0    0    0  501 -0.00000000000E+00  0.00000000000E+00  0.18408274878E+02  0.18408274878E+02  0.00000000000E+00 0.  1.
          2   -1    0    0  501    0  0.00000000000E+00 -0.00000000000E+00 -0.10164792486E+04  0.10164792486E+04  0.00000000000E+00 0. -1.
         25    2    1    2    0    0  0.28356858916E+02 -0.12622551336E+02 -0.84073955610E+03  0.85056101096E+03  0.12509033510E+03 0.  0.
         23    2    1    2    0    0 -0.28356858916E+02  0.12622551336E+02 -0.15733141760E+03  0.18432651249E+03  0.90882605556E+02 0.  0.
          5    1    3    3  502    0 -0.16439543200E+01 -0.20390074341E+02 -0.19010032027E+02  0.28236703687E+02  0.41800000000E+01 0. -1.
         -5    1    3    3    0  502  0.30000813236E+02  0.77675230051E+01 -0.82172952407E+03  0.82232430727E+03  0.41800000000E+01 0. -1.
        -11    1    4    4    0    0 -0.12453274671E+02  0.26575213028E+02 -0.16029841425E+03  0.16296290255E+03  0.00000000000E+00 0. -1.
         11    1    4    4    0    0 -0.15903584245E+02 -0.13952661692E+02  0.29669966555E+01  0.21363609931E+02  0.00000000000E+00 0.  1.
</event>
<event>
 8    1  0.7075056E-009  0.9531346E+02  0.7561462E-02  0.1290472E+00
          1   -1    0    0  501    0  0.00000000000E+00  0.00000000000E+00  0.73178419270E+03  0.73178419270E+03  0.00000000000E+00 0. -1.
         -1   -1    0    0    0  501 -0.00000000000E+00 -0.00000000000E+00 -0.19022784282E+02  0.19022784282E+02  0.00000000000E+00 0.  1.
         25    2    1    2    0    0 -0.38244759267E+02  0.11214319020E+02  0.49779588220E+03  0.51481726748E+03  0.12509059117E+03 0.  0.
         23    2    1    2    0    0  0.38244759267E+02 -0.11214319020E+02  0.21496552622E+03  0.23598970951E+03  0.88839985175E+02 0.  0.
          5    1    3    3  502    0 -0.59959432877E+02 -0.16459279152E+02  0.11864762322E+03  0.13401780612E+03  0.41800000000E+01 0.  1.
         -5    1    3    3    0  502  0.21714673610E+02  0.27673598171E+02  0.37914825898E+03  0.38079946136E+03  0.41800000000E+01 0.  1.
        -11    1    4    4    0    0  0.65008266374E+02 -0.38250939680E+01  0.11413013487E+03  0.13140165039E+03  0.00000000000E+00 0.  1.
         11    1    4    4    0    0 -0.26763507107E+02 -0.73892250519E+01  0.10083539136E+03  0.10458805911E+03  0.00000000000E+00 0. -1.
</event>
<event>
 8    1  0.7075056E-009  0.1154804E+03  0.7561462E-02  0.1250745E+00
         -1   -1    0    0    0  501 -0.00000000000E+00  0.00000000000E+00  0.43648320735E+02  0.43648320735E+02  0.00000000000E+00 0.  1.
          1   -1    0    0  501    0  0.00000000000E+00 -0.00000000000E+00 -0.51643249906E+03  0.51643249906E+03  0.00000000000E+00 0. -1.
         25    2    1    2    0    0  0.35563682587E+02 -0.93041506720E+02 -0.30878425032E+03  0.34773138241E+03  0.12509158076E+03 0.  0.
         23    2    1    2    0    0 -0.35563682587E+02  0.93041506720E+02 -0.16399992801E+03  0.21234943739E+03  0.90965980892E+02 0.  0.
          5    1    3    3  502    0 -0.21576490038E+01 -0.93110732289E+02 -0.29146816476E+03  0.30601540384E+03  0.41800000000E+01 0.  1.
         -5    1    3    3    0  502  0.37721331591E+02  0.69225569090E-01 -0.17316085553E+02  0.41715978570E+02  0.41800000000E+01 0.  1.
        -11    1    4    4    0    0 -0.14170277751E+02  0.29372036915E+02  0.26041583397E+01  0.32715362825E+02  0.00000000000E+00 0.  1.
         11    1    4    4    0    0 -0.21393404836E+02  0.63669469804E+02 -0.16660408635E+03  0.17963407456E+03  0.00000000000E+00 0. -1.
</event>
<event>
 8    1  0.7075056E-009  0.9885337E+02  0.7561462E-02  0.1282726E+00
         -1   -1    0    0    0  501 -0.00000000000E+00  0.00000000000E+00  0.54247431873E+02  0.54247431873E+02  0.00000000000E+00 0.  1.
          1   -1    0    0  501    0  0.00000000000E+00 -0.00000000000E+00 -0.23974666749E+03  0.23974666749E+03  0.00000000000E+00 0. -1.
         25    2    1    2    0    0 -0.36366788908E+02 -0.73353098836E+01 -0.95149635763E+02  0.16148451916E+03  0.12508975432E+03 0.  0.
         23    2    1    2    0    0  0.36366788908E+02  0.73353098836E+01 -0.90349599853E+02  0.13250958020E+03  0.89551038776E+02 0.  0.
          5    1    3    3  502    0  0.17794822551E+02  0.29855281494E+02  0.10898086099E+02  0.36663799903E+02  0.41800000000E+01 0.  1.
         -5    1    3    3    0  502 -0.54161611459E+02 -0.37190591377E+02 -0.10604772186E+03  0.12482071925E+03  0.41800000000E+01 0.  1.
        -11    1    4    4    0    0 -0.24371394345E+02  0.23665725248E+02 -0.29382073062E+02  0.44914781879E+02  0.00000000000E+00 0. -1.
         11    1    4    4    0    0  0.60738183252E+02 -0.16330415364E+02 -0.60967526792E+02  0.87594798326E+02  0.00000000000E+00 0.  1.
</event>
<event>
 8    1  0.7075056E-009  0.6655163E+02  0.7561462E-02  0.1372228E+00
         -2   -1    0    0    0  501 -0.00000000000E+00  0.00000000000E+00  0.22642391718E+02  0.22642391718E+02  0.00000000000E+00 0. -1.
          2   -1    0    0  501    0  0.00000000000E+00 -0.00000000000E+00 -0.58616227611E+03  0.58616227611E+03  0.00000000000E+00 0.  1.
         25    2    1    2    0    0 -0.11761545363E+02 -0.34246151291E+02 -0.27092818440E+03  0.30060050589E+03  0.12508976860E+03 0.  0.
         23    2    1    2    0    0  0.11761545363E+02  0.34246151291E+02 -0.29259169999E+03  0.30820416194E+03  0.89826330813E+02 0.  0.
          5    1    3    3  502    0 -0.10859011664E+02 -0.46821405340E+01  0.11248193594E+02  0.16847398418E+02  0.41800000000E+01 0.  1.
         -5    1    3    3    0  502 -0.90253369834E+00 -0.29564010757E+02 -0.28217637800E+03  0.28375310747E+03  0.41800000000E+01 0.  1.
        -11    1    4    4    0    0  0.45694836938E+02  0.33654422797E+02 -0.23112548928E+03  0.23799081935E+03  0.00000000000E+00 0.  1.
         11    1    4    4    0    0 -0.33933291575E+02  0.59172849368E+00 -0.61466210704E+02  0.70213342593E+02  0.00000000000E+00 0. -1.
</event>
<event>
 8    1  0.7075056E-009  0.1048583E+03  0.7561462E-02  0.1270399E+00
          1   -1    0    0  501    0  0.00000000000E+00  0.00000000000E+00  0.18051665927E+02  0.18051665927E+02  0.00000000000E+00 0. -1.
         -1   -1    0    0    0  501 -0.00000000000E+00 -0.00000000000E+00 -0.77573719155E+03  0.77573719155E+03  0.00000000000E+00 0.  1.
         25    2    1    2    0    0 -0.48377954317E+02  0.11475036605E+02 -0.45870162776E+03  0.47804445028E+03  0.12508880928E+03 0.  0.
         23    2    1    2    0    0  0.48377954317E+02 -0.11475036605E+02 -0.29898389786E+03  0.31574440719E+03  0.88493257168E+02 0.  0.
          5    1    3    3  502    0 -0.53177624968E+02 -0.37488394026E+02 -0.12770188753E+03  0.14338230004E+03  0.41800000000E+01 0. -1.
         -5    1    3    3    0  502  0.47996706510E+01  0.48963430631E+02 -0.33099974023E+03  0.33466215025E+03  0.41800000000E+01 0. -1.
        -11    1    4    4    0    0 -0.23028249778E+02 -0.20744216567E+01 -0.13018822847E+03  0.13222548296E+03  0.00000000000E+00 0.  1.
         11    1    4    4    0    0  0.71406204096E+02 -0.94006149484E+01 -0.16879566940E+03  0.18351892423E+03  0.00000000000E+00 0. -1.
</event>
<event>
 8    1  0.7075056E-009  0.9981906E+02  0.7561462E-02  0.1280677E+00
          1   -1    0    0  501    0  0.00000000000E+00  0.00000000000E+00  0.91257708606E+03  0.91257708606E+03  0.00000000000E+00 0.  1.
         -1   -1    0    0    0  501 -0.00000000000E+00 -0.00000000000E+00 -0.14765108796E+02  0.14765108796E+02  0.00000000000E+00 0. -1.
         25    2    1    2    0    0  0.14661772278E+02  0.17275219338E+02  0.67054897528E+03  0.68249369946E+03  0.12509324837E+03 0.  0.
         23    2    1    2    0    0 -0.14661772278E+02 -0.17275219338E+02  0.22726300199E+03  0.24484849540E+03  0.88254817753E+02 0.  0.
          5    1    3    3  502    0 -0.40006493054E+02  0.32517778133E+02  0.14648025405E+03  0.15534433561E+03  0.41800000000E+01 0. -1.
         -5    1    3    3    0  502  0.54668265331E+02 -0.15242558794E+02  0.52406872123E+03  0.52714936385E+03  0.41800000000E+01 0. -1.
        -11    1    4    4    0    0  0.37303573858E+02 -0.52861429019E+01  0.88199197467E+02  0.95909323651E+02  0.00000000000E+00 0. -1.
         11    1    4    4    0    0 -0.51965346136E+02 -0.11989076436E+02  0.13906380452E+03  0.14893917174E+03  0.00000000000E+00 0.  1.
</event>
<event>
 8    1  0.7075056E-009  0.1475756E+03  0.7561462E-02  0.1203484E+00
          3   -1    0    0  501    0  0.00000000000E+00  0.00000000000E+00  0.74650279377E+02  0.74650279377E+02  0.00000000000E+00 0. -1.
         -3   -1    0    0    0  501 -0.00000000000E+00 -0.00000000000E+00 -0.34951855907E+03  0.34951855907E+03  0.00000000000E+00 0.  1.
         25    2    1    2    0    0  0.10802443316E+03 -0.21915055843E+02 -0.18631365797E+03  0.25001771981E+03  0.12508610330E+03 0.  0.
         23    2    1    2    0    0 -0.10802443316E+03  0.21915055843E+02 -0.88554621714E+02  0.17415111863E+03  0.10167174269E+03 0.  0.
          5    1    3    3  502    0  0.56560005134E+02 -0.59091965476E+02 -0.41446505407E+02  0.91794225173E+02  0.41800000000E+01 0.  1.
         -5    1    3    3    0  502  0.51464428029E+02  0.37176909633E+02 -0.14486715257E+03  0.15822349464E+03  0.41800000000E+01 0.  1.
        -11    1    4    4    0    0 -0.10241833033E+03  0.54871671657E+02 -0.63813698304E+02  0.13256169442E+03  0.00000000000E+00 0. -1.
         11    1    4    4    0    0 -0.56061028370E+01 -0.32956615813E+02 -0.24740923411E+02  0.41589424210E+02  0.00000000000E+00 0.  1.
</event>
<event>
 8    1  0.7075056E-009  0.8408001E+02  0.7561462E-02  0.1317856E+00
          2   -1    0    0  501    0  0.00000000000E+00  0.00000000000E+00  0.17824991875E+03  0.17824991875E+03  0.00000000000E+00 0.  1.
         -2   -1    0    0    0  501 -0.00000000000E+00 -0.00000000000E+00 -0.78382516496E+02  0.78382516496E+02  0.00000000000E+00 0. -1.
         25    2    1    2    0    0 -0.10950537944E+02  0.54304799754E+01  0.13498214513E+02  0.12640628885E+03  0.12508774389E+03 0.  0.
         23    2    1    2    0    0  0.10950537944E+02 -0.54304799754E+01  0.86369187736E+02  0.13022614639E+03  0.96694406352E+02 0.  0.
          5    1    3    3  502    0  0.49061587439E+02  0.35269810713E+01  0.37104224313E+02  0.61754957852E+02  0.41800000000E+01 0. -1.
         -5    1    3    3    0  502 -0.60012125383E+02  0.19034989042E+01 -0.23606009800E+02  0.64651330997E+02  0.41800000000E+01 0. -1.
        -11    1    4    4    0    0 -0.73511899555E+01  0.23361309144E+02  0.92391576545E+02  0.95582394692E+02  0.00000000000E+00 0.  1.
         11    1    4    4    0    0  0.18301727900E+02 -0.28791789120E+02 -0.60223888083E+01  0.34643751699E+02  0.00000000000E+00 0. -1.
</event>
<event>
 8    1  0.7075056E-009  0.1287059E+03  0.7561462E-02  0.1229389E+00
          2   -1    0    0  501    0  0.00000000000E+00  0.00000000000E+00  0.49363964508E+02  0.49363964508E+02  0.00000000000E+00 0. -1.
         -2   -1    0    0    0  501 -0.00000000000E+00 -0.00000000000E+00 -0.53261322643E+03  0.53261322643E+03  0.00000000000E+00 0.  1.
         25    2    1    2    0    0  0.59755324205E+02 -0.65771193201E+02 -0.40183089483E+03  0.43013249102E+03  0.12509733475E+03 0.  0.
         23    2    1    2    0    0 -0.59755324205E+02  0.65771193201E+02 -0.81418367084E+02  0.15184469991E+03  0.92365111200E+02 0.  0.
          5    1    3    3  502    0  0.76116468009E+02 -0.77754550682E+02 -0.39267310353E+03  0.40749125818E+03  0.41800000000E+01 0. -1.
         -5    1    3    3    0  502 -0.16361143804E+02  0.11983357481E+02 -0.91577913010E+01  0.22641232842E+02  0.41800000000E+01 0. -1.
        -11    1    4    4    0    0 -0.29198757796E+02 -0.20905143378E+02 -0.28057230086E+02  0.45571928164E+02  0.00000000000E+00 0. -1.
         11    1    4    4    0    0 -0.30556566409E+02  0.86676336579E+02 -0.53361136998E+02  0.10627277175E+03  0.00000000000E+00 0.  1.
</event>
<event>
 8    1  0.7075056E-009  0.1393525E+03  0.7561462E-02  0.1214203E+00
          4   -1    0    0  501    0  0.00000000000E+00  0.00000000000E+00  0.70423540240E+02  0.70423540240E+02  0.00000000000E+00 0. -1.
         -4   -1    0    0    0  501 -0.00000000000E+00 -0.00000000000E+00 -0.39417229136E+03  0.39417229136E+03  0.00000000000E+00 0.  1.
         25    2    1    2    0    0 -0.86666069770E+02 -0.74462460198E+02 -0.24551813486E+03  0.29829933710E+03  0.12509066449E+03 0.  0.
         23    2    1    2    0    0  0.86666069770E+02  0.74462460198E+02 -0.78230616255E+02  0.16629649450E+03  0.92080557847E+02 0.  0.
          5    1    3    3  502    0 -0.91913086172E+02 -0.45271105564E+02 -0.79904069908E+02  0.12999854305E+03  0.41800000000E+01 0. -1.
         -5    1    3    3    0  502  0.52470164015E+01 -0.29191354634E+02 -0.16561406495E+03  0.16830079405E+03  0.41800000000E+01 0. -1.
        -11    1    4    4    0    0  0.35911108648E+02  0.86836097328E+02 -0.57005317395E+02  0.10990778742E+03  0.00000000000E+00 0. -1.
         11    1    4    4    0    0  0.50754961122E+02 -0.12373637129E+02 -0.21225298860E+02  0.56388707079E+02  0.00000000000E+00 0.  1.
</event>
<event>
 8    1  0.7075056E-009  0.2274944E+03  0.7561462E-02  0.1128416E+00
          1   -1    0    0  501    0  0.00000000000E+00  0.00000000000E+00  0.25122055694E+03  0.25122055694E+03  0.00000000000E+00 0. -1.
         -1   -1    0    0    0  501 -0.00000000000E+00 -0.00000000000E+00 -0.25151086574E+03  0.25151086574E+03  0.00000000000E+00 0.  1.
         25    2    1    2    0    0  0.22360200550E+03 -0.25597153593E+02  0.25075323708E+02  0.25870707537E+03  0.12508999900E+03 0.  0.
         23    2    1    2    0    0 -0.22360200550E+03  0.25597153593E+02 -0.25365632504E+02  0.24402434731E+03  0.90837193002E+02 0.  0.
          5    1    3    3  502    0  0.99980734614E+02 -0.11313232995E+02 -0.50906382618E+02  0.11284090006E+03  0.41800000000E+01 0.  1.
         -5    1    3    3    0  502  0.12362127089E+03 -0.14283920598E+02  0.75981706326E+02  0.14586617531E+03  0.41800000000E+01 0.  1.
        -11    1    4    4    0    0 -0.17211340617E+03 -0.34695746009E+00  0.16307945779E+02  0.17288462643E+03  0.00000000000E+00 0. -1.
         11    1    4    4    0    0 -0.51488599336E+02  0.25944111053E+02 -0.41673578282E+02  0.71139720879E+02  0.00000000000E+00 0.  1.
</event>
<event>
 8    1  0.7075056E-009  0.1054236E+03  0.7561462E-02  0.1269287E+00
          3   -1    0    0  501    0  0.00000000000E+00  0.00000000000E+00  0.61302769522E+02  0.61302769522E+02  0.00000000000E+00 0. -1.
         -3   -1    0    0    0  501 -0.00000000000E+00 -0.00000000000E+00 -0.20951811638E+03  0.20951811638E+03  0.00000000000E+00 0.  1.
         25    2    1    2    0    0 -0.21668370456E+02  0.20410259599E+02 -0.10028932890E+03  0.16306847604E+03  0.12508909390E+03 0.  0.
         23    2    1    2    0    0  0.21668370456E+02 -0.20410259599E+02 -0.47926017964E+02  0.10775240986E+03  0.91801860864E+02 0.  0.
          5    1    3    3  502    0 -0.22094368614E+02 -0.46374502196E+02 -0.13131571042E+02  0.53185205992E+02  0.41800000000E+01 0. -1.
         -5    1    3    3    0  502  0.42599815822E+00  0.66784761796E+02 -0.87157757856E+02  0.10988327005E+03  0.41800000000E+01 0. -1.
        -11    1    4    4    0    0  0.44295608665E+02 -0.42054645266E+02 -0.45845605140E+02  0.76370895282E+02  0.00000000000E+00 0.  1.
         11    1    4    4    0    0 -0.22627238209E+02  0.21644385667E+02 -0.20804128239E+01  0.31381514581E+02  0.00000000000E+00 0. -1.
</event>
<event>
 8    1  0.7075056E-009  0.6491671E+02  0.7561462E-02  0.1378285E+00
         -1   -1    0    0    0  501 -0.00000000000E+00  0.00000000000E+00  0.57767707275E+03  0.57767707275E+03  0.00000000000E+00 0.  1.
          1   -1    0    0  501    0  0.00000000000E+00 -0.00000000000E+00 -0.37196404522E+02  0.37196404522E+02  0.00000000000E+00 0. -1.
         25    2    1    2    0    0  0.33347881430E+02 -0.95870840972E+01  0.48500395434E+03  0.50207601533E+03  0.12508995190E+03 0.  0.
         23    2    1    2    0    0 -0.33347881430E+02  0.95870840972E+01  0.55476713892E+02  0.11279746195E+03  0.91878225168E+02 0.  0.
          5    1    3    3  502    0 -0.19624925955E+02  0.22074435086E+02  0.28026623830E+02  0.40931435920E+02  0.41800000000E+01 0. -1.
         -5    1    3    3    0  502  0.52972807385E+02 -0.31661519184E+02  0.45697733051E+03  0.46114457941E+03  0.41800000000E+01 0. -1.
        -11    1    4    4    0    0 -0.13466593157E+02  0.12104769415E+02  0.79486737961E+02  0.81523101545E+02  0.00000000000E+00 0.  1.
         11    1    4    4    0    0 -0.19881288273E+02 -0.25176853175E+01 -0.24010024069E+02  0.31274360402E+02  0.00000000000E+00 0. -1.
</event>
<event>
 8    1  0.7075056E-009  0.1557959E+03  0.7561462E-02  0.1193527E+00
         -2   -1    0    0    0  501 -0.00000000000E+00  0.00000000000E+00  0.41291086470E+03  0.41291086470E+03  0.00000000000E+00 0.  1.
          2   -1    0    0  501    0  0.00000000000E+00 -0.00000000000E+00 -0.93495348277E+02  0.93495348277E+02  0.00000000000E+00 0. -1.
         25    2    1    2    0    0 -0.12662506603E+03 -0.40745943269E+02  0.29114233277E+03  0.34366496637E+03  0.12509041506E+03 0.  0.
         23    2    1    2    0    0  0.12662506603E+03  0.40745943269E+02  0.28273183650E+02  0.16274124660E+03  0.89393518743E+02 0.  0.
          5    1    3    3  502    0 -0.97550602615E+02 -0.79045950773E+02  0.25178811895E+03  0.28138783138E+03  0.41800000000E+01 0. -1.
         -5    1    3    3    0  502 -0.29074463411E+02  0.38300007504E+02  0.39354213823E+02  0.62277134994E+02  0.41800000000E+01 0. -1.
        -11    1    4    4    0    0  0.58222293158E+02  0.37430273529E+02 -0.27441430423E+02  0.74457322680E+02  0.00000000000E+00 0.  1.
         11    1    4    4    0    0  0.68402772869E+02  0.33156697398E+01  0.55714614073E+02  0.88283923924E+02  0.00000000000E+00 0. -1.
</event>
<event>
 8    1  0.7075056E-009  0.1068621E+03  0.7561462E-02  0.1266494E+00
          1   -1    0    0  501    0  0.00000000000E+00  0.00000000000E+00  0.51532307489E+02  0.51532307489E+02  0.00000000000E+00 0. -1.
         -1   -1    0    0    0  501 -0.00000000000E+00 -0.00000000000E+00 -0.29395335548E+03  0.29395335548E+03  0.00000000000E+00 0.  1.
         25    2    1    2    0    0 -0.49819404964E+02  0.71234204944E+01 -0.19919307104E+03  0.24053119065E+03  0.12507860685E+03 0.  0.
         23    2    1    2    0    0  0.49819404964E+02 -0.71234204944E+01 -0.43227976950E+02  0.10495447233E+03  0.81326914608E+02 0.  0.
          5    1    3    3  502    0 -0.86507284279E+02 -0.19728301647E+02 -0.13949986052E+03  0.16537956223E+03  0.41800000000E+01 0. -1.
         -5    1    3    3    0  502  0.36687879315E+02  0.26851722142E+02 -0.59693210521E+02  0.75151628411E+02  0.41800000000E+01 0. -1.
        -11    1    4    4    0    0 -0.55833952540E+01  0.17679281441E+02 -0.40093161496E+02  0.44172309127E+02  0.00000000000E+00 0.  1.
         11    1    4    4    0    0  0.55402800218E+02 -0.24802701935E+02 -0.31348154538E+01  0.60782163199E+02  0.00000000000E+00 0. -1.
</event>
<event>
 8    1  0.7075056E-009  0.1018346E+03  0.7561462E-02  0.1276485E+00
          1   -1    0    0  501    0  0.00000000000E+00  0.00000000000E+00  0.16073778060E+03  0.16073778060E+03  0.00000000000E+00 0. -1.
         -1   -1    0    0    0  501 -0.00000000000E+00 -0.00000000000E+00 -0.14500706923E+03  0.14500706923E+03  0.00000000000E+00 0.  1.
         25    2    1    2    0    0  0.50167857549E+02 -0.53331931330E+02  0.88789013947E+02  0.16997736978E+03  0.12509080066E+03 0.  0.
         23    2    1    2    0    0 -0.50167857549E+02  0.53331931330E+02 -0.73058302572E+02  0.13576748005E+03  0.87944210918E+02 0.  0.
          5    1    3    3  502    0  0.67325611984E+02  0.56002577345E+01  0.84555417136E+02  0.10831062682E+03  0.41800000000E+01 0.  1.
         -5    1    3    3    0  502 -0.17157754435E+02 -0.58932189064E+02  0.42335968114E+01  0.61666742959E+02  0.41800000000E+01 0.  1.
        -11    1    4    4    0    0 -0.45681821963E+01  0.12288568819E+02 -0.73252705305E+02  0.74416638239E+02  0.00000000000E+00 0.  1.
         11    1    4    4    0    0 -0.45599675352E+02  0.41043362511E+02  0.19440273374E+00  0.61350841811E+02  0.00000000000E+00 0. -1.
</event>
<event>
 8    1  0.7075056E-009  0.1200060E+03  0.7561462E-02  0.1243087E+00
         -1   -1    0    0    0  501 -0.00000000000E+00  0.00000000000E+00  0.13979094042E+03  0.13979094042E+03  0.00000000000E+00 0.  1.
          1   -1    0    0  501    0  0.00000000000E+00 -0.00000000000E+00 -0.21085830452E+03  0.21085830452E+03  0.00000000000E+00 0. -1.
         25    2    1    2    0    0  0.10368101947E+03 -0.34694813774E+02  0.36202416387E+02  0.17003915352E+03  0.12509682201E+03 0.  0.
         23    2    1    2    0    0 -0.10368101947E+03  0.34694813774E+02 -0.10726978049E+03  0.18061009141E+03  0.95706402146E+02 0.  0.
          5    1    3    3  502    0  0.81188307023E+02 -0.29786436218E+02 -0.36279100986E+02  0.93874482945E+02  0.41800000000E+01 0. -1.
         -5    1    3    3    0  502  0.22492712450E+02 -0.49083775563E+01  0.72481517373E+02  0.76164670578E+02  0.41800000000E+01 0. -1.
        -11    1    4    4    0    0 -0.56280943708E+02 -0.18063668886E+02 -0.95657675268E+01  0.59877747675E+02  0.00000000000E+00 0.  1.
         11    1    4    4    0    0 -0.47400075765E+02  0.52758482661E+02 -0.97704012960E+02  0.12073234373E+03  0.00000000000E+00 0. -1.
</event>
<event>
 8    1  0.7075056E-009  0.1086951E+03  0.7561462E-02  0.1263006E+00
         -3   -1    0    0    0  501 -0.00000000000E+00  0.00000000000E+00  0.27353278896E+03  0.27353278896E+03  0.00000000000E+00 0.  1.
          3   -1    0    0  501    0  0.00000000000E+00 -0.00000000000E+00 -0.49311387484E+02  0.49311387484E+02  0.00000000000E+00 0. -1.
         25    2    1    2    0    0  0.60437559009E+01 -0.40603228544E+02  0.12329879892E+03  0.18038015884E+03  0.12509699731E+03 0.  0.
         23    2    1    2    0    0 -0.60437559009E+01  0.40603228544E+02  0.10092260256E+03  0.14246401760E+03  0.91790388661E+02 0.  0.
          5    1    3    3  502    0  0.41637331650E+02 -0.71619221321E+02  0.90377174790E+02  0.12267227222E+03  0.41800000000E+01 0. -1.
         -5    1    3    3    0  502 -0.35593575749E+02  0.31015992776E+02  0.32921624127E+02  0.57707886616E+02  0.41800000000E+01 0. -1.
        -11    1    4    4    0    0 -0.40823805217E+02  0.13653277288E+02  0.14390740417E+02  0.45388197396E+02  0.00000000000E+00 0. -1.
         11    1    4    4    0    0  0.34780049316E+02  0.26949951256E+02  0.86531862138E+02  0.97075820204E+02  0.00000000000E+00 0.  1.
</event>
<event>
 8    1  0.7075056E-009  0.1134189E+03  0.7561462E-02  0.1254366E+00
          2   -1    0    0  501    0  0.00000000000E+00  0.00000000000E+00  0.69447141207E+03  0.69447141207E+03  0.00000000000E+00 0. -1.
         -2   -1    0    0    0  501 -0.00000000000E+00 -0.00000000000E+00 -0.23986807491E+02  0.23986807491E+02  0.00000000000E+00 0.  1.
         25    2    1    2    0    0  0.65316215568E+02 -0.20935022926E+02  0.40369164023E+03  0.42815657003E+03  0.12508646955E+03 0.  0.
         23    2    1    2    0    0 -0.65316215568E+02  0.20935022926E+02  0.26679296434E+03  0.29030164953E+03  0.91608289449E+02 0.  0.
          5    1    3    3  502    0 -0.90856215530E+01  0.43072497166E+02  0.11492933653E+03  0.12314224834E+03  0.41800000000E+01 0. -1.
         -5    1    3    3    0  502  0.74401837121E+02 -0.64007520091E+02  0.28876230370E+03  0.30501432169E+03  0.41800000000E+01 0. -1.
        -11    1    4    4    0    0 -0.41631185352E+01 -0.13552329473E+02 -0.25439276798E+00  0.14179629958E+02  0.00000000000E+00 0.  1.
         11    1    4    4    0    0 -0.61153097033E+02  0.34487352399E+02  0.26704735711E+03  0.27612201957E+03  0.00000000000E+00 0. -1.
</event>
<event>
 8    1  0.7075056E-009  0.1314907E+03  0.7561462E-02  0.1225260E+00
          1   -1    0    0  501    0  0.00000000000E+00  0.00000000000E+00  0.13707645571E+03  0.13707645571E+03  0.00000000000E+00 0. -1.
         -1   -1    0    0    0  501 -0.00000000000E+00 -0.00000000000E+00 -0.18141535126E+03  0.18141535126E+03  0.00000000000E+00 0.  1.
         25    2    1    2    0    0 -0.27407011169E+02  0.79858299840E+02 -0.10166378659E+03  0.18196817635E+03  0.12509356253E+03 0.  0.
         23    2    1    2    0    0  0.27407011169E+02 -0.79858299840E+02  0.57324891040E+02  0.13652363063E+03  0.90686637782E+02 0.  0.
          5    1    3    3  502    0  0.32627078780E+02 -0.11501323940E+02 -0.35663070778E+01  0.35028526493E+02  0.41800000000E+01 0.  1.
         -5    1    3    3    0  502 -0.60034089949E+02  0.91359623779E+02 -0.98097479513E+02  0.14693964986E+03  0.41800000000E+01 0.  1.
        -11    1    4    4    0    0  0.53521964976E+02 -0.27380118402E+02  0.94848619436E+01  0.60862420464E+02  0.00000000000E+00 0. -1.
         11    1    4    4    0    0 -0.26114953807E+02 -0.52478181437E+02  0.47840029097E+02  0.75661210163E+02  0.00000000000E+00 0.  1.
</event>
<event>
 8    1  0.7075056E-009  0.2258155E+03  0.7561462E-02  0.1129620E+00
          4   -1    0    0  501    0  0.00000000000E+00  0.00000000000E+00  0.43632997369E+03  0.43632997369E+03  0.00000000000E+00 0. -1.
         -4   -1    0    0    0  501 -0.00000000000E+00 -0.00000000000E+00 -0.13028997089E+03  0.13028997089E+03  0.00000000000E+00 0.  1.
         25    2    1    2    0    0 -0.11419776960E+03  0.17273852593E+03  0.21040191950E+03  0.32061758559E+03  0.12508772735E+03 0.  0.
         23    2    1    2    0    0  0.11419776960E+03 -0.17273852593E+03  0.95638083305E+02  0.24600235899E+03  0.92145475905E+02 0.  0.
          5    1    3    3  502    0 -0.10625444874E+03  0.18493107242E+03  0.15634922039E+03  0.26448451852E+03  0.41800000000E+01 0.  1.
         -5    1    3    3    0  502 -0.79433208632E+01 -0.12192546489E+02  0.54052699115E+02  0.56133067063E+02  0.41800000000E+01 0.  1.
        -11    1    4    4    0    0  0.40091965808E+02 -0.13334454565E+03  0.80142711111E+02  0.16065798368E+03  0.00000000000E+00 0.  1.
         11    1    4    4    0    0  0.74105803791E+02 -0.39393980286E+02  0.15495372194E+02  0.85344375314E+02  0.00000000000E+00 0. -1.
</event>
<event>
 8    1  0.7075056E-009  0.1043657E+03  0.7561462E-02  0.1271374E+00
         -1   -1    0    0    0  501 -0.00000000000E+00  0.00000000000E+00  0.12506793333E+02  0.12506793333E+02  0.00000000000E+00 0.  1.
          1   -1    0    0  501    0  0.00000000000E+00 -0.00000000000E+00 -0.96334014125E+03  0.96334014125E+03  0.00000000000E+00 0. -1.
         25    2    1    2    0    0  0.21294566586E+01  0.20021117827E+02 -0.67674295225E+03  0.68850111017E+03  0.12508947014E+03 0.  0.
         23    2    1    2    0    0 -0.21294566586E+01 -0.20021117827E+02 -0.27409039566E+03  0.28734582441E+03  0.83885028851E+02 0.  0.
          5    1    3    3  502    0 -0.29355793449E+02 -0.43361657692E+02 -0.21366798143E+03  0.22003062209E+03  0.41800000000E+01 0. -1.
         -5    1    3    3    0  502  0.31485250107E+02  0.63382775519E+02 -0.46307497082E+03  0.46847048809E+03  0.41800000000E+01 0. -1.
        -11    1    4    4    0    0 -0.25369577948E+02 -0.44705344667E+02 -0.18548910606E+03  0.19247958799E+03  0.00000000000E+00 0. -1.
         11    1    4    4    0    0  0.23240121289E+02  0.24684226840E+02 -0.88601289601E+02  0.94866236413E+02  0.00000000000E+00 0.  1.
</event>
<event>
 8    1  0.7075056E-009  0.9469994E+02  0.7561462E-02  0.1291853E+00
         -1   -1    0    0    0  501 -0.00000000000E+00  0.00000000000E+00  0.37437242444E+02  0.37437242444E+02  0.00000000000E+00 0.  1.
          1   -1    0    0  501    0  0.00000000000E+00 -0.00000000000E+00 -0.34890379697E+03  0.34890379697E+03  0.00000000000E+00 0. -1.
         25    2    1    2    0    0  0.19551924804E+02  0.29345517437E+02 -0.16913200130E+03  0.21329970490E+03  0.12509073943E+03 0.  0.
         23    2    1    2    0    0 -0.19551924804E+02 -0.29345517437E+02 -0.14233455323E+03  0.17304133451E+03  0.91873506790E+02 0.  0.
          5    1    3    3  502    0  0.55432334350E+02 -0.20169058326E+02 -0.12336654900E+03  0.13680757442E+03  0.41800000000E+01 0.  1.
         -5    1    3    3    0  502 -0.35880409546E+02  0.49514575763E+02 -0.45765452295E+02  0.76492130484E+02  0.41800000000E+01 0.  1.
        -11    1    4    4    0    0 -0.36930059818E+02 -0.34816557923E+02 -0.14590065595E+03  0.15447661127E+03  0.00000000000E+00 0. -1.
         11    1    4    4    0    0  0.17378135014E+02  0.54710404861E+01  0.35661027157E+01  0.18564723245E+02  0.00000000000E+00 0.  1.
</event>
<event>
 8    1  0.7075056E-009  0.1198769E+03  0.7561462E-02  0.1243300E+00
          1   -1    0    0  501    0  0.00000000000E+00  0.00000000000E+00  0.69118819589E+03  0.69118819589E+03  0.00000000000E+00 0. -1.
         -1   -1    0    0    0  501 -0.00000000000E+00 -0.00000000000E+00 -0.31175305177E+02  0.31175305177E+02  0.00000000000E+00 0.  1.
         25    2    1    2    0    0  0.49668593976E+01 -0.52915241913E+02  0.53415147455E+03  0.55117131939E+03  0.12508930023E+03 0.  0.
         23    2    1    2    0    0 -0.49668593976E+01  0.52915241913E+02  0.12586141616E+03  0.17119218168E+03  0.10315509910E+03 0.  0.
          5    1    3    3  502    0  0.37017501839E+02 -0.80920040505E+02  0.29250191650E+03  0.30576656448E+03  0.41800000000E+01 0.  1.
         -5    1    3    3    0  502 -0.32050642441E+02  0.28004798592E+02  0.24164955805E+03  0.24540475491E+03  0.41800000000E+01 0.  1.
        -11    1    4    4    0    0  0.25751333334E+02 -0.17462824995E+02  0.68844763411E+02  0.75549208297E+02  0.00000000000E+00 0. -1.
         11    1    4    4    0    0 -0.30718192731E+02  0.70378066908E+02  0.57016652753E+02  0.95642973383E+02  0.00000000000E+00 0.  1.
</event>
<event>
 8    1  0.7075056E-009  0.1005748E+03  0.7561462E-02  0.1279092E+00
          2   -1    0    0  501    0  0.00000000000E+00  0.00000000000E+00  0.13960507596E+03  0.13960507596E+03  0.00000000000E+00 0. -1.
         -2   -1    0    0    0  501 -0.00000000000E+00 -0.00000000000E+00 -0.13864489023E+03  0.13864489023E+03  0.00000000000E+00 0.  1.
         25    2    1    2    0    0 -0.48929707168E+02 -0.22842195737E+01  0.71071670345E+02  0.15197736833E+03  0.12508638717E+03 0.  0.
         23    2    1    2    0    0  0.48929707168E+02  0.22842195737E+01 -0.70111484621E+02  0.12627259786E+03  0.92896796462E+02 0.  0.
          5    1    3    3  502    0 -0.62429373708E+02  0.43714328883E+02  0.70423769190E+02  0.10385253448E+03  0.41800000000E+01 0. -1.
         -5    1    3    3    0  502  0.13499666541E+02 -0.45998548457E+02  0.64790115473E+00  0.48124833846E+02  0.41800000000E+01 0. -1.
        -11    1    4    4    0    0  0.62752059405E+02  0.33283682462E+01 -0.85145312602E+02  0.10582354772E+03  0.00000000000E+00 0.  1.
         11    1    4    4    0    0 -0.13822352237E+02 -0.10441486725E+01  0.15033827981E+02  0.20449050139E+02  0.00000000000E+00 0. -1.
</event>
<event>
 8    1  0.7075056E-009  0.1042653E+03  0.7561462E-02  0.1271574E+00
          2   -1    0    0  501    0  0.00000000000E+00  0.00000000000E+00  0.19040599429E+02  0.19040599429E+02  0.00000000000E+00 0. -1.
         -2   -1    0    0    0  501 -0.00000000000E+00 -0.00000000000E+00 -0.71491055113E+03  0.71491055113E+03  0.00000000000E+00 0.  1.
         25    2    1    2    0    0 -0.83491175196E+01  0.36908219285E+02 -0.46748786232E+03  0.48541108213E+03  0.12508834008E+03 0.  0.
         23    2    1    2    0    0  0.83491175196E+01 -0.36908219285E+02 -0.22838208938E+03  0.24854006843E+03  0.90453648078E+02 0.  0.
          5    1    3    3  502    0  0.23531032820E+02 -0.28743397505E+02 -0.55033462857E+02  0.66528541542E+02  0.41800000000E+01 0.  1.
         -5    1    3    3    0  502 -0.31880150339E+02  0.65651616790E+02 -0.41245439946E+03  0.41888254058E+03  0.41800000000E+01 0.  1.
        -11    1    4    4    0    0 -0.99169314570E+01  0.28479014187E+02 -0.71147147793E+02  0.77274293382E+02  0.00000000000E+00 0.  1.
         11    1    4    4    0    0  0.18266048977E+02 -0.65387233472E+02 -0.15723494159E+03  0.17126577505E+03  0.00000000000E+00 0. -1.
</event>
<event>
 8    1  0.7075056E-009  0.1085582E+03  0.7561462E-02  0.1263263E+00
          1   -1    0    0  501    0  0.00000000000E+00  0.00000000000E+00  0.35749885562E+03  0.35749885562E+03  0.00000000000E+00 0. -1.
         -1   -1    0    0    0  501 -0.00000000000E+00 -0.00000000000E+00 -0.35971079461E+02  0.35971079461E+02  0.00000000000E+00 0.  1.
         25    2    1    2    0    0 -0.29632865705E+02 -0.24706452865E+01  0.14996807392E+03  0.19753520002E+03  0.12508205801E+03 0.  0.
         23    2    1    2    0    0  0.29632865705E+02  0.24706452865E+01  0.17155970224E+03  0.19593473506E+03  0.89852535587E+02 0.  0.
          5    1    3    3  502    0 -0.64734085586E+02 -0.36058949700E+02  0.60951939368E+02  0.96038330904E+02  0.41800000000E+01 0.  1.
         -5    1    3    3    0  502  0.35101219881E+02  0.33588304414E+02  0.89016134549E+02  0.10149686912E+03  0.41800000000E+01 0.  1.
        -11    1    4    4    0    0 -0.17361062092E+02 -0.31625065857E+02  0.75824434207E+02  0.83969614089E+02  0.00000000000E+00 0. -1.
         11    1    4    4    0    0  0.46993927797E+02  0.34095711143E+02  0.95735268030E+02  0.11196512097E+03  0.00000000000E+00 0.  1.
</event>
<event>
 8    1  0.7075056E-009  0.9499557E+02  0.7561462E-02  0.1291186E+00
          2   -1    0    0  501    0  0.00000000000E+00  0.00000000000E+00  0.74977322151E+03  0.74977322151E+03  0.00000000000E+00 0. -1.
         -2   -1    0    0    0  501 -0.00000000000E+00 -0.00000000000E+00 -0.24923912456E+02  0.24923912456E+02  0.00000000000E+00 0.  1.
         25    2    1    2    0    0 -0.39645588377E+02  0.66535601414E+02  0.45391089725E+03  0.47716156670E+03  0.12509715886E+03 0.  0.
         23    2    1    2    0    0  0.39645588377E+02 -0.66535601414E+02  0.27093841180E+03  0.29753556727E+03  0.95504093453E+02 0.  0.
          5    1    3    3  502    0 -0.20470551314E+02  0.46946435130E+02  0.44511471940E+03  0.44807097325E+03  0.41800000000E+01 0.  1.
         -5    1    3    3    0  502 -0.19175037063E+02  0.19589166285E+02  0.87961778460E+01  0.29090593442E+02  0.41800000000E+01 0.  1.
        -11    1    4    4    0    0  0.87442070743E+01 -0.77572212157E+02  0.12061722527E+03  0.14367471694E+03  0.00000000000E+00 0.  1.
         11    1    4    4    0    0  0.30901381303E+02  0.11036610742E+02  0.15032118653E+03  0.15386085032E+03  0.00000000000E+00 0. -1.
</event>
<event>
 8    1  0.7075056E-009  0.1207907E+03  0.7561462E-02  0.1241798E+00
         -2   -1    0    0    0  501 -0.00000000000E+00  0.00000000000E+00  0.54679224004E+02  0.54679224004E+02  0.00000000000E+00 0.  1.
          2   -1    0    0  501    0  0.00000000000E+00 -0.00000000000E+00 -0.37833031286E+03  0.37833031286E+03  0.00000000000E+00 0. -1.
         25    2    1    2    0    0  0.73566152981E+02 -0.15019557211E+02 -0.26088142548E+03  0.29889726730E+03  0.12507154862E+03 0.  0.
         23    2    1    2    0    0 -0.73566152981E+02  0.15019557211E+02 -0.62769663375E+02  0.13411226956E+03  0.91697896619E+02 0.  0.
          5    1    3    3  502    0  0.88460056765E+02 -0.45949905289E+02 -0.13203881333E+03  0.16549409677E+03  0.41800000000E+01 0.  1.
         -5    1    3    3    0  502 -0.14893903785E+02  0.30930348078E+02 -0.12884261215E+03  0.13340317053E+03  0.41800000000E+01 0.  1.
        -11    1    4    4    0    0  0.16290803861E+02  0.14946642287E+01  0.86778937498E+01  0.18518373350E+02  0.00000000000E+00 0.  1.
         11    1    4    4    0    0 -0.89856956842E+02  0.13524892982E+02 -0.71447557124E+02  0.11559389621E+03  0.00000000000E+00 0. -1.
</event>
<event>
 8    1  0.7075056E-009  0.2020091E+03  0.7561462E-02  0.1148055E+00
         -1   -1    0    0    0  501 -0.00000000000E+00  0.00000000000E+00  0.14734564397E+04  0.14734564397E+04  0.00000000000E+00 0. -1.
          1   -1    0    0  501    0  0.00000000000E+00 -0.00000000000E+00 -0.41728452746E+02  0.41728452746E+02  0.00000000000E+00 0.  1.
         25    2    1    2    0    0 -0.14479750000E+03 -0.12775926116E+03  0.10695110717E+04  0.10939788986E+04  0.12508858203E+03 0.  0.
         23    2    1    2    0    0  0.14479750000E+03  0.12775926116E+03  0.36221691531E+03  0.42120599386E+03  0.94470369499E+02 0.  0.
          5    1    3    3  502    0 -0.34336976452E+02 -0.68445994879E+01  0.48812298990E+02  0.60216189075E+02  0.41800000000E+01 0.  1.
         -5    1    3    3    0  502 -0.11046052355E+03 -0.12091466167E+03  0.10206987727E+04  0.10337627095E+04  0.41800000000E+01 0.  1.
        -11    1    4    4    0    0  0.12167932420E+03  0.64795706423E+02  0.17788267552E+03  0.22504796768E+03  0.00000000000E+00 0.  1.
         11    1    4    4    0    0  0.23118175805E+02  0.62963554734E+02  0.18433423979E+03  0.19615802618E+03  0.00000000000E+00 0. -1.
</event>
<event>
 8    1  0.7075056E-009  0.2920086E+03  0.7561462E-02  0.1089305E+00
          1   -1    0    0  501    0  0.00000000000E+00  0.00000000000E+00  0.71347695977E+03  0.71347695977E+03  0.00000000000E+00 0. -1.
         -1   -1    0    0    0  501 -0.00000000000E+00 -0.00000000000E+00 -0.12408150246E+03  0.12408150246E+03  0.00000000000E+00 0.  1.
         25    2    1    2    0    0 -0.22048308257E+03 -0.16222897645E+03  0.24343355650E+03  0.38708907409E+03  0.12508806640E+03 0.  0.
         23    2    1    2    0    0  0.22048308257E+03  0.16222897645E+03  0.34596190080E+03  0.45046938814E+03  0.91115324429E+02 0.  0.
          5    1    3    3  502    0 -0.61359809672E+02 -0.12151255671E+03  0.12111228625E+03  0.18225253348E+03  0.41800000000E+01 0. -1.
         -5    1    3    3    0  502 -0.15912327290E+03 -0.40716419737E+02  0.12232127026E+03  0.20483654061E+03  0.41800000000E+01 0. -1.
        -11    1    4    4    0    0  0.67906321656E+02  0.95043552734E+02  0.10254515094E+03  0.15543504565E+03  0.00000000000E+00 0.  1.
         11    1    4    4    0    0  0.15257676091E+03  0.67185423713E+02  0.24341674986E+03  0.29503434248E+03  0.00000000000E+00 0. -1.
</event>
<event>
 8    1  0.7075056E-009  0.7481700E+02  0.7561462E-02  0.1344439E+00
          1   -1    0    0  501    0  0.00000000000E+00  0.00000000000E+00  0.65379018713E+02  0.65379018713E+02  0.00000000000E+00 0. -1.
         -1   -1    0    0    0  501 -0.00000000000E+00 -0.00000000000E+00 -0.25855223471E+03  0.25855223471E+03  0.00000000000E+00 0.  1.
         25    2    1    2    0    0  0.32725911313E+02 -0.62559510898E+02 -0.95623262773E+02  0.17255952838E+03  0.12509318438E+03 0.  0.
         23    2    1    2    0    0 -0.32725911313E+02  0.62559510898E+02 -0.97549953221E+02  0.15137172504E+03  0.91720925053E+02 0.  0.
          5    1    3    3  502    0  0.12724831804E+02 -0.28133368132E+02 -0.12114163158E+03  0.12508467152E+03  0.41800000000E+01 0. -1.
         -5    1    3    3    0  502  0.20001079509E+02 -0.34426142766E+02  0.25518368810E+02  0.47474856862E+02  0.41800000000E+01 0. -1.
        -11    1    4    4    0    0 -0.29088954670E+02  0.19030608662E+02  0.92615952735E+01  0.35973719530E+02  0.00000000000E+00 0. -1.
         11    1    4    4    0    0 -0.36369566435E+01  0.43528902236E+02 -0.10681154849E+03  0.11539800551E+03  0.00000000000E+00 0.  1.
</event>
<event>
 8    1  0.7075056E-009  0.1571792E+03  0.7561462E-02  0.1191919E+00
         -1   -1    0    0    0  501 -0.00000000000E+00  0.00000000000E+00  0.68608370164E+03  0.68608370164E+03  0.00000000000E+00 0.  1.
          1   -1    0    0  501    0  0.00000000000E+00 -0.00000000000E+00 -0.51742016102E+02  0.51742016102E+02  0.00000000000E+00 0. -1.
         25    2    1    2    0    0  0.14488222840E+03 -0.20632930331E+00  0.43241088341E+03  0.47288073820E+03  0.12508444266E+03 0.  0.
         23    2    1    2    0    0 -0.14488222840E+03  0.20632930331E+00  0.20193080213E+03  0.26494497954E+03  0.91808990066E+02 0.  0.
          5    1    3    3  502    0  0.11848718804E+03  0.30928715521E+02  0.40599486417E+03  0.42408147956E+03  0.41800000000E+01 0. -1.
         -5    1    3    3    0  502  0.26395040360E+02 -0.31135044825E+02  0.26416019239E+02  0.48799258645E+02  0.41800000000E+01 0. -1.
        -11    1    4    4    0    0 -0.56751681621E+02 -0.20371809421E+02  0.14747004303E+03  0.15932098913E+03  0.00000000000E+00 0.  1.
         11    1    4    4    0    0 -0.88130546776E+02  0.20578138724E+02  0.54460759102E+02  0.10562399041E+03  0.00000000000E+00 0. -1.
</event>
<event>
 8    1  0.7075056E-009  0.2269119E+03  0.7561462E-02  0.1128832E+00
         -2   -1    0    0    0  501 -0.00000000000E+00  0.00000000000E+00  0.13602121830E+04  0.13602121830E+04  0.00000000000E+00 0.  1.
          2   -1    0    0  501    0  0.00000000000E+00 -0.00000000000E+00 -0.50072940411E+02  0.50072940411E+02  0.00000000000E+00 0. -1.
         25    2    1    2    0    0  0.13962306428E+03  0.16008495720E+03  0.95570020519E+03  0.98698141452E+03  0.12509051452E+03 0.  0.
         23    2    1    2    0    0 -0.13962306428E+03 -0.16008495720E+03  0.35443903742E+03  0.42330370890E+03  0.91854260239E+02 0.  0.
          5    1    3    3  502    0  0.78183205982E+02  0.13473166371E+03  0.43558029265E+03  0.46261528147E+03  0.41800000000E+01 0. -1.
         -5    1    3    3    0  502  0.61439858296E+02  0.25353293492E+02  0.52011991254E+03  0.52436613306E+03  0.41800000000E+01 0. -1.
        -11    1    4    4    0    0 -0.21179597940E+02 -0.92781324405E+02  0.14913841645E+03  0.17691584663E+03  0.00000000000E+00 0.  1.
         11    1    4    4    0    0 -0.11844346634E+03 -0.67303632795E+02  0.20530062097E+03  0.24638786228E+03  0.00000000000E+00 0. -1.
</event>
<event>
 8    1  0.7075056E-009  0.6613306E+02  0.7561462E-02  0.1373759E+00
          1   -1    0    0  501    0  0.00000000000E+00  0.00000000000E+00  0.22841373134E+03  0.22841373134E+03  0.00000000000E+00 0. -1.
         -1   -1    0    0    0  501 -0.00000000000E+00 -0.00000000000E+00 -0.81125058983E+02  0.81125058983E+02  0.00000000000E+00 0.  1.
         25    2    1    2    0    0 -0.89215306305E+01 -0.48681797726E+02  0.15480881307E+03  0.20509106560E+03  0.12508823065E+03 0.  0.
         23    2    1    2    0    0  0.89215306305E+01  0.48681797726E+02 -0.75201407053E+01  0.10444772473E+03  0.91669316276E+02 0.  0.
          5    1    3    3  502    0 -0.76372006945E+01 -0.46820107403E+02  0.17653782365E+03  0.18284836578E+03  0.41800000000E+01 0.  1.
         -5    1    3    3    0  502 -0.12843299360E+01 -0.18616903231E+01 -0.21729010580E+02  0.22242699814E+02  0.41800000000E+01 0.  1.
        -11    1    4    4    0    0  0.10253696329E+01  0.63282959822E+02 -0.35014376408E+02  0.72331120148E+02  0.00000000000E+00 0.  1.
         11    1    4    4    0    0  0.78961609976E+01 -0.14601162095E+02  0.27494235702E+02  0.32116604582E+02  0.00000000000E+00 0. -1.
</event>
<event>
 8    1  0.7075056E-009  0.1083240E+03  0.7561462E-02  0.1263705E+00
         -2   -1    0    0    0  501 -0.00000000000E+00  0.00000000000E+00  0.41362979374E+02  0.41362979374E+02  0.00000000000E+00 0. -1.
          2   -1    0    0  501    0  0.00000000000E+00 -0.00000000000E+00 -0.39350770601E+03  0.39350770601E+03  0.00000000000E+00 0.  1.
         25    2    1    2    0    0  0.28506664396E+02 -0.48228248973E+02 -0.14639828865E+03  0.20054990653E+03  0.12509681121E+03 0.  0.
         23    2    1    2    0    0 -0.28506664396E+02  0.48228248973E+02 -0.20574643798E+03  0.23432077885E+03  0.97139264695E+02 0.  0.
          5    1    3    3  502    0  0.45023500301E+02 -0.68552275239E+02 -0.15261798454E+03  0.17330969859E+03  0.41800000000E+01 0. -1.
         -5    1    3    3    0  502 -0.16516835905E+02  0.20324026265E+02  0.62196958855E+01  0.27240207944E+02  0.41800000000E+01 0. -1.
        -11    1    4    4    0    0  0.32139934155E+02  0.28592889518E+01 -0.35417955338E+02  0.47912237071E+02  0.00000000000E+00 0. -1.
         11    1    4    4    0    0 -0.60646598551E+02  0.45368960021E+02 -0.17032848264E+03  0.18640854178E+03  0.00000000000E+00 0.  1.
</event>
<event>
 8    1  0.7075056E-009  0.2465160E+03  0.7561462E-02  0.1115527E+00
          2   -1    0    0  501    0  0.00000000000E+00  0.00000000000E+00  0.27592713531E+03  0.27592713531E+03  0.00000000000E+00 0.  1.
         -2   -1    0    0    0  501 -0.00000000000E+00 -0.00000000000E+00 -0.24782856389E+03  0.24782856389E+03  0.00000000000E+00 0. -1.
         25    2    1    2    0    0 -0.58792082897E+02  0.22803377347E+03  0.44219566408E+02  0.27029376180E+03  0.12508971486E+03 0.  0.
         23    2    1    2    0    0  0.58792082897E+02 -0.22803377347E+03 -0.16120994993E+02  0.25346193740E+03  0.92342603264E+02 0.  0.
          5    1    3    3  502    0 -0.76999389819E+02  0.10975618151E+03  0.64509572639E+02  0.14884314822E+03  0.41800000000E+01 0. -1.
         -5    1    3    3    0  502  0.18207306922E+02  0.11827759196E+03 -0.20290006232E+02  0.12145061358E+03  0.41800000000E+01 0. -1.
        -11    1    4    4    0    0  0.30105674395E+01 -0.93009257260E+02  0.33903509960E+02  0.99041574300E+02  0.00000000000E+00 0. -1.
         11    1    4    4    0    0  0.55781515458E+02 -0.13502451621E+03 -0.50024504953E+02  0.15442036310E+03  0.00000000000E+00 0.  1.
</event>
<event>
 8    1  0.7075056E-009  0.7609151E+02  0.7561462E-02  0.1340524E+00
          2   -1    0    0  501    0  0.00000000000E+00  0.00000000000E+00  0.20844103266E+03  0.20844103266E+03  0.00000000000E+00 0. -1.
         -2   -1    0    0    0  501 -0.00000000000E+00 -0.00000000000E+00 -0.69605347469E+02  0.69605347469E+02  0.00000000000E+00 0.  1.
         25    2    1    2    0    0 -0.22530579750E+02  0.40767816247E+02  0.11222096895E+03  0.17439273221E+03  0.12509851042E+03 0.  0.
         23    2    1    2    0    0  0.22530579750E+02 -0.40767816247E+02  0.26614716245E+02  0.10365364793E+03  0.88691001472E+02 0.  0.
          5    1    3    3  502    0  0.47106448679E+01 -0.93790687665E+01 -0.24063224244E+02  0.26583232817E+02  0.41800000000E+01 0.  1.
         -5    1    3    3    0  502 -0.27241224618E+02  0.50146885014E+02  0.13628419319E+03  0.14780949939E+03  0.41800000000E+01 0.  1.
        -11    1    4    4    0    0  0.14768078740E+02  0.18623363592E+02 -0.17287998937E+02  0.29390487039E+02  0.00000000000E+00 0.  1.
         11    1    4    4    0    0  0.77625010108E+01 -0.59391179839E+02  0.43902715182E+02  0.74263160887E+02  0.00000000000E+00 0. -1.
</event>
<event>
 8    1  0.7075056E-009  0.1110910E+03  0.7561462E-02  0.1258563E+00
         -2   -1    0    0    0  501 -0.00000000000E+00  0.00000000000E+00  0.59147326330E+02  0.59147326330E+02  0.00000000000E+00 0.  1.
          2   -1    0    0  501    0  0.00000000000E+00 -0.00000000000E+00 -0.36884946687E+03  0.36884946687E+03  0.00000000000E+00 0. -1.
         25    2    1    2    0    0  0.62060026200E+02 -0.62452845773E+02 -0.23786478397E+03  0.28280449328E+03  0.12508765395E+03 0.  0.
         23    2    1    2    0    0 -0.62060026200E+02  0.62452845773E+02 -0.71837356574E+02  0.14519229992E+03  0.90379164414E+02 0.  0.
          5    1    3    3  502    0  0.61910518953E+02 -0.69575402607E+02 -0.25073854522E+03  0.26750876521E+03  0.41800000000E+01 0.  1.
         -5    1    3    3    0  502  0.14950724719E+00  0.71225568340E+01  0.12873761255E+02  0.15295728068E+02  0.41800000000E+01 0.  1.
        -11    1    4    4    0    0  0.88116284006E+01  0.47440292280E+02 -0.85623069503E+01  0.49005502008E+02  0.00000000000E+00 0.  1.
         11    1    4    4    0    0 -0.70871654601E+02  0.15012553493E+02 -0.63275049623E+02  0.96186797915E+02  0.00000000000E+00 0. -1.
</event>
<event>
 8    1  0.7075056E-009  0.1305540E+03  0.7561462E-02  0.1226636E+00
         -2   -1    0    0    0  501 -0.00000000000E+00  0.00000000000E+00  0.53726556944E+02  0.53726556944E+02  0.00000000000E+00 0.  1.
          2   -1    0    0  501    0  0.00000000000E+00 -0.00000000000E+00 -0.35147482685E+03  0.35147482685E+03  0.00000000000E+00 0. -1.
         25    2    1    2    0    0 -0.22819515719E+02 -0.81273390972E+02 -0.18235318147E+03  0.23670055830E+03  0.12509347356E+03 0.  0.
         23    2    1    2    0    0  0.22819515719E+02  0.81273390972E+02 -0.11539508843E+03  0.16850082550E+03  0.89165056945E+02 0.  0.
          5    1    3    3  502    0 -0.38902620952E+02  0.14040874656E+02 -0.16570759917E+02  0.44750671082E+02  0.41800000000E+01 0. -1.
         -5    1    3    3    0  502  0.16083105233E+02 -0.95314265628E+02 -0.16578242156E+03  0.19194988722E+03  0.41800000000E+01 0. -1.
        -11    1    4    4    0    0 -0.34061212945E+02  0.21527166809E+02 -0.37955174364E+02  0.55355039510E+02  0.00000000000E+00 0.  1.
         11    1    4    4    0    0  0.56880728664E+02  0.59746224162E+02 -0.77439914071E+02  0.11314578599E+03  0.00000000000E+00 0. -1.
</event>
<event>
 8    1  0.7075056E-009  0.1216250E+03  0.7561462E-02  0.1240440E+00
         -1   -1    0    0    0  501 -0.00000000000E+00  0.00000000000E+00  0.19294443451E+03  0.19294443451E+03  0.00000000000E+00 0.  1.
          1   -1    0    0  501    0  0.00000000000E+00 -0.00000000000E+00 -0.11041794077E+03  0.11041794077E+03  0.00000000000E+00 0. -1.
         25    2    1    2    0    0 -0.33855823082E+02  0.71588660642E+02  0.10333385354E+03  0.18054628481E+03  0.12509165672E+03 0.  0.
         23    2    1    2    0    0  0.33855823082E+02 -0.71588660642E+02 -0.20807359802E+02  0.12281609048E+03  0.91540661840E+02 0.  0.
          5    1    3    3  502    0 -0.14715876081E+01  0.10133495368E+03  0.86396656407E+02  0.13323960765E+03  0.41800000000E+01 0.  1.
         -5    1    3    3    0  502 -0.32384235474E+02 -0.29746293042E+02  0.16937197133E+02  0.47306677158E+02  0.41800000000E+01 0.  1.
        -11    1    4    4    0    0  0.11381391430E+02  0.86662022197E+01  0.24189241259E+02  0.28102642660E+02  0.00000000000E+00 0.  1.
         11    1    4    4    0    0  0.22474431652E+02 -0.80254862862E+02 -0.44996601061E+02  0.94713447821E+02  0.00000000000E+00 0. -1.
</event>
<event>
 8    1  0.7075056E-009  0.1083408E+03  0.7561462E-02  0.1263674E+00
          1   -1    0    0  501    0  0.00000000000E+00  0.00000000000E+00  0.10824242748E+04  0.10824242748E+04  0.00000000000E+00 0. -1.
         -1   -1    0    0    0  501 -0.00000000000E+00 -0.00000000000E+00 -0.19010902067E+02  0.19010902067E+02  0.00000000000E+00 0.  1.
         25    2    1    2    0    0 -0.87147661783E+02  0.23580488767E+01  0.44822728809E+03  0.47345098673E+03  0.12509140536E+03 0.  0.
         23    2    1    2    0    0  0.87147661783E+02 -0.23580488767E+01  0.61518608465E+03  0.62798419015E+03  0.91158921563E+02 0.  0.
          5    1    3    3  502    0 -0.68466602384E+02  0.21911301525E+02  0.95207251997E+02  0.11937199843E+03  0.41800000000E+01 0.  1.
         -5    1    3    3    0  502 -0.18681059399E+02 -0.19553252649E+02  0.35302003610E+03  0.35407898830E+03  0.41800000000E+01 0.  1.
        -11    1    4    4    0    0 -0.76168769620E+01 -0.19564666034E+02  0.44211978724E+02  0.48943763998E+02  0.00000000000E+00 0.  1.
         11    1    4    4    0    0  0.94764538745E+02  0.17206617157E+02  0.57097410593E+03  0.57904042615E+03  0.00000000000E+00 0. -1.
</event>
<event>
 8    1  0.7075056E-009  0.7594976E+02  0.7561462E-02  0.1340955E+00
         -2   -1    0    0    0  501 -0.00000000000E+00  0.00000000000E+00  0.62850630981E+02  0.62850630981E+02  0.00000000000E+00 0.  1.
          2   -1    0    0  501    0  0.00000000000E+00 -0.00000000000E+00 -0.18624066845E+03  0.18624066845E+03  0.00000000000E+00 0. -1.
         25    2    1    2    0    0 -0.12901041585E+02 -0.62613586267E+01 -0.86683719345E+02  0.15286793484E+03  0.12509555075E+03 0.  0.
         23    2    1    2    0    0  0.12901041585E+02  0.62613586267E+01 -0.36706318124E+02  0.96223364586E+02  0.87783487150E+02 0.  0.
          5    1    3    3  502    0 -0.83233653603E+01 -0.44520598004E+02  0.11835423850E+02  0.46999060792E+02  0.41800000000E+01 0.  1.
         -5    1    3    3    0  502 -0.45776762246E+01  0.38259239378E+02 -0.98519143196E+02  0.10586887405E+03  0.41800000000E+01 0.  1.
        -11    1    4    4    0    0 -0.26508880193E+02  0.93903852377E+01  0.14412436666E+02  0.31600923953E+02  0.00000000000E+00 0.  1.
         11    1    4    4    0    0  0.39409921778E+02 -0.31290266110E+01 -0.51118754790E+02  0.64622440633E+02  0.00000000000E+00 0. -1.
</event>
<event>
 8    1  0.7075056E-009  0.1215179E+03  0.7561462E-02  0.1240614E+00
         -1   -1    0    0    0  501 -0.00000000000E+00  0.00000000000E+00  0.26123358338E+02  0.26123358338E+02  0.00000000000E+00 0.  1.
          1   -1    0    0  501    0  0.00000000000E+00 -0.00000000000E+00 -0.96166458129E+03  0.96166458129E+03  0.00000000000E+00 0. -1.
         25    2    1    2    0    0 -0.53118240655E+02  0.70123422351E+02 -0.72725205548E+03  0.74315709895E+03  0.12509228460E+03 0.  0.
         23    2    1    2    0    0  0.53118240655E+02 -0.70123422351E+02 -0.20828916747E+03  0.24463084068E+03  0.93386450154E+02 0.  0.
          5    1    3    3  502    0  0.25465908519E+02  0.33231480788E+02 -0.82864435244E+02  0.92934551381E+02  0.41800000000E+01 0. -1.
         -5    1    3    3    0  502 -0.78584149174E+02  0.36891941563E+02 -0.64438762024E+03  0.65022254757E+03  0.41800000000E+01 0. -1.
        -11    1    4    4    0    0  0.64305786865E+02 -0.27428823771E+02 -0.67862333867E+02  0.97431365359E+02  0.00000000000E+00 0.  1.
         11    1    4    4    0    0 -0.11187546210E+02 -0.42694598580E+02 -0.14042683360E+03  0.14719947532E+03  0.00000000000E+00 0. -1.
</event>
<event>
 8    1  0.7075056E-009  0.1051615E+03  0.7561462E-02  0.1269802E+00
          2   -1    0    0  501    0  0.00000000000E+00  0.00000000000E+00  0.25999057210E+03  0.25999057210E+03  0.00000000000E+00 0. -1.
         -2   -1    0    0    0  501 -0.00000000000E+00 -0.00000000000E+00 -0.61157027308E+02  0.61157027308E+02  0.00000000000E+00 0.  1.
         25    2    1    2    0    0 -0.45125311433E+02  0.36447428138E+02  0.15389786433E+03  0.20663192513E+03  0.12508993200E+03 0.  0.
         23    2    1    2    0    0  0.45125311433E+02 -0.36447428138E+02  0.44935680461E+02  0.11451567428E+03  0.87919938166E+02 0.  0.
          5    1    3    3  502    0  0.71664525810E+01  0.53122902744E+02  0.13983966201E+03  0.14981990625E+03  0.41800000000E+01 0.  1.
         -5    1    3    3    0  502 -0.52291764014E+02 -0.16675474606E+02  0.14058202328E+02  0.56812018885E+02  0.41800000000E+01 0.  1.
        -11    1    4    4    0    0  0.52237101689E+02 -0.58448168663E+02  0.20821579796E+02  0.81107591496E+02  0.00000000000E+00 0. -1.
         11    1    4    4    0    0 -0.71117902561E+01  0.22000740526E+02  0.24114100665E+02  0.33408082782E+02  0.00000000000E+00 0.  1.
</event>
<event>
 8    1  0.7075056E-009  0.1580756E+03  0.7561462E-02  0.1190887E+00
          3   -1    0    0  501    0  0.00000000000E+00  0.00000000000E+00  0.11414286699E+04  0.11414286699E+04  0.00000000000E+00 0. -1.
         -3   -1    0    0    0  501 -0.00000000000E+00 -0.00000000000E+00 -0.26523004902E+02  0.26523004902E+02  0.00000000000E+00 0.  1.
         25    2    1    2    0    0  0.11488779495E+03  0.62560189321E+02  0.72759578576E+03  0.74977068598E+03  0.12508985323E+03 0.  0.
         23    2    1    2    0    0 -0.11488779495E+03 -0.62560189321E+02  0.38730987921E+03  0.41818098879E+03  0.88053473186E+02 0.  0.
          5    1    3    3  502    0  0.38389891487E+01 -0.33392991332E+02  0.15418456358E+03  0.15786127377E+03  0.41800000000E+01 0.  1.
         -5    1    3    3    0  502  0.11104880580E+03  0.95953180653E+02  0.57341122217E+03  0.59190941221E+03  0.41800000000E+01 0.  1.
        -11    1    4    4    0    0 -0.55153345971E+02 -0.49944455447E+02  0.31440253029E+03  0.32308712642E+03  0.00000000000E+00 0.  1.
         11    1    4    4    0    0 -0.59734448978E+02 -0.12615733875E+02  0.72907348915E+02  0.95093862377E+02  0.00000000000E+00 0. -1.
</event>
<event>
 8    1  0.7075056E-009  0.1103492E+03  0.7561462E-02  0.1259925E+00
         -1   -1    0    0    0  501 -0.00000000000E+00  0.00000000000E+00  0.82342569477E+03  0.82342569477E+03  0.00000000000E+00 0.  1.
          1   -1    0    0  501    0  0.00000000000E+00 -0.00000000000E+00 -0.15453138125E+02  0.15453138125E+02  0.00000000000E+00 0. -1.
         25    2    1    2    0    0  0.16737053170E+02  0.88704696250E+01  0.41010867646E+03  0.42917864641E+03  0.12508545020E+03 0.  0.
         23    2    1    2    0    0 -0.16737053170E+02 -0.88704696250E+01  0.39786388019E+03  0.40970018648E+03  0.95915387005E+02 0.  0.
          5    1    3    3  502    0  0.50363611070E+02  0.49734434695E+02  0.27556342557E+03  0.28453941946E+03  0.41800000000E+01 0.  1.
         -5    1    3    3    0  502 -0.33626557900E+02 -0.40863965070E+02  0.13454525088E+03  0.14463922695E+03  0.41800000000E+01 0.  1.
        -11    1    4    4    0    0  0.99341476711E+01 -0.48186032125E+02  0.17225653743E+03  0.17914490132E+03  0.00000000000E+00 0.  1.
         11    1    4    4    0    0 -0.26671200842E+02  0.39315562500E+02  0.22560734276E+03  0.23055528516E+03  0.00000000000E+00 0. -1.
</event>
<event>
 8    1  0.7075056E-009  0.8025077E+02  0.7561462E-02  0.1328341E+00
         -1   -1    0    0    0  501 -0.00000000000E+00  0.00000000000E+00  0.34001698214E+02  0.34001698214E+02  0.00000000000E+00 0.  1.
          1   -1    0    0  501    0  0.00000000000E+00 -0.00000000000E+00 -0.51256257354E+03  0.51256257354E+03  0.00000000000E+00 0. -1.
         25    2    1    2    0    0  0.38046816454E+02 -0.60424324447E+02 -0.31032973479E+03  0.34212628016E+03  0.12508872073E+03 0.  0.
         23    2    1    2    0    0 -0.38046816454E+02  0.60424324447E+02 -0.16823114053E+03  0.20443799159E+03  0.91621594258E+02 0.  0.
          5    1    3    3  502    0  0.16957989641E+02 -0.18388690459E+02  0.27468899251E+01  0.25509511045E+02  0.41800000000E+01 0.  1.
         -5    1    3    3    0  502  0.21088826812E+02 -0.42035633988E+02 -0.31307662471E+03  0.31661676911E+03  0.41800000000E+01 0.  1.
        -11    1    4    4    0    0  0.12831776884E+02  0.97375912795E+01  0.50355859685E+01  0.16876975676E+02  0.00000000000E+00 0.  1.
         11    1    4    4    0    0 -0.50878593338E+02  0.50686733168E+02 -0.17326672650E+03  0.18756101592E+03  0.00000000000E+00 0. -1.
</event>
<event>
 8    1  0.7075056E-009  0.2231356E+03  0.7561462E-02  0.1131567E+00
         -1   -1    0    0    0  501 -0.00000000000E+00  0.00000000000E+00  0.13478776936E+03  0.13478776936E+03  0.00000000000E+00 0.  1.
          1   -1    0    0  501    0  0.00000000000E+00 -0.00000000000E+00 -0.46584204568E+03  0.46584204568E+03  0.00000000000E+00 0. -1.
         25    2    1    2    0    0 -0.18516760860E+03 -0.79430296309E+02 -0.50420774959E+02  0.24245978236E+03  0.12509307042E+03 0.  0.
         23    2    1    2    0    0  0.18516760860E+03  0.79430296309E+02 -0.28063350136E+03  0.35817003268E+03  0.94521928570E+02 0.  0.
          5    1    3    3  502    0 -0.30341565944E+02 -0.73675037025E+02 -0.10420442601E+01  0.79794611101E+02  0.41800000000E+01 0.  1.
         -5    1    3    3    0  502 -0.15482604266E+03 -0.57552592840E+01 -0.49378730699E+02  0.16266517126E+03  0.41800000000E+01 0.  1.
        -11    1    4    4    0    0  0.10665527053E+03  0.79427896876E+02 -0.11889278272E+03  0.17838057999E+03  0.00000000000E+00 0.  1.
         11    1    4    4    0    0  0.78512338075E+02  0.23994326942E-02 -0.16174071863E+03  0.17978945269E+03  0.00000000000E+00 0. -1.
</event>
<event>
 8    1  0.7075056E-009  0.9822162E+02  0.7561462E-02  0.1284081E+00
          2   -1    0    0  501    0  0.00000000000E+00  0.00000000000E+00  0.43363763227E+03  0.43363763227E+03  0.00000000000E+00 0. -1.
         -2   -1    0    0    0  501 -0.00000000000E+00 -0.00000000000E+00 -0.39329085786E+02  0.39329085786E+02  0.00000000000E+00 0.  1.
         25    2    1    2    0    0 -0.20089978016E+02  0.27742299855E+02  0.10022950117E+03  0.16390832475E+03  0.12508694417E+03 0.  0.
         23    2    1    2    0    0  0.20089978016E+02 -0.27742299855E+02  0.29407904532E+03  0.30905839330E+03  0.88664328558E+02 0.  0.
          5    1    3    3  502    0 -0.54981026987E+02 -0.19320371051E+02  0.14862141273E+02  0.60287193577E+02  0.41800000000E+01 0.  1.
         -5    1    3    3    0  502  0.34891048971E+02  0.47062670906E+02  0.85367359894E+02  0.10362113118E+03  0.41800000000E+01 0.  1.
        -11    1    4    4    0    0  0.52852194075E+01  0.24458227408E+02  0.28207962386E+02  0.37707128955E+02  0.00000000000E+00 0.  1.
         11    1    4    4    0    0  0.14804758608E+02 -0.52200527263E+02  0.26587108293E+03  0.27135126435E+03  0.00000000000E+00 0. -1.
</event>
<event>
 8    1  0.7075056E-009  0.1368179E+03  0.7561462E-02  0.1217676E+00
         -2   -1    0    0    0  501 -0.00000000000E+00  0.00000000000E+00  0.10854407632E+03  0.10854407632E+03  0.00000000000E+00 0.  1.
          2   -1    0    0  501    0  0.00000000000E+00 -0.00000000000E+00 -0.21452790329E+03  0.21452790329E+03  0.00000000000E+00 0. -1.
         25    2    1    2    0    0 -0.21493166231E+02  0.83369247361E+02  0.95239411131E+01  0.15215923408E+03  0.12509731997E+03 0.  0.
         23    2    1    2    0    0  0.21493166231E+02 -0.83369247361E+02 -0.11550776808E+03  0.17091274553E+03  0.91960505090E+02 0.  0.
          5    1    3    3  502    0  0.44952831915E+02  0.50421195198E+01  0.18324302166E+02  0.48984002657E+02  0.41800000000E+01 0. -1.
         -5    1    3    3    0  502 -0.66445998146E+02  0.78327127841E+02 -0.88003610527E+01  0.10317523143E+03  0.41800000000E+01 0. -1.
        -11    1    4    4    0    0  0.54951525859E+02 -0.30517042220E+02 -0.65966719785E+02  0.91118429416E+02  0.00000000000E+00 0.  1.
         11    1    4    4    0    0 -0.33458359628E+02 -0.52852205141E+02 -0.49541048297E+02  0.79794316111E+02  0.00000000000E+00 0. -1.
</event>
<event>
 8    1  0.7075056E-009  0.2216716E+03  0.7561462E-02  0.1132643E+00
          2   -1    0    0  501    0  0.00000000000E+00  0.00000000000E+00  0.12067859180E+04  0.12067859180E+04  0.00000000000E+00 0. -1.
         -2   -1    0    0    0  501 -0.00000000000E+00 -0.00000000000E+00 -0.46357559793E+02  0.46357559793E+02  0.00000000000E+00 0.  1.
         25    2    1    2    0    0  0.11288852543E+03  0.17564290539E+03  0.66358899071E+03  0.70681812037E+03  0.12508899755E+03 0.  0.
         23    2    1    2    0    0 -0.11288852543E+03 -0.17564290539E+03  0.49683936753E+03  0.54632535745E+03  0.89597933454E+02 0.  0.
          5    1    3    3  502    0  0.15638719086E+02  0.91385571611E+02  0.43194146636E+03  0.44179949638E+03  0.41800000000E+01 0. -1.
         -5    1    3    3    0  502  0.97249806347E+02  0.84257333779E+02  0.23164752434E+03  0.26501862399E+03  0.41800000000E+01 0. -1.
        -11    1    4    4    0    0 -0.56660494612E+02 -0.26789238822E+02  0.91823986216E+02  0.11117427495E+03  0.00000000000E+00 0.  1.
         11    1    4    4    0    0 -0.56228030821E+02 -0.14885366657E+03  0.40501538132E+03  0.43515108250E+03  0.00000000000E+00 0. -1.
</event>
<event>
 8    1  0.7075056E-009  0.1578647E+03  0.7561462E-02  0.1191129E+00
          1   -1    0    0  501    0  0.00000000000E+00  0.00000000000E+00  0.11169844455E+04  0.11169844455E+04  0.00000000000E+00 0. -1.
         -1   -1    0    0    0  501 -0.00000000000E+00 -0.00000000000E+00 -0.24348916648E+02  0.24348916648E+02  0.00000000000E+00 0.  1.
         25    2    1    2    0    0  0.34436861493E+02  0.11650163433E+03  0.60369664972E+03  0.62837562674E+03  0.12509098756E+03 0.  0.
         23    2    1    2    0    0 -0.34436861493E+02 -0.11650163433E+03  0.48893887915E+03  0.51295773543E+03  0.96467002435E+02 0.  0.
          5    1    3    3  502    0 -0.28470018275E+02  0.99845486507E+02  0.44147048230E+03  0.45353425699E+03  0.41800000000E+01 0. -1.
         -5    1    3    3    0  502  0.62906879768E+02  0.16656147819E+02  0.16222616742E+03  0.17484136975E+03  0.41800000000E+01 0. -1.
        -11    1    4    4    0    0 -0.61599598093E+02 -0.75716457411E+02  0.23727624082E+03  0.25656871763E+03  0.00000000000E+00 0.  1.
         11    1    4    4    0    0  0.27162736600E+02 -0.40785176915E+02  0.25166263834E+03  0.25638901780E+03  0.00000000000E+00 0. -1.
</event>
<event>
 8    1  0.7075056E-009  0.9524212E+02  0.7561462E-02  0.1290632E+00
         -1   -1    0    0    0  501 -0.00000000000E+00  0.00000000000E+00  0.34297198179E+02  0.34297198179E+02  0.00000000000E+00 0. -1.
          1   -1    0    0  501    0  0.00000000000E+00 -0.00000000000E+00 -0.38733454289E+03  0.38733454289E+03  0.00000000000E+00 0.  1.
         25    2    1    2    0    0  0.40826265390E+02 -0.98788937233E+01 -0.19282872252E+03  0.23365521258E+03  0.12508983031E+03 0.  0.
         23    2    1    2    0    0 -0.40826265390E+02  0.98788937233E+01 -0.16020862219E+03  0.18797652849E+03  0.88904421452E+02 0.  0.
          5    1    3    3  502    0  0.22527572510E+02  0.55015377926E+02 -0.12199026110E+03  0.13576921424E+03  0.41800000000E+01 0. -1.
         -5    1    3    3    0  502  0.18298692880E+02 -0.64894271649E+02 -0.70838461419E+02  0.97885998336E+02  0.41800000000E+01 0. -1.
        -11    1    4    4    0    0 -0.20629297037E+02 -0.19031821295E+02 -0.14802809708E+03  0.15066550914E+03  0.00000000000E+00 0.  1.
         11    1    4    4    0    0 -0.20196968353E+02  0.28910715019E+02 -0.12180525109E+02  0.37311019357E+02  0.00000000000E+00 0. -1.
</event>
<event>
 8    1  0.7075056E-009  0.8885155E+02  0.7561462E-02  0.1305657E+00
          2   -1    0    0  501    0  0.00000000000E+00  0.00000000000E+00  0.37855895006E+03  0.37855895006E+03  0.00000000000E+00 0.  1.
         -2   -1    0    0    0  501 -0.00000000000E+00 -0.00000000000E+00 -0.36966430720E+02  0.36966430720E+02  0.00000000000E+00 0. -1.
         25    2    1    2    0    0 -0.43406001446E+02 -0.14750879733E+02  0.23191867096E+03  0.26746110432E+03  0.12508997949E+03 0.  0.
         23    2    1    2    0    0  0.43406001446E+02  0.14750879733E+02  0.10967384839E+03  0.14806427647E+03  0.88278012730E+02 0.  0.
          5    1    3    3  502    0  0.23517058230E+02  0.34997851015E+02  0.12384132218E+03  0.13088944603E+03  0.41800000000E+01 0.  1.
         -5    1    3    3    0  502 -0.66923059676E+02 -0.49748730748E+02  0.10807734878E+03  0.13657165828E+03  0.41800000000E+01 0.  1.
        -11    1    4    4    0    0  0.26030009004E+02 -0.39303991126E+01  0.11825273251E+03  0.12114750576E+03  0.00000000000E+00 0.  1.
         11    1    4    4    0    0  0.17375992442E+02  0.18681278846E+02 -0.85788841206E+01  0.26916770709E+02  0.00000000000E+00 0. -1.
</event>
<event>
 8    1  0.7075056E-009  0.1033802E+03  0.7561462E-02  0.1273344E+00
         -3   -1    0    0    0  501 -0.00000000000E+00  0.00000000000E+00  0.42263936266E+03  0.42263936266E+03  0.00000000000E+00 0.  1.
          3   -1    0    0  501    0  0.00000000000E+00 -0.00000000000E+00 -0.32999884602E+02  0.32999884602E+02  0.00000000000E+00 0. -1.
         25    2    1    2    0    0 -0.95428972327E+01 -0.32724216387E+02  0.18432233397E+03  0.22535328782E+03  0.12508972902E+03 0.  0.
         23    2    1    2    0    0  0.95428972327E+01  0.32724216387E+02  0.20531714409E+03  0.23028595944E+03  0.98562428096E+02 0.  0.
          5    1    3    3  502    0  0.10843272891E+02  0.43529580423E+02  0.10052196674E+03  0.11015688420E+03  0.41800000000E+01 0. -1.
         -5    1    3    3    0  502 -0.20386170124E+02 -0.76253796811E+02  0.83800367227E+02  0.11519640362E+03  0.41800000000E+01 0. -1.
        -11    1    4    4    0    0 -0.33091946420E+02  0.11458282842E+02  0.23121771116E+02  0.41964097310E+02  0.00000000000E+00 0. -1.
         11    1    4    4    0    0  0.42634843652E+02  0.21265933545E+02  0.18219537298E+03  0.18832186213E+03  0.00000000000E+00 0.  1.
</event>
<event>
 8    1  0.7075056E-009  0.5677495E+03  0.7561462E-02  0.9974671E-01
          2   -1    0    0  501    0  0.00000000000E+00  0.00000000000E+00  0.19256609481E+04  0.19256609481E+04  0.00000000000E+00 0. -1.
         -2   -1    0    0    0  501 -0.00000000000E+00 -0.00000000000E+00 -0.18356354533E+03  0.18356354533E+03  0.00000000000E+00 0.  1.
         25    2    1    2    0    0  0.55761520051E+03 -0.83179352313E+02  0.60255932301E+03  0.83461293348E+03  0.12508994564E+03 0.  0.
         23    2    1    2    0    0 -0.55761520051E+03  0.83179352313E+02  0.11395380798E+04  0.12746115600E+04  0.90741815359E+02 0.  0.
          5    1    3    3  502    0  0.33433806739E+03 -0.96447066679E+02  0.30791114200E+03  0.46466194566E+03  0.41800000000E+01 0. -1.
         -5    1    3    3    0  502  0.22327713312E+03  0.13267714366E+02  0.29464818101E+03  0.36995098782E+03  0.41800000000E+01 0. -1.
        -11    1    4    4    0    0 -0.86622308280E+02  0.11849296628E+02  0.26073810633E+03  0.27500580033E+03  0.00000000000E+00 0. -1.
         11    1    4    4    0    0 -0.47099289223E+03  0.71330055685E+02  0.87879997347E+03  0.99960575966E+03  0.00000000000E+00 0.  1.
</event>
<event>
 8    1  0.7075056E-009  0.1108674E+03  0.7561462E-02  0.1258972E+00
         -4   -1    0    0    0  501 -0.00000000000E+00  0.00000000000E+00  0.18469867624E+02  0.18469867624E+02  0.00000000000E+00 0.  1.
          4   -1    0    0  501    0  0.00000000000E+00 -0.00000000000E+00 -0.83579680241E+03  0.83579680241E+03  0.00000000000E+00 0. -1.
         25    2    1    2    0    0 -0.25547072592E+02 -0.26638923204E+02 -0.61861414732E+03  0.63221321970E+03  0.12509119377E+03 0.  0.
         23    2    1    2    0    0  0.25547072592E+02  0.26638923204E+02 -0.19871278747E+03  0.22205345033E+03  0.91971070193E+02 0.  0.
          5    1    3    3  502    0 -0.40215765358E+02  0.38522833027E+02 -0.39088655635E+03  0.39485578226E+03  0.41800000000E+01 0. -1.
         -5    1    3    3    0  502  0.14668692766E+02 -0.65161756231E+02 -0.22772759097E+03  0.23735743745E+03  0.41800000000E+01 0. -1.
        -11    1    4    4    0    0  0.56552649493E+02 -0.22360213237E+01 -0.10786390766E+03  0.12181060927E+03  0.00000000000E+00 0.  1.
         11    1    4    4    0    0 -0.31005576901E+02  0.28874944528E+02 -0.90848879810E+02  0.10024284106E+03  0.00000000000E+00 0. -1.
</event>
<event>
 8    1  0.7075056E-009  0.1293092E+03  0.7561462E-02  0.1228484E+00
         -2   -1    0    0    0  501 -0.00000000000E+00  0.00000000000E+00  0.53703028965E+02  0.53703028965E+02  0.00000000000E+00 0.  1.
          2   -1    0    0  501    0  0.00000000000E+00 -0.00000000000E+00 -0.41589171715E+03  0.41589171715E+03  0.00000000000E+00 0. -1.
         25    2    1    2    0    0  0.45547502867E+02 -0.92635187047E+02 -0.18681937505E+03  0.24739686872E+03  0.12509148196E+03 0.  0.
         23    2    1    2    0    0 -0.45547502867E+02  0.92635187047E+02 -0.17536931313E+03  0.22219787740E+03  0.89228066410E+02 0.  0.
          5    1    3    3  502    0  0.35155555909E+02  0.10355644378E+02 -0.37884466279E+01  0.37080685129E+02  0.41800000000E+01 0.  1.
         -5    1    3    3    0  502  0.10391946958E+02 -0.10299083143E+03 -0.18303092842E+03  0.21031618359E+03  0.41800000000E+01 0.  1.
        -11    1    4    4    0    0 -0.22210515603E+02 -0.40194387668E+00 -0.93462020954E+02  0.96065695871E+02  0.00000000000E+00 0. -1.
         11    1    4    4    0    0 -0.23336987264E+02  0.93037130924E+02 -0.81907292178E+02  0.12613218153E+03  0.00000000000E+00 0.  1.
</event>
<event>
 8    1  0.7075056E-009  0.1867265E+03  0.7561462E-02  0.1161447E+00
         -2   -1    0    0    0  501 -0.00000000000E+00  0.00000000000E+00  0.90408612705E+02  0.90408612705E+02  0.00000000000E+00 0.  1.
          2   -1    0    0  501    0  0.00000000000E+00 -0.00000000000E+00 -0.50292062602E+03  0.50292062602E+03  0.00000000000E+00 0. -1.
         25    2    1    2    0    0 -0.13151788866E+02 -0.16066283310E+03 -0.33572737027E+03  0.39286972556E+03  0.12509291997E+03 0.  0.
         23    2    1    2    0    0  0.13151788866E+02  0.16066283310E+03 -0.76784643044E+02  0.20045951316E+03  0.91118711129E+02 0.  0.
          5    1    3    3  502    0  0.36143067109E+02 -0.75597585439E+00 -0.67939804075E+02  0.77072577336E+02  0.41800000000E+01 0. -1.
         -5    1    3    3    0  502 -0.49294855975E+02 -0.15990685725E+03 -0.26778756620E+03  0.31579714823E+03  0.41800000000E+01 0. -1.
        -11    1    4    4    0    0  0.31306811910E+02  0.63109162757E+02  0.67234714532E+01  0.70767845553E+02  0.00000000000E+00 0.  1.
         11    1    4    4    0    0 -0.18155023044E+02  0.97553670346E+02 -0.83508114498E+02  0.12969166761E+03  0.00000000000E+00 0. -1.
</event>
<event>
 8    1  0.7075056E-009  0.1686173E+03  0.7561462E-02  0.1179297E+00
         -2   -1    0    0    0  501 -0.00000000000E+00  0.00000000000E+00  0.86758627020E+02  0.86758627020E+02  0.00000000000E+00 0.  1.
          2   -1    0    0  501    0  0.00000000000E+00 -0.00000000000E+00 -0.36653355100E+03  0.36653355100E+03  0.00000000000E+00 0. -1.
         25    2    1    2    0    0 -0.11428093835E+03 -0.75615938890E+02 -0.10471218908E+03  0.21304616447E+03  0.12508446174E+03 0.  0.
         23    2    1    2    0    0  0.11428093835E+03  0.75615938890E+02 -0.17506273489E+03  0.24024601354E+03  0.91067462847E+02 0.  0.
          5    1    3    3  502    0 -0.13750746905E+03 -0.41383959013E+02 -0.86154460337E+02  0.16751417714E+03  0.41800000000E+01 0. -1.
         -5    1    3    3    0  502  0.23226530693E+02 -0.34231979878E+02 -0.18557728746E+02  0.45531987334E+02  0.41800000000E+01 0. -1.
        -11    1    4    4    0    0  0.27867283338E+02  0.57220228764E+02 -0.12086150309E+03  0.13659517923E+03  0.00000000000E+00 0.  1.
         11    1    4    4    0    0  0.86413655015E+02  0.18395710126E+02 -0.54201231804E+02  0.10365083431E+03  0.00000000000E+00 0. -1.
</event>
<event>
 8    1  0.7075056E-009  0.1241277E+03  0.7561462E-02  0.1236439E+00
         -1   -1    0    0    0  501 -0.00000000000E+00  0.00000000000E+00  0.57110391280E+02  0.57110391280E+02  0.00000000000E+00 0.  1.
          1   -1    0    0  501    0  0.00000000000E+00 -0.00000000000E+00 -0.43867677797E+03  0.43867677797E+03  0.00000000000E+00 0. -1.
         25    2    1    2    0    0 -0.10126283785E+03  0.44420956701E+02 -0.25437159870E+03  0.30426927262E+03  0.12508995288E+03 0.  0.
         23    2    1    2    0    0  0.10126283785E+03 -0.44420956701E+02 -0.12719478799E+03  0.19151789663E+03  0.90957170771E+02 0.  0.
          5    1    3    3  502    0  0.12154080371E+02 -0.33452322420E+01 -0.12485708561E+03  0.12556144502E+03  0.41800000000E+01 0.  1.
         -5    1    3    3    0  502 -0.11341691822E+03  0.47766188943E+02 -0.12951451309E+03  0.17870782760E+03  0.41800000000E+01 0.  1.
        -11    1    4    4    0    0  0.75454216918E+02 -0.40795275189E+02 -0.13865907520E+03  0.16304579867E+03  0.00000000000E+00 0. -1.
         11    1    4    4    0    0  0.25808620930E+02 -0.36256815124E+01  0.11464287215E+02  0.28472097957E+02  0.00000000000E+00 0.  1.
</event>
<event>
 8    1  0.7075056E-009  0.9143218E+02  0.7561462E-02  0.1299420E+00
          2   -1    0    0  501    0  0.00000000000E+00  0.00000000000E+00  0.29540272247E+02  0.29540272247E+02  0.00000000000E+00 0. -1.
         -2   -1    0    0    0  501 -0.00000000000E+00 -0.00000000000E+00 -0.43182638433E+03  0.43182638433E+03  0.00000000000E+00 0.  1.
         25    2    1    2    0    0  0.25511503655E+02 -0.13514751943E+02 -0.26693653249E+03  0.29620280829E+03  0.12508999129E+03 0.  0.
         23    2    1    2    0    0 -0.25511503655E+02  0.13514751943E+02 -0.13534957959E+03  0.16516384828E+03  0.90144898613E+02 0.  0.
          5    1    3    3  502    0  0.37023975479E+02  0.28732670393E+02 -0.24011918196E+03  0.24468558407E+03  0.41800000000E+01 0. -1.
         -5    1    3    3    0  502 -0.11512471824E+02 -0.42247422336E+02 -0.26817350530E+02  0.51517224216E+02  0.41800000000E+01 0. -1.
        -11    1    4    4    0    0 -0.27741689369E+02  0.48980111844E+02 -0.10162153609E+03  0.11617051813E+03  0.00000000000E+00 0.  1.
         11    1    4    4    0    0  0.22301857143E+01 -0.35465359901E+02 -0.33728043501E+02  0.48993330155E+02  0.00000000000E+00 0. -1.
</event>
<event>
 8    1  0.7075056E-009  0.1050226E+03  0.7561462E-02  0.1270075E+00
         -1   -1    0    0    0  501 -0.00000000000E+00  0.00000000000E+00  0.24345506984E+02  0.24345506984E+02  0.00000000000E+00 0.  1.
          1   -1    0    0  501    0  0.00000000000E+00 -0.00000000000E+00 -0.63706716335E+03  0.63706716335E+03  0.00000000000E+00 0. -1.
         25    2    1    2    0    0  0.20947986026E+02  0.24425671781E+02 -0.47179297246E+03  0.48915382657E+03  0.12508967032E+03 0.  0.
         23    2    1    2    0    0 -0.20947986026E+02 -0.24425671781E+02 -0.14092868390E+03  0.17225884377E+03  0.93684490436E+02 0.  0.
          5    1    3    3  502    0 -0.49851981338E+02  0.12355562297E+02 -0.27114215645E+03  0.27599532853E+03  0.41800000000E+01 0. -1.
         -5    1    3    3    0  502  0.70799967364E+02  0.12070109484E+02 -0.20065081601E+03  0.21315849804E+03  0.41800000000E+01 0. -1.
        -11    1    4    4    0    0  0.30340194742E+02 -0.14557078300E+01 -0.14000218098E+02  0.33446264501E+02  0.00000000000E+00 0.  1.
         11    1    4    4    0    0 -0.51288180769E+02 -0.22969963951E+02 -0.12692846581E+03  0.13881257927E+03  0.00000000000E+00 0. -1.
</event>
<event>
 8    1  0.7075056E-009  0.1261082E+03  0.7561462E-02  0.1233347E+00
         -2   -1    0    0    0  501 -0.00000000000E+00  0.00000000000E+00  0.29306552616E+02  0.29306552616E+02  0.00000000000E+00 0.  1.
          2   -1    0    0  501    0  0.00000000000E+00 -0.00000000000E+00 -0.60204098860E+03  0.60204098860E+03  0.00000000000E+00 0. -1.
         25    2    1    2    0    0  0.35885577856E+02  0.65357076143E+02 -0.27693159520E+03  0.31288052101E+03  0.12507513703E+03 0.  0.
         23    2    1    2    0    0 -0.35885577856E+02 -0.65357076143E+02 -0.29580284079E+03  0.31846702021E+03  0.91447253908E+02 0.  0.
          5    1    3    3  502    0  0.18711156650E+02  0.99830212629E+02 -0.23357731472E+03  0.25473910789E+03  0.41800000000E+01 0.  1.
         -5    1    3    3    0  502  0.17174421206E+02 -0.34473136486E+02 -0.43354280481E+02  0.58141413115E+02  0.41800000000E+01 0.  1.
        -11    1    4    4    0    0  0.10340561057E+02 -0.64771214866E+02 -0.12077362949E+03  0.13743546507E+03  0.00000000000E+00 0.  1.
         11    1    4    4    0    0 -0.46226138913E+02 -0.58586127697E+00 -0.17502921129E+03  0.18103155514E+03  0.00000000000E+00 0. -1.
</event>
<event>
 8    1  0.7075056E-009  0.1061211E+03  0.7561462E-02  0.1267926E+00
          1   -1    0    0  501    0  0.00000000000E+00  0.00000000000E+00  0.20546551808E+03  0.20546551808E+03  0.00000000000E+00 0. -1.
         -1   -1    0    0    0  501 -0.00000000000E+00 -0.00000000000E+00 -0.82447122643E+02  0.82447122643E+02  0.00000000000E+00 0.  1.
         25    2    1    2    0    0 -0.20733098821E+02 -0.58052627464E+02  0.10606465114E+03  0.17520570435E+03  0.12508940672E+03 0.  0.
         23    2    1    2    0    0  0.20733098821E+02  0.58052627464E+02  0.16953744295E+02  0.11270693637E+03  0.92819475962E+02 0.  0.
          5    1    3    3  502    0  0.24709328937E+01  0.25810229340E+02 -0.11676053265E+02  0.28741539065E+02  0.41800000000E+01 0. -1.
         -5    1    3    3    0  502 -0.23204031714E+02 -0.83862856804E+02  0.11774070440E+03  0.14646416528E+03  0.41800000000E+01 0. -1.
        -11    1    4    4    0    0  0.44398899543E+02  0.60532444962E+02 -0.11138343864E+02  0.75891382105E+02  0.00000000000E+00 0.  1.
         11    1    4    4    0    0 -0.23665800722E+02 -0.24798174981E+01  0.28092088159E+02  0.36815554264E+02  0.00000000000E+00 0. -1.
</event>
<event>
 8    1  0.7075056E-009  0.1085753E+03  0.7561462E-02  0.1263231E+00
          1   -1    0    0  501    0  0.00000000000E+00  0.00000000000E+00  0.14005327572E+03  0.14005327572E+03  0.00000000000E+00 0. -1.
         -1   -1    0    0    0  501 -0.00000000000E+00 -0.00000000000E+00 -0.12514090314E+03  0.12514090314E+03  0.00000000000E+00 0.  1.
         25    2    1    2    0    0 -0.14486261369E+02  0.74207283076E+02  0.23309735321E+02  0.14801555177E+03  0.12509471281E+03 0.  0.
         23    2    1    2    0    0  0.14486261369E+02 -0.74207283076E+02 -0.83973627386E+01  0.11717862710E+03  0.89127674249E+02 0.  0.
          5    1    3    3  502    0 -0.41849039499E+02  0.66928666861E+02  0.61597661891E+02  0.10021243887E+03  0.41800000000E+01 0.  1.
         -5    1    3    3    0  502  0.27362778130E+02  0.72786162148E+01 -0.38287926570E+02  0.47803112891E+02  0.41800000000E+01 0.  1.
        -11    1    4    4    0    0  0.37491872397E+02 -0.65989417173E+01 -0.22732103621E+02  0.44338866276E+02  0.00000000000E+00 0.  1.
         11    1    4    4    0    0 -0.23005611028E+02 -0.67608341359E+02  0.14334740882E+02  0.72839760819E+02  0.00000000000E+00 0. -1.
</event>
<event>
 8    1  0.7075056E-009  0.9478420E+02  0.7561462E-02  0.1291663E+00
          1   -1    0    0  501    0  0.00000000000E+00  0.00000000000E+00  0.33870018926E+02  0.33870018926E+02  0.00000000000E+00 0. -1.
         -1   -1    0    0    0  501 -0.00000000000E+00 -0.00000000000E+00 -0.56827048674E+03  0.56827048674E+03  0.00000000000E+00 0.  1.
         25    2    1    2    0    0 -0.54286584787E+02 -0.36264593006E+02 -0.41622636099E+03  0.43949281787E+03  0.12508956542E+03 0.  0.
         23    2    1    2    0    0  0.54286584787E+02  0.36264593006E+02 -0.11817410681E+03  0.16264768779E+03  0.90702793945E+02 0.  0.
          5    1    3    3  502    0 -0.32420818769E+02  0.24538050688E+02 -0.32535573057E+03  0.32791317332E+03  0.41800000000E+01 0.  1.
         -5    1    3    3    0  502 -0.21865766019E+02 -0.60802643695E+02 -0.90870630420E+02  0.11157964455E+03  0.41800000000E+01 0.  1.
        -11    1    4    4    0    0  0.56149832227E+02  0.46891864609E+02 -0.12840304313E+03  0.14778021555E+03  0.00000000000E+00 0.  1.
         11    1    4    4    0    0 -0.18632474402E+01 -0.10627271603E+02  0.10228936310E+02  0.14867472239E+02  0.00000000000E+00 0. -1.
</event>
<event>
 8    1  0.7075056E-009  0.8090007E+02  0.7561462E-02  0.1326516E+00
         -3   -1    0    0    0  501 -0.00000000000E+00  0.00000000000E+00  0.54991033659E+03  0.54991033659E+03  0.00000000000E+00 0.  1.
          3   -1    0    0  501    0  0.00000000000E+00 -0.00000000000E+00 -0.23085469295E+02  0.23085469295E+02  0.00000000000E+00 0. -1.
         25    2    1    2    0    0 -0.29353248331E+02 -0.12448373066E+02  0.29217623432E+03  0.31942376695E+03  0.12509202937E+03 0.  0.
         23    2    1    2    0    0  0.29353248331E+02  0.12448373066E+02  0.23464863297E+03  0.25357203893E+03  0.90676473201E+02 0.  0.
          5    1    3    3  502    0 -0.19817423026E+02 -0.36120799279E+02  0.29057741206E+03  0.29351345318E+03  0.41800000000E+01 0.  1.
         -5    1    3    3    0  502 -0.95358253053E+01  0.23672426212E+02  0.15988222548E+01  0.25910313770E+02  0.41800000000E+01 0.  1.
        -11    1    4    4    0    0  0.27912989130E+01  0.49146371263E+02  0.99080569433E+02  0.11063505953E+03  0.00000000000E+00 0. -1.
         11    1    4    4    0    0  0.26561949419E+02 -0.36697998197E+02  0.13556806354E+03  0.14293697940E+03  0.00000000000E+00 0.  1.
</event>
<event>
 8    1  0.7075056E-009  0.9296705E+02  0.7561462E-02  0.1295822E+00
          1   -1    0    0  501    0  0.00000000000E+00  0.00000000000E+00  0.69437417217E+02  0.69437417217E+02  0.00000000000E+00 0.  1.
         -1   -1    0    0    0  501 -0.00000000000E+00 -0.00000000000E+00 -0.17721764601E+03  0.17721764601E+03  0.00000000000E+00 0. -1.
         25    2    1    2    0    0  0.11387365212E+02  0.17256255240E+02 -0.81329732396E+02  0.15063177468E+03  0.12509178926E+03 0.  0.
         23    2    1    2    0    0 -0.11387365212E+02 -0.17256255240E+02 -0.26450496395E+02  0.96023288543E+02  0.89963285577E+02 0.  0.
          5    1    3    3  502    0  0.42272287332E+02 -0.30212802133E+02 -0.77913528907E+02  0.93743000143E+02  0.41800000000E+01 0.  1.
         -5    1    3    3    0  502 -0.30884922120E+02  0.47469057374E+02 -0.34162034888E+01  0.56888774539E+02  0.41800000000E+01 0.  1.
        -11    1    4    4    0    0  0.22802544348E+02 -0.32406252262E+02 -0.39946988374E+02  0.56266180736E+02  0.00000000000E+00 0. -1.
         11    1    4    4    0    0 -0.34189909560E+02  0.15149997022E+02  0.13496491979E+02  0.39757107808E+02  0.00000000000E+00 0.  1.
</event>
<event>
 8    1  0.7075056E-009  0.1177445E+03  0.7561462E-02  0.1246865E+00
         -1   -1    0    0    0  501 -0.00000000000E+00  0.00000000000E+00  0.13204799272E+02  0.13204799272E+02  0.00000000000E+00 0.  1.
          1   -1    0    0  501    0  0.00000000000E+00 -0.00000000000E+00 -0.13962929159E+04  0.13962929159E+04  0.00000000000E+00 0. -1.
         25    2    1    2    0    0 -0.55522919490E+02 -0.43411152115E+02 -0.94673186341E+03  0.95755791321E+03  0.12509441728E+03 0.  0.
         23    2    1    2    0    0  0.55522919490E+02  0.43411152115E+02 -0.43635625317E+03  0.45193980191E+03  0.94209777408E+02 0.  0.
          5    1    3    3  502    0 -0.79821033260E+02 -0.16791822242E+02 -0.33733014028E+03  0.34707702111E+03  0.41800000000E+01 0. -1.
         -5    1    3    3    0  502  0.24298113770E+02 -0.26619329874E+02 -0.60940172314E+03  0.61048089210E+03  0.41800000000E+01 0. -1.
        -11    1    4    4    0    0  0.68801702494E+02 -0.33871228518E+01 -0.24542300284E+03  0.25490703637E+03  0.00000000000E+00 0.  1.
         11    1    4    4    0    0 -0.13278783004E+02  0.46798274967E+02 -0.19093325032E+03  0.19703276554E+03  0.00000000000E+00 0. -1.
</event>
<event>
 8    1  0.7075056E-009  0.9935891E+02  0.7561462E-02  0.1281650E+00
          1   -1    0    0  501    0  0.00000000000E+00  0.00000000000E+00  0.42248494229E+02  0.42248494229E+02  0.00000000000E+00 0. -1.
         -1   -1    0    0    0  501 -0.00000000000E+00 -0.00000000000E+00 -0.34082402113E+03  0.34082402113E+03  0.00000000000E+00 0.  1.
         25    2    1    2    0    0 -0.31065117019E+02  0.84947913100E+01 -0.23178488740E+03  0.26534629750E+03  0.12508885080E+03 0.  0.
         23    2    1    2    0    0  0.31065117019E+02 -0.84947913100E+01 -0.66790639505E+02  0.11772621786E+03  0.91439979615E+02 0.  0.
          5    1    3    3  502    0 -0.49614828684E+02 -0.45175383381E+02 -0.88332842828E+02  0.11100725206E+03  0.41800000000E+01 0.  1.
         -5    1    3    3    0  502  0.18549711665E+02  0.53670174691E+02 -0.14345204457E+03  0.15433904544E+03  0.41800000000E+01 0.  1.
        -11    1    4    4    0    0 -0.60688982139E+01 -0.30691733270E+02  0.71191008575E+01  0.32085754061E+02  0.00000000000E+00 0. -1.
         11    1    4    4    0    0  0.37134015233E+02  0.22196941960E+02 -0.73909740362E+02  0.85640463801E+02  0.00000000000E+00 0.  1.
</event>
<event>
 8    1  0.7075056E-009  0.1283346E+03  0.7561462E-02  0.1229948E+00
          2   -1    0    0  501    0  0.00000000000E+00  0.00000000000E+00  0.78544362140E+03  0.78544362140E+03  0.00000000000E+00 0.  1.
         -2   -1    0    0    0  501 -0.00000000000E+00 -0.00000000000E+00 -0.57115994891E+02  0.57115994891E+02  0.00000000000E+00 0. -1.
         25    2    1    2    0    0  0.10032696473E+03  0.48431413394E+02  0.66527608554E+03  0.68603993669E+03  0.12508966015E+03 0.  0.
         23    2    1    2    0    0 -0.10032696473E+03 -0.48431413394E+02  0.63051540961E+02  0.15651967960E+03  0.90065596258E+02 0.  0.
          5    1    3    3  502    0  0.65244553052E+02  0.41442140333E+02  0.63288620542E+03  0.63760232443E+03  0.41800000000E+01 0. -1.
         -5    1    3    3    0  502  0.35082411680E+02  0.69892730610E+01  0.32389880121E+02  0.48437612260E+02  0.41800000000E+01 0. -1.
        -11    1    4    4    0    0 -0.10619222175E+03 -0.12597732145E+02  0.46229623141E+02  0.11650179771E+03  0.00000000000E+00 0.  1.
         11    1    4    4    0    0  0.58652570139E+01 -0.35833681249E+02  0.16821917820E+02  0.40017881889E+02  0.00000000000E+00 0. -1.
</event>
<event>
 8    1  0.7075056E-009  0.8000788E+02  0.7561462E-02  0.1329029E+00
         -1   -1    0    0    0  501 -0.00000000000E+00  0.00000000000E+00  0.15715759461E+03  0.15715759461E+03  0.00000000000E+00 0.  1.
          1   -1    0    0  501    0  0.00000000000E+00 -0.00000000000E+00 -0.91252331292E+02  0.91252331292E+02  0.00000000000E+00 0. -1.
         25    2    1    2    0    0 -0.10266422844E+01  0.35829147894E+02  0.61731877105E+02  0.14403441030E+03  0.12510117852E+03 0.  0.
         23    2    1    2    0    0  0.10266422844E+01 -0.35829147894E+02  0.41733862141E+01  0.10437551560E+03  0.97939007916E+02 0.  0.
          5    1    3    3  502    0  0.12640615937E+02 -0.27393267210E+02  0.72214367656E+02  0.78374508328E+02  0.41800000000E+01 0. -1.
         -5    1    3    3    0  502 -0.13667258221E+02  0.63222415104E+02 -0.10482490551E+02  0.65659901973E+02  0.41800000000E+01 0. -1.
        -11    1    4    4    0    0 -0.25660588680E+02 -0.98193245855E+01  0.42699507433E+02  0.50775317643E+02  0.00000000000E+00 0.  1.
         11    1    4    4    0    0  0.26687230965E+02 -0.26009823309E+02 -0.38526121219E+02  0.53600197959E+02  0.00000000000E+00 0. -1.
</event>
<event>
 8    1  0.7075056E-009  0.9353152E+02  0.7561462E-02  0.1294518E+00
         -1   -1    0    0    0  501 -0.00000000000E+00  0.00000000000E+00  0.69646739314E+02  0.69646739314E+02  0.00000000000E+00 0.  1.
          1   -1    0    0  501    0  0.00000000000E+00 -0.00000000000E+00 -0.21291948761E+03  0.21291948761E+03  0.00000000000E+00 0. -1.
         25    2    1    2    0    0 -0.30716474509E+02  0.15102731808E+02 -0.13164777724E+03  0.18479853945E+03  0.12509104131E+03 0.  0.
         23    2    1    2    0    0  0.30716474509E+02 -0.15102731808E+02 -0.11624971062E+02  0.97767687481E+02  0.90839344168E+02 0.  0.
          5    1    3    3  502    0  0.34755301476E+02 -0.31977034977E+02 -0.35439103994E+02  0.59193447598E+02  0.41800000000E+01 0.  1.
         -5    1    3    3    0  502 -0.65471775985E+02  0.47079766785E+02 -0.96208673245E+02  0.12560509185E+03  0.41800000000E+01 0.  1.
        -11    1    4    4    0    0  0.75017989906E+01  0.17406216421E+02  0.32887689562E+02  0.37958575882E+02  0.00000000000E+00 0.  1.
         11    1    4    4    0    0  0.23214675519E+02 -0.32508948230E+02 -0.44512660624E+02  0.59809111599E+02  0.00000000000E+00 0. -1.
</event>
<event>
 8    1  0.7075056E-009  0.3939652E+03  0.7561462E-02  0.1045890E+00
         -1   -1    0    0    0  501 -0.00000000000E+00  0.00000000000E+00  0.27389561979E+03  0.27389561979E+03  0.00000000000E+00 0.  1.
          1   -1    0    0  501    0  0.00000000000E+00 -0.00000000000E+00 -0.13730713448E+04  0.13730713448E+04  0.00000000000E+00 0. -1.
         25    2    1    2    0    0 -0.37881233204E+03 -0.65515103528E+02  0.72271309314E+02  0.41068475359E+03  0.12509121865E+03 0.  0.
         23    2    1    2    0    0  0.37881233204E+03  0.65515103528E+02 -0.11714470343E+04  0.12362822110E+04  0.91184095643E+02 0.  0.
          5    1    3    3  502    0  0.38819572099E+01 -0.74899173791E+01  0.17319199167E+02  0.19712826127E+02  0.41800000000E+01 0.  1.
         -5    1    3    3    0  502 -0.38269428925E+03 -0.58025186148E+02  0.54952110147E+02  0.39097192746E+03  0.41800000000E+01 0.  1.
        -11    1    4    4    0    0  0.26271733772E+03  0.10430649255E+02 -0.86226676306E+03  0.90146168452E+03  0.00000000000E+00 0. -1.
         11    1    4    4    0    0  0.11609499432E+03  0.55084454272E+02 -0.30918027127E+03  0.33482052647E+03  0.00000000000E+00 0.  1.
</event>
<event>
 8    1  0.7075056E-009  0.9218252E+02  0.7561462E-02  0.1297651E+00
         -1   -1    0    0    0  501 -0.00000000000E+00  0.00000000000E+00  0.10408986261E+02  0.10408986261E+02  0.00000000000E+00 0.  1.
          1   -1    0    0  501    0  0.00000000000E+00 -0.00000000000E+00 -0.13893560691E+04  0.13893560691E+04  0.00000000000E+00 0. -1.
         25    2    1    2    0    0 -0.81374222229E+01 -0.30711328584E+02 -0.10192996672E+04  0.10274373409E+04  0.12508506989E+03 0.  0.
         23    2    1    2    0    0  0.81374222229E+01  0.30711328584E+02 -0.35964741570E+03  0.37232771445E+03  0.90951965288E+02 0.  0.
          5    1    3    3  502    0  0.21068605006E+02  0.26238012009E+02 -0.74371166538E+03  0.74448427318E+03  0.41800000000E+01 0. -1.
         -5    1    3    3    0  502 -0.29206027229E+02 -0.56949340593E+02 -0.27558800180E+03  0.28295306777E+03  0.41800000000E+01 0. -1.
        -11    1    4    4    0    0  0.36070843983E+02 -0.95520380316E+01 -0.78204477989E+02  0.86650375612E+02  0.00000000000E+00 0.  1.
         11    1    4    4    0    0 -0.27933421760E+02  0.40263366616E+02 -0.28144293771E+03  0.28567733884E+03  0.00000000000E+00 0. -1.
</event>
<event>
 8    1  0.7075056E-009  0.7438548E+02  0.7561462E-02  0.1345785E+00
         -1   -1    0    0    0  501 -0.00000000000E+00  0.00000000000E+00  0.26291141199E+03  0.26291141199E+03  0.00000000000E+00 0.  1.
          1   -1    0    0  501    0  0.00000000000E+00 -0.00000000000E+00 -0.62455159712E+02  0.62455159712E+02  0.00000000000E+00 0. -1.
         25    2    1    2    0    0 -0.47453931709E+02  0.45781922300E+02  0.81062658743E+02  0.16299523042E+03  0.12509368670E+03 0.  0.
         23    2    1    2    0    0  0.47453931709E+02 -0.45781922300E+02  0.11939359354E+03  0.16237134129E+03  0.88100864067E+02 0.  0.
          5    1    3    3  502    0 -0.41421526334E+02  0.53952300841E+02 -0.12077900230E+02  0.69209404591E+02  0.41800000000E+01 0.  1.
         -5    1    3    3    0  502 -0.60324053757E+01 -0.81703785411E+01  0.93140558973E+02  0.93785825826E+02  0.41800000000E+01 0.  1.
        -11    1    4    4    0    0  0.21823733368E+02 -0.36217108986E+02  0.25424436586E+01  0.42360575316E+02  0.00000000000E+00 0. -1.
         11    1    4    4    0    0  0.25630198342E+02 -0.95648133142E+01  0.11685114988E+03  0.12001076597E+03  0.00000000000E+00 0.  1.
</event>
<event>
 8    1  0.7075056E-009  0.1602431E+03  0.7561462E-02  0.1188423E+00
         -4   -1    0    0    0  501 -0.00000000000E+00  0.00000000000E+00  0.12675683150E+03  0.12675683150E+03  0.00000000000E+00 0.  1.
          4   -1    0    0  501    0  0.00000000000E+00 -0.00000000000E+00 -0.21385918563E+03  0.21385918563E+03  0.00000000000E+00 0. -1.
         25    2    1    2    0    0 -0.74200023520E+02 -0.96744935943E+02 -0.65453389975E+02  0.18653844875E+03  0.12508885034E+03 0.  0.
         23    2    1    2    0    0  0.74200023520E+02  0.96744935943E+02 -0.21648964160E+02  0.15407756839E+03  0.91684204257E+02 0.  0.
          5    1    3    3  502    0 -0.10771126641E+03 -0.72381397388E+02 -0.33616780548E+02  0.13412063202E+03  0.41800000000E+01 0. -1.
         -5    1    3    3    0  502  0.33511242885E+02 -0.24363538555E+02 -0.31836609427E+02  0.52417816727E+02  0.41800000000E+01 0. -1.
        -11    1    4    4    0    0  0.82740633653E+02  0.10725579189E+03 -0.29197943436E+02  0.13857249818E+03  0.00000000000E+00 0.  1.
         11    1    4    4    0    0 -0.85406101327E+01 -0.10510855944E+02  0.75489792756E+01  0.15505070210E+02  0.00000000000E+00 0. -1.
</event>
<event>
 8    1  0.7075056E-009  0.8753898E+02  0.7561462E-02  0.1308923E+00
          2   -1    0    0  501    0  0.00000000000E+00  0.00000000000E+00  0.12461533011E+03  0.12461533011E+03  0.00000000000E+00 0. -1.
         -2   -1    0    0    0  501 -0.00000000000E+00 -0.00000000000E+00 -0.11198599397E+03  0.11198599397E+03  0.00000000000E+00 0.  1.
         25    2    1    2    0    0  0.59987704700E+01  0.19163439214E+02  0.48004923122E+02  0.13547991079E+03  0.12508841247E+03 0.  0.
         23    2    1    2    0    0 -0.59987704700E+01 -0.19163439214E+02 -0.35375586982E+02  0.10112141328E+03  0.92579076581E+02 0.  0.
          5    1    3    3  502    0 -0.43600215050E+01  0.58141580219E+02  0.68496992565E+02  0.90048673107E+02  0.41800000000E+01 0.  1.
         -5    1    3    3    0  502  0.10358791975E+02 -0.38978141006E+02 -0.20492069443E+02  0.45431237684E+02  0.41800000000E+01 0.  1.
        -11    1    4    4    0    0 -0.31240348211E+02 -0.34498598228E+02  0.94009530113E+01  0.47481475900E+02  0.00000000000E+00 0. -1.
         11    1    4    4    0    0  0.25241577741E+02  0.15335159015E+02 -0.44776539994E+02  0.53639937385E+02  0.00000000000E+00 0.  1.
</event>
<event>
 8    1  0.7075056E-009  0.9422265E+02  0.7561462E-02  0.1292937E+00
          2   -1    0    0  501    0  0.00000000000E+00  0.00000000000E+00  0.86722414293E+03  0.86722414293E+03  0.00000000000E+00 0. -1.
         -2   -1    0    0    0  501 -0.00000000000E+00 -0.00000000000E+00 -0.27180561217E+02  0.27180561217E+02  0.00000000000E+00 0.  1.
         25    2    1    2    0    0 -0.45780717225E+02 -0.25458908293E+02  0.72850434858E+03  0.74101988533E+03  0.12509138448E+03 0.  0.
         23    2    1    2    0    0  0.45780717225E+02  0.25458908293E+02  0.11153923313E+03  0.15338481882E+03  0.91333849337E+02 0.  0.
          5    1    3    3  502    0 -0.34713240048E+01 -0.49692855094E+02  0.61974533142E+03  0.62175813478E+03  0.41800000000E+01 0. -1.
         -5    1    3    3    0  502 -0.42309393220E+02  0.24233946801E+02  0.10875901715E+03  0.11926175055E+03  0.41800000000E+01 0. -1.
        -11    1    4    4    0    0 -0.13687588297E+02  0.26737208032E+02  0.81271638905E+02  0.86644720884E+02  0.00000000000E+00 0.  1.
         11    1    4    4    0    0  0.59468305522E+02 -0.12782997387E+01  0.30267594229E+02  0.66740097935E+02  0.00000000000E+00 0. -1.
</event>
<event>
 8    1  0.7075056E-009  0.1228457E+03  0.7561462E-02  0.1238475E+00
         -1   -1    0    0    0  501 -0.00000000000E+00  0.00000000000E+00  0.11076463107E+03  0.11076463107E+03  0.00000000000E+00 0.  1.
          1   -1    0    0  501    0  0.00000000000E+00 -0.00000000000E+00 -0.14268624082E+03  0.14268624082E+03  0.00000000000E+00 0. -1.
         25    2    1    2    0    0 -0.46825222422E+02  0.38636824032E+02 -0.41583087469E+02  0.14513138305E+03  0.12509420273E+03 0.  0.
         23    2    1    2    0    0  0.46825222422E+02 -0.38636824032E+02  0.96614777175E+01  0.10831948883E+03  0.89187229369E+02 0.  0.
          5    1    3    3  502    0 -0.83190718048E+02  0.53223199453E+02 -0.22625407161E+02  0.10140407279E+03  0.41800000000E+01 0.  1.
         -5    1    3    3    0  502  0.36365495626E+02 -0.14586375421E+02 -0.18957680308E+02  0.43727310262E+02  0.41800000000E+01 0.  1.
        -11    1    4    4    0    0  0.66684591193E+02 -0.31322130238E+01  0.10779406389E+02  0.67622785088E+02  0.00000000000E+00 0.  1.
         11    1    4    4    0    0 -0.19859368771E+02 -0.35504611009E+02 -0.11179286719E+01  0.40696703741E+02  0.00000000000E+00 0. -1.
</event>
<event>
 8    1  0.7075056E-009  0.8268243E+02  0.7561462E-02  0.1321607E+00
         -1   -1    0    0    0  501 -0.00000000000E+00  0.00000000000E+00  0.41342750139E+02  0.41342750139E+02  0.00000000000E+00 0.  1.
          1   -1    0    0  501    0  0.00000000000E+00 -0.00000000000E+00 -0.34541183817E+03  0.34541183817E+03  0.00000000000E+00 0. -1.
         25    2    1    2    0    0 -0.17063107884E+02 -0.53675662173E+01 -0.25671504964E+03  0.28612838181E+03  0.12508746438E+03 0.  0.
         23    2    1    2    0    0  0.17063107884E+02  0.53675662173E+01 -0.47354038394E+02  0.10062620651E+03  0.86967051612E+02 0.  0.
          5    1    3    3  502    0 -0.66645628373E+02 -0.23646706779E+02 -0.11801773045E+03  0.13764615368E+03  0.41800000000E+01 0. -1.
         -5    1    3    3    0  502  0.49582520489E+02  0.18279140562E+02 -0.13869731920E+03  0.14848222813E+03  0.41800000000E+01 0. -1.
        -11    1    4    4    0    0 -0.10189832542E+01 -0.14566454377E+02 -0.66186582413E+02  0.67778194219E+02  0.00000000000E+00 0. -1.
         11    1    4    4    0    0  0.18082091139E+02  0.19934020595E+02  0.18832544020E+02  0.32848012288E+02  0.00000000000E+00 0.  1.
</event>
<event>
 8    1  0.7075056E-009  0.1589388E+03  0.7561462E-02  0.1189900E+00
          1   -1    0    0  501    0  0.00000000000E+00  0.00000000000E+00  0.82881811464E+03  0.82881811464E+03  0.00000000000E+00 0. -1.
         -1   -1    0    0    0  501 -0.00000000000E+00 -0.00000000000E+00 -0.33800652423E+02  0.33800652423E+02  0.00000000000E+00 0.  1.
         25    2    1    2    0    0  0.30875829220E+02  0.11366351786E+03  0.54742895409E+03  0.57375824051E+03  0.12508935468E+03 0.  0.
         23    2    1    2    0    0 -0.30875829220E+02 -0.11366351786E+03  0.24758850812E+03  0.28886052654E+03  0.90926466550E+02 0.  0.
          5    1    3    3  502    0 -0.48497376075E+02  0.34940247029E+02  0.19561455476E+03  0.20458578343E+03  0.41800000000E+01 0.  1.
         -5    1    3    3    0  502  0.79373205295E+02  0.78723270836E+02  0.35181439934E+03  0.36917245708E+03  0.41800000000E+01 0.  1.
        -11    1    4    4    0    0 -0.57345766758E+02 -0.46275821043E+02  0.15227425706E+03  0.16916689375E+03  0.00000000000E+00 0.  1.
         11    1    4    4    0    0  0.26469937538E+02 -0.67387696822E+02  0.95314251060E+02  0.11969363279E+03  0.00000000000E+00 0. -1.
</event>
<event>
 8    1  0.7075056E-009  0.1011166E+03  0.7561462E-02  0.1277965E+00
         -2   -1    0    0    0  501 -0.00000000000E+00  0.00000000000E+00  0.10426662271E+03  0.10426662271E+03  0.00000000000E+00 0.  1.
          2   -1    0    0  501    0  0.00000000000E+00 -0.00000000000E+00 -0.17436379541E+03  0.17436379541E+03  0.00000000000E+00 0. -1.
         25    2    1    2    0    0 -0.15659575892E+02 -0.28446179589E+02 -0.11448190323E+03  0.17265010504E+03  0.12509014810E+03 0.  0.
         23    2    1    2    0    0  0.15659575892E+02  0.28446179589E+02  0.44384730528E+02  0.10598031308E+03  0.90594784654E+02 0.  0.
          5    1    3    3  502    0  0.41842224090E+02 -0.47501106696E+02 -0.82347362267E+02  0.10395040801E+03  0.41800000000E+01 0. -1.
         -5    1    3    3    0  502 -0.57501799982E+02  0.19054927107E+02 -0.32134540967E+02  0.68699697025E+02  0.41800000000E+01 0. -1.
        -11    1    4    4    0    0 -0.22147142082E+02 -0.98677553789E+01  0.46142670287E+02  0.52124989399E+02  0.00000000000E+00 0.  1.
         11    1    4    4    0    0  0.37806717975E+02  0.38313934968E+02 -0.17579397594E+01  0.53855323683E+02  0.00000000000E+00 0. -1.
</event>
<event>
 8    1  0.7075056E-009  0.7645903E+02  0.7561462E-02  0.1339412E+00
         -2   -1    0    0    0  501 -0.00000000000E+00  0.00000000000E+00  0.10746236875E+03  0.10746236875E+03  0.00000000000E+00 0.  1.
          2   -1    0    0  501    0  0.00000000000E+00 -0.00000000000E+00 -0.12017460862E+03  0.12017460862E+03  0.00000000000E+00 0. -1.
         25    2    1    2    0    0  0.14573188194E+02 -0.65019492912E+01 -0.37153465612E+02  0.13147447561E+03  0.12510197668E+03 0.  0.
         23    2    1    2    0    0 -0.14573188194E+02  0.65019492912E+01  0.24441225736E+02  0.96162501763E+02  0.91625324398E+02 0.  0.
          5    1    3    3  502    0 -0.29925388083E+02 -0.50793836969E+02 -0.34630815862E+02  0.68500427249E+02  0.41800000000E+01 0.  1.
         -5    1    3    3    0  502  0.44498576277E+02  0.44291887678E+02 -0.25226497497E+01  0.62974048357E+02  0.41800000000E+01 0.  1.
        -11    1    4    4    0    0 -0.58522953780E+01 -0.10365946920E+02 -0.33308103249E+02  0.35371343752E+02  0.00000000000E+00 0. -1.
         11    1    4    4    0    0 -0.87208928159E+01  0.16867896211E+02  0.57749328985E+02  0.60791158011E+02  0.00000000000E+00 0.  1.
</event>
<event>
 8    1  0.7075056E-009  0.1084748E+03  0.7561462E-02  0.1263421E+00
          2   -1    0    0  501    0  0.00000000000E+00  0.00000000000E+00  0.96891450301E+02  0.96891450301E+02  0.00000000000E+00 0. -1.
         -2   -1    0    0    0  501 -0.00000000000E+00 -0.00000000000E+00 -0.14399028121E+03  0.14399028121E+03  0.00000000000E+00 0.  1.
         25    2    1    2    0    0 -0.32960471118E+02 -0.28191010262E+02 -0.43738933789E+02  0.13943470319E+03  0.12509123234E+03 0.  0.
         23    2    1    2    0    0  0.32960471118E+02  0.28191010262E+02 -0.33598971167E+01  0.10144702832E+03  0.91646521646E+02 0.  0.
          5    1    3    3  502    0 -0.63510767894E+02  0.12242776168E+02 -0.57620588004E+02  0.86724320515E+02  0.41800000000E+01 0.  1.
         -5    1    3    3    0  502  0.30550296776E+02 -0.40433786430E+02  0.13881654215E+02  0.52710382676E+02  0.41800000000E+01 0.  1.
        -11    1    4    4    0    0 -0.31477969264E+02  0.14293005265E+01 -0.31972048588E+01  0.31672189187E+02  0.00000000000E+00 0.  1.
         11    1    4    4    0    0  0.64438440382E+02  0.26761709735E+02 -0.16269225790E+00  0.69774839130E+02  0.00000000000E+00 0. -1.
</event>
<event>
 8    1  0.7075056E-009  0.6987304E+02  0.7561462E-02  0.1360525E+00
          1   -1    0    0  501    0  0.00000000000E+00  0.00000000000E+00  0.14343335573E+03  0.14343335573E+03  0.00000000000E+00 0. -1.
         -1   -1    0    0    0  501 -0.00000000000E+00 -0.00000000000E+00 -0.10644770394E+03  0.10644770394E+03  0.00000000000E+00 0.  1.
         25    2    1    2    0    0  0.38921503046E+02 -0.17264585823E+02 -0.28219994912E+02  0.13511827968E+03  0.12509049552E+03 0.  0.
         23    2    1    2    0    0 -0.38921503046E+02  0.17264585823E+02  0.65205646709E+02  0.11476277999E+03  0.84295729341E+02 0.  0.
          5    1    3    3  502    0  0.56029003075E+02 -0.20946166078E+02  0.34971693895E+02  0.69415292499E+02  0.41800000000E+01 0. -1.
         -5    1    3    3    0  502 -0.17107500029E+02  0.36815802547E+01 -0.63191688807E+02  0.65702987182E+02  0.41800000000E+01 0. -1.
        -11    1    4    4    0    0 -0.15311630731E+02  0.30930341670E+02 -0.90291466509E+01  0.35674326352E+02  0.00000000000E+00 0.  1.
         11    1    4    4    0    0 -0.23609872315E+02 -0.13665755846E+02  0.74234793360E+02  0.79088453637E+02  0.00000000000E+00 0. -1.
</event>
<event>
 8    1  0.7075056E-009  0.1201061E+03  0.7561462E-02  0.1242922E+00
         -1   -1    0    0    0  501 -0.00000000000E+00  0.00000000000E+00  0.83832707155E+02  0.83832707155E+02  0.00000000000E+00 0.  1.
          1   -1    0    0  501    0  0.00000000000E+00 -0.00000000000E+00 -0.18699716311E+03  0.18699716311E+03  0.00000000000E+00 0. -1.
         25    2    1    2    0    0 -0.54117242260E+02  0.73293360511E+01 -0.22433815857E+02  0.13831902527E+03  0.12508589681E+03 0.  0.
         23    2    1    2    0    0  0.54117242260E+02 -0.73293360511E+01 -0.80730640102E+02  0.13251084500E+03  0.89773563562E+02 0.  0.
          5    1    3    3  502    0 -0.44822620673E+02  0.64331580539E+02 -0.10826065733E+02  0.79260934122E+02  0.41800000000E+01 0. -1.
         -5    1    3    3    0  502 -0.92946215868E+01 -0.57002244488E+02 -0.11607750124E+02  0.59058091148E+02  0.41800000000E+01 0. -1.
        -11    1    4    4    0    0  0.78324332217E+02 -0.11688317930E+02 -0.52231929845E+02  0.94865653893E+02  0.00000000000E+00 0.  1.
         11    1    4    4    0    0 -0.24207089956E+02  0.43589818785E+01 -0.28498710257E+02  0.37645191107E+02  0.00000000000E+00 0. -1.
</event>
<event>
 8    1  0.7075056E-009  0.1067144E+03  0.7561462E-02  0.1266778E+00
          1   -1    0    0  501    0  0.00000000000E+00  0.00000000000E+00  0.55380444059E+03  0.55380444059E+03  0.00000000000E+00 0. -1.
         -1   -1    0    0    0  501 -0.00000000000E+00 -0.00000000000E+00 -0.34636493786E+02  0.34636493786E+02  0.00000000000E+00 0.  1.
         25    2    1    2    0    0  0.14715558545E+02  0.11061880534E+02  0.46545630159E+03  0.48232382596E+03  0.12509113293E+03 0.  0.
         23    2    1    2    0    0 -0.14715558545E+02 -0.11061880534E+02  0.53711645215E+02  0.10611710841E+03  0.89649244292E+02 0.  0.
          5    1    3    3  502    0  0.45667376178E+02 -0.43533812771E+02  0.25019677602E+03  0.25806317295E+03  0.41800000000E+01 0.  1.
         -5    1    3    3    0  502 -0.30951817633E+02  0.54595693305E+02  0.21525952557E+03  0.22426065301E+03  0.41800000000E+01 0.  1.
        -11    1    4    4    0    0 -0.40306789609E+02 -0.34152989813E+02  0.16392529107E+02  0.55315269251E+02  0.00000000000E+00 0.  1.
         11    1    4    4    0    0  0.25591231065E+02  0.23091109280E+02  0.37319116108E+02  0.50801839162E+02  0.00000000000E+00 0. -1.
</event>
<event>
 8    1  0.7075056E-009  0.1964795E+03  0.7561462E-02  0.1152744E+00
         -1   -1    0    0    0  501 -0.00000000000E+00  0.00000000000E+00  0.72298125059E+02  0.72298125059E+02  0.00000000000E+00 0.  1.
          1   -1    0    0  501    0  0.00000000000E+00 -0.00000000000E+00 -0.65656948124E+03  0.65656948124E+03  0.00000000000E+00 0. -1.
         25    2    1    2    0    0 -0.82921988952E+02 -0.16868747486E+03 -0.30653223603E+03  0.38071034463E+03  0.12508730693E+03 0.  0.
         23    2    1    2    0    0  0.82921988952E+02  0.16868747486E+03 -0.27773912015E+03  0.34815726167E+03  0.93503687444E+02 0.  0.
          5    1    3    3  502    0 -0.32987572316E+02 -0.74929226101E+02 -0.24393577953E+03  0.25734161301E+03  0.41800000000E+01 0.  1.
         -5    1    3    3    0  502 -0.49934416636E+02 -0.93758248758E+02 -0.62596456499E+02  0.12336873162E+03  0.41800000000E+01 0.  1.
        -11    1    4    4    0    0 -0.13173152163E+02  0.51331388890E+02 -0.10942231648E+03  0.12157996039E+03  0.00000000000E+00 0.  1.
         11    1    4    4    0    0  0.96095141115E+02  0.11735608597E+03 -0.16831680367E+03  0.22657730129E+03  0.00000000000E+00 0. -1.
</event>
<event>
 8    1  0.7075056E-009  0.7637721E+02  0.7561462E-02  0.1339659E+00
          2   -1    0    0  501    0  0.00000000000E+00  0.00000000000E+00  0.20026478065E+03  0.20026478065E+03  0.00000000000E+00 0. -1.
         -2   -1    0    0    0  501 -0.00000000000E+00 -0.00000000000E+00 -0.86976566731E+02  0.86976566731E+02  0.00000000000E+00 0.  1.
         25    2    1    2    0    0  0.62182634750E+02 -0.31186856093E+00  0.23951194658E+02  0.14174002932E+03  0.12509915612E+03 0.  0.
         23    2    1    2    0    0 -0.62182634750E+02  0.31186856093E+00  0.89337019263E+02  0.14550131806E+03  0.96554405491E+02 0.  0.
          5    1    3    3  502    0  0.40226221156E+02  0.18891774352E+02  0.72387682269E+02  0.85044088277E+02  0.41800000000E+01 0. -1.
         -5    1    3    3    0  502  0.21956413594E+02 -0.19203642913E+02 -0.48436487611E+02  0.56695941046E+02  0.41800000000E+01 0. -1.
        -11    1    4    4    0    0 -0.55073497017E+02  0.19313046391E+02  0.47940393822E+01  0.58558232966E+02  0.00000000000E+00 0.  1.
         11    1    4    4    0    0 -0.71091377333E+01 -0.19001177831E+02  0.84542979881E+02  0.86943085093E+02  0.00000000000E+00 0. -1.
</event>
<event>
 8    1  0.7075056E-009  0.9957743E+02  0.7561462E-02  0.1281187E+00
         -1   -1    0    0    0  501 -0.00000000000E+00  0.00000000000E+00  0.74818730208E+02  0.74818730208E+02  0.00000000000E+00 0. -1.
          1   -1    0    0  501    0  0.00000000000E+00 -0.00000000000E+00 -0.15993979892E+03  0.15993979892E+03  0.00000000000E+00 0.  1.
         25    2    1    2    0    0  0.19287595445E+02 -0.31519606964E+01 -0.46801344930E+02  0.13498259894E+03  0.12509192593E+03 0.  0.
         23    2    1    2    0    0 -0.19287595445E+02  0.31519606964E+01 -0.38319723780E+02  0.99775930190E+02  0.90027156017E+02 0.  0.
          5    1    3    3  502    0  0.34746125250E+01 -0.63653560036E+02 -0.25533819168E+02  0.68798960448E+02  0.41800000000E+01 0. -1.
         -5    1    3    3    0  502  0.15812982920E+02  0.60501599339E+02 -0.21267525763E+02  0.66183638488E+02  0.41800000000E+01 0. -1.
        -11    1    4    4    0    0  0.25294073368E+02 -0.82033247343E+01  0.14045329684E+02  0.30072511870E+02  0.00000000000E+00 0. -1.
         11    1    4    4    0    0 -0.44581668813E+02  0.11355285431E+02 -0.52365053463E+02  0.69703418320E+02  0.00000000000E+00 0.  1.
</event>
<event>
 8    1  0.7075056E-009  0.9789767E+02  0.7561462E-02  0.1284780E+00
          2   -1    0    0  501    0  0.00000000000E+00  0.00000000000E+00  0.26738832276E+03  0.26738832276E+03  0.00000000000E+00 0. -1.
         -2   -1    0    0    0  501 -0.00000000000E+00 -0.00000000000E+00 -0.51415954091E+02  0.51415954091E+02  0.00000000000E+00 0.  1.
         25    2    1    2    0    0  0.34727598979E+02  0.18148371624E+02  0.87358443588E+02  0.15752425626E+03  0.12508806547E+03 0.  0.
         23    2    1    2    0    0 -0.34727598979E+02 -0.18148371624E+02  0.12861392509E+03  0.16128002059E+03  0.89074877448E+02 0.  0.
          5    1    3    3  502    0 -0.34722512156E+02 -0.30186052148E+02  0.27076281427E+02  0.53548557503E+02  0.41800000000E+01 0. -1.
         -5    1    3    3    0  502  0.69450111135E+02  0.48334423772E+02  0.60282162161E+02  0.10397569876E+03  0.41800000000E+01 0. -1.
        -11    1    4    4    0    0 -0.24035949404E+02 -0.36463004159E+02  0.15726154691E+02  0.46417555703E+02  0.00000000000E+00 0.  1.
         11    1    4    4    0    0 -0.10691649575E+02  0.18314632536E+02  0.11288777039E+03  0.11486246489E+03  0.00000000000E+00 0. -1.
</event>
<event>
 8    1  0.7075056E-009  0.9627577E+02  0.7561462E-02  0.1288328E+00
          2   -1    0    0  501    0  0.00000000000E+00  0.00000000000E+00  0.86834115649E+02  0.86834115649E+02  0.00000000000E+00 0. -1.
         -2   -1    0    0    0  501 -0.00000000000E+00 -0.00000000000E+00 -0.18516154590E+03  0.18516154590E+03  0.00000000000E+00 0.  1.
         25    2    1    2    0    0  0.30675650078E+02  0.24452875895E+02 -0.10471874310E+03  0.16778692458E+03  0.12508996065E+03 0.  0.
         23    2    1    2    0    0 -0.30675650078E+02 -0.24452875895E+02  0.63913128484E+01  0.10420873697E+03  0.96331061108E+02 0.  0.
          5    1    3    3  502    0  0.62696621592E+02 -0.22630963410E+02 -0.28642761193E+02  0.72669849543E+02  0.41800000000E+01 0. -1.
         -5    1    3    3    0  502 -0.32020971514E+02  0.47083839305E+02 -0.76075981910E+02  0.95117075039E+02  0.41800000000E+01 0. -1.
        -11    1    4    4    0    0 -0.16121014183E+02  0.17779961815E+02 -0.35577409535E+02  0.42915803729E+02  0.00000000000E+00 0.  1.
         11    1    4    4    0    0 -0.14554635895E+02 -0.42232837710E+02  0.41968722383E+02  0.61292933243E+02  0.00000000000E+00 0. -1.
</event>
<event>
 8    1  0.7075056E-009  0.1048523E+03  0.7561462E-02  0.1270411E+00
          1   -1    0    0  501    0  0.00000000000E+00  0.00000000000E+00  0.76942812118E+02  0.76942812118E+02  0.00000000000E+00 0. -1.
         -1   -1    0    0    0  501 -0.00000000000E+00 -0.00000000000E+00 -0.27445427734E+03  0.27445427734E+03  0.00000000000E+00 0.  1.
         25    2    1    2    0    0 -0.91280845479E+02  0.17901243574E+00 -0.14522859454E+03  0.21230042519E+03  0.12509157073E+03 0.  0.
         23    2    1    2    0    0  0.91280845479E+02 -0.17901243574E+00 -0.52282870679E+02  0.13909666427E+03  0.91006365970E+02 0.  0.
          5    1    3    3  502    0 -0.20134017093E+01  0.14145857201E+01 -0.11908166281E+03  0.11918040802E+03  0.41800000000E+01 0.  1.
         -5    1    3    3    0  502 -0.89267443770E+02 -0.12355732844E+01 -0.26146931736E+02  0.93120017170E+02  0.41800000000E+01 0.  1.
        -11    1    4    4    0    0  0.77030075089E+02 -0.29812747564E+02 -0.66698668021E+01  0.82866878237E+02  0.00000000000E+00 0. -1.
         11    1    4    4    0    0  0.14250770391E+02  0.29633735128E+02 -0.45613003877E+02  0.56229786031E+02  0.00000000000E+00 0.  1.
</event>
<event>
 8    1  0.7075056E-009  0.2455062E+03  0.7561462E-02  0.1116178E+00
          2   -1    0    0  501    0  0.00000000000E+00  0.00000000000E+00  0.18347564665E+04  0.18347564665E+04  0.00000000000E+00 0. -1.
         -2   -1    0    0    0  501 -0.00000000000E+00 -0.00000000000E+00 -0.39220430060E+02  0.39220430060E+02  0.00000000000E+00 0.  1.
         25    2    1    2    0    0  0.16625486213E+03  0.16427123882E+03  0.11777427660E+04  0.12072079003E+04  0.12508865939E+03 0.  0.
         23    2    1    2    0    0 -0.16625486213E+03 -0.16427123882E+03  0.61779327043E+03  0.66676899621E+03  0.91031039912E+02 0.  0.
          5    1    3    3  502    0  0.37077262489E+02 -0.11562699942E+02  0.95450469338E+02  0.10313430041E+03  0.41800000000E+01 0.  1.
         -5    1    3    3    0  502  0.12917759964E+03  0.17583393876E+03  0.10822922966E+04  0.11040735999E+04  0.41800000000E+01 0.  1.
        -11    1    4    4    0    0 -0.12704495523E+03 -0.12473306699E+03  0.55492199898E+03  0.58278399395E+03  0.00000000000E+00 0. -1.
         11    1    4    4    0    0 -0.39209906900E+02 -0.39538171824E+02  0.62871271452E+02  0.83985002258E+02  0.00000000000E+00 0.  1.
</event>
<event>
 8    1  0.7075056E-009  0.1163201E+03  0.7561462E-02  0.1249294E+00
          1   -1    0    0  501    0  0.00000000000E+00  0.00000000000E+00  0.14416331216E+04  0.14416331216E+04  0.00000000000E+00 0. -1.
         -1   -1    0    0    0  501 -0.00000000000E+00 -0.00000000000E+00 -0.12484287027E+02  0.12484287027E+02  0.00000000000E+00 0.  1.
         25    2    1    2    0    0  0.58456707303E+02  0.41271184402E+02  0.96725456930E+03  0.97793062886E+03  0.12508563363E+03 0.  0.
         23    2    1    2    0    0 -0.58456707303E+02 -0.41271184402E+02  0.46189426529E+03  0.47618677978E+03  0.91033178800E+02 0.  0.
          5    1    3    3  502    0  0.47322217001E+02 -0.29134304526E+02  0.20834523531E+03  0.21566967658E+03  0.41800000000E+01 0. -1.
         -5    1    3    3    0  502  0.11134490302E+02  0.70405488928E+02  0.75890933399E+03  0.76226095227E+03  0.41800000000E+01 0. -1.
        -11    1    4    4    0    0 -0.14130107898E+02 -0.56807323817E+02  0.34956586831E+03  0.35443339047E+03  0.00000000000E+00 0. -1.
         11    1    4    4    0    0 -0.44326599405E+02  0.15536139415E+02  0.11232839697E+03  0.12175338932E+03  0.00000000000E+00 0.  1.
</event>
<event>
 8    1  0.7075056E-009  0.1597517E+03  0.7561462E-02  0.1188977E+00
          1   -1    0    0  501    0  0.00000000000E+00  0.00000000000E+00  0.22116844777E+03  0.22116844777E+03  0.00000000000E+00 0. -1.
         -1   -1    0    0    0  501 -0.00000000000E+00 -0.00000000000E+00 -0.20635774784E+03  0.20635774784E+03  0.00000000000E+00 0.  1.
         25    2    1    2    0    0  0.13894448439E+03  0.68299138957E+02  0.10648474660E+03  0.22573325192E+03  0.12508460192E+03 0.  0.
         23    2    1    2    0    0 -0.13894448439E+03 -0.68299138957E+02 -0.91674046674E+02  0.20179294369E+03  0.91356002330E+02 0.  0.
          5    1    3    3  502    0  0.43932421214E+02  0.14532022615E+02  0.10681484118E+03  0.11648227338E+03  0.41800000000E+01 0. -1.
         -5    1    3    3    0  502  0.95012063180E+02  0.53767116343E+02 -0.33009457958E+00  0.10925097854E+03  0.41800000000E+01 0. -1.
        -11    1    4    4    0    0 -0.83364465322E+02 -0.11210050665E+02 -0.88437234165E+02  0.12205098812E+03  0.00000000000E+00 0.  1.
         11    1    4    4    0    0 -0.55580019072E+02 -0.57089088293E+02 -0.32368125090E+01  0.79741955565E+02  0.00000000000E+00 0. -1.
</event>
<event>
 8    1  0.7075056E-009  0.8170987E+02  0.7561462E-02  0.1324268E+00
         -1   -1    0    0    0  501 -0.00000000000E+00  0.00000000000E+00  0.26429970623E+03  0.26429970623E+03  0.00000000000E+00 0.  1.
          1   -1    0    0  501    0  0.00000000000E+00 -0.00000000000E+00 -0.47886696034E+02  0.47886696034E+02  0.00000000000E+00 0. -1.
         25    2    1    2    0    0  0.59493153340E+01 -0.17855162235E+02  0.96726412100E+02  0.15924107933E+03  0.12509005307E+03 0.  0.
         23    2    1    2    0    0 -0.59493153340E+01  0.17855162235E+02  0.11968659809E+03  0.15294532293E+03  0.93344463533E+02 0.  0.
          5    1    3    3  502    0  0.43291806293E+02 -0.33286121516E+02  0.10440738615E+03  0.11790047099E+03  0.41800000000E+01 0. -1.
         -5    1    3    3    0  502 -0.37342490959E+02  0.15430959280E+02 -0.76809740490E+01  0.41340608337E+02  0.41800000000E+01 0. -1.
        -11    1    4    4    0    0  0.47377712118E+01  0.41664133860E+02  0.14189770287E+02  0.44268454989E+02  0.00000000000E+00 0. -1.
         11    1    4    4    0    0 -0.10687086546E+02 -0.23808971625E+02  0.10549682781E+03  0.10867686794E+03  0.00000000000E+00 0.  1.
</event>
<event>
 8    1  0.7075056E-009  0.7507906E+02  0.7561462E-02  0.1343626E+00
         -1   -1    0    0    0  501 -0.00000000000E+00  0.00000000000E+00  0.35696898156E+02  0.35696898156E+02  0.00000000000E+00 0.  1.
          1   -1    0    0  501    0  0.00000000000E+00 -0.00000000000E+00 -0.38830302945E+03  0.38830302945E+03  0.00000000000E+00 0. -1.
         25    2    1    2    0    0  0.43414887392E+02 -0.55357375370E+01 -0.22011052477E+03  0.25692111746E+03  0.12507725869E+03 0.  0.
         23    2    1    2    0    0 -0.43414887392E+02  0.55357375370E+01 -0.13249560652E+03  0.16707881015E+03  0.91895300296E+02 0.  0.
          5    1    3    3  502    0  0.96305346812E+01  0.64922842059E+01  0.14788772878E+02  0.19263363042E+02  0.41800000000E+01 0.  1.
         -5    1    3    3    0  502  0.33784352711E+02 -0.12028021743E+02 -0.23489929765E+03  0.23765775441E+03  0.41800000000E+01 0.  1.
        -11    1    4    4    0    0 -0.69891629024E+02  0.18400489925E+02 -0.91192175998E+02  0.11635905981E+03  0.00000000000E+00 0.  1.
         11    1    4    4    0    0  0.26476741632E+02 -0.12864752388E+02 -0.41303430517E+02  0.50719750334E+02  0.00000000000E+00 0. -1.
</event>
<event>
 8    1  0.7075056E-009  0.1344469E+03  0.7561462E-02  0.1221003E+00
          1   -1    0    0  501    0  0.00000000000E+00  0.00000000000E+00  0.40182562272E+03  0.40182562272E+03  0.00000000000E+00 0. -1.
         -1   -1    0    0    0  501 -0.00000000000E+00 -0.00000000000E+00 -0.56050199192E+02  0.56050199192E+02  0.00000000000E+00 0.  1.
         25    2    1    2    0    0  0.14156566647E+02 -0.93744410384E+02  0.25285905440E+03  0.29761313656E+03  0.12508978697E+03 0.  0.
         23    2    1    2    0    0 -0.14156566647E+02  0.93744410384E+02  0.92916369131E+02  0.16026268535E+03  0.89790054053E+02 0.  0.
          5    1    3    3  502    0 -0.53691248490E+02 -0.24301272451E+02  0.82268153338E+02  0.10128585025E+03  0.41800000000E+01 0. -1.
         -5    1    3    3    0  502  0.67847815137E+02 -0.69443137933E+02  0.17059090106E+03  0.19632728631E+03  0.41800000000E+01 0. -1.
        -11    1    4    4    0    0  0.20059588997E+02  0.10518174692E+02 -0.89402427968E+01  0.24350504119E+02  0.00000000000E+00 0.  1.
         11    1    4    4    0    0 -0.34216155645E+02  0.83226235692E+02  0.10185661193E+03  0.13591218123E+03  0.00000000000E+00 0. -1.
</event>
<event>
 8    1  0.7075056E-009  0.1377930E+03  0.7561462E-02  0.1216330E+00
          2   -1    0    0  501    0  0.00000000000E+00  0.00000000000E+00  0.53591227530E+03  0.53591227530E+03  0.00000000000E+00 0. -1.
         -2   -1    0    0    0  501 -0.00000000000E+00 -0.00000000000E+00 -0.63686012236E+02  0.63686012236E+02  0.00000000000E+00 0.  1.
         25    2    1    2    0    0  0.12689457123E+03  0.19930521475E+02  0.12116476045E+03  0.21639503857E+03  0.12508579316E+03 0.  0.
         23    2    1    2    0    0 -0.12689457123E+03 -0.19930521475E+02  0.35106150261E+03  0.38320324896E+03  0.84267986245E+02 0.  0.
          5    1    3    3  502    0  0.92429077099E+02  0.60121583599E+01  0.14495099492E+03  0.17206842729E+03  0.41800000000E+01 0.  1.
         -5    1    3    3    0  502  0.34465494130E+02  0.13918363115E+02 -0.23786234470E+02  0.44326611281E+02  0.41800000000E+01 0.  1.
        -11    1    4    4    0    0 -0.97590729351E+02  0.16217982335E+02  0.17429134558E+03  0.20041069470E+03  0.00000000000E+00 0.  1.
         11    1    4    4    0    0 -0.29303841878E+02 -0.36148503810E+02  0.17677015703E+03  0.18279255426E+03  0.00000000000E+00 0. -1.
</event>
<event>
 8    1  0.7075056E-009  0.1546081E+03  0.7561462E-02  0.1194922E+00
         -1   -1    0    0    0  501 -0.00000000000E+00  0.00000000000E+00  0.56407661109E+02  0.56407661109E+02  0.00000000000E+00 0.  1.
          1   -1    0    0  501    0  0.00000000000E+00 -0.00000000000E+00 -0.54022484250E+03  0.54022484250E+03  0.00000000000E+00 0. -1.
         25    2    1    2    0    0 -0.13372172980E+03  0.16683092109E+02 -0.29443463960E+03  0.34712920933E+03  0.12508838632E+03 0.  0.
         23    2    1    2    0    0  0.13372172980E+03 -0.16683092109E+02 -0.18938254179E+03  0.24950329428E+03  0.90699063597E+02 0.  0.
          5    1    3    3  502    0 -0.76676449762E+00 -0.11523604398E+02  0.85937485956E+01  0.14990206838E+02  0.41800000000E+01 0.  1.
         -5    1    3    3    0  502 -0.13295496530E+03  0.28206696507E+02 -0.30302838820E+03  0.33213900250E+03  0.41800000000E+01 0.  1.
        -11    1    4    4    0    0  0.60571817214E+02  0.36315518411E+02 -0.66615475811E+02  0.97084414483E+02  0.00000000000E+00 0.  1.
         11    1    4    4    0    0  0.73149912583E+02 -0.52998610520E+02 -0.12276706598E+03  0.15241887979E+03  0.00000000000E+00 0. -1.
</event>
<event>
 8    1  0.7075056E-009  0.1104503E+03  0.7561462E-02  0.1259738E+00
         -1   -1    0    0    0  501 -0.00000000000E+00  0.00000000000E+00  0.34235296409E+02  0.34235296409E+02  0.00000000000E+00 0.  1.
          1   -1    0    0  501    0  0.00000000000E+00 -0.00000000000E+00 -0.48053141431E+03  0.48053141431E+03  0.00000000000E+00 0. -1.
         25    2    1    2    0    0 -0.28697920865E+01 -0.39049060424E+02 -0.13660321495E+03  0.18931850883E+03  0.12509194469E+03 0.  0.
         23    2    1    2    0    0  0.28697920865E+01  0.39049060424E+02 -0.30969290296E+03  0.32544820189E+03  0.92053099588E+02 0.  0.
          5    1    3    3  502    0 -0.33959381561E+01 -0.80458826331E+02 -0.54685969387E+02  0.97432965563E+02  0.41800000000E+01 0.  1.
         -5    1    3    3    0  502  0.52614606963E+00  0.41409765908E+02 -0.81917245558E+02  0.91885543270E+02  0.41800000000E+01 0.  1.
        -11    1    4    4    0    0 -0.23479959283E+01  0.68594982425E+02 -0.18882395631E+03  0.20091110267E+03  0.00000000000E+00 0. -1.
         11    1    4    4    0    0  0.52177880148E+01 -0.29545922001E+02 -0.12086894664E+03  0.12453709922E+03  0.00000000000E+00 0.  1.
</event>
<event>
 8    1  0.7075056E-009  0.1036626E+03  0.7561462E-02  0.1272777E+00
          4   -1    0    0  501    0  0.00000000000E+00  0.00000000000E+00  0.49636091460E+02  0.49636091460E+02  0.00000000000E+00 0. -1.
         -4   -1    0    0    0  501 -0.00000000000E+00 -0.00000000000E+00 -0.36858804018E+03  0.36858804018E+03  0.00000000000E+00 0.  1.
         25    2    1    2    0    0 -0.33488475544E+02  0.53753268462E+02 -0.25273377409E+03  0.28902051716E+03  0.12509039495E+03 0.  0.
         23    2    1    2    0    0  0.33488475544E+02 -0.53753268462E+02 -0.66218174628E+02  0.12920361448E+03  0.91092455667E+02 0.  0.
          5    1    3    3  502    0  0.13613038471E+01 -0.26328416043E+02 -0.15745953639E+03  0.15970603195E+03  0.41800000000E+01 0.  1.
         -5    1    3    3    0  502 -0.34849779391E+02  0.80081684504E+02 -0.95274237704E+02  0.12931448522E+03  0.41800000000E+01 0.  1.
        -11    1    4    4    0    0 -0.12513894433E+02 -0.44560624711E+02  0.20972533927E+01  0.46331903698E+02  0.00000000000E+00 0. -1.
         11    1    4    4    0    0  0.46002369977E+02 -0.91926437512E+01 -0.68315428021E+02  0.82871710784E+02  0.00000000000E+00 0.  1.
</event>
<event>
 8    1  0.7075056E-009  0.1059615E+03  0.7561462E-02  0.1268237E+00
          2   -1    0    0  501    0  0.00000000000E+00  0.00000000000E+00  0.14900495672E+04  0.14900495672E+04  0.00000000000E+00 0. -1.
         -2   -1    0    0    0  501 -0.00000000000E+00 -0.00000000000E+00 -0.83719573842E+01  0.83719573842E+01  0.00000000000E+00 0.  1.
         25    2    1    2    0    0  0.17177765396E+02 -0.18230302141E+02  0.94066733737E+03  0.94927856443E+03  0.12508930312E+03 0.  0.
         23    2    1    2    0    0 -0.17177765396E+02  0.18230302141E+02  0.54101027249E+03  0.54914296019E+03  0.90765942143E+02 0.  0.
          5    1    3    3  502    0 -0.45642345698E+02  0.12840038299E+02  0.21410522797E+03  0.21933219406E+03  0.41800000000E+01 0.  1.
         -5    1    3    3    0  502  0.62820111095E+02 -0.31070340440E+02  0.72656210939E+03  0.72994637037E+03  0.41800000000E+01 0.  1.
        -11    1    4    4    0    0 -0.54016186974E+02  0.19028236108E+02  0.32114705028E+03  0.32621350390E+03  0.00000000000E+00 0.  1.
         11    1    4    4    0    0  0.36838421578E+02 -0.79793396740E+00  0.21986322220E+03  0.22292945629E+03  0.00000000000E+00 0. -1.
</event>
<event>
 8    1  0.7075056E-009  0.1349973E+03  0.7561462E-02  0.1220224E+00
         -2   -1    0    0    0  501 -0.00000000000E+00  0.00000000000E+00  0.73275951213E+02  0.73275951213E+02  0.00000000000E+00 0.  1.
          2   -1    0    0  501    0  0.00000000000E+00 -0.00000000000E+00 -0.27945219183E+03  0.27945219183E+03  0.00000000000E+00 0. -1.
         25    2    1    2    0    0  0.18649639451E+02 -0.90484295283E+02 -0.11958733834E+03  0.19616987359E+03  0.12508505533E+03 0.  0.
         23    2    1    2    0    0 -0.18649639451E+02  0.90484295283E+02 -0.86588902279E+02  0.15655826946E+03  0.92074084263E+02 0.  0.
          5    1    3    3  502    0  0.23635281556E+02 -0.12051343969E+03 -0.10710135732E+03  0.16300395338E+03  0.41800000000E+01 0.  1.
         -5    1    3    3    0  502 -0.49856421049E+01  0.30029144404E+02 -0.12485981021E+02  0.33165920202E+02  0.41800000000E+01 0.  1.
        -11    1    4    4    0    0 -0.31196637190E+02  0.70076151846E+01 -0.60116077767E+02  0.68090231668E+02  0.00000000000E+00 0. -1.
         11    1    4    4    0    0  0.12546997739E+02  0.83476680099E+02 -0.26472824512E+02  0.88468037789E+02  0.00000000000E+00 0.  1.
</event>
<event>
 8    1  0.7075056E-009  0.1506858E+03  0.7561462E-02  0.1199633E+00
         -1   -1    0    0    0  501 -0.00000000000E+00  0.00000000000E+00  0.90330546163E+02  0.90330546163E+02  0.00000000000E+00 0.  1.
          1   -1    0    0  501    0  0.00000000000E+00 -0.00000000000E+00 -0.38273783218E+03  0.38273783218E+03  0.00000000000E+00 0. -1.
         25    2    1    2    0    0  0.16478978604E+01  0.13220534194E+03 -0.23166067970E+03  0.29461076498E+03  0.12509142383E+03 0.  0.
         23    2    1    2    0    0 -0.16478978604E+01 -0.13220534194E+03 -0.60746606312E+02  0.17845761336E+03  0.10332473849E+03 0.  0.
          5    1    3    3  502    0 -0.30266269031E+02  0.40270147716E+02 -0.86879711758E+01  0.51290204536E+02  0.41800000000E+01 0. -1.
         -5    1    3    3    0  502  0.31914166892E+02  0.91935194225E+02 -0.22297270853E+03  0.24332056044E+03  0.41800000000E+01 0. -1.
        -11    1    4    4    0    0 -0.17692422330E+02 -0.13582147232E+03 -0.25168864644E+02  0.13926221993E+03  0.00000000000E+00 0.  1.
         11    1    4    4    0    0  0.16044524469E+02  0.36161303815E+01 -0.35577741669E+02  0.39195393436E+02  0.00000000000E+00 0. -1.
</event>
<event>
 8    1  0.7075056E-009  0.1071223E+03  0.7561462E-02  0.1265994E+00
         -1   -1    0    0    0  501 -0.00000000000E+00  0.00000000000E+00  0.27942165615E+02  0.27942165615E+02  0.00000000000E+00 0.  1.
          1   -1    0    0  501    0  0.00000000000E+00 -0.00000000000E+00 -0.80483083479E+03  0.80483083479E+03  0.00000000000E+00 0. -1.
         25    2    1    2    0    0  0.53295666143E+02  0.80058461897E+02 -0.52274974443E+03  0.54604464266E+03  0.12509065160E+03 0.  0.
         23    2    1    2    0    0 -0.53295666143E+02 -0.80058461897E+02 -0.25413892474E+03  0.28672835775E+03  0.91524710971E+02 0.  0.
          5    1    3    3  502    0  0.60531038822E+02  0.38758297893E+02 -0.11203986356E+03  0.13317888625E+03  0.41800000000E+01 0. -1.
         -5    1    3    3    0  502 -0.72353726791E+01  0.41300164003E+02 -0.41070988087E+03  0.41286575640E+03  0.41800000000E+01 0. -1.
        -11    1    4    4    0    0 -0.30431427451E+02 -0.21540183623E+02 -0.16228444555E+02  0.40662190053E+02  0.00000000000E+00 0.  1.
         11    1    4    4    0    0 -0.22864238693E+02 -0.58518278274E+02 -0.23791048018E+03  0.24606616769E+03  0.00000000000E+00 0. -1.
</event>
<event>
 8    1  0.7075056E-009  0.1191101E+03  0.7561462E-02  0.1244572E+00
          4   -1    0    0  501    0  0.00000000000E+00  0.00000000000E+00  0.20096331052E+03  0.20096331052E+03  0.00000000000E+00 0. -1.
         -4   -1    0    0    0  501 -0.00000000000E+00 -0.00000000000E+00 -0.90744303930E+02  0.90744303930E+02  0.00000000000E+00 0.  1.
         25    2    1    2    0    0 -0.10971744829E+02 -0.78766350447E+02  0.73260914648E+02  0.16534512985E+03  0.12508930091E+03 0.  0.
         23    2    1    2    0    0  0.10971744829E+02  0.78766350447E+02  0.36958091938E+02  0.12636248460E+03  0.90978348008E+02 0.  0.
          5    1    3    3  502    0  0.41958667733E+02 -0.67456170124E+01  0.61827536297E+02  0.75140866320E+02  0.41800000000E+01 0. -1.
         -5    1    3    3    0  502 -0.52930412562E+02 -0.72020733435E+02  0.11433378351E+02  0.90204263530E+02  0.41800000000E+01 0. -1.
        -11    1    4    4    0    0  0.32642070852E+02  0.10302493907E+02 -0.15356138988E+02  0.37516092212E+02  0.00000000000E+00 0. -1.
         11    1    4    4    0    0 -0.21670326023E+02  0.68463856540E+02  0.52314230926E+02  0.88846392385E+02  0.00000000000E+00 0.  1.
</event>
<event>
 8    1  0.7075056E-009  0.1201754E+03  0.7561462E-02  0.1242808E+00
          1   -1    0    0  501    0  0.00000000000E+00  0.00000000000E+00  0.53658780887E+02  0.53658780887E+02  0.00000000000E+00 0. -1.
         -1   -1    0    0    0  501 -0.00000000000E+00 -0.00000000000E+00 -0.28427930269E+03  0.28427930269E+03  0.00000000000E+00 0.  1.
         25    2    1    2    0    0 -0.12144482079E+01  0.57665079898E+02 -0.11146171966E+03  0.17719715417E+03  0.12509348572E+03 0.  0.
         23    2    1    2    0    0  0.12144482079E+01 -0.57665079898E+02 -0.11915880214E+03  0.16074092941E+03  0.91170663793E+02 0.  0.
          5    1    3    3  502    0  0.53378155550E+02  0.62693130762E+02 -0.72754783746E+02  0.10995629628E+03  0.41800000000E+01 0.  1.
         -5    1    3    3    0  502 -0.54592603758E+02 -0.50280508643E+01 -0.38706935917E+02  0.67240857882E+02  0.41800000000E+01 0.  1.
        -11    1    4    4    0    0  0.30509863397E+02 -0.65791638586E+02 -0.10394864965E+03  0.12674664980E+03  0.00000000000E+00 0.  1.
         11    1    4    4    0    0 -0.29295415189E+02  0.81265586888E+01 -0.15210152490E+02  0.33994279607E+02  0.00000000000E+00 0. -1.
</event>
<event>
 8    1  0.7075056E-009  0.1400741E+03  0.7561462E-02  0.1213229E+00
         -1   -1    0    0    0  501 -0.00000000000E+00  0.00000000000E+00  0.26307636770E+03  0.26307636770E+03  0.00000000000E+00 0.  1.
          1   -1    0    0  501    0  0.00000000000E+00 -0.00000000000E+00 -0.82933088770E+02  0.82933088770E+02  0.00000000000E+00 0. -1.
         25    2    1    2    0    0 -0.72176948232E+02  0.68254464974E+02  0.79846235588E+02  0.17858096876E+03  0.12509019635E+03 0.  0.
         23    2    1    2    0    0  0.72176948232E+02 -0.68254464974E+02  0.10029704335E+03  0.16742848771E+03  0.90025650498E+02 0.  0.
          5    1    3    3  502    0  0.24747113367E+02  0.51426704583E+02  0.10576768292E+02  0.58193350065E+02  0.41800000000E+01 0.  1.
         -5    1    3    3    0  502 -0.96924061599E+02  0.16827760391E+02  0.69269467296E+02  0.12038761870E+03  0.41800000000E+01 0.  1.
        -11    1    4    4    0    0  0.58518344583E+02 -0.38722660797E+01  0.16593022804E+02  0.60948498777E+02  0.00000000000E+00 0. -1.
         11    1    4    4    0    0  0.13658603649E+02 -0.64382198895E+02  0.83704020542E+02  0.10647998893E+03  0.00000000000E+00 0.  1.
</event>
<event>
 8    1  0.7075056E-009  0.1040911E+03  0.7561462E-02  0.1271921E+00
          1   -1    0    0  501    0  0.00000000000E+00  0.00000000000E+00  0.12417089897E+04  0.12417089897E+04  0.00000000000E+00 0. -1.
         -1   -1    0    0    0  501 -0.00000000000E+00 -0.00000000000E+00 -0.16561748268E+02  0.16561748268E+02  0.00000000000E+00 0.  1.
         25    2    1    2    0    0  0.56369920616E+02  0.49665002458E+02  0.90344764290E+03  0.91515492075E+03  0.12508679025E+03 0.  0.
         23    2    1    2    0    0 -0.56369920616E+02 -0.49665002458E+02  0.32169959857E+03  0.34311581725E+03  0.92701952030E+02 0.  0.
          5    1    3    3  502    0  0.77782445495E+02  0.77371021843E+01  0.76220455811E+03  0.76621356839E+03  0.41800000000E+01 0. -1.
         -5    1    3    3    0  502 -0.21412524879E+02  0.41927900274E+02  0.14124308479E+03  0.14894135236E+03  0.41800000000E+01 0. -1.
        -11    1    4    4    0    0 -0.35926149658E+02 -0.50736344883E+02  0.31572865711E+03  0.32179100336E+03  0.00000000000E+00 0. -1.
         11    1    4    4    0    0 -0.20443770958E+02  0.10713424253E+01  0.59709414528E+01  0.21324813889E+02  0.00000000000E+00 0.  1.
</event>
<event>
 8    1  0.7075056E-009  0.7336552E+02  0.7561462E-02  0.1349009E+00
         -3   -1    0    0    0  501 -0.00000000000E+00  0.00000000000E+00  0.28148495010E+03  0.28148495010E+03  0.00000000000E+00 0.  1.
          3   -1    0    0  501    0  0.00000000000E+00 -0.00000000000E+00 -0.61108933898E+02  0.61108933898E+02  0.00000000000E+00 0. -1.
         25    2    1    2    0    0  0.33541711220E+02  0.58877307178E+02  0.14231123205E+03  0.20122583751E+03  0.12509103574E+03 0.  0.
         23    2    1    2    0    0 -0.33541711220E+02 -0.58877307178E+02  0.78064784152E+02  0.14136804649E+03  0.96432517083E+02 0.  0.
          5    1    3    3  502    0  0.24416203788E+02  0.62243553924E+02  0.91142864612E+01  0.67608828049E+02  0.41800000000E+01 0.  1.
         -5    1    3    3    0  502  0.91255074321E+01 -0.33662467466E+01  0.13319694559E+03  0.13361700946E+03  0.41800000000E+01 0.  1.
        -11    1    4    4    0    0 -0.31341331515E+01 -0.17641607175E+02  0.87462078134E+02  0.89278576411E+02  0.00000000000E+00 0.  1.
         11    1    4    4    0    0 -0.30407578068E+02 -0.41235700002E+02 -0.93972939824E+01  0.52089470077E+02  0.00000000000E+00 0. -1.
</event>
<event>
 8    1  0.7075056E-009  0.1088324E+03  0.7561462E-02  0.1262748E+00
          2   -1    0    0  501    0  0.00000000000E+00  0.00000000000E+00  0.81161134466E+02  0.81161134466E+02  0.00000000000E+00 0.  1.
         -2   -1    0    0    0  501 -0.00000000000E+00 -0.00000000000E+00 -0.26350167796E+03  0.26350167796E+03  0.00000000000E+00 0. -1.
         25    2    1    2    0    0 -0.32619982422E+02 -0.29002597844E+02 -0.20456763555E+03  0.24372374897E+03  0.12509250322E+03 0.  0.
         23    2    1    2    0    0  0.32619982422E+02  0.29002597844E+02  0.22227092061E+02  0.10093906345E+03  0.88257787049E+02 0.  0.
          5    1    3    3  502    0 -0.46371386577E+02 -0.65393304460E+02 -0.18111309589E+03  0.19810607175E+03  0.41800000000E+01 0.  1.
         -5    1    3    3    0  502  0.13751404156E+02  0.36390706615E+02 -0.23454539666E+02  0.45617677222E+02  0.41800000000E+01 0.  1.
        -11    1    4    4    0    0  0.62681905001E+02  0.12313619088E+02  0.17486363896E+02  0.66230048709E+02  0.00000000000E+00 0.  1.
         11    1    4    4    0    0 -0.30061922580E+02  0.16688978757E+02  0.47407281646E+01  0.34709014746E+02  0.00000000000E+00 0. -1.
</event>
<event>
 8    1  0.7075056E-009  0.7639289E+02  0.7561462E-02  0.1339611E+00
         -2   -1    0    0    0  501 -0.00000000000E+00  0.00000000000E+00  0.18234108645E+02  0.18234108645E+02  0.00000000000E+00 0. -1.
          2   -1    0    0  501    0  0.00000000000E+00 -0.00000000000E+00 -0.10697519658E+04  0.10697519658E+04  0.00000000000E+00 0.  1.
         25    2    1    2    0    0  0.26029694970E+02  0.69012575810E+02 -0.76660255379E+03  0.78023578945E+03  0.12509248985E+03 0.  0.
         23    2    1    2    0    0 -0.26029694970E+02 -0.69012575810E+02 -0.28491530339E+03  0.30775028502E+03  0.89962365384E+02 0.  0.
          5    1    3    3  502    0  0.24495431525E+02  0.29543128643E+02 -0.53212785635E+02  0.65741125414E+02  0.41800000000E+01 0.  1.
         -5    1    3    3    0  502  0.15342634453E+01  0.39469447167E+02 -0.71338976816E+03  0.71449466404E+03  0.41800000000E+01 0.  1.
        -11    1    4    4    0    0 -0.15467638478E+02 -0.53526973726E+02 -0.28353206177E+03  0.28895469334E+03  0.00000000000E+00 0.  1.
         11    1    4    4    0    0 -0.10562056493E+02 -0.15485602084E+02 -0.13832416275E+01  0.18795591682E+02  0.00000000000E+00 0. -1.
</event>
<event>
 8    1  0.7075056E-009  0.8716320E+02  0.7561462E-02  0.1309871E+00
          1   -1    0    0  501    0  0.00000000000E+00  0.00000000000E+00  0.13016714093E+03  0.13016714093E+03  0.00000000000E+00 0. -1.
         -1   -1    0    0    0  501 -0.00000000000E+00 -0.00000000000E+00 -0.10242373262E+03  0.10242373262E+03  0.00000000000E+00 0.  1.
         25    2    1    2    0    0 -0.23486572488E+02  0.26121387498E+02 -0.26376418000E+01  0.12995378209E+03  0.12508829823E+03 0.  0.
         23    2    1    2    0    0  0.23486572488E+02 -0.26121387498E+02  0.30381050115E+02  0.10263709146E+03  0.91528238080E+02 0.  0.
          5    1    3    3  502    0 -0.32123329149E+02  0.47018974587E+02  0.47836582078E+02  0.74488275801E+02  0.41800000000E+01 0.  1.
         -5    1    3    3    0  502  0.86367566609E+01 -0.20897587089E+02 -0.50474223878E+02  0.55465506289E+02  0.41800000000E+01 0.  1.
        -11    1    4    4    0    0  0.24693897417E+02 -0.57632070080E+02  0.64097067817E+01  0.63026410436E+02  0.00000000000E+00 0.  1.
         11    1    4    4    0    0 -0.12073249286E+01  0.31510682582E+02  0.23971343333E+02  0.39610681028E+02  0.00000000000E+00 0. -1.
</event>
<event>
 8    1  0.7075056E-009  0.6194270E+02  0.7561462E-02  0.1389855E+00
          3   -1    0    0  501    0  0.00000000000E+00  0.00000000000E+00  0.67603110704E+02  0.67603110704E+02  0.00000000000E+00 0. -1.
         -3   -1    0    0    0  501 -0.00000000000E+00 -0.00000000000E+00 -0.21160825047E+03  0.21160825047E+03  0.00000000000E+00 0.  1.
         25    2    1    2    0    0  0.35922348304E+01  0.14418312337E+02 -0.25803756968E+02  0.12858855218E+03  0.12509352500E+03 0.  0.
         23    2    1    2    0    0 -0.35922348304E+01 -0.14418312337E+02 -0.11820138280E+03  0.15062280899E+03  0.92167628870E+02 0.  0.
          5    1    3    3  502    0  0.14347921371E+02  0.12631688220E+02  0.49060660223E+02  0.52818966067E+02  0.41800000000E+01 0.  1.
         -5    1    3    3    0  502 -0.10755686540E+02  0.17866241174E+01 -0.74864417190E+02  0.75769586114E+02  0.41800000000E+01 0.  1.
        -11    1    4    4    0    0  0.43839398430E+02 -0.35705864377E+01 -0.46862493346E+02  0.64270796049E+02  0.00000000000E+00 0. -1.
         11    1    4    4    0    0 -0.47431633261E+02 -0.10847725899E+02 -0.71338889452E+02  0.86352012943E+02  0.00000000000E+00 0.  1.
</event>
<event>
 8    1  0.7075056E-009  0.6918433E+02  0.7561462E-02  0.1362889E+00
         -1   -1    0    0    0  501 -0.00000000000E+00  0.00000000000E+00  0.66033854983E+03  0.66033854983E+03  0.00000000000E+00 0.  1.
          1   -1    0    0  501    0  0.00000000000E+00 -0.00000000000E+00 -0.19870309869E+02  0.19870309869E+02  0.00000000000E+00 0. -1.
         25    2    1    2    0    0 -0.24004574735E+02 -0.19969889234E+02  0.40694729889E+03  0.42688175377E+03  0.12508761547E+03 0.  0.
         23    2    1    2    0    0  0.24004574735E+02  0.19969889234E+02  0.23352094107E+03  0.25332710593E+03  0.93099820595E+02 0.  0.
          5    1    3    3  502    0 -0.57597856980E+01 -0.42484692784E+02  0.39133813794E+03  0.39370183497E+03  0.41800000000E+01 0. -1.
         -5    1    3    3    0  502 -0.18244789037E+02  0.22514803550E+02  0.15609160943E+02  0.33179918795E+02  0.41800000000E+01 0. -1.
        -11    1    4    4    0    0  0.38505473293E+02  0.29632543295E+02  0.23059445074E+03  0.23565771748E+03  0.00000000000E+00 0.  1.
         11    1    4    4    0    0 -0.14500898558E+02 -0.96626540609E+01  0.29264903318E+01  0.17669388449E+02  0.00000000000E+00 0. -1.
</event>
<event>
 8    1  0.7075056E-009  0.1159714E+03  0.7561462E-02  0.1249895E+00
         -2   -1    0    0    0  501 -0.00000000000E+00  0.00000000000E+00  0.38474245632E+02  0.38474245632E+02  0.00000000000E+00 0. -1.
          2   -1    0    0  501    0  0.00000000000E+00 -0.00000000000E+00 -0.58867241682E+03  0.58867241682E+03  0.00000000000E+00 0.  1.
         25    2    1    2    0    0 -0.60879589290E+02  0.65627727335E+02 -0.40898879681E+03  0.43695848007E+03  0.12509018505E+03 0.  0.
         23    2    1    2    0    0  0.60879589290E+02 -0.65627727335E+02 -0.14120937437E+03  0.19018818238E+03  0.90653926118E+02 0.  0.
          5    1    3    3  502    0 -0.46287499322E+02  0.10342498713E+02 -0.35509561995E+03  0.35827345922E+03  0.41800000000E+01 0.  1.
         -5    1    3    3    0  502 -0.14592089968E+02  0.55285228622E+02 -0.53893176866E+02  0.78685020850E+02  0.41800000000E+01 0.  1.
        -11    1    4    4    0    0  0.48004727873E+02  0.11039841138E+02 -0.62243639375E+02  0.79376335473E+02  0.00000000000E+00 0.  1.
         11    1    4    4    0    0  0.12874861417E+02 -0.76667568473E+02 -0.78965734997E+02  0.11081184691E+03  0.00000000000E+00 0. -1.
</event>
<event>
 8    1  0.7075056E-009  0.1202309E+03  0.7561462E-02  0.1242717E+00
          2   -1    0    0  501    0  0.00000000000E+00  0.00000000000E+00  0.79718795285E+02  0.79718795285E+02  0.00000000000E+00 0. -1.
         -2   -1    0    0    0  501 -0.00000000000E+00 -0.00000000000E+00 -0.19497858502E+03  0.19497858502E+03  0.00000000000E+00 0.  1.
         25    2    1    2    0    0 -0.91207844611E+01  0.55974031390E+02 -0.36981920469E+02  0.14223594842E+03  0.12508845543E+03 0.  0.
         23    2    1    2    0    0  0.91207844611E+01 -0.55974031390E+02 -0.78277869263E+02  0.13246143188E+03  0.90566689353E+02 0.  0.
          5    1    3    3  502    0 -0.46750179042E+01 -0.38508611262E+02 -0.26082374851E+02  0.46931136909E+02  0.41800000000E+01 0. -1.
         -5    1    3    3    0  502 -0.44457665569E+01  0.94482642652E+02 -0.10899545619E+02  0.95304811512E+02  0.41800000000E+01 0. -1.
        -11    1    4    4    0    0  0.23390990514E+02 -0.77492713219E+02 -0.56965566714E+02  0.98981487311E+02  0.00000000000E+00 0.  1.
         11    1    4    4    0    0 -0.14270206053E+02  0.21518681829E+02 -0.21312302548E+02  0.33479944569E+02  0.00000000000E+00 0. -1.
</event>
<event>
 8    1  0.7075056E-009  0.8359743E+02  0.7561462E-02  0.1319142E+00
         -4   -1    0    0    0  501 -0.00000000000E+00  0.00000000000E+00  0.72619773689E+02  0.72619773689E+02  0.00000000000E+00 0.  1.
          4   -1    0    0  501    0  0.00000000000E+00 -0.00000000000E+00 -0.22227953872E+03  0.22227953872E+03  0.00000000000E+00 0. -1.
         25    2    1    2    0    0  0.22309846191E+02  0.29415126746E+02 -0.14599651777E+03  0.19577285816E+03  0.12509616250E+03 0.  0.
         23    2    1    2    0    0 -0.22309846191E+02 -0.29415126746E+02 -0.36632472597E+01  0.99126454245E+02  0.91922008421E+02 0.  0.
          5    1    3    3  502    0 -0.21624281381E+02  0.68562491034E+01  0.14869558334E+02  0.27444377604E+02  0.41800000000E+01 0.  1.
         -5    1    3    3    0  502  0.43934127572E+02  0.22558877643E+02 -0.16086607610E+03  0.16832848056E+03  0.41800000000E+01 0.  1.
        -11    1    4    4    0    0  0.35780873289E+01  0.29759704708E+02 -0.15050641935E+02  0.33540491288E+02  0.00000000000E+00 0. -1.
         11    1    4    4    0    0 -0.25887933520E+02 -0.59174831454E+02  0.11387394675E+02  0.65585962957E+02  0.00000000000E+00 0.  1.
</event>
<event>
 8    1  0.7075056E-009  0.1206526E+03  0.7561462E-02  0.1242024E+00
         -1   -1    0    0    0  501 -0.00000000000E+00  0.00000000000E+00  0.40404611021E+02  0.40404611021E+02  0.00000000000E+00 0.  1.
          1   -1    0    0  501    0  0.00000000000E+00 -0.00000000000E+00 -0.39198444651E+03  0.39198444651E+03  0.00000000000E+00 0. -1.
         25    2    1    2    0    0  0.81485857663E+01 -0.56526885200E+02 -0.24362461731E+03  0.27975309629E+03  0.12508857872E+03 0.  0.
         23    2    1    2    0    0 -0.81485857663E+01  0.56526885200E+02 -0.10795521818E+03  0.15263596123E+03  0.91551730346E+02 0.  0.
          5    1    3    3  502    0  0.44640127310E+02  0.22411808305E+02 -0.98335511826E+02  0.11037379854E+03  0.41800000000E+01 0. -1.
         -5    1    3    3    0  502 -0.36491541543E+02 -0.78938693504E+02 -0.14528910548E+03  0.16937929776E+03  0.41800000000E+01 0. -1.
        -11    1    4    4    0    0  0.38247107129E+02  0.38703793024E+02 -0.76281465840E+02  0.93699983078E+02  0.00000000000E+00 0. -1.
         11    1    4    4    0    0 -0.46395692895E+02  0.17823092175E+02 -0.31673752338E+02  0.58935978155E+02  0.00000000000E+00 0.  1.
</event>
<event>
 8    1  0.7075056E-009  0.1289767E+03  0.7561462E-02  0.1228982E+00
         -1   -1    0    0    0  501 -0.00000000000E+00  0.00000000000E+00  0.33999155074E+03  0.33999155074E+03  0.00000000000E+00 0.  1.
          1   -1    0    0  501    0  0.00000000000E+00 -0.00000000000E+00 -0.53178616419E+02  0.53178616419E+02  0.00000000000E+00 0. -1.
         25    2    1    2    0    0  0.77084889594E+02  0.69972160546E+01  0.18021307250E+03  0.23262643134E+03  0.12508902358E+03 0.  0.
         23    2    1    2    0    0 -0.77084889594E+02 -0.69972160546E+01  0.10659986182E+03  0.16054373582E+03  0.91759028630E+02 0.  0.
          5    1    3    3  502    0 -0.25934452775E+02  0.21842913983E+02  0.84572180039E+02  0.91212031929E+02  0.41800000000E+01 0. -1.
         -5    1    3    3    0  502  0.10301934237E+03 -0.14845697928E+02  0.95640892465E+02  0.14141439941E+03  0.41800000000E+01 0. -1.
        -11    1    4    4    0    0  0.54119509679E+01  0.29081595371E+02  0.20735004919E+02  0.36124352334E+02  0.00000000000E+00 0. -1.
         11    1    4    4    0    0 -0.82496840562E+02 -0.36078811425E+02  0.85864856896E+02  0.12441938348E+03  0.00000000000E+00 0.  1.
</event>
<event>
 8    1  0.7075056E-009  0.9606064E+02  0.7561462E-02  0.1288805E+00
          4   -1    0    0  501    0  0.00000000000E+00  0.00000000000E+00  0.28110539913E+02  0.28110539913E+02  0.00000000000E+00 0. -1.
         -4   -1    0    0    0  501 -0.00000000000E+00 -0.00000000000E+00 -0.53283437693E+03  0.53283437693E+03  0.00000000000E+00 0.  1.
         25    2    1    2    0    0 -0.34302674068E+02  0.30939529989E+02 -0.35167719843E+03  0.37610901886E+03  0.12508882527E+03 0.  0.
         23    2    1    2    0    0  0.34302674068E+02 -0.30939529989E+02 -0.15304663858E+03  0.18483589798E+03  0.92774498845E+02 0.  0.
          5    1    3    3  502    0  0.29008480296E+02 -0.15981734867E+02 -0.22059083881E+03  0.22310243913E+03  0.41800000000E+01 0. -1.
         -5    1    3    3    0  502 -0.63311154364E+02  0.46921264856E+02 -0.13108635962E+03  0.15300657973E+03  0.41800000000E+01 0. -1.
        -11    1    4    4    0    0  0.12313207012E+02  0.20482561964E+02 -0.22523395245E+01  0.24004654650E+02  0.00000000000E+00 0. -1.
         11    1    4    4    0    0  0.21989467056E+02 -0.51422091953E+02 -0.15079429906E+03  0.16083124333E+03  0.00000000000E+00 0.  1.
</event>
<event>
 8    1  0.7075056E-009  0.1368308E+03  0.7561462E-02  0.1217658E+00
         -2   -1    0    0    0  501 -0.00000000000E+00  0.00000000000E+00  0.80715557102E+02  0.80715557102E+02  0.00000000000E+00 0.  1.
          2   -1    0    0  501    0  0.00000000000E+00 -0.00000000000E+00 -0.31760694297E+03  0.31760694297E+03  0.00000000000E+00 0. -1.
         25    2    1    2    0    0 -0.50553552098E+02  0.92866152669E+02 -0.19056315388E+03  0.25128001894E+03  0.12509016093E+03 0.  0.
         23    2    1    2    0    0  0.50553552098E+02 -0.92866152669E+02 -0.46328231989E+02  0.14704248113E+03  0.91079098796E+02 0.  0.
          5    1    3    3  502    0  0.31107366620E+02  0.62524812978E+02 -0.12079582910E+03  0.13959271193E+03  0.41800000000E+01 0.  1.
         -5    1    3    3    0  502 -0.81660918718E+02  0.30341339691E+02 -0.69767324777E+02  0.11168730701E+03  0.41800000000E+01 0.  1.
        -11    1    4    4    0    0 -0.96285652934E+01 -0.18148398684E+02 -0.46788876099E+02  0.51100612237E+02  0.00000000000E+00 0. -1.
         11    1    4    4    0    0  0.60182117391E+02 -0.74717753985E+02  0.46064411033E+00  0.95941868896E+02  0.00000000000E+00 0.  1.
</event>
<event>
 8    1  0.7075056E-009  0.1338209E+03  0.7561462E-02  0.1221894E+00
          2   -1    0    0  501    0  0.00000000000E+00  0.00000000000E+00  0.88289073059E+03  0.88289073059E+03  0.00000000000E+00 0. -1.
         -2   -1    0    0    0  501 -0.00000000000E+00 -0.00000000000E+00 -0.24728941399E+02  0.24728941399E+02  0.00000000000E+00 0.  1.
         25    2    1    2    0    0  0.94598026589E+02  0.21514772995E+02  0.54749977019E+03  0.56992780555E+03  0.12510009230E+03 0.  0.
         23    2    1    2    0    0 -0.94598026589E+02 -0.21514772995E+02  0.31066201901E+03  0.33769186644E+03  0.90073495077E+02 0.  0.
          5    1    3    3  502    0  0.40775119067E+02 -0.40071217599E+02  0.37039125609E+03  0.37480057071E+03  0.41800000000E+01 0. -1.
         -5    1    3    3    0  502  0.53822907522E+02  0.61585990594E+02  0.17710851409E+03  0.19512723484E+03  0.41800000000E+01 0. -1.
        -11    1    4    4    0    0 -0.24733817411E+02 -0.47765333228E+02  0.17207926532E+03  0.18029021697E+03  0.00000000000E+00 0.  1.
         11    1    4    4    0    0 -0.69864209178E+02  0.26250560234E+02  0.13858275369E+03  0.15740164947E+03  0.00000000000E+00 0. -1.
</event>
<event>
 8    1  0.7075056E-009  0.1637312E+03  0.7561462E-02  0.1184548E+00
          2   -1    0    0  501    0  0.00000000000E+00  0.00000000000E+00  0.48526729708E+03  0.48526729708E+03  0.00000000000E+00 0. -1.
         -2   -1    0    0    0  501 -0.00000000000E+00 -0.00000000000E+00 -0.65248464691E+02  0.65248464691E+02  0.00000000000E+00 0.  1.
         25    2    1    2    0    0 -0.98435223557E+02  0.10048035683E+03  0.22040035666E+03  0.28984409314E+03  0.12508991072E+03 0.  0.
         23    2    1    2    0    0  0.98435223557E+02 -0.10048035683E+03  0.19961847573E+03  0.26067166863E+03  0.91194230244E+02 0.  0.
          5    1    3    3  502    0 -0.11509622544E+03  0.37663267539E+02  0.12286456462E+03  0.17256545561E+03  0.41800000000E+01 0. -1.
         -5    1    3    3    0  502  0.16661001878E+02  0.62817089296E+02  0.97535792040E+02  0.11727863753E+03  0.41800000000E+01 0. -1.
        -11    1    4    4    0    0  0.60019205205E+02 -0.52834928350E+02  0.39359826831E+02  0.89123681564E+02  0.00000000000E+00 0.  1.
         11    1    4    4    0    0  0.38416018352E+02 -0.47645428485E+02  0.16025864890E+03  0.17154798707E+03  0.00000000000E+00 0. -1.
</event>
<event>
 8    1  0.7075056E-009  0.2573911E+03  0.7561462E-02  0.1108721E+00
          2   -1    0    0  501    0  0.00000000000E+00  0.00000000000E+00  0.19767206912E+04  0.19767206912E+04  0.00000000000E+00 0. -1.
         -2   -1    0    0    0  501 -0.00000000000E+00 -0.00000000000E+00 -0.40335317667E+02  0.40335317667E+02  0.00000000000E+00 0.  1.
         25    2    1    2    0    0 -0.11497278855E+03  0.21745635588E+03  0.68502851501E+03  0.73852480866E+03  0.12509523497E+03 0.  0.
         23    2    1    2    0    0  0.11497278855E+03 -0.21745635588E+03  0.12513568585E+04  0.12785312002E+04  0.90785647068E+02 0.  0.
          5    1    3    3  502    0 -0.51208784069E+02  0.17216687834E+03  0.33820175913E+03  0.38296432711E+03  0.41800000000E+01 0. -1.
         -5    1    3    3    0  502 -0.63764004479E+02  0.45289477536E+02  0.34682675588E+03  0.35556048154E+03  0.41800000000E+01 0. -1.
        -11    1    4    4    0    0  0.26862783413E+02 -0.12962826612E+03  0.51519978247E+03  0.53193600401E+03  0.00000000000E+00 0.  1.
         11    1    4    4    0    0  0.88110005134E+02 -0.87828089759E+02  0.73615707607E+03  0.74659519621E+03  0.00000000000E+00 0. -1.
</event>
<event>
 8    1  0.7075056E-009  0.1195548E+03  0.7561462E-02  0.1243833E+00
          1   -1    0    0  501    0  0.00000000000E+00  0.00000000000E+00  0.29750751776E+03  0.29750751776E+03  0.00000000000E+00 0. -1.
         -1   -1    0    0    0  501 -0.00000000000E+00 -0.00000000000E+00 -0.54922040910E+02  0.54922040910E+02  0.00000000000E+00 0.  1.
         25    2    1    2    0    0 -0.44934230780E+02 -0.28795761883E+02  0.80430922855E+02  0.15800253244E+03  0.12508951158E+03 0.  0.
         23    2    1    2    0    0  0.44934230780E+02  0.28795761883E+02  0.16215455400E+03  0.19442702623E+03  0.93056370816E+02 0.  0.
          5    1    3    3  502    0  0.39431821847E+02  0.99247748570E+01  0.11995163090E+02  0.42599601731E+02  0.41800000000E+01 0. -1.
         -5    1    3    3    0  502 -0.84366052627E+02 -0.38720536740E+02  0.68435759765E+02  0.11540293071E+03  0.41800000000E+01 0. -1.
        -11    1    4    4    0    0  0.29019378128E+01 -0.31598327052E+02  0.67067089353E+02  0.74194811071E+02  0.00000000000E+00 0. -1.
         11    1    4    4    0    0  0.42032292968E+02  0.60394088934E+02  0.95087464643E+02  0.12023221516E+03  0.00000000000E+00 0.  1.
</event>
<event>
 8    1  0.7075056E-009  0.1131004E+03  0.7561462E-02  0.1254934E+00
          2   -1    0    0  501    0  0.00000000000E+00  0.00000000000E+00  0.22268953698E+03  0.22268953698E+03  0.00000000000E+00 0. -1.
         -2   -1    0    0    0  501 -0.00000000000E+00 -0.00000000000E+00 -0.12980928411E+03  0.12980928411E+03  0.00000000000E+00 0.  1.
         25    2    1    2    0    0 -0.10079068242E+03 -0.59302220123E+01  0.13605661012E+03  0.21060055151E+03  0.12508901607E+03 0.  0.
         23    2    1    2    0    0  0.10079068242E+03  0.59302220123E+01 -0.43176357261E+02  0.14189826958E+03  0.89872086254E+02 0.  0.
          5    1    3    3  502    0 -0.38043422492E+02  0.11652997383E+02 -0.17552773472E+02  0.43688289043E+02  0.41800000000E+01 0.  1.
         -5    1    3    3    0  502 -0.62747259928E+02 -0.17583219395E+02  0.15360938360E+03  0.16691226247E+03  0.41800000000E+01 0.  1.
        -11    1    4    4    0    0  0.41802826606E+01  0.22490740596E+02  0.15524094057E+02  0.27646078781E+02  0.00000000000E+00 0. -1.
         11    1    4    4    0    0  0.96610399760E+02 -0.16560518584E+02 -0.58700451318E+02  0.11425219080E+03  0.00000000000E+00 0.  1.
</event>
<event>
 8    1  0.7075056E-009  0.1009726E+03  0.7561462E-02  0.1278264E+00
          1   -1    0    0  501    0  0.00000000000E+00  0.00000000000E+00  0.52438427800E+03  0.52438427800E+03  0.00000000000E+00 0. -1.
         -1   -1    0    0    0  501 -0.00000000000E+00 -0.00000000000E+00 -0.30675997308E+02  0.30675997308E+02  0.00000000000E+00 0.  1.
         25    2    1    2    0    0 -0.60550509834E+02  0.16642914925E+02  0.23949109617E+03  0.27739222187E+03  0.12508840375E+03 0.  0.
         23    2    1    2    0    0  0.60550509834E+02 -0.16642914925E+02  0.25421718452E+03  0.27766805344E+03  0.92357025363E+02 0.  0.
          5    1    3    3  502    0 -0.91292508586E+01  0.34574598372E+02  0.21419620029E+03  0.21720089938E+03  0.41800000000E+01 0.  1.
         -5    1    3    3    0  502 -0.51421258975E+02 -0.17931683447E+02  0.25294895883E+02  0.60191322494E+02  0.41800000000E+01 0.  1.
        -11    1    4    4    0    0 -0.21151645185E+02 -0.20600474345E+02  0.77646208422E+02  0.83070484046E+02  0.00000000000E+00 0.  1.
         11    1    4    4    0    0  0.81702155019E+02  0.39575594200E+01  0.17657097610E+03  0.19459756939E+03  0.00000000000E+00 0. -1.
</event>
<event>
 8    1  0.7075056E-009  0.1208660E+03  0.7561462E-02  0.1241675E+00
         -2   -1    0    0    0  501 -0.00000000000E+00  0.00000000000E+00  0.46426537483E+02  0.46426537483E+02  0.00000000000E+00 0. -1.
          2   -1    0    0  501    0  0.00000000000E+00 -0.00000000000E+00 -0.45353404824E+03  0.45353404824E+03  0.00000000000E+00 0.  1.
         25    2    1    2    0    0  0.67586782032E+02 -0.55317727828E+02 -0.14442648775E+03  0.21007975825E+03  0.12508585189E+03 0.  0.
         23    2    1    2    0    0 -0.67586782032E+02  0.55317727828E+02 -0.26268102301E+03  0.28988082748E+03  0.86032262396E+02 0.  0.
          5    1    3    3  502    0  0.87159112260E+02 -0.81573507835E+02 -0.11616331560E+03  0.16662033586E+03  0.41800000000E+01 0.  1.
         -5    1    3    3    0  502 -0.19572330228E+02  0.26255780007E+02 -0.28263172151E+02  0.43459422389E+02  0.41800000000E+01 0.  1.
        -11    1    4    4    0    0 -0.50291162861E+02  0.50597730936E+02 -0.26242708660E+03  0.27195092796E+03  0.00000000000E+00 0.  1.
         11    1    4    4    0    0 -0.17295619171E+02  0.47199968922E+01 -0.25393641510E+00  0.17929899523E+02  0.00000000000E+00 0. -1.
</event>
<event>
 8    1  0.7075056E-009  0.1111424E+03  0.7561462E-02  0.1258469E+00
          1   -1    0    0  501    0  0.00000000000E+00  0.00000000000E+00  0.26591177264E+02  0.26591177264E+02  0.00000000000E+00 0. -1.
         -1   -1    0    0    0  501 -0.00000000000E+00 -0.00000000000E+00 -0.68164701803E+03  0.68164701803E+03  0.00000000000E+00 0.  1.
         25    2    1    2    0    0 -0.55484547813E+02 -0.56920055378E+02 -0.36351257868E+03  0.39256469117E+03  0.12508882501E+03 0.  0.
         23    2    1    2    0    0  0.55484547813E+02  0.56920055378E+02 -0.29154326208E+03  0.31567350412E+03  0.91289976398E+02 0.  0.
          5    1    3    3  502    0  0.28868076133E+02 -0.26695467838E+01 -0.22075732600E+02  0.36678367868E+02  0.41800000000E+01 0.  1.
         -5    1    3    3    0  502 -0.84352623946E+02 -0.54250508594E+02 -0.34143684608E+03  0.35588632330E+03  0.41800000000E+01 0.  1.
        -11    1    4    4    0    0  0.22265657670E+02  0.55005144373E+02 -0.26903484514E+03  0.27550149422E+03  0.00000000000E+00 0.  1.
         11    1    4    4    0    0  0.33218890144E+02  0.19149110049E+01 -0.22508416945E+02  0.40172009906E+02  0.00000000000E+00 0. -1.
</event>
<event>
 8    1  0.7075056E-009  0.1026842E+03  0.7561462E-02  0.1274751E+00
          1   -1    0    0  501    0  0.00000000000E+00  0.00000000000E+00  0.15701085434E+04  0.15701085434E+04  0.00000000000E+00 0. -1.
         -1   -1    0    0    0  501 -0.00000000000E+00 -0.00000000000E+00 -0.25042790471E+02  0.25042790471E+02  0.00000000000E+00 0.  1.
         25    2    1    2    0    0  0.19456377451E-01  0.30462711127E+02  0.14625427773E+04  0.14681984441E+04  0.12508924284E+03 0.  0.
         23    2    1    2    0    0 -0.19456377451E-01 -0.30462711127E+02  0.82522975579E+02  0.12695288972E+03  0.91536973748E+02 0.  0.
          5    1    3    3  502    0  0.32749979486E+02  0.63047326687E+02  0.56595434557E+03  0.57041153585E+03  0.41800000000E+01 0.  1.
         -5    1    3    3    0  502 -0.32730523109E+02 -0.32584615560E+02  0.89658843175E+03  0.89778690827E+03  0.41800000000E+01 0.  1.
        -11    1    4    4    0    0  0.39768474171E+02 -0.26613945443E+02  0.18150531041E+02  0.51178857031E+02  0.00000000000E+00 0.  1.
         11    1    4    4    0    0 -0.39787930549E+02 -0.38487656841E+01  0.64372444538E+02  0.75774032692E+02  0.00000000000E+00 0. -1.
</event>
<event>
 8    1  0.7075056E-009  0.1066715E+03  0.7561462E-02  0.1266861E+00
         -2   -1    0    0    0  501 -0.00000000000E+00  0.00000000000E+00  0.22982509295E+02  0.22982509295E+02  0.00000000000E+00 0.  1.
          2   -1    0    0  501    0  0.00000000000E+00 -0.00000000000E+00 -0.87523115771E+03  0.87523115771E+03  0.00000000000E+00 0. -1.
         25    2    1    2    0    0 -0.14330727115E+01 -0.57251741828E+02 -0.69197874826E+03  0.70552214836E+03  0.12508836136E+03 0.  0.
         23    2    1    2    0    0  0.14330727115E+01  0.57251741828E+02 -0.16026990015E+03  0.19269151864E+03  0.90353554560E+02 0.  0.
          5    1    3    3  502    0  0.49565271696E+02 -0.12366218519E+02 -0.48359248174E+03  0.48630114159E+03  0.41800000000E+01 0.  1.
         -5    1    3    3    0  502 -0.50998344408E+02 -0.44885523308E+02 -0.20838626652E+03  0.21922100677E+03  0.41800000000E+01 0.  1.
        -11    1    4    4    0    0  0.37913567019E+02  0.25851560878E+02 -0.32712017645E+02  0.56354395235E+02  0.00000000000E+00 0.  1.
         11    1    4    4    0    0 -0.36480494308E+02  0.31400180950E+02 -0.12755788251E+03  0.13633712341E+03  0.00000000000E+00 0. -1.
</event>
<event>
 8    1  0.7075056E-009  0.1796429E+03  0.7561462E-02  0.1168149E+00
         -2   -1    0    0    0  501 -0.00000000000E+00  0.00000000000E+00  0.94809045932E+02  0.94809045932E+02  0.00000000000E+00 0.  1.
          2   -1    0    0  501    0  0.00000000000E+00 -0.00000000000E+00 -0.44095938549E+03  0.44095938549E+03  0.00000000000E+00 0. -1.
         25    2    1    2    0    0  0.79638157078E+02 -0.13975496208E+03 -0.26181899244E+03  0.33176856591E+03  0.12509001175E+03 0.  0.
         23    2    1    2    0    0 -0.79638157078E+02  0.13975496208E+03 -0.84331347126E+02  0.20399986552E+03  0.92900395771E+02 0.  0.
          5    1    3    3  502    0  0.17514999973E+02  0.17878515140E+02 -0.80775653495E+01  0.26629607389E+02  0.41800000000E+01 0. -1.
         -5    1    3    3    0  502  0.62123157105E+02 -0.15763347722E+03 -0.25374142709E+03  0.30513895852E+03  0.41800000000E+01 0. -1.
        -11    1    4    4    0    0 -0.49443986059E+02  0.52606861087E+02 -0.85317094492E+02  0.11176402017E+03  0.00000000000E+00 0.  1.
         11    1    4    4    0    0 -0.30194171020E+02  0.87148100990E+02  0.98574736615E+00  0.92235845351E+02  0.00000000000E+00 0. -1.
</event>
<event>
 8    1  0.7075056E-009  0.1173457E+03  0.7561462E-02  0.1247541E+00
          2   -1    0    0  501    0  0.00000000000E+00  0.00000000000E+00  0.23196156154E+03  0.23196156154E+03  0.00000000000E+00 0. -1.
         -2   -1    0    0    0  501 -0.00000000000E+00 -0.00000000000E+00 -0.83985785798E+02  0.83985785798E+02  0.00000000000E+00 0.  1.
         25    2    1    2    0    0 -0.68390446904E+02 -0.20997410743E+02  0.13959821143E+03  0.20063303050E+03  0.12509119795E+03 0.  0.
         23    2    1    2    0    0  0.68390446904E+02  0.20997410743E+02  0.83775643169E+01  0.11531431685E+03  0.90050339258E+02 0.  0.
          5    1    3    3  502    0 -0.16027294540E+02 -0.55134198228E+02  0.12464989682E+02  0.58902481716E+02  0.41800000000E+01 0. -1.
         -5    1    3    3    0  502 -0.52363152364E+02  0.34136787485E+02  0.12713322175E+03  0.14173054878E+03  0.41800000000E+01 0. -1.
        -11    1    4    4    0    0  0.25216853628E+02 -0.35391876312E+02  0.85771696319E+01  0.44294948410E+02  0.00000000000E+00 0. -1.
         11    1    4    4    0    0  0.43173593276E+02  0.56389287055E+02 -0.19960531493E+00  0.71019368438E+02  0.00000000000E+00 0.  1.
</event>
<event>
 8    1  0.7075056E-009  0.1393771E+03  0.7561462E-02  0.1214170E+00
         -2   -1    0    0    0  501 -0.00000000000E+00  0.00000000000E+00  0.42686538106E+03  0.42686538106E+03  0.00000000000E+00 0.  1.
          2   -1    0    0  501    0  0.00000000000E+00 -0.00000000000E+00 -0.58552040111E+02  0.58552040111E+02  0.00000000000E+00 0. -1.
         25    2    1    2    0    0  0.10457985183E+03 -0.11329185527E+02  0.26724865260E+03  0.31326421643E+03  0.12508929263E+03 0.  0.
         23    2    1    2    0    0 -0.10457985183E+03  0.11329185527E+02  0.10106468835E+03  0.17215320474E+03  0.91418591200E+02 0.  0.
          5    1    3    3  502    0  0.62145624424E+02 -0.62264097572E+02  0.99699573025E+02  0.13302771795E+03  0.41800000000E+01 0. -1.
         -5    1    3    3    0  502  0.42434227403E+02  0.50934912044E+02  0.16754907957E+03  0.18023649849E+03  0.41800000000E+01 0. -1.
        -11    1    4    4    0    0 -0.10056707253E+03 -0.11368567370E+02  0.43527656293E+02  0.11017094564E+03  0.00000000000E+00 0. -1.
         11    1    4    4    0    0 -0.40127792952E+01  0.22697752897E+02  0.57537032060E+02  0.61982259095E+02  0.00000000000E+00 0.  1.
</event>
<event>
 8    1  0.7075056E-009  0.1090091E+03  0.7561462E-02  0.1262416E+00
         -1   -1    0    0    0  501 -0.00000000000E+00  0.00000000000E+00  0.68555285871E+02  0.68555285871E+02  0.00000000000E+00 0.  1.
          1   -1    0    0  501    0  0.00000000000E+00 -0.00000000000E+00 -0.19316544034E+03  0.19316544034E+03  0.00000000000E+00 0. -1.
         25    2    1    2    0    0 -0.21573090921E+02  0.38022851800E+02 -0.96914696832E+02  0.16417328197E+03  0.12509705248E+03 0.  0.
         23    2    1    2    0    0  0.21573090921E+02 -0.38022851800E+02 -0.27695457639E+02  0.97547444243E+02  0.82688149051E+02 0.  0.
          5    1    3    3  502    0  0.52123282761E+02  0.99381726842E+01 -0.44585318031E+02  0.69432894697E+02  0.41800000000E+01 0. -1.
         -5    1    3    3    0  502 -0.73696373683E+02  0.28084679116E+02 -0.52329378800E+02  0.94740387273E+02  0.41800000000E+01 0. -1.
        -11    1    4    4    0    0  0.48853502463E+02 -0.18373906509E+02  0.26446055447E+01  0.52261449289E+02  0.00000000000E+00 0.  1.
         11    1    4    4    0    0 -0.27280411542E+02 -0.19648945291E+02 -0.30340063184E+02  0.45285994954E+02  0.00000000000E+00 0. -1.
</event>
<event>
 8    1  0.7075056E-009  0.9706097E+02  0.7561462E-02  0.1286601E+00
         -2   -1    0    0    0  501 -0.00000000000E+00  0.00000000000E+00  0.80814858603E+02  0.80814858603E+02  0.00000000000E+00 0.  1.
          2   -1    0    0  501    0  0.00000000000E+00 -0.00000000000E+00 -0.16539186659E+03  0.16539186659E+03  0.00000000000E+00 0. -1.
         25    2    1    2    0    0 -0.23464798960E+02 -0.15878367348E+02 -0.88535416872E+02  0.15584951690E+03  0.12509129681E+03 0.  0.
         23    2    1    2    0    0  0.23464798960E+02  0.15878367348E+02  0.39584088840E+01  0.90357208290E+02  0.85709023733E+02 0.  0.
          5    1    3    3  502    0 -0.71853694664E+02 -0.24574011004E+02 -0.37266202975E+02  0.84694024216E+02  0.41800000000E+01 0. -1.
         -5    1    3    3    0  502  0.48388895704E+02  0.86956436566E+01 -0.51269213897E+02  0.71155492688E+02  0.41800000000E+01 0. -1.
        -11    1    4    4    0    0 -0.20584981600E+02  0.13490070007E+02  0.30253854575E+02  0.39000245806E+02  0.00000000000E+00 0.  1.
         11    1    4    4    0    0  0.44049780560E+02  0.23882973404E+01 -0.26295445691E+02  0.51356962485E+02  0.00000000000E+00 0. -1.
</event>
<event>
 8    1  0.7075056E-009  0.1237931E+03  0.7561462E-02  0.1236968E+00
          2   -1    0    0  501    0  0.00000000000E+00  0.00000000000E+00  0.19847823470E+03  0.19847823470E+03  0.00000000000E+00 0. -1.
         -2   -1    0    0    0  501 -0.00000000000E+00 -0.00000000000E+00 -0.89584074580E+02  0.89584074580E+02  0.00000000000E+00 0.  1.
         25    2    1    2    0    0 -0.65780348850E+02  0.18577226085E+02  0.11052778310E+03  0.18038829012E+03  0.12510546251E+03 0.  0.
         23    2    1    2    0    0  0.65780348850E+02 -0.18577226085E+02 -0.16336229830E+01  0.10767401916E+03  0.83179673327E+02 0.  0.
          5    1    3    3  502    0  0.13635623705E+02  0.53643920824E+02  0.39213181913E+02  0.67961360426E+02  0.41800000000E+01 0.  1.
         -5    1    3    3    0  502 -0.79415972555E+02 -0.35066694738E+02  0.71314601191E+02  0.11242692969E+03  0.41800000000E+01 0.  1.
        -11    1    4    4    0    0  0.61284031401E+02  0.21416990109E+02 -0.12220311751E+02  0.66058731363E+02  0.00000000000E+00 0.  1.
         11    1    4    4    0    0  0.44963174495E+01 -0.39994216194E+02  0.10586688768E+02  0.41615287799E+02  0.00000000000E+00 0. -1.
</event>
<event>
 8    1  0.7075056E-009  0.1115099E+03  0.7561462E-02  0.1257799E+00
         -1   -1    0    0    0  501 -0.00000000000E+00  0.00000000000E+00  0.14355429538E+02  0.14355429538E+02  0.00000000000E+00 0.  1.
          1   -1    0    0  501    0  0.00000000000E+00 -0.00000000000E+00 -0.11911733937E+04  0.11911733937E+04  0.00000000000E+00 0. -1.
         25    2    1    2    0    0 -0.61368629291E+01  0.52509420990E+02 -0.90205206466E+03  0.91221763522E+03  0.12509271065E+03 0.  0.
         23    2    1    2    0    0  0.61368629291E+01 -0.52509420990E+02 -0.27476589945E+03  0.29331118798E+03  0.87978708275E+02 0.  0.
          5    1    3    3  502    0 -0.19378840500E+02  0.91906696905E+02 -0.61892938132E+03  0.62602989693E+03  0.41800000000E+01 0. -1.
         -5    1    3    3    0  502  0.13241977571E+02 -0.39397275915E+02 -0.28312268335E+03  0.28618773829E+03  0.41800000000E+01 0. -1.
        -11    1    4    4    0    0 -0.19928320071E+02  0.78973090611E+01 -0.17223183784E+02  0.27498063403E+02  0.00000000000E+00 0.  1.
         11    1    4    4    0    0  0.26065183000E+02 -0.60406730051E+02 -0.25754271567E+03  0.26581312457E+03  0.00000000000E+00 0. -1.
</event>
<event>
 8    1  0.7075056E-009  0.1488361E+03  0.7561462E-02  0.1201911E+00
          1   -1    0    0  501    0  0.00000000000E+00  0.00000000000E+00  0.18374820256E+03  0.18374820256E+03  0.00000000000E+00 0. -1.
         -1   -1    0    0    0  501 -0.00000000000E+00 -0.00000000000E+00 -0.14302308877E+03  0.14302308877E+03  0.00000000000E+00 0.  1.
         25    2    1    2    0    0 -0.10684390334E+03  0.54882148961E+02  0.30175631712E+02  0.17602802894E+03  0.12509048033E+03 0.  0.
         23    2    1    2    0    0  0.10684390334E+03 -0.54882148961E+02  0.10549482073E+02  0.15074326238E+03  0.90468611279E+02 0.  0.
          5    1    3    3  502    0 -0.10061023621E+03  0.66650395539E+01  0.61369061792E+02  0.11811213539E+03  0.41800000000E+01 0.  1.
         -5    1    3    3    0  502 -0.62336671335E+01  0.48217109407E+02 -0.31193430079E+02  0.57915893549E+02  0.41800000000E+01 0.  1.
        -11    1    4    4    0    0  0.12124859888E+02 -0.51787021444E+02 -0.90938236957E+01  0.53959294350E+02  0.00000000000E+00 0.  1.
         11    1    4    4    0    0  0.94719043453E+02 -0.30951275163E+01  0.19643305768E+02  0.96783968034E+02  0.00000000000E+00 0. -1.
</event>
<event>
 8    1  0.7075056E-009  0.9373309E+02  0.7561462E-02  0.1294055E+00
          2   -1    0    0  501    0  0.00000000000E+00  0.00000000000E+00  0.19741585227E+03  0.19741585227E+03  0.00000000000E+00 0. -1.
         -2   -1    0    0    0  501 -0.00000000000E+00 -0.00000000000E+00 -0.79051369435E+02  0.79051369435E+02  0.00000000000E+00 0.  1.
         25    2    1    2    0    0  0.45111328951E+02  0.28742906956E+02  0.28931875888E+02  0.13909452310E+03  0.12509614788E+03 0.  0.
         23    2    1    2    0    0 -0.45111328951E+02 -0.28742906956E+02  0.89432606952E+02  0.13737269861E+03  0.89509108121E+02 0.  0.
          5    1    3    3  502    0  0.39577161897E+02  0.56365374739E+02  0.63867728245E+02  0.94021095104E+02  0.41800000000E+01 0. -1.
         -5    1    3    3    0  502  0.55341670536E+01 -0.27622467783E+02 -0.34935852358E+02  0.45073427997E+02  0.41800000000E+01 0. -1.
        -11    1    4    4    0    0 -0.37840625560E+02  0.18547136421E+02  0.79552847882E+01  0.42885845780E+02  0.00000000000E+00 0.  1.
         11    1    4    4    0    0 -0.72707033902E+01 -0.47290043376E+02  0.81477322164E+02  0.94486852828E+02  0.00000000000E+00 0. -1.
</event>
<event>
 8    1  0.7075056E-009  0.1319056E+03  0.7561462E-02  0.1224655E+00
         -1   -1    0    0    0  501 -0.00000000000E+00  0.00000000000E+00  0.72960635926E+02  0.72960635926E+02  0.00000000000E+00 0.  1.
          1   -1    0    0  501    0  0.00000000000E+00 -0.00000000000E+00 -0.31334940691E+03  0.31334940691E+03  0.00000000000E+00 0. -1.
         25    2    1    2    0    0  0.83706201229E+02 -0.63016017283E+02 -0.13419204947E+03  0.21125539519E+03  0.12507433509E+03 0.  0.
         23    2    1    2    0    0 -0.83706201229E+02  0.63016017283E+02 -0.10619672152E+03  0.17505464765E+03  0.91589516010E+02 0.  0.
          5    1    3    3  502    0  0.55274861337E+02  0.74093426130E+00 -0.12984728630E+03  0.14118657670E+03  0.41800000000E+01 0. -1.
         -5    1    3    3    0  502  0.28431339892E+02 -0.63756951544E+02 -0.43447631663E+01  0.70068818494E+02  0.41800000000E+01 0. -1.
        -11    1    4    4    0    0 -0.95103555728E+02  0.24409812271E+02 -0.66983169284E+02  0.11885819372E+03  0.00000000000E+00 0. -1.
         11    1    4    4    0    0  0.11397354499E+02  0.38606205011E+02 -0.39213552233E+02  0.56196453924E+02  0.00000000000E+00 0.  1.
</event>
<event>
 8    1  0.7075056E-009  0.1274705E+03  0.7561462E-02  0.1231258E+00
         -3   -1    0    0    0  501 -0.00000000000E+00  0.00000000000E+00  0.10812115988E+03  0.10812115988E+03  0.00000000000E+00 0.  1.
          3   -1    0    0  501    0  0.00000000000E+00 -0.00000000000E+00 -0.15635189066E+03  0.15635189066E+03  0.00000000000E+00 0. -1.
         25    2    1    2    0    0  0.71209821969E+02  0.83567877731E+01 -0.28939873670E+02  0.14704780893E+03  0.12507944346E+03 0.  0.
         23    2    1    2    0    0 -0.71209821969E+02 -0.83567877731E+01 -0.19290857106E+02  0.11742524161E+03  0.90971839334E+02 0.  0.
          5    1    3    3  502    0 -0.18827488460E+02  0.42691750822E+02 -0.17109535637E+02  0.49872522692E+02  0.41800000000E+01 0.  1.
         -5    1    3    3    0  502  0.90037310429E+02 -0.34334963049E+02 -0.11830338033E+02  0.97175286235E+02  0.41800000000E+01 0.  1.
        -11    1    4    4    0    0 -0.53658093942E+02  0.35544300884E+02  0.44559859636E+01  0.64517006919E+02  0.00000000000E+00 0.  1.
         11    1    4    4    0    0 -0.17551728027E+02 -0.43901088657E+02 -0.23746843070E+02  0.52908234688E+02  0.00000000000E+00 0. -1.
</event>
<event>
 8    1  0.7075056E-009  0.2511414E+03  0.7561462E-02  0.1112586E+00
          2   -1    0    0  501    0  0.00000000000E+00  0.00000000000E+00  0.52417492246E+03  0.52417492246E+03  0.00000000000E+00 0.  1.
         -2   -1    0    0    0  501 -0.00000000000E+00 -0.00000000000E+00 -0.13208527961E+03  0.13208527961E+03  0.00000000000E+00 0. -1.
         25    2    1    2    0    0 -0.17993034520E+03  0.14239798089E+03  0.11538970173E+03  0.28568276066E+03  0.12509093648E+03 0.  0.
         23    2    1    2    0    0  0.17993034520E+03 -0.14239798089E+03  0.27669994112E+03  0.37057744142E+03  0.90070353538E+02 0.  0.
          5    1    3    3  502    0 -0.14388181281E+03  0.16066998363E+03  0.74977424927E+02  0.22837667645E+03  0.41800000000E+01 0.  1.
         -5    1    3    3    0  502 -0.36048532392E+02 -0.18272002741E+02  0.40412276800E+02  0.57306084214E+02  0.41800000000E+01 0.  1.
        -11    1    4    4    0    0  0.18137337014E+03 -0.10715576696E+03  0.22770278531E+03  0.31020511960E+03  0.00000000000E+00 0. -1.
         11    1    4    4    0    0 -0.14430249460E+01 -0.35242213929E+02  0.48997155813E+02  0.60372321815E+02  0.00000000000E+00 0.  1.
</event>
<event>
 8    1  0.7075056E-009  0.1566632E+03  0.7561462E-02  0.1192516E+00
         -1   -1    0    0    0  501 -0.00000000000E+00  0.00000000000E+00  0.27129192013E+02  0.27129192013E+02  0.00000000000E+00 0.  1.
          1   -1    0    0  501    0  0.00000000000E+00 -0.00000000000E+00 -0.10761899135E+04  0.10761899135E+04  0.00000000000E+00 0. -1.
         25    2    1    2    0    0 -0.26327418601E+02 -0.11854547871E+03 -0.39126073162E+03  0.42834361008E+03  0.12508846748E+03 0.  0.
         23    2    1    2    0    0  0.26327418601E+02  0.11854547871E+03 -0.65779998988E+03  0.67497549545E+03  0.90249261891E+02 0.  0.
          5    1    3    3  502    0 -0.22255853778E+02  0.17479064825E+02 -0.26471617934E+02  0.38975116300E+02  0.41800000000E+01 0.  1.
         -5    1    3    3    0  502 -0.40715648224E+01 -0.13602454354E+03 -0.36478911369E+03  0.38936849378E+03  0.41800000000E+01 0.  1.
        -11    1    4    4    0    0 -0.31514265501E+02  0.37148647961E+02 -0.15969540859E+03  0.16696045789E+03  0.00000000000E+00 0.  1.
         11    1    4    4    0    0  0.57841684102E+02  0.81396830753E+02 -0.49810458130E+03  0.50801503756E+03  0.00000000000E+00 0. -1.
</event>
<event>
 8    1  0.7075056E-009  0.1658616E+03  0.7561462E-02  0.1182234E+00
          1   -1    0    0  501    0  0.00000000000E+00  0.00000000000E+00  0.28593082377E+03  0.28593082377E+03  0.00000000000E+00 0. -1.
         -1   -1    0    0    0  501 -0.00000000000E+00 -0.00000000000E+00 -0.10769359822E+03  0.10769359822E+03  0.00000000000E+00 0.  1.
         25    2    1    2    0    0 -0.47745817315E+02  0.11979721399E+03  0.14461018100E+03  0.23063157704E+03  0.12509110412E+03 0.  0.
         23    2    1    2    0    0  0.47745817315E+02 -0.11979721399E+03  0.33627044548E+02  0.16299284495E+03  0.93834182624E+02 0.  0.
          5    1    3    3  502    0  0.20682272291E+02 -0.11626942354E+02  0.47973042287E+02  0.53682654200E+02  0.41800000000E+01 0.  1.
         -5    1    3    3    0  502 -0.68428089606E+02  0.13142415634E+03  0.96637138711E+02  0.17694892284E+03  0.41800000000E+01 0.  1.
        -11    1    4    4    0    0  0.64102292988E+02 -0.34988068792E+02  0.12755354984E+02  0.74134796181E+02  0.00000000000E+00 0.  1.
         11    1    4    4    0    0 -0.16356475673E+02 -0.84809145195E+02  0.20871689564E+02  0.88858048765E+02  0.00000000000E+00 0. -1.
</event>
<event>
 8    1  0.7075056E-009  0.1795715E+03  0.7561462E-02  0.1168218E+00
          1   -1    0    0  501    0  0.00000000000E+00  0.00000000000E+00  0.10362095685E+03  0.10362095685E+03  0.00000000000E+00 0. -1.
         -1   -1    0    0    0  501 -0.00000000000E+00 -0.00000000000E+00 -0.37006355569E+03  0.37006355569E+03  0.00000000000E+00 0.  1.
         25    2    1    2    0    0 -0.13411378594E+03 -0.70156209230E+02 -0.68317822798E+02  0.20790101635E+03  0.12508839441E+03 0.  0.
         23    2    1    2    0    0  0.13411378594E+03  0.70156209230E+02 -0.19812477604E+03  0.26578349619E+03  0.92081695780E+02 0.  0.
          5    1    3    3  502    0 -0.96640222742E+02  0.12593600506E+02 -0.64386803528E+02  0.11688055567E+03  0.41800000000E+01 0. -1.
         -5    1    3    3    0  502 -0.37473563193E+02 -0.82749809736E+02 -0.39310192692E+01  0.91020460679E+02  0.41800000000E+01 0. -1.
        -11    1    4    4    0    0  0.18865463662E+02 -0.17603029336E+02 -0.85146932320E+01  0.27171167841E+02  0.00000000000E+00 0. -1.
         11    1    4    4    0    0  0.11524832227E+03  0.87759238566E+02 -0.18961008281E+03  0.23861232835E+03  0.00000000000E+00 0.  1.
</event>
<event>
 8    1  0.7075056E-009  0.8636762E+02  0.7561462E-02  0.1311894E+00
          2   -1    0    0  501    0  0.00000000000E+00  0.00000000000E+00  0.45434892102E+03  0.45434892102E+03  0.00000000000E+00 0. -1.
         -2   -1    0    0    0  501 -0.00000000000E+00 -0.00000000000E+00 -0.76770469820E+02  0.76770469820E+02  0.00000000000E+00 0.  1.
         25    2    1    2    0    0  0.50918416294E+01 -0.54897741831E+02 -0.21896369891E+01  0.13671764309E+03  0.12508889045E+03 0.  0.
         23    2    1    2    0    0 -0.50918416294E+01  0.54897741831E+02  0.37976808819E+03  0.39440174775E+03  0.91045312404E+02 0.  0.
          5    1    3    3  502    0 -0.13553260698E+02 -0.92257727904E+01 -0.58990636146E+02  0.61369156032E+02  0.41800000000E+01 0.  1.
         -5    1    3    3    0  502  0.18645102328E+02 -0.45671969041E+02  0.56800999157E+02  0.75348487059E+02  0.41800000000E+01 0.  1.
        -11    1    4    4    0    0 -0.12038653933E+02  0.79672667821E+02  0.29596062104E+03  0.30673335716E+03  0.00000000000E+00 0. -1.
         11    1    4    4    0    0  0.69468123039E+01 -0.24774925990E+02  0.83807467145E+02  0.87668390588E+02  0.00000000000E+00 0.  1.
</event>
<event>
 8    1  0.7075056E-009  0.1133570E+03  0.7561462E-02  0.1254477E+00
          2   -1    0    0  501    0  0.00000000000E+00  0.00000000000E+00  0.68752194332E+03  0.68752194332E+03  0.00000000000E+00 0. -1.
         -2   -1    0    0    0  501 -0.00000000000E+00 -0.00000000000E+00 -0.30397988099E+02  0.30397988099E+02  0.00000000000E+00 0.  1.
         25    2    1    2    0    0 -0.70015250370E+02  0.33064791697E+02  0.49574782731E+03  0.51711532334E+03  0.12508770369E+03 0.  0.
         23    2    1    2    0    0  0.70015250370E+02 -0.33064791697E+02  0.16137612791E+03  0.20080460808E+03  0.91020987866E+02 0.  0.
          5    1    3    3  502    0 -0.70944601631E+02 -0.29883062491E+02  0.19231478497E+03  0.20719213992E+03  0.41800000000E+01 0. -1.
         -5    1    3    3    0  502  0.92935126098E+00  0.62947854188E+02  0.30343304234E+03  0.30992318342E+03  0.41800000000E+01 0. -1.
        -11    1    4    4    0    0  0.61280405715E+02 -0.10296371549E+02  0.33441609388E+02  0.70566597127E+02  0.00000000000E+00 0.  1.
         11    1    4    4    0    0  0.87348446548E+01 -0.22768420147E+02  0.12793451852E+03  0.13023801095E+03  0.00000000000E+00 0. -1.
</event>
<event>
 8    1  0.7075056E-009  0.9062223E+02  0.7561462E-02  0.1301352E+00
          2   -1    0    0  501    0  0.00000000000E+00  0.00000000000E+00  0.29892441837E+03  0.29892441837E+03  0.00000000000E+00 0. -1.
         -2   -1    0    0    0  501 -0.00000000000E+00 -0.00000000000E+00 -0.42543917526E+02  0.42543917526E+02  0.00000000000E+00 0.  1.
         25    2    1    2    0    0  0.85280248711E+01  0.31491657850E+02  0.15590501603E+03  0.20252211755E+03  0.12507750538E+03 0.  0.
         23    2    1    2    0    0 -0.85280248711E+01 -0.31491657850E+02  0.10047548481E+03  0.13894621834E+03  0.90256727287E+02 0.  0.
          5    1    3    3  502    0 -0.22280422496E+02  0.45954318696E+02  0.94489030216E+01  0.52105381697E+02  0.41800000000E+01 0. -1.
         -5    1    3    3    0  502  0.30808447367E+02 -0.14462660846E+02  0.14645611301E+03  0.15041673586E+03  0.41800000000E+01 0. -1.
        -11    1    4    4    0    0 -0.46351877192E+02  0.22310814453E+00  0.43564273690E+02  0.63611258741E+02  0.00000000000E+00 0.  1.
         11    1    4    4    0    0  0.37823852321E+02 -0.31714765995E+02  0.56911211119E+02  0.75334959597E+02  0.00000000000E+00 0. -1.
</event>
<event>
 8    1  0.7075056E-009  0.9014862E+02  0.7561462E-02  0.1302492E+00
         -1   -1    0    0    0  501 -0.00000000000E+00  0.00000000000E+00  0.14163180678E+02  0.14163180678E+02  0.00000000000E+00 0.  1.
          1   -1    0    0  501    0  0.00000000000E+00 -0.00000000000E+00 -0.16060287506E+04  0.16060287506E+04  0.00000000000E+00 0. -1.
         25    2    1    2    0    0 -0.31131628474E+02  0.19128897133E+02 -0.13916860075E+04  0.13977738300E+04  0.12508654392E+03 0.  0.
         23    2    1    2    0    0  0.31131628474E+02 -0.19128897133E+02 -0.20017956250E+03  0.22241810131E+03  0.89793438257E+02 0.  0.
          5    1    3    3  502    0 -0.51866977968E+02 -0.23903046016E+02 -0.32467764059E+03  0.32968861325E+03  0.41800000000E+01 0.  1.
         -5    1    3    3    0  502  0.20735349494E+02  0.43031943148E+02 -0.10670083669E+04  0.10680852167E+04  0.41800000000E+01 0.  1.
        -11    1    4    4    0    0 -0.17706793009E+02 -0.19373003505E+02 -0.13615353828E+02  0.29567239359E+02  0.00000000000E+00 0.  1.
         11    1    4    4    0    0  0.48838421482E+02  0.24410637188E+00 -0.18656420867E+03  0.19285086196E+03  0.00000000000E+00 0. -1.
</event>
<event>
 8    1  0.7075056E-009  0.1345244E+03  0.7561462E-02  0.1220893E+00
          1   -1    0    0  501    0  0.00000000000E+00  0.00000000000E+00  0.10975758056E+04  0.10975758056E+04  0.00000000000E+00 0. -1.
         -1   -1    0    0    0  501 -0.00000000000E+00 -0.00000000000E+00 -0.25466640649E+02  0.25466640649E+02  0.00000000000E+00 0.  1.
         25    2    1    2    0    0  0.11829573416E+03  0.43349828709E+02  0.55353434674E+03  0.58130768493E+03  0.12508102639E+03 0.  0.
         23    2    1    2    0    0 -0.11829573416E+03 -0.43349828709E+02  0.51857481825E+03  0.54173476136E+03  0.93185949448E+02 0.  0.
          5    1    3    3  502    0  0.44157467805E+02 -0.15235790152E+02  0.48401349354E+02  0.67395654784E+02  0.41800000000E+01 0.  1.
         -5    1    3    3    0  502  0.74138266360E+02  0.58585618861E+02  0.50513299739E+03  0.51391203015E+03  0.41800000000E+01 0.  1.
        -11    1    4    4    0    0 -0.25311607476E+02 -0.84124461376E+00  0.18622202087E+02  0.31435196453E+02  0.00000000000E+00 0. -1.
         11    1    4    4    0    0 -0.92984126689E+02 -0.42508584095E+02  0.49995261616E+03  0.51029956491E+03  0.00000000000E+00 0.  1.
</event>
<event>
 8    1  0.7075056E-009  0.1094691E+03  0.7561462E-02  0.1261556E+00
         -1   -1    0    0    0  501 -0.00000000000E+00  0.00000000000E+00  0.25329455272E+02  0.25329455272E+02  0.00000000000E+00 0.  1.
          1   -1    0    0  501    0  0.00000000000E+00 -0.00000000000E+00 -0.82695334967E+03  0.82695334967E+03  0.00000000000E+00 0. -1.
         25    2    1    2    0    0  0.38416961893E+01  0.64607231429E+02 -0.22870378111E+03  0.26858983040E+03  0.12508486925E+03 0.  0.
         23    2    1    2    0    0 -0.38416961893E+01 -0.64607231429E+02 -0.57292011328E+03  0.58369297454E+03  0.90946024332E+02 0.  0.
          5    1    3    3  502    0 -0.37229672071E+02  0.52111810733E+02 -0.41379449471E+02  0.76363738377E+02  0.41800000000E+01 0.  1.
         -5    1    3    3    0  502  0.41071368261E+02  0.12495420696E+02 -0.18732433164E+03  0.19222609202E+03  0.41800000000E+01 0.  1.
        -11    1    4    4    0    0 -0.45595005194E+02 -0.49303844140E+02 -0.34412036374E+03  0.35061174864E+03  0.00000000000E+00 0.  1.
         11    1    4    4    0    0  0.41753309005E+02 -0.15303387288E+02 -0.22879974954E+03  0.23308122590E+03  0.00000000000E+00 0. -1.
</event>
<event>
 8    1  0.7075056E-009  0.8209245E+02  0.7561462E-02  0.1323216E+00
          2   -1    0    0  501    0  0.00000000000E+00  0.00000000000E+00  0.87554367445E+03  0.87554367445E+03  0.00000000000E+00 0. -1.
         -2   -1    0    0    0  501 -0.00000000000E+00 -0.00000000000E+00 -0.15803977472E+02  0.15803977472E+02  0.00000000000E+00 0.  1.
         25    2    1    2    0    0  0.16344031578E+02 -0.14961193306E+02  0.61572621004E+03  0.62869469773E+03  0.12508913841E+03 0.  0.
         23    2    1    2    0    0 -0.16344031578E+02  0.14961193306E+02  0.24401348693E+03  0.26265295419E+03  0.94620441054E+02 0.  0.
          5    1    3    3  502    0 -0.21707897133E+02 -0.22242511557E+02  0.36343048567E+02  0.48002621777E+02  0.41800000000E+01 0.  1.
         -5    1    3    3    0  502  0.38051928711E+02  0.72813182516E+01  0.57938316147E+03  0.58069207595E+03  0.41800000000E+01 0.  1.
        -11    1    4    4    0    0  0.10952753251E+02 -0.35137750029E+02  0.64158105451E+02  0.73965443120E+02  0.00000000000E+00 0.  1.
         11    1    4    4    0    0 -0.27296784829E+02  0.50098943334E+02  0.17985538148E+03  0.18868751107E+03  0.00000000000E+00 0. -1.
</event>
<event>
 8    1  0.7075056E-009  0.1055525E+03  0.7561462E-02  0.1269035E+00
          2   -1    0    0  501    0  0.00000000000E+00  0.00000000000E+00  0.89221325036E+02  0.89221325036E+02  0.00000000000E+00 0. -1.
         -2   -1    0    0    0  501 -0.00000000000E+00 -0.00000000000E+00 -0.22264297217E+03  0.22264297217E+03  0.00000000000E+00 0.  1.
         25    2    1    2    0    0 -0.50460550974E+02 -0.39077914948E+02 -0.26957643376E+01  0.14045790761E+03  0.12509119083E+03 0.  0.
         23    2    1    2    0    0  0.50460550974E+02  0.39077914948E+02 -0.13072588280E+03  0.17140638960E+03  0.90650666408E+02 0.  0.
          5    1    3    3  502    0 -0.14665402183E+02 -0.78935808744E+02  0.18831637476E+02  0.82571416927E+02  0.41800000000E+01 0.  1.
         -5    1    3    3    0  502 -0.35795148792E+02  0.39857893796E+02 -0.21527401814E+02  0.57886490684E+02  0.41800000000E+01 0.  1.
        -11    1    4    4    0    0  0.17500566358E+02 -0.82124901164E+01 -0.10755816721E+03  0.10928162768E+03  0.00000000000E+00 0.  1.
         11    1    4    4    0    0  0.32959984617E+02  0.47290405064E+02 -0.23167715595E+02  0.62124761914E+02  0.00000000000E+00 0. -1.
</event>
<event>
 8    1  0.7075056E-009  0.8642932E+02  0.7561462E-02  0.1311736E+00
          1   -1    0    0  501    0  0.00000000000E+00  0.00000000000E+00  0.53342092943E+03  0.53342092943E+03  0.00000000000E+00 0. -1.
         -1   -1    0    0    0  501 -0.00000000000E+00 -0.00000000000E+00 -0.25094924685E+02  0.25094924685E+02  0.00000000000E+00 0.  1.
         25    2    1    2    0    0 -0.27527037839E+01 -0.28112709533E+02  0.36356094876E+03  0.38551326470E+03  0.12508401969E+03 0.  0.
         23    2    1    2    0    0  0.27527037839E+01  0.28112709533E+02  0.14476505599E+03  0.17300258942E+03  0.90416108598E+02 0.  0.
          5    1    3    3  502    0 -0.45390024713E+02 -0.21036886511E+02  0.57265309465E+02  0.76155058963E+02  0.41800000000E+01 0. -1.
         -5    1    3    3    0  502  0.42637320929E+02 -0.70758230217E+01  0.30629563929E+03  0.30935820574E+03  0.41800000000E+01 0. -1.
        -11    1    4    4    0    0 -0.34330413211E+02  0.30281376245E+01  0.18670936595E+02  0.39196310567E+02  0.00000000000E+00 0.  1.
         11    1    4    4    0    0  0.37083116995E+02  0.25084571908E+02  0.12609411939E+03  0.13380627885E+03  0.00000000000E+00 0. -1.
</event>
<event>
 8    1  0.7075056E-009  0.1701445E+03  0.7561462E-02  0.1177697E+00
          2   -1    0    0  501    0  0.00000000000E+00  0.00000000000E+00  0.14397590756E+04  0.14397590756E+04  0.00000000000E+00 0. -1.
         -2   -1    0    0    0  501 -0.00000000000E+00 -0.00000000000E+00 -0.35000188658E+02  0.35000188658E+02  0.00000000000E+00 0.  1.
         25    2    1    2    0    0 -0.16069901955E+03  0.93920863284E+01  0.10951330836E+04  0.11139463623E+04  0.12509053197E+03 0.  0.
         23    2    1    2    0    0  0.16069901955E+03 -0.93920863284E+01  0.30962580339E+03  0.36081290197E+03  0.91681110022E+02 0.  0.
          5    1    3    3  502    0 -0.34555391030E+02 -0.19213997407E+02  0.68605793529E+02  0.79293631847E+02  0.41800000000E+01 0.  1.
         -5    1    3    3    0  502 -0.12614362852E+03  0.28606083735E+02  0.10265272900E+04  0.10346527305E+04  0.41800000000E+01 0.  1.
        -11    1    4    4    0    0  0.79944713375E+02  0.24387954975E+02  0.22086085754E+03  0.23614708963E+03  0.00000000000E+00 0. -1.
         11    1    4    4    0    0  0.80754306177E+02 -0.33780041304E+02  0.88764945841E+02  0.12466581234E+03  0.00000000000E+00 0.  1.
</event>
<event>
 8    1  0.7075056E-009  0.2737969E+03  0.7561462E-02  0.1099126E+00
          2   -1    0    0  501    0  0.00000000000E+00  0.00000000000E+00  0.13787319014E+04  0.13787319014E+04  0.00000000000E+00 0. -1.
         -2   -1    0    0    0  501 -0.00000000000E+00 -0.00000000000E+00 -0.17289877684E+03  0.17289877684E+03  0.00000000000E+00 0.  1.
         25    2    1    2    0    0 -0.21291980896E+03 -0.16144264059E+03 -0.18064191426E+02  0.29558915151E+03  0.12509220690E+03 0.  0.
         23    2    1    2    0    0  0.21291980896E+03  0.16144264059E+03  0.12238973160E+04  0.12560415267E+04  0.91198166459E+02 0.  0.
          5    1    3    3  502    0 -0.11744242618E+03 -0.12869811861E+03  0.40355534000E+02  0.17889094646E+03  0.41800000000E+01 0.  1.
         -5    1    3    3    0  502 -0.95477382776E+02 -0.32744521982E+02 -0.58419725426E+02  0.11669820504E+03  0.41800000000E+01 0.  1.
        -11    1    4    4    0    0  0.16440533983E+03  0.94538993901E+02  0.98928947935E+03  0.10073035347E+04  0.00000000000E+00 0.  1.
         11    1    4    4    0    0  0.48514469122E+02  0.66903646694E+02  0.23460783660E+03  0.24873799197E+03  0.00000000000E+00 0. -1.
</event>
<event>
 8    1  0.7075056E-009  0.1211034E+03  0.7561462E-02  0.1241288E+00
          2   -1    0    0  501    0  0.00000000000E+00  0.00000000000E+00  0.25902973288E+03  0.25902973288E+03  0.00000000000E+00 0. -1.
         -2   -1    0    0    0  501 -0.00000000000E+00 -0.00000000000E+00 -0.10057780873E+03  0.10057780873E+03  0.00000000000E+00 0.  1.
         25    2    1    2    0    0 -0.11495051275E+02 -0.77628834437E+02  0.18783896542E+03  0.23893268807E+03  0.12508789053E+03 0.  0.
         23    2    1    2    0    0  0.11495051275E+02  0.77628834437E+02 -0.29387041261E+02  0.12067485354E+03  0.86835764200E+02 0.  0.
          5    1    3    3  502    0  0.13330603643E+02  0.26878571688E+02  0.84719049565E+02  0.89971953233E+02  0.41800000000E+01 0. -1.
         -5    1    3    3    0  502 -0.24825654918E+02 -0.10450740612E+03  0.10311991585E+03  0.14896073483E+03  0.41800000000E+01 0. -1.
        -11    1    4    4    0    0 -0.25885626796E+02  0.54828444604E+02  0.10394265364E+02  0.61516378020E+02  0.00000000000E+00 0.  1.
         11    1    4    4    0    0  0.37380678070E+02  0.22800389833E+02 -0.39781306626E+02  0.59158475524E+02  0.00000000000E+00 0. -1.
</event>
<event>
 8    1  0.7075056E-009  0.1128721E+03  0.7561462E-02  0.1255342E+00
          1   -1    0    0  501    0  0.00000000000E+00  0.00000000000E+00  0.23329103995E+03  0.23329103995E+03  0.00000000000E+00 0. -1.
         -1   -1    0    0    0  501 -0.00000000000E+00 -0.00000000000E+00 -0.61964716195E+02  0.61964716195E+02  0.00000000000E+00 0.  1.
         25    2    1    2    0    0  0.33320641854E+02 -0.13106844295E+02  0.49594816783E+02  0.13924532307E+03  0.12509020587E+03 0.  0.
         23    2    1    2    0    0 -0.33320641854E+02  0.13106844295E+02  0.12173150697E+03  0.15601043307E+03  0.90766959279E+02 0.  0.
          5    1    3    3  502    0  0.75993963973E+02 -0.32849607602E+02  0.32579456099E+02  0.89067797995E+02  0.41800000000E+01 0.  1.
         -5    1    3    3    0  502 -0.42673322119E+02  0.19742763307E+02  0.17015360684E+02  0.50177525077E+02  0.41800000000E+01 0.  1.
        -11    1    4    4    0    0 -0.63792864925E+02  0.13332711862E+02  0.67654086968E+02  0.93938098258E+02  0.00000000000E+00 0.  1.
         11    1    4    4    0    0  0.30472223070E+02 -0.22586756704E+00  0.54077420001E+02  0.62072334812E+02  0.00000000000E+00 0. -1.
</event>
<event>
 8    1  0.7075056E-009  0.1272948E+03  0.7561462E-02  0.1231526E+00
          1   -1    0    0  501    0  0.00000000000E+00  0.00000000000E+00  0.18869320620E+03  0.18869320620E+03  0.00000000000E+00 0. -1.
         -1   -1    0    0    0  501 -0.00000000000E+00 -0.00000000000E+00 -0.13568029855E+03  0.13568029855E+03  0.00000000000E+00 0.  1.
         25    2    1    2    0    0 -0.87284945565E+02  0.74643976832E+02  0.50200911430E+02  0.17708378358E+03  0.12509256532E+03 0.  0.
         23    2    1    2    0    0  0.87284945565E+02 -0.74643976832E+02  0.28119962120E+01  0.14728972117E+03  0.92173584286E+02 0.  0.
          5    1    3    3  502    0 -0.70377754603E+02  0.11731572994E+02  0.78300150149E+02  0.10601435781E+03  0.41800000000E+01 0. -1.
         -5    1    3    3    0  502 -0.16907190961E+02  0.62912403838E+02 -0.28099238719E+02  0.71069425771E+02  0.41800000000E+01 0. -1.
        -11    1    4    4    0    0  0.57270587699E+02 -0.64266727782E+02 -0.39231154732E+02  0.94600296071E+02  0.00000000000E+00 0.  1.
         11    1    4    4    0    0  0.30014357865E+02 -0.10377249050E+02  0.42043150944E+02  0.52689425098E+02  0.00000000000E+00 0. -1.
</event>
<event>
 8    1  0.7075056E-009  0.2172282E+03  0.7561462E-02  0.1135967E+00
          2   -1    0    0  501    0  0.00000000000E+00  0.00000000000E+00  0.10439101284E+04  0.10439101284E+04  0.00000000000E+00 0. -1.
         -2   -1    0    0    0  501 -0.00000000000E+00 -0.00000000000E+00 -0.60559941842E+02  0.60559941842E+02  0.00000000000E+00 0.  1.
         25    2    1    2    0    0  0.19326670016E+03 -0.60392834818E+01  0.24669154019E+03  0.33748028420E+03  0.12509091049E+03 0.  0.
         23    2    1    2    0    0 -0.19326670016E+03  0.60392834818E+01  0.73665864639E+03  0.76698978606E+03  0.90658040376E+02 0.  0.
          5    1    3    3  502    0  0.16264633489E+03  0.41073548794E+02  0.14756156034E+03  0.22345637864E+03  0.41800000000E+01 0.  1.
         -5    1    3    3    0  502  0.30620365268E+02 -0.47112832276E+02  0.99129979851E+02  0.11402390556E+03  0.41800000000E+01 0.  1.
        -11    1    4    4    0    0 -0.91228121006E+02  0.44193710579E+02  0.28885163152E+03  0.30612239244E+03  0.00000000000E+00 0.  1.
         11    1    4    4    0    0 -0.10203857916E+03 -0.38154427097E+02  0.44780701487E+03  0.46086739363E+03  0.00000000000E+00 0. -1.
</event>
<event>
 8    1  0.7075056E-009  0.1077581E+03  0.7561462E-02  0.1264779E+00
         -1   -1    0    0    0  501 -0.00000000000E+00  0.00000000000E+00  0.82433227161E+02  0.82433227161E+02  0.00000000000E+00 0.  1.
          1   -1    0    0  501    0  0.00000000000E+00 -0.00000000000E+00 -0.29422607983E+03  0.29422607983E+03  0.00000000000E+00 0. -1.
         25    2    1    2    0    0  0.77829946637E+01  0.77610395322E+02 -0.17668939912E+02  0.14847309241E+03  0.12509244287E+03 0.  0.
         23    2    1    2    0    0 -0.77829946637E+01 -0.77610395322E+02 -0.19412391276E+03  0.22818621458E+03  0.91109311017E+02 0.  0.
          5    1    3    3  502    0  0.18910075372E+02  0.24606697005E+01 -0.58818907349E+02  0.61974043822E+02  0.41800000000E+01 0.  1.
         -5    1    3    3    0  502 -0.11127080708E+02  0.75149725621E+02  0.41149967437E+02  0.86499048585E+02  0.41800000000E+01 0.  1.
        -11    1    4    4    0    0  0.41046911492E+02 -0.24675541803E+02 -0.75176613370E+02  0.89136157109E+02  0.00000000000E+00 0.  1.
         11    1    4    4    0    0 -0.48829906156E+02 -0.52934853519E+02 -0.11894729939E+03  0.13905005748E+03  0.00000000000E+00 0. -1.
</event>
<event>
 8    1  0.7075056E-009  0.1580952E+03  0.7561462E-02  0.1190864E+00
         -1   -1    0    0    0  501 -0.00000000000E+00  0.00000000000E+00  0.84021624436E+02  0.84021624436E+02  0.00000000000E+00 0.  1.
          1   -1    0    0  501    0  0.00000000000E+00 -0.00000000000E+00 -0.30968936386E+03  0.30968936386E+03  0.00000000000E+00 0. -1.
         25    2    1    2    0    0 -0.77471493317E+02 -0.91065348140E+02 -0.13601727163E+03  0.22009770070E+03  0.12509024648E+03 0.  0.
         23    2    1    2    0    0  0.77471493317E+02  0.91065348140E+02 -0.89650467798E+02  0.17361328760E+03  0.88372152541E+02 0.  0.
          5    1    3    3  502    0  0.31376014481E+02 -0.19290566711E+02 -0.92610368196E+01  0.38207583694E+02  0.41800000000E+01 0. -1.
         -5    1    3    3    0  502 -0.10884750780E+03 -0.71774781429E+02 -0.12675623481E+03  0.18189011701E+03  0.41800000000E+01 0. -1.
        -11    1    4    4    0    0  0.88884193315E+02  0.42017108621E+02 -0.58871079477E+02  0.11459337344E+03  0.00000000000E+00 0.  1.
         11    1    4    4    0    0 -0.11412699999E+02  0.49048239520E+02 -0.30779388321E+02  0.59019914153E+02  0.00000000000E+00 0. -1.
</event>
<event>
 8    1  0.7075056E-009  0.6060925E+02  0.7561462E-02  0.1395293E+00
          2   -1    0    0  501    0  0.00000000000E+00  0.00000000000E+00  0.12061048508E+03  0.12061048508E+03  0.00000000000E+00 0. -1.
         -2   -1    0    0    0  501 -0.00000000000E+00 -0.00000000000E+00 -0.11500306237E+03  0.11500306237E+03  0.00000000000E+00 0.  1.
         25    2    1    2    0    0 -0.25717074820E+02  0.66192996191E+01 -0.33753292247E+02  0.13225517300E+03  0.12508782109E+03 0.  0.
         23    2    1    2    0    0  0.25717074820E+02 -0.66192996191E+01  0.39360714954E+02  0.10335837444E+03  0.91806887657E+02 0.  0.
          5    1    3    3  502    0 -0.28646446624E+02 -0.22239896447E+01  0.44611468890E+02  0.53228005698E+02  0.41800000000E+01 0. -1.
         -5    1    3    3    0  502  0.29293718040E+01  0.88432892638E+01 -0.78364761137E+02  0.79027167305E+02  0.41800000000E+01 0. -1.
        -11    1    4    4    0    0 -0.27921282896E+02  0.50115773714E-01  0.40621747295E+02  0.49292260077E+02  0.00000000000E+00 0. -1.
         11    1    4    4    0    0  0.53638357717E+02 -0.66694153928E+01 -0.12610323417E+01  0.54066114367E+02  0.00000000000E+00 0.  1.
</event>
<event>
 8    1  0.7075056E-009  0.1728194E+03  0.7561462E-02  0.1174939E+00
          3   -1    0    0  501    0  0.00000000000E+00  0.00000000000E+00  0.82455953763E+02  0.82455953763E+02  0.00000000000E+00 0. -1.
         -3   -1    0    0    0  501 -0.00000000000E+00 -0.00000000000E+00 -0.51657412296E+03  0.51657412296E+03  0.00000000000E+00 0.  1.
         25    2    1    2    0    0  0.86594394104E+02  0.13163810972E+03 -0.33817929813E+03  0.39349713776E+03  0.12509028230E+03 0.  0.
         23    2    1    2    0    0 -0.86594394104E+02 -0.13163810972E+03 -0.95938871071E+02  0.20553293896E+03  0.90621967502E+02 0.  0.
          5    1    3    3  502    0  0.12727278544E+02 -0.76912547434E+01 -0.13687322466E+03  0.13774211791E+03  0.41800000000E+01 0. -1.
         -5    1    3    3    0  502  0.73867115560E+02  0.13932936447E+03 -0.20130607347E+03  0.25575501985E+03  0.41800000000E+01 0. -1.
        -11    1    4    4    0    0  0.95054569231E+01 -0.34539116121E+02  0.43122044913E+01  0.36081842543E+02  0.00000000000E+00 0. -1.
         11    1    4    4    0    0 -0.96099851027E+02 -0.97098993602E+02 -0.10025107556E+03  0.16945109642E+03  0.00000000000E+00 0.  1.
</event>
<event>
 8    1  0.7075056E-009  0.2168418E+03  0.7561462E-02  0.1136260E+00
         -2   -1    0    0    0  501 -0.00000000000E+00  0.00000000000E+00  0.23641021642E+03  0.23641021642E+03  0.00000000000E+00 0. -1.
          2   -1    0    0  501    0  0.00000000000E+00 -0.00000000000E+00 -0.23103890268E+03  0.23103890268E+03  0.00000000000E+00 0.  1.
         25    2    1    2    0    0  0.17647706298E+03 -0.10525959420E+03 -0.29839250711E+02  0.24240745116E+03  0.12508899059E+03 0.  0.
         23    2    1    2    0    0 -0.17647706298E+03  0.10525959420E+03  0.35210564447E+02  0.22504166794E+03  0.84736252755E+02 0.  0.
          5    1    3    3  502    0  0.11627361666E+03 -0.11623244211E+03 -0.58696615922E+02  0.17462044454E+03  0.41800000000E+01 0. -1.
         -5    1    3    3    0  502  0.60203446325E+02  0.10972847906E+02  0.28857365212E+02  0.67787006628E+02  0.41800000000E+01 0. -1.
        -11    1    4    4    0    0 -0.71656005244E+01  0.13560101622E+02 -0.19558489222E+02  0.24854711576E+02  0.00000000000E+00 0.  1.
         11    1    4    4    0    0 -0.16931146246E+03  0.91699492579E+02  0.54769053669E+02  0.20018695637E+03  0.00000000000E+00 0. -1.
</event>
<event>
 8    1  0.7075056E-009  0.8631414E+02  0.7561462E-02  0.1312031E+00
          1   -1    0    0  501    0  0.00000000000E+00  0.00000000000E+00  0.12879580836E+03  0.12879580836E+03  0.00000000000E+00 0. -1.
         -1   -1    0    0    0  501 -0.00000000000E+00 -0.00000000000E+00 -0.97842499757E+02  0.97842499757E+02  0.00000000000E+00 0.  1.
         25    2    1    2    0    0 -0.74342121271E+01 -0.27450144938E+02  0.22758809548E+02  0.13028683546E+03  0.12509163887E+03 0.  0.
         23    2    1    2    0    0  0.74342121271E+01  0.27450144938E+02  0.81944990584E+01  0.96351472655E+02  0.91693393988E+02 0.  0.
          5    1    3    3  502    0  0.55327084282E+02 -0.31660932235E+02  0.20913685280E+02  0.67218714039E+02  0.41800000000E+01 0. -1.
         -5    1    3    3    0  502 -0.62761296409E+02  0.42107872969E+01  0.18451242682E+01  0.63068121425E+02  0.41800000000E+01 0. -1.
        -11    1    4    4    0    0 -0.99719706846E+01  0.26452761141E+02 -0.37777777370E+02  0.47184205348E+02  0.00000000000E+00 0.  1.
         11    1    4    4    0    0  0.17406182812E+02  0.99738379697E+00  0.45972276428E+02  0.49167267308E+02  0.00000000000E+00 0. -1.
</event>
<event>
 8    1  0.7075056E-009  0.9667753E+02  0.7561462E-02  0.1287442E+00
         -1   -1    0    0    0  501 -0.00000000000E+00  0.00000000000E+00  0.75608257378E+02  0.75608257378E+02  0.00000000000E+00 0.  1.
          1   -1    0    0  501    0  0.00000000000E+00 -0.00000000000E+00 -0.16222719788E+03  0.16222719788E+03  0.00000000000E+00 0. -1.
         25    2    1    2    0    0  0.12192047389E+02  0.12286281197E+02 -0.32162700216E+02  0.13031175347E+03  0.12508842905E+03 0.  0.
         23    2    1    2    0    0 -0.12192047389E+02 -0.12286281197E+02 -0.54456240288E+02  0.10752370179E+03  0.91083838388E+02 0.  0.
          5    1    3    3  502    0 -0.45387135642E+02  0.17031611218E+01  0.21826302568E+02  0.50564342410E+02  0.41800000000E+01 0.  1.
         -5    1    3    3    0  502  0.57579183030E+02  0.10583120075E+02 -0.53989002784E+02  0.79747411059E+02  0.41800000000E+01 0.  1.
        -11    1    4    4    0    0 -0.49409584375E+02  0.13129422281E+01 -0.15115516944E+02  0.51686649126E+02  0.00000000000E+00 0.  1.
         11    1    4    4    0    0  0.37217536986E+02 -0.13599223425E+02 -0.39340723344E+02  0.55837052666E+02  0.00000000000E+00 0. -1.
</event>
<event>
 8    1  0.7075056E-009  0.8888756E+02  0.7561462E-02  0.1305568E+00
          1   -1    0    0  501    0  0.00000000000E+00  0.00000000000E+00  0.38557049754E+03  0.38557049754E+03  0.00000000000E+00 0. -1.
         -1   -1    0    0    0  501 -0.00000000000E+00 -0.00000000000E+00 -0.61573323801E+02  0.61573323801E+02  0.00000000000E+00 0.  1.
         25    2    1    2    0    0  0.37627663451E+02 -0.15927255198E+02  0.32146696572E+03  0.34735887430E+03  0.12509060312E+03 0.  0.
         23    2    1    2    0    0 -0.37627663451E+02  0.15927255198E+02  0.25302080151E+01  0.99784947039E+02  0.91000632899E+02 0.  0.
          5    1    3    3  502    0 -0.34224858203E+01 -0.66119537791E+02  0.15109132646E+03  0.16501384190E+03  0.41800000000E+01 0.  1.
         -5    1    3    3    0  502  0.41050149272E+02  0.50192282593E+02  0.17037563926E+03  0.18234503240E+03  0.41800000000E+01 0.  1.
        -11    1    4    4    0    0 -0.18662448433E+02  0.19685178706E+02  0.45327021692E+02  0.52823594517E+02  0.00000000000E+00 0. -1.
         11    1    4    4    0    0 -0.18965215019E+02 -0.37579235080E+01 -0.42796813677E+02  0.46961352522E+02  0.00000000000E+00 0.  1.
</event>
<event>
 8    1  0.7075056E-009  0.2304821E+03  0.7561462E-02  0.1126301E+00
          1   -1    0    0  501    0  0.00000000000E+00  0.00000000000E+00  0.38212893977E+03  0.38212893977E+03  0.00000000000E+00 0.  1.
         -1   -1    0    0    0  501 -0.00000000000E+00 -0.00000000000E+00 -0.22762871243E+03  0.22762871243E+03  0.00000000000E+00 0. -1.
         25    2    1    2    0    0  0.31422935033E+01 -0.20718246657E+03  0.26557783567E+03  0.35932339899E+03  0.12508904749E+03 0.  0.
         23    2    1    2    0    0 -0.31422935033E+01  0.20718246657E+03 -0.11107760833E+03  0.25043425321E+03  0.86282278866E+02 0.  0.
          5    1    3    3  502    0  0.39915184580E+02 -0.19335522745E+03  0.18998041616E+03  0.27402462821E+03  0.41800000000E+01 0. -1.
         -5    1    3    3    0  502 -0.36772891077E+02 -0.13827239115E+02  0.75597419510E+02  0.85298770779E+02  0.41800000000E+01 0. -1.
        -11    1    4    4    0    0  0.36472774734E+02  0.50045924858E+02 -0.38090259564E+02  0.72702996949E+02  0.00000000000E+00 0. -1.
         11    1    4    4    0    0 -0.39615068237E+02  0.15713654171E+03 -0.72987348767E+02  0.17773125626E+03  0.00000000000E+00 0.  1.
</event>
<event>
 8    1  0.7075056E-009  0.1151972E+03  0.7561462E-02  0.1251237E+00
         -2   -1    0    0    0  501 -0.00000000000E+00  0.00000000000E+00  0.24151447698E+03  0.24151447698E+03  0.00000000000E+00 0.  1.
          2   -1    0    0  501    0  0.00000000000E+00 -0.00000000000E+00 -0.73319418375E+02  0.73319418375E+02  0.00000000000E+00 0. -1.
         25    2    1    2    0    0  0.20766593098E+01  0.74561846122E+02  0.66972510658E+02  0.16030668741E+03  0.12509650449E+03 0.  0.
         23    2    1    2    0    0 -0.20766593098E+01 -0.74561846122E+02  0.10122254795E+03  0.15452720794E+03  0.89826902266E+02 0.  0.
          5    1    3    3  502    0 -0.85295869188E+01  0.10537280186E+03  0.28212434199E+02  0.10949700940E+03  0.41800000000E+01 0. -1.
         -5    1    3    3    0  502  0.10606246229E+02 -0.30810955737E+02  0.38760076458E+02  0.50809678011E+02  0.41800000000E+01 0. -1.
        -11    1    4    4    0    0  0.25631599917E+02 -0.32868855648E+02  0.95426364367E+02  0.10413227935E+03  0.00000000000E+00 0.  1.
         11    1    4    4    0    0 -0.27708259226E+02 -0.41692990474E+02  0.57961835810E+01  0.50394928595E+02  0.00000000000E+00 0. -1.
</event>
<event>
 8    1  0.7075056E-009  0.1275683E+03  0.7561462E-02  0.1231109E+00
         -2   -1    0    0    0  501 -0.00000000000E+00  0.00000000000E+00  0.75749633779E+02  0.75749633779E+02  0.00000000000E+00 0.  1.
          2   -1    0    0  501    0  0.00000000000E+00 -0.00000000000E+00 -0.36033822409E+03  0.36033822409E+03  0.00000000000E+00 0. -1.
         25    2    1    2    0    0 -0.58899011065E+02  0.91920910429E+02 -0.80876227754E+02  0.18468690871E+03  0.12509893187E+03 0.  0.
         23    2    1    2    0    0  0.58899011065E+02 -0.91920910429E+02 -0.20371236255E+03  0.25140094916E+03  0.98919984333E+02 0.  0.
          5    1    3    3  502    0 -0.54954175945E+02  0.93521534109E+02 -0.50961830120E+01  0.10867236207E+03  0.41800000000E+01 0.  1.
         -5    1    3    3    0  502 -0.39448351199E+01 -0.16006236806E+01 -0.75780044742E+02  0.76014546644E+02  0.41800000000E+01 0.  1.
        -11    1    4    4    0    0 -0.23406650961E+02 -0.27400779112E+02 -0.89806445371E+02  0.96767099964E+02  0.00000000000E+00 0. -1.
         11    1    4    4    0    0  0.82305662026E+02 -0.64520131316E+02 -0.11390591718E+03  0.15463384919E+03  0.00000000000E+00 0.  1.
</event>
<event>
 8    1  0.7075056E-009  0.5970587E+02  0.7561462E-02  0.1399070E+00
          2   -1    0    0  501    0  0.00000000000E+00  0.00000000000E+00  0.30268521906E+02  0.30268521906E+02  0.00000000000E+00 0. -1.
         -2   -1    0    0    0  501 -0.00000000000E+00 -0.00000000000E+00 -0.42308210941E+03  0.42308210941E+03  0.00000000000E+00 0.  1.
         25    2    1    2    0    0 -0.12098793965E+02  0.33563415628E+02 -0.23494822046E+03  0.26855311535E+03  0.12508887153E+03 0.  0.
         23    2    1    2    0    0  0.12098793965E+02 -0.33563415628E+02 -0.15786536704E+03  0.18479751597E+03  0.89195090182E+02 0.  0.
          5    1    3    3  502    0 -0.19934502812E+02 -0.71979959109E+00 -0.23213365571E+03  0.23302662729E+03  0.41800000000E+01 0.  1.
         -5    1    3    3    0  502  0.78357088475E+01  0.34283215219E+02 -0.28145647515E+01  0.35526488057E+02  0.41800000000E+01 0.  1.
        -11    1    4    4    0    0 -0.20489297839E+02 -0.18922119897E+02 -0.56640353317E+01  0.28459431540E+02  0.00000000000E+00 0. -1.
         11    1    4    4    0    0  0.32588091804E+02 -0.14641295731E+02 -0.15220133171E+03  0.15633808443E+03  0.00000000000E+00 0.  1.
</event>
<event>
 8    1  0.7075056E-009  0.8190388E+02  0.7561462E-02  0.1323734E+00
         -1   -1    0    0    0  501 -0.00000000000E+00  0.00000000000E+00  0.34930003973E+03  0.34930003973E+03  0.00000000000E+00 0.  1.
          1   -1    0    0  501    0  0.00000000000E+00 -0.00000000000E+00 -0.43749867517E+02  0.43749867517E+02  0.00000000000E+00 0. -1.
         25    2    1    2    0    0 -0.25234993335E+02 -0.45551335626E+02  0.21471831557E+03  0.25389394503E+03  0.12508577543E+03 0.  0.
         23    2    1    2    0    0  0.25234993335E+02  0.45551335626E+02  0.90831856650E+02  0.13915596223E+03  0.91663660054E+02 0.  0.
          5    1    3    3  502    0  0.74937758822E+01 -0.15717984294E+00 -0.15075388131E+02  0.17347077845E+02  0.41800000000E+01 0. -1.
         -5    1    3    3    0  502 -0.32728769217E+02 -0.45394155783E+02  0.22979370370E+03  0.23654686718E+03  0.41800000000E+01 0. -1.
        -11    1    4    4    0    0  0.46646204530E+02 -0.22803821651E+01  0.66791769375E+02  0.81499748442E+02  0.00000000000E+00 0.  1.
         11    1    4    4    0    0 -0.21411211195E+02  0.47831717791E+02  0.24040087275E+02  0.57656213784E+02  0.00000000000E+00 0. -1.
</event>
<event>
 8    1  0.7075056E-009  0.9272482E+02  0.7561462E-02  0.1296384E+00
         -2   -1    0    0    0  501 -0.00000000000E+00  0.00000000000E+00  0.28688003986E+03  0.28688003986E+03  0.00000000000E+00 0.  1.
          2   -1    0    0  501    0  0.00000000000E+00 -0.00000000000E+00 -0.45573735755E+02  0.45573735755E+02  0.00000000000E+00 0. -1.
         25    2    1    2    0    0 -0.34930743553E+02  0.10157922869E+02  0.14276833820E+03  0.19326952248E+03  0.12508784788E+03 0.  0.
         23    2    1    2    0    0  0.34930743553E+02 -0.10157922869E+02  0.98537965910E+02  0.13918425313E+03  0.91319140123E+02 0.  0.
          5    1    3    3  502    0  0.46837545880E+02 -0.34116358456E+01  0.47597843446E+02  0.66995686905E+02  0.41800000000E+01 0. -1.
         -5    1    3    3    0  502 -0.81768289433E+02  0.13569558714E+02  0.95170494751E+02  0.12627383558E+03  0.41800000000E+01 0. -1.
        -11    1    4    4    0    0  0.12879691753E+02 -0.25417383981E+02  0.10726397980E+03  0.11098419361E+03  0.00000000000E+00 0.  1.
         11    1    4    4    0    0  0.22051051801E+02  0.15259461112E+02 -0.87260138901E+01  0.28200059528E+02  0.00000000000E+00 0. -1.
</event>
<event>
 8    1  0.7075056E-009  0.1166009E+03  0.7561462E-02  0.1248812E+00
          1   -1    0    0  501    0  0.00000000000E+00  0.00000000000E+00  0.12955518256E+03  0.12955518256E+03  0.00000000000E+00 0. -1.
         -1   -1    0    0    0  501 -0.00000000000E+00 -0.00000000000E+00 -0.13432905450E+03  0.13432905450E+03  0.00000000000E+00 0.  1.
         25    2    1    2    0    0 -0.56487050632E+00 -0.54489635759E+02  0.49400377633E+02  0.14510612110E+03  0.12508377027E+03 0.  0.
         23    2    1    2    0    0  0.56487050632E+00  0.54489635759E+02 -0.54174249576E+02  0.11877811596E+03  0.90575670187E+02 0.  0.
          5    1    3    3  502    0  0.40059634972E+02  0.23130929848E+02  0.29953808457E+02  0.55267687765E+02  0.41800000000E+01 0.  1.
         -5    1    3    3    0  502 -0.40624505479E+02 -0.77620565607E+02  0.19446569175E+02  0.89838433331E+02  0.41800000000E+01 0.  1.
        -11    1    4    4    0    0 -0.39102186586E+02  0.11961630248E+02 -0.24765365369E+01  0.40965776292E+02  0.00000000000E+00 0. -1.
         11    1    4    4    0    0  0.39667057092E+02  0.42528005511E+02 -0.51697713039E+02  0.77812339668E+02  0.00000000000E+00 0.  1.
</event>
<event>
 8    1  0.7075056E-009  0.1237661E+03  0.7561462E-02  0.1237010E+00
         -1   -1    0    0    0  501 -0.00000000000E+00  0.00000000000E+00  0.18162148582E+03  0.18162148582E+03  0.00000000000E+00 0.  1.
          1   -1    0    0  501    0  0.00000000000E+00 -0.00000000000E+00 -0.14929940728E+03  0.14929940728E+03  0.00000000000E+00 0. -1.
         25    2    1    2    0    0 -0.10035817189E+03  0.59467673012E+02 -0.19340597760E+02  0.17213174589E+03  0.12508841841E+03 0.  0.
         23    2    1    2    0    0  0.10035817189E+03 -0.59467673012E+02  0.51662676305E+02  0.15878914721E+03  0.94534619854E+02 0.  0.
          5    1    3    3  502    0 -0.62125098357E+02  0.61891019531E+02  0.43836868868E+02  0.98128332385E+02  0.41800000000E+01 0.  1.
         -5    1    3    3    0  502 -0.38233073535E+02 -0.24233465191E+01 -0.63177466628E+02  0.74003413501E+02  0.41800000000E+01 0.  1.
        -11    1    4    4    0    0  0.27708827788E+02 -0.63034006351E+00  0.58826171833E+02  0.65028416546E+02  0.00000000000E+00 0.  1.
         11    1    4    4    0    0  0.72649344104E+02 -0.58837332949E+02 -0.71634955278E+01  0.93760730668E+02  0.00000000000E+00 0. -1.
</event>
<event>
 8    1  0.7075056E-009  0.1153475E+03  0.7561462E-02  0.1250976E+00
         -2   -1    0    0    0  501 -0.00000000000E+00  0.00000000000E+00  0.34249448407E+02  0.34249448407E+02  0.00000000000E+00 0.  1.
          2   -1    0    0  501    0  0.00000000000E+00 -0.00000000000E+00 -0.44422437396E+03  0.44422437396E+03  0.00000000000E+00 0. -1.
         25    2    1    2    0    0 -0.50159698749E+02 -0.97330713142E+01 -0.26327388606E+03  0.29592343295E+03  0.12508721371E+03 0.  0.
         23    2    1    2    0    0  0.50159698749E+02  0.97330713142E+01 -0.14670103949E+03  0.18255038941E+03  0.95878681840E+02 0.  0.
          5    1    3    3  502    0 -0.89856680617E+02  0.95394169193E+01 -0.18627981136E+03  0.20708178106E+03  0.41800000000E+01 0. -1.
         -5    1    3    3    0  502  0.39696981867E+02 -0.19272488234E+02 -0.76994074698E+02  0.88841651890E+02  0.41800000000E+01 0. -1.
        -11    1    4    4    0    0 -0.16885438771E+02  0.22020601960E+02 -0.94646836760E+01  0.29319024374E+02  0.00000000000E+00 0.  1.
         11    1    4    4    0    0  0.67045137520E+02 -0.12287530645E+02 -0.13723635581E+03  0.15323136504E+03  0.00000000000E+00 0. -1.
</event>
<event>
 8    1  0.7075056E-009  0.1658717E+03  0.7561462E-02  0.1182223E+00
         -1   -1    0    0    0  501 -0.00000000000E+00  0.00000000000E+00  0.32934370201E+03  0.32934370201E+03  0.00000000000E+00 0.  1.
          1   -1    0    0  501    0  0.00000000000E+00 -0.00000000000E+00 -0.10336366464E+03  0.10336366464E+03  0.00000000000E+00 0. -1.
         25    2    1    2    0    0  0.14762495899E+03 -0.33686244363E+01  0.99186427188E+02  0.21746409783E+03  0.12509280698E+03 0.  0.
         23    2    1    2    0    0 -0.14762495899E+03  0.33686244363E+01  0.12679361018E+03  0.21524326882E+03  0.91916097838E+02 0.  0.
          5    1    3    3  502    0  0.85001567325E+02 -0.44295885952E+02  0.10509700521E+03  0.14230335507E+03  0.41800000000E+01 0. -1.
         -5    1    3    3    0  502  0.62623391663E+02  0.40927261516E+02 -0.59105780263E+01  0.75160742753E+02  0.41800000000E+01 0. -1.
        -11    1    4    4    0    0 -0.25897667300E+02 -0.24878916683E+02  0.68523127935E+02  0.77363225947E+02  0.00000000000E+00 0.  1.
         11    1    4    4    0    0 -0.12172729169E+03  0.28247541119E+02  0.58270482250E+02  0.13788004287E+03  0.00000000000E+00 0. -1.
</event>
<event>
 8    1  0.7075056E-009  0.1183569E+03  0.7561462E-02  0.1245833E+00
         -1   -1    0    0    0  501 -0.00000000000E+00  0.00000000000E+00  0.23279785711E+02  0.23279785711E+02  0.00000000000E+00 0.  1.
          1   -1    0    0  501    0  0.00000000000E+00 -0.00000000000E+00 -0.85806046997E+03  0.85806046997E+03  0.00000000000E+00 0. -1.
         25    2    1    2    0    0  0.23966474126E+02  0.86165629698E+02 -0.41921492414E+03  0.44652923227E+03  0.12509314541E+03 0.  0.
         23    2    1    2    0    0 -0.23966474126E+02 -0.86165629698E+02 -0.41556576013E+03  0.43481102342E+03  0.91470309234E+02 0.  0.
          5    1    3    3  502    0 -0.21867587151E+02  0.41489288793E+02 -0.34601006997E+03  0.34919907413E+03  0.41800000000E+01 0. -1.
         -5    1    3    3    0  502  0.45834061277E+02  0.44676340905E+02 -0.73204854162E+02  0.97330158136E+02  0.41800000000E+01 0. -1.
        -11    1    4    4    0    0 -0.43632212372E+02 -0.73408806889E+01 -0.18931331030E+03  0.19441498899E+03  0.00000000000E+00 0.  1.
         11    1    4    4    0    0  0.19665738246E+02 -0.78824749009E+02 -0.22625244982E+03  0.24039603443E+03  0.00000000000E+00 0. -1.
</event>
<event>
 8    1  0.7075056E-009  0.1095364E+03  0.7561462E-02  0.1261431E+00
          2   -1    0    0  501    0  0.00000000000E+00  0.00000000000E+00  0.18379055886E+03  0.18379055886E+03  0.00000000000E+00 0. -1.
         -2   -1    0    0    0  501 -0.00000000000E+00 -0.00000000000E+00 -0.90568530971E+02  0.90568530971E+02  0.00000000000E+00 0.  1.
         25    2    1    2    0    0 -0.43134797663E+02 -0.22627792641E+02 -0.37285389233E+01  0.13429273191E+03  0.12509199843E+03 0.  0.
         23    2    1    2    0    0  0.43134797663E+02  0.22627792641E+02  0.96950566811E+02  0.14006635792E+03  0.88580722776E+02 0.  0.
          5    1    3    3  502    0  0.14044650158E+02 -0.55806512473E+02 -0.27499239804E+02  0.63916348631E+02  0.41800000000E+01 0. -1.
         -5    1    3    3    0  502 -0.57179447821E+02  0.33178719832E+02  0.23770700881E+02  0.70376383277E+02  0.41800000000E+01 0. -1.
        -11    1    4    4    0    0  0.66458103387E+02  0.64944427923E+01  0.43904561272E+02  0.79915378954E+02  0.00000000000E+00 0.  1.
         11    1    4    4    0    0 -0.23323305724E+02  0.16133349848E+02  0.53046005539E+02  0.60150978968E+02  0.00000000000E+00 0. -1.
</event>
<event>
 8    1  0.7075056E-009  0.1145434E+03  0.7561462E-02  0.1252380E+00
          2   -1    0    0  501    0  0.00000000000E+00  0.00000000000E+00  0.14752020635E+03  0.14752020635E+03  0.00000000000E+00 0. -1.
         -2   -1    0    0    0  501 -0.00000000000E+00 -0.00000000000E+00 -0.13562324153E+03  0.13562324153E+03  0.00000000000E+00 0.  1.
         25    2    1    2    0    0 -0.51457479075E+02 -0.54478296461E+02  0.56505525010E+02  0.15638456796E+03  0.12508997482E+03 0.  0.
         23    2    1    2    0    0  0.51457479075E+02  0.54478296461E+02 -0.44608560188E+02  0.12675887993E+03  0.91989853027E+02 0.  0.
          5    1    3    3  502    0 -0.86206721103E+02 -0.73465355958E+01  0.27335841688E+02  0.90831112452E+02  0.41800000000E+01 0.  1.
         -5    1    3    3    0  502  0.34749242027E+02 -0.47131760866E+02  0.29169683322E+02  0.65553455507E+02  0.41800000000E+01 0.  1.
        -11    1    4    4    0    0  0.17916875283E+02  0.45705564518E+02  0.20338241661E+02  0.53138094825E+02  0.00000000000E+00 0. -1.
         11    1    4    4    0    0  0.33540603792E+02  0.87727319436E+01 -0.64946801849E+02  0.73620785101E+02  0.00000000000E+00 0.  1.
</event>
