<event>
 7    1  0.5400401E-006  0.1656594E+03  0.7546771E-02  0.1188525E+00
          2   -1    0    0  501    0  0.00000000000E+00  0.00000000000E+00  0.27511454068E+03  0.27511454068E+03  0.00000000000E+00 0. -1.
         -2   -1    0    0    0  501 -0.00000000000E+00 -0.00000000000E+00 -0.88045094626E+02  0.88045094626E+02  0.00000000000E+00 0.  1.
         23    2    1    2    0    0 -0.10692572520E+03 -0.32768086006E+02  0.85987440969E+02  0.18664639765E+03  0.12221366365E+03 0.  0.
          5    1    3    3  502    0 -0.11895126362E+03 -0.56475975526E+01  0.97999912932E+02  0.15429637523E+03  0.47000000000E+01 0. -1.
         -5    1    3    3    0  502  0.12025538417E+02 -0.27120488453E+02 -0.12012471962E+02  0.32350022424E+02  0.47000000000E+01 0.  1.
        -11    1    1    2    0    0  0.33168209264E+02 -0.24232683734E+02  0.29778853271E+01  0.41185202048E+02  0.00000000000E+00 0.  1.
         11    1    1    2    0    0  0.73757515936E+02  0.57000769740E+02  0.98104119762E+02  0.13532803561E+03  0.00000000000E+00 0. -1.
<mgrwt>
<rscale>  0 0.16015204E+03</rscale>
<asrwt>0</asrwt>
<pdfrwt beam="1">  1        2 0.42325314E-01 0.16565940E+03</pdfrwt>
<pdfrwt beam="2">  1       -2 0.13545399E-01 0.16565940E+03</pdfrwt>
<totfact> 0.47244965E+03</totfact>
</mgrwt>
</event>
<event>
 7    1  0.5400401E-006  0.1779243E+03  0.7546771E-02  0.1174866E+00
         -1   -1    0    0    0  501 -0.00000000000E+00  0.00000000000E+00  0.52396488871E+02  0.52396488871E+02  0.00000000000E+00 0.  1.
          1   -1    0    0  501    0  0.00000000000E+00 -0.00000000000E+00 -0.67776300504E+03  0.67776300504E+03  0.00000000000E+00 0. -1.
         23    2    1    2    0    0  0.11097390888E+03 -0.60958277809E+02 -0.16286183704E+03  0.24120743109E+03  0.12500370701E+03 0.  0.
          5    1    3    3  502    0  0.12645038652E+03 -0.65657276324E+02 -0.17089360380E+03  0.22254728038E+03  0.47000000000E+01 0. -1.
         -5    1    3    3    0  502 -0.15476477638E+02  0.46989985153E+01  0.80317667661E+01  0.18660150710E+02  0.47000000000E+01 0. -1.
        -11    1    1    2    0    0 -0.11301029347E+03  0.28335324584E+02 -0.27566531905E+03  0.29927509949E+03  0.00000000000E+00 0.  1.
         11    1    1    2    0    0  0.20363845847E+01  0.32622953225E+02 -0.18683936009E+03  0.18967696333E+03  0.00000000000E+00 0. -1.
<mgrwt>
<rscale>  0 0.17289119E+03</rscale>
<asrwt>0</asrwt>
<pdfrwt beam="2">  1        1 0.10427123E+00 0.17792427E+03</pdfrwt>
<pdfrwt beam="1">  1       -1 0.80609986E-02 0.17792427E+03</pdfrwt>
<totfact> 0.24872979E+03</totfact>
</mgrwt>
</event>
<event>
 7    1  0.5400401E-006  0.1924190E+03  0.7546771E-02  0.1158204E+00
         -1   -1    0    0    0  501 -0.00000000000E+00  0.00000000000E+00  0.35248031087E+03  0.35248031087E+03  0.00000000000E+00 0.  1.
          1   -1    0    0  501    0  0.00000000000E+00 -0.00000000000E+00 -0.10883685143E+03  0.10883685143E+03  0.00000000000E+00 0. -1.
         23    2    1    2    0    0 -0.13079376343E+02 -0.14570305509E+03  0.18811869620E+03  0.26909797374E+03  0.12499850104E+03 0.  0.
          5    1    3    3  502    0  0.44017260907E+02 -0.10393205082E+02  0.45598505970E+02  0.64396053577E+02  0.47000000000E+01 0.  1.
         -5    1    3    3    0  502 -0.57096637249E+02 -0.13530985001E+03  0.14252019024E+03  0.20470192016E+03  0.47000000000E+01 0.  1.
        -11    1    1    2    0    0  0.48738743305E+02  0.84949482727E+02  0.69897051268E+02  0.12032238981E+03  0.00000000000E+00 0.  1.
         11    1    1    2    0    0 -0.35659366963E+02  0.60753572361E+02 -0.14372288026E+02  0.71896798746E+02  0.00000000000E+00 0. -1.
<mgrwt>
<rscale>  0 0.19028529E+03</rscale>
<asrwt>0</asrwt>
<pdfrwt beam="2">  1        1 0.16744131E-01 0.19241901E+03</pdfrwt>
<pdfrwt beam="1">  1       -1 0.54227740E-01 0.19241901E+03</pdfrwt>
<totfact> 0.11292940E+03</totfact>
</mgrwt>
</event>
<event>
 7    1  0.5400401E-006  0.1418279E+03  0.7546771E-02  0.1221481E+00
         -1   -1    0    0    0  501 -0.00000000000E+00  0.00000000000E+00  0.21616484114E+02  0.21616484114E+02  0.00000000000E+00 0.  1.
          1   -1    0    0  501    0  0.00000000000E+00 -0.00000000000E+00 -0.87665851902E+03  0.87665851902E+03  0.00000000000E+00 0. -1.
         23    2    1    2    0    0 -0.40261109387E+02 -0.53562326269E+02 -0.30088133236E+03  0.33263300826E+03  0.12500104918E+03 0.  0.
          5    1    3    3  502    0  0.51596084340E+01  0.16881725342E+02  0.19590320624E+01  0.18372316576E+02  0.47000000000E+01 0.  1.
         -5    1    3    3    0  502 -0.45420717821E+02 -0.70444051612E+02 -0.30284036442E+03  0.31426069168E+03  0.47000000000E+01 0.  1.
        -11    1    1    2    0    0  0.56984888311E+02  0.27398006966E+00 -0.25198742212E+03  0.25835056313E+03  0.00000000000E+00 0. -1.
         11    1    1    2    0    0 -0.16723778924E+02  0.53288346199E+02 -0.30217328043E+03  0.30729143175E+03  0.00000000000E+00 0.  1.
<mgrwt>
<rscale>  0 0.13411047E+03</rscale>
<asrwt>0</asrwt>
<pdfrwt beam="2">  1        1 0.13487056E+00 0.14182786E+03</pdfrwt>
<pdfrwt beam="1">  1       -1 0.33256125E-02 0.14182786E+03</pdfrwt>
<totfact> 0.62716487E+03</totfact>
</mgrwt>
</event>
<event>
 7    1  0.5400401E-006  0.1427543E+03  0.7546771E-02  0.1217034E+00
          1   -1    0    0  501    0  0.00000000000E+00  0.00000000000E+00  0.10973189620E+03  0.10973189620E+03  0.00000000000E+00 0. -1.
         -1   -1    0    0    0  501 -0.00000000000E+00 -0.00000000000E+00 -0.16003203960E+03  0.16003203960E+03  0.00000000000E+00 0.  1.
         23    2    1    2    0    0 -0.25941088828E+01 -0.68897125503E+02 -0.32157933627E+02  0.14633156534E+03  0.12500100406E+03 0.  0.
          5    1    3    3  502    0 -0.70095539595E+00  0.86856994247E+01 -0.62198589213E+02  0.62981641873E+02  0.47000000000E+01 0.  1.
         -5    1    3    3    0  502 -0.18931534868E+01 -0.77582824928E+02  0.30040655585E+02  0.83349923467E+02  0.47000000000E+01 0.  1.
        -11    1    1    2    0    0  0.34115865550E+02  0.33936858525E+02  0.29511530212E+02  0.56449384977E+02  0.00000000000E+00 0. -1.
         11    1    1    2    0    0 -0.31521756668E+02  0.34960266978E+02 -0.47653739982E+02  0.66982985488E+02  0.00000000000E+00 0.  1.
<mgrwt>
<rscale>  0 0.13728199E+03</rscale>
<asrwt>0</asrwt>
<pdfrwt beam="1">  1        1 0.16881830E-01 0.14275431E+03</pdfrwt>
<pdfrwt beam="2">  1       -1 0.24620314E-01 0.14275431E+03</pdfrwt>
<totfact> 0.43731425E+03</totfact>
</mgrwt>
</event>
<event>
 7    1  0.5400401E-006  0.1419793E+03  0.7546771E-02  0.1222160E+00
          2   -1    0    0  501    0  0.00000000000E+00  0.00000000000E+00  0.75034178067E+02  0.75034178067E+02  0.00000000000E+00 0. -1.
         -2   -1    0    0    0  501 -0.00000000000E+00 -0.00000000000E+00 -0.24328139961E+03  0.24328139961E+03  0.00000000000E+00 0.  1.
         23    2    1    2    0    0  0.41981657301E+02  0.52626161174E+02 -0.14794490111E+03  0.20505077954E+03  0.12500462406E+03 0.  0.
          5    1    3    3  502    0  0.81337792421E+02  0.31740557709E+02 -0.13025855538E+03  0.15688429089E+03  0.47000000000E+01 0.  1.
         -5    1    3    3    0  502 -0.39356135120E+02  0.20885603464E+02 -0.17686345731E+02  0.48166488651E+02  0.47000000000E+01 0.  1.
        -11    1    1    2    0    0 -0.22409314189E+02  0.89436329982E+00 -0.45675406888E+02  0.50884379160E+02  0.00000000000E+00 0.  1.
         11    1    1    2    0    0 -0.19572343112E+02 -0.53520524474E+02  0.25373086456E+02  0.62380418972E+02  0.00000000000E+00 0. -1.
<mgrwt>
<rscale>  0 0.13363485E+03</rscale>
<asrwt>0</asrwt>
<pdfrwt beam="1">  1        2 0.11543720E-01 0.14197932E+03</pdfrwt>
<pdfrwt beam="2">  1       -2 0.37427908E-01 0.14197932E+03</pdfrwt>
<totfact> 0.34836638E+03</totfact>
</mgrwt>
</event>
<event>
 7    1  0.5400401E-006  0.1610522E+03  0.7546771E-02  0.1194751E+00
          1   -1    0    0  501    0  0.00000000000E+00  0.00000000000E+00  0.38698448316E+03  0.38698448316E+03  0.00000000000E+00 0. -1.
         -1   -1    0    0    0  501 -0.00000000000E+00 -0.00000000000E+00 -0.81836251241E+02  0.81836251241E+02  0.00000000000E+00 0.  1.
         23    2    1    2    0    0  0.78010312841E+02  0.65030738433E+02  0.33575097338E+02  0.16451476450E+03  0.12499285870E+03 0.  0.
          5    1    3    3  502    0  0.90177022282E+02 -0.43957590948E+01  0.18215270359E+02  0.92223121395E+02  0.47000000000E+01 0. -1.
         -5    1    3    3    0  502 -0.12166709440E+02  0.69426497527E+02  0.15359826979E+02  0.72291643102E+02  0.47000000000E+01 0. -1.
        -11    1    1    2    0    0 -0.44547070321E+02  0.12811622243E+01  0.35966451237E+02  0.57268389758E+02  0.00000000000E+00 0.  1.
         11    1    1    2    0    0 -0.33463242520E+02 -0.66311900657E+02  0.23560668335E+03  0.24703758015E+03  0.00000000000E+00 0. -1.
<mgrwt>
<rscale>  0 0.15475312E+03</rscale>
<asrwt>0</asrwt>
<pdfrwt beam="1">  1        1 0.59536073E-01 0.16105223E+03</pdfrwt>
<pdfrwt beam="2">  1       -1 0.12590193E-01 0.16105223E+03</pdfrwt>
<totfact> 0.26330833E+03</totfact>
</mgrwt>
</event>
<event>
 7    1  0.5400401E-006  0.1588896E+03  0.7546771E-02  0.1197896E+00
          1   -1    0    0  501    0  0.00000000000E+00  0.00000000000E+00  0.63882025801E+02  0.63882025801E+02  0.00000000000E+00 0. -1.
         -1   -1    0    0    0  501 -0.00000000000E+00 -0.00000000000E+00 -0.33495820368E+03  0.33495820368E+03  0.00000000000E+00 0.  1.
         23    2    1    2    0    0 -0.98051334082E+02 -0.27106460524E+01 -0.15442238474E+03  0.22156751702E+03  0.12499791987E+03 0.  0.
          5    1    3    3  502    0 -0.12509496992E+03  0.14902497890E+02 -0.11797673673E+03  0.17265988634E+03  0.47000000000E+01 0.  1.
         -5    1    3    3    0  502  0.27043635843E+02 -0.17613143942E+02 -0.36445648015E+02  0.48907630676E+02  0.47000000000E+01 0.  1.
        -11    1    1    2    0    0  0.81013288320E+02  0.37776119265E+02 -0.57018779405E+02  0.10602513511E+03  0.00000000000E+00 0.  1.
         11    1    1    2    0    0  0.17038045762E+02 -0.35065473212E+02 -0.59635013736E+02  0.71247577350E+02  0.00000000000E+00 0. -1.
<mgrwt>
<rscale>  0 0.15211687E+03</rscale>
<asrwt>0</asrwt>
<pdfrwt beam="1">  1        1 0.98280039E-02 0.15888956E+03</pdfrwt>
<pdfrwt beam="2">  1       -1 0.51532032E-01 0.15888956E+03</pdfrwt>
<totfact> 0.24875747E+03</totfact>
</mgrwt>
</event>
<event>
 7    1  0.5400401E-006  0.1482623E+03  0.7546771E-02  0.1212399E+00
          3   -1    0    0  501    0  0.00000000000E+00  0.00000000000E+00  0.26990146067E+02  0.26990146067E+02  0.00000000000E+00 0. -1.
         -3   -1    0    0    0  501 -0.00000000000E+00 -0.00000000000E+00 -0.95405287130E+03  0.95405287130E+03  0.00000000000E+00 0.  1.
         23    2    1    2    0    0  0.36328471042E+02  0.70978406330E+02 -0.76510619152E+03  0.77933893860E+03  0.12499601973E+03 0.  0.
          5    1    3    3  502    0  0.81895757927E+01  0.56338120299E+02 -0.11464962725E+03  0.12809246652E+03  0.47000000000E+01 0. -1.
         -5    1    3    3    0  502  0.28138895250E+02  0.14640286031E+02 -0.65045656427E+03  0.65124647208E+03  0.47000000000E+01 0. -1.
        -11    1    1    2    0    0 -0.42040271679E+02 -0.22004433068E+02 -0.13982843754E+03  0.14766032460E+03  0.00000000000E+00 0.  1.
         11    1    1    2    0    0  0.57118006362E+01 -0.48973973262E+02 -0.22128096178E+02  0.54043754163E+02  0.00000000000E+00 0. -1.
<mgrwt>
<rscale>  0 0.14069342E+03</rscale>
<asrwt>0</asrwt>
<pdfrwt beam="1">  1        3 0.41523307E-02 0.14826226E+03</pdfrwt>
<pdfrwt beam="2">  1       -3 0.14677734E+00 0.14826226E+03</pdfrwt>
<totfact> 0.26153738E+02</totfact>
</mgrwt>
</event>
<event>
 7    1  0.5400401E-006  0.1538081E+03  0.7546771E-02  0.1204058E+00
          1   -1    0    0  501    0  0.00000000000E+00  0.00000000000E+00  0.66115956685E+03  0.66115956685E+03  0.00000000000E+00 0. -1.
         -1   -1    0    0    0  501 -0.00000000000E+00 -0.00000000000E+00 -0.30530448008E+02  0.30530448008E+02  0.00000000000E+00 0.  1.
         23    2    1    2    0    0 -0.45824919123E+02  0.77014250101E+02  0.37942595385E+03  0.40941542737E+03  0.12500327907E+03 0.  0.
          5    1    3    3  502    0  0.10510938028E+02 -0.17937891638E+02  0.94998295068E+01  0.23336335087E+02  0.47000000000E+01 0.  1.
         -5    1    3    3    0  502 -0.56335857151E+02  0.94952141740E+02  0.36992612435E+03  0.38607909228E+03  0.47000000000E+01 0.  1.
        -11    1    1    2    0    0  0.11415486831E+02 -0.78442600184E+02  0.22628131428E+03  0.23976402578E+03  0.00000000000E+00 0. -1.
         11    1    1    2    0    0  0.34409432292E+02  0.14283500822E+01  0.24921850706E+02  0.42510561714E+02  0.00000000000E+00 0.  1.
<mgrwt>
<rscale>  0 0.14711912E+03</rscale>
<asrwt>0</asrwt>
<pdfrwt beam="1">  1        1 0.10171685E+00 0.15380812E+03</pdfrwt>
<pdfrwt beam="2">  1       -1 0.46969925E-02 0.15380812E+03</pdfrwt>
<totfact> 0.57587903E+03</totfact>
</mgrwt>
</event>
<event>
 7    1  0.5400401E-006  0.1281726E+03  0.7546771E-02  0.1244257E+00
          1   -1    0    0  501    0  0.00000000000E+00  0.00000000000E+00  0.35030346165E+03  0.35030346165E+03  0.00000000000E+00 0. -1.
         -1   -1    0    0    0  501 -0.00000000000E+00 -0.00000000000E+00 -0.36393498989E+02  0.36393498989E+02  0.00000000000E+00 0.  1.
         23    2    1    2    0    0  0.27524447573E+02  0.67438947945E+01  0.15738667026E+03  0.20297485477E+03  0.12500060944E+03 0.  0.
          5    1    3    3  502    0  0.45085427554E+01  0.35518823858E+02  0.16160481454E+03  0.16559021677E+03  0.47000000000E+01 0. -1.
         -5    1    3    3    0  502  0.23015904818E+02 -0.28774929063E+02 -0.42181442787E+01  0.37384637999E+02  0.47000000000E+01 0. -1.
        -11    1    1    2    0    0  0.26035741205E+02 -0.18843400254E+02  0.23508840282E+02  0.39819582175E+02  0.00000000000E+00 0.  1.
         11    1    1    2    0    0 -0.53560188778E+02  0.12099505460E+02  0.13301445211E+03  0.14390252369E+03  0.00000000000E+00 0. -1.
<mgrwt>
<rscale>  0 0.11929968E+03</rscale>
<asrwt>0</asrwt>
<pdfrwt beam="1">  1        1 0.53892838E-01 0.12817265E+03</pdfrwt>
<pdfrwt beam="2">  1       -1 0.55990001E-02 0.12817265E+03</pdfrwt>
<totfact> 0.10061363E+04</totfact>
</mgrwt>
</event>
<event>
 7    1  0.5400401E-006  0.1350184E+03  0.7546771E-02  0.1232744E+00
          2   -1    0    0  501    0  0.00000000000E+00  0.00000000000E+00  0.19382972412E+03  0.19382972412E+03  0.00000000000E+00 0.  1.
         -2   -1    0    0    0  501 -0.00000000000E+00 -0.00000000000E+00 -0.75702094170E+02  0.75702094170E+02  0.00000000000E+00 0. -1.
         23    2    1    2    0    0  0.49584260306E+02  0.12099428440E+02  0.44815749239E+02  0.14226184372E+03  0.12499994304E+03 0.  0.
          5    1    3    3  502    0 -0.44574776581E+01  0.42420492905E+02  0.64149509296E+02  0.77179121971E+02  0.47000000000E+01 0. -1.
         -5    1    3    3    0  502  0.54041737964E+02 -0.30321064465E+02 -0.19333760056E+02  0.65082721750E+02  0.47000000000E+01 0. -1.
        -11    1    1    2    0    0 -0.10793768123E+02  0.96388252495E+01  0.80879841084E+02  0.82164232342E+02  0.00000000000E+00 0.  1.
         11    1    1    2    0    0 -0.38790492183E+02 -0.21738253689E+02 -0.75679603771E+01  0.45105742224E+02  0.00000000000E+00 0. -1.
<mgrwt>
<rscale>  0 0.12649937E+03</rscale>
<asrwt>0</asrwt>
<pdfrwt beam="1">  1        2 0.29819957E-01 0.13501845E+03</pdfrwt>
<pdfrwt beam="2">  1       -2 0.11646476E-01 0.13501845E+03</pdfrwt>
<totfact> 0.86601227E+03</totfact>
</mgrwt>
</event>
<event>
 7    1  0.5400401E-006  0.1257310E+03  0.7546771E-02  0.1247974E+00
          3   -1    0    0  501    0  0.00000000000E+00  0.00000000000E+00  0.55485400569E+03  0.55485400569E+03  0.00000000000E+00 0. -1.
         -3   -1    0    0    0  501 -0.00000000000E+00 -0.00000000000E+00 -0.22055951033E+02  0.22055951033E+02  0.00000000000E+00 0.  1.
         23    2    1    2    0    0  0.12891058534E+02  0.30035439058E+01  0.33011648248E+03  0.35324945140E+03  0.12503232480E+03 0.  0.
          5    1    3    3  502    0 -0.28864221495E+01  0.42797767957E+01 -0.10294391233E+02  0.12438344468E+02  0.47000000000E+01 0. -1.
         -5    1    3    3    0  502  0.15777480684E+02 -0.12762328899E+01  0.34041087371E+03  0.34081110693E+03  0.47000000000E+01 0. -1.
        -11    1    1    2    0    0  0.40845543596E+01  0.28527450996E+02  0.14799875321E+02  0.32396533058E+02  0.00000000000E+00 0.  1.
         11    1    1    2    0    0 -0.16975612894E+02 -0.31530994902E+02  0.18788169685E+03  0.19126397226E+03  0.00000000000E+00 0. -1.
<mgrwt>
<rscale>  0 0.11709126E+03</rscale>
<asrwt>0</asrwt>
<pdfrwt beam="1">  1        3 0.85362144E-01 0.12573099E+03</pdfrwt>
<pdfrwt beam="2">  1       -3 0.33932236E-02 0.12573099E+03</pdfrwt>
<totfact> 0.12378610E+03</totfact>
</mgrwt>
</event>
<event>
 7    1  0.5400401E-006  0.1437525E+03  0.7546771E-02  0.1218733E+00
         -1   -1    0    0    0  501 -0.00000000000E+00  0.00000000000E+00  0.60141329673E+02  0.60141329673E+02  0.00000000000E+00 0.  1.
          1   -1    0    0  501    0  0.00000000000E+00 -0.00000000000E+00 -0.31251324584E+03  0.31251324584E+03  0.00000000000E+00 0. -1.
         23    2    1    2    0    0  0.70936949350E+02 -0.50189221265E+01 -0.77928040158E+02  0.16351624604E+03  0.12493015215E+03 0.  0.
          5    1    3    3  502    0 -0.25847346365E+02  0.15581455386E+02  0.88698892082E+01  0.31806162934E+02  0.47000000000E+01 0.  1.
         -5    1    3    3    0  502  0.96784295714E+02 -0.20600377512E+02 -0.86797929367E+02  0.13171008311E+03  0.47000000000E+01 0.  1.
        -11    1    1    2    0    0 -0.30916423490E+02  0.45352211418E+02 -0.59700373186E+02  0.81097366668E+02  0.00000000000E+00 0.  1.
         11    1    1    2    0    0 -0.40020525860E+02 -0.40333289291E+02 -0.11474350282E+03  0.12804096280E+03  0.00000000000E+00 0. -1.
<mgrwt>
<rscale>  0 0.13605872E+03</rscale>
<asrwt>0</asrwt>
<pdfrwt beam="2">  1        1 0.48078960E-01 0.14375251E+03</pdfrwt>
<pdfrwt beam="1">  1       -1 0.92525124E-02 0.14375251E+03</pdfrwt>
<totfact> 0.54958224E+03</totfact>
</mgrwt>
</event>
<event>
 7    1  0.5400401E-006  0.1424423E+03  0.7546771E-02  0.1220802E+00
          2   -1    0    0  501    0  0.00000000000E+00  0.00000000000E+00  0.45154672697E+03  0.45154672697E+03  0.00000000000E+00 0. -1.
         -2   -1    0    0    0  501 -0.00000000000E+00 -0.00000000000E+00 -0.55932083000E+02  0.55932083000E+02  0.00000000000E+00 0.  1.
         23    2    1    2    0    0  0.23613582113E+01 -0.68263461037E+02  0.62503371709E+02  0.15555217316E+03  0.12499732387E+03 0.  0.
          5    1    3    3  502    0 -0.38657700238E+02 -0.20710366662E+01 -0.18436797666E+02  0.43135976733E+02  0.47000000000E+01 0.  1.
         -5    1    3    3    0  502  0.41019058449E+02 -0.66192424370E+02  0.80940169376E+02  0.11241619642E+03  0.47000000000E+01 0.  1.
        -11    1    1    2    0    0  0.41804321915E+02  0.40740154809E+02  0.21648556941E+03  0.22421722348E+03  0.00000000000E+00 0.  1.
         11    1    1    2    0    0 -0.44165680126E+02  0.27523306228E+02  0.11662570286E+03  0.12770941333E+03  0.00000000000E+00 0. -1.
<mgrwt>
<rscale>  0 0.13458840E+03</rscale>
<asrwt>0</asrwt>
<pdfrwt beam="1">  1        2 0.69468725E-01 0.14244229E+03</pdfrwt>
<pdfrwt beam="2">  1       -2 0.86049361E-02 0.14244229E+03</pdfrwt>
<totfact> 0.56674939E+03</totfact>
</mgrwt>
</event>
<event>
 7    1  0.5400401E-006  0.1251206E+03  0.7546771E-02  0.1250707E+00
         -1   -1    0    0    0  501 -0.00000000000E+00  0.00000000000E+00  0.24510995380E+03  0.24510995380E+03  0.00000000000E+00 0.  1.
          1   -1    0    0  501    0  0.00000000000E+00 -0.00000000000E+00 -0.51166614556E+02  0.51166614556E+02  0.00000000000E+00 0. -1.
         23    2    1    2    0    0 -0.35590857906E+01  0.41980821415E+01  0.15004055424E+03  0.19536458471E+03  0.12499944824E+03 0.  0.
          5    1    3    3  502    0  0.21731296152E+02 -0.40542182989E+02  0.11677731016E+02  0.47690431280E+02  0.47000000000E+01 0.  1.
         -5    1    3    3    0  502 -0.25290381943E+02  0.44740265130E+02  0.13836282322E+03  0.14767415343E+03  0.47000000000E+01 0.  1.
        -11    1    1    2    0    0  0.39699582904E+02  0.11488519972E+02  0.45517627215E+02  0.61480869880E+02  0.00000000000E+00 0.  1.
         11    1    1    2    0    0 -0.36140497113E+02 -0.15686602113E+02 -0.16148422058E+01  0.39431113766E+02  0.00000000000E+00 0. -1.
<mgrwt>
<rscale>  0 0.11550246E+03</rscale>
<asrwt>0</asrwt>
<pdfrwt beam="2">  1        1 0.78717870E-02 0.12512055E+03</pdfrwt>
<pdfrwt beam="1">  1       -1 0.37709223E-01 0.12512055E+03</pdfrwt>
<totfact> 0.57627030E+03</totfact>
</mgrwt>
</event>
<event>
 7    1  0.5400401E-006  0.1251031E+03  0.7546771E-02  0.1250516E+00
         -1   -1    0    0    0  501 -0.00000000000E+00  0.00000000000E+00  0.31976517182E+02  0.31976517182E+02  0.00000000000E+00 0.  1.
          1   -1    0    0  501    0  0.00000000000E+00 -0.00000000000E+00 -0.42195111171E+03  0.42195111171E+03  0.00000000000E+00 0. -1.
         23    2    1    2    0    0 -0.48437149301E+01 -0.11437280723E+00 -0.13964823676E+03  0.18748977965E+03  0.12500925080E+03 0.  0.
          5    1    3    3  502    0 -0.50839971986E+02 -0.26975695850E+02 -0.11484487019E+03  0.12854503151E+03  0.47000000000E+01 0. -1.
         -5    1    3    3    0  502  0.45996257056E+02  0.26861323043E+02 -0.24803366573E+02  0.58944748130E+02  0.47000000000E+01 0. -1.
        -11    1    1    2    0    0 -0.11169837384E+01  0.42428308761E+02 -0.17257575741E+03  0.17771831949E+03  0.00000000000E+00 0. -1.
         11    1    1    2    0    0  0.59606986685E+01 -0.42313935953E+02 -0.77750600356E+02  0.88719529756E+02  0.00000000000E+00 0.  1.
<mgrwt>
<rscale>  0 0.11561245E+03</rscale>
<asrwt>0</asrwt>
<pdfrwt beam="2">  1        1 0.64915557E-01 0.12510311E+03</pdfrwt>
<pdfrwt beam="1">  1       -1 0.49194641E-02 0.12510311E+03</pdfrwt>
<totfact> 0.96309335E+03</totfact>
</mgrwt>
</event>
<event>
 7    1  0.5400401E-006  0.1266608E+03  0.7546771E-02  0.1246893E+00
         -1   -1    0    0    0  501 -0.00000000000E+00  0.00000000000E+00  0.42112579747E+02  0.42112579747E+02  0.00000000000E+00 0.  1.
          1   -1    0    0  501    0  0.00000000000E+00 -0.00000000000E+00 -0.29951555497E+03  0.29951555497E+03  0.00000000000E+00 0. -1.
         23    2    1    2    0    0  0.18092616125E+02 -0.95591519927E+01 -0.11742636716E+03  0.17271914834E+03  0.12499692938E+03 0.  0.
          5    1    3    3  502    0 -0.24654784956E+02  0.47074616985E+02 -0.66496254690E+02  0.85250923005E+02  0.47000000000E+01 0. -1.
         -5    1    3    3    0  502  0.42747401080E+02 -0.56633768978E+02 -0.50930112468E+02  0.87468225338E+02  0.47000000000E+01 0. -1.
        -11    1    1    2    0    0  0.66471665376E+01 -0.36528246641E+02 -0.32350017800E+02  0.49244505046E+02  0.00000000000E+00 0.  1.
         11    1    1    2    0    0 -0.24739782662E+02  0.46087398633E+02 -0.10762659027E+03  0.11966448133E+03  0.00000000000E+00 0. -1.
<mgrwt>
<rscale>  0 0.11772788E+03</rscale>
<asrwt>0</asrwt>
<pdfrwt beam="2">  1        1 0.46079315E-01 0.12666078E+03</pdfrwt>
<pdfrwt beam="1">  1       -1 0.64788585E-02 0.12666078E+03</pdfrwt>
<totfact> 0.98239910E+03</totfact>
</mgrwt>
</event>
<event>
 7    1  0.5400401E-006  0.2255371E+03  0.7546771E-02  0.1133061E+00
          2   -1    0    0  501    0  0.00000000000E+00  0.00000000000E+00  0.17779095520E+04  0.17779095520E+04  0.00000000000E+00 0. -1.
         -2   -1    0    0    0  501 -0.00000000000E+00 -0.00000000000E+00 -0.26637762911E+02  0.26637762911E+02  0.00000000000E+00 0.  1.
         23    2    1    2    0    0 -0.26756508786E+01 -0.18768037179E+03  0.98190026066E+03  0.10074696467E+04  0.12504353708E+03 0.  0.
          5    1    3    3  502    0  0.51457960487E+02 -0.58716871566E+02  0.48388858614E+03  0.49016920191E+03  0.47000000000E+01 0.  1.
         -5    1    3    3    0  502 -0.54133611365E+02 -0.12896350022E+03  0.49801167452E+03  0.51730044484E+03  0.47000000000E+01 0.  1.
        -11    1    1    2    0    0 -0.12030097329E+02  0.27516721398E+02  0.39088897064E+02  0.49293357280E+02  0.00000000000E+00 0.  1.
         11    1    1    2    0    0  0.14705748207E+02  0.16016365039E+03  0.73028263139E+03  0.74778431091E+03  0.00000000000E+00 0. -1.
<mgrwt>
<rscale>  0 0.22110572E+03</rscale>
<asrwt>0</asrwt>
<pdfrwt beam="1">  1        2 0.27352445E+00 0.22553706E+03</pdfrwt>
<pdfrwt beam="2">  1       -2 0.40981188E-02 0.22553706E+03</pdfrwt>
<totfact> 0.25772984E+03</totfact>
</mgrwt>
</event>
<event>
 7    1  0.5400401E-006  0.2238597E+03  0.7546771E-02  0.1134191E+00
         -2   -1    0    0    0  501 -0.00000000000E+00  0.00000000000E+00  0.27413970410E+03  0.27413970410E+03  0.00000000000E+00 0.  1.
          2   -1    0    0  501    0  0.00000000000E+00 -0.00000000000E+00 -0.18075232527E+03  0.18075232527E+03  0.00000000000E+00 0. -1.
         23    2    1    2    0    0 -0.87945946928E+02 -0.16356520599E+03  0.10511243174E+03  0.24730912454E+03  0.12500045435E+03 0.  0.
          5    1    3    3  502    0 -0.96987855758E+02 -0.16979506986E+03  0.11902934059E+03  0.22896961334E+03  0.47000000000E+01 0. -1.
         -5    1    3    3    0  502  0.90419088309E+01  0.62298638744E+01 -0.13916908850E+02  0.18339511203E+02  0.47000000000E+01 0. -1.
        -11    1    1    2    0    0  0.89130089023E+02  0.69203026240E+02 -0.43470750666E+01  0.11292532343E+03  0.00000000000E+00 0.  1.
         11    1    1    2    0    0 -0.11841420958E+01  0.94362179745E+02 -0.73779778327E+01  0.94657581396E+02  0.00000000000E+00 0. -1.
<mgrwt>
<rscale>  0 0.21958689E+03</rscale>
<asrwt>0</asrwt>
<pdfrwt beam="2">  1        2 0.27808050E-01 0.22385973E+03</pdfrwt>
<pdfrwt beam="1">  1       -2 0.42175339E-01 0.22385973E+03</pdfrwt>
<totfact> 0.10231743E+03</totfact>
</mgrwt>
</event>
<event>
 7    1  0.5400401E-006  0.1633625E+03  0.7546771E-02  0.1192923E+00
         -2   -1    0    0    0  501 -0.00000000000E+00  0.00000000000E+00  0.30898080864E+02  0.30898080864E+02  0.00000000000E+00 0.  1.
          2   -1    0    0  501    0  0.00000000000E+00 -0.00000000000E+00 -0.77366894729E+03  0.77366894729E+03  0.00000000000E+00 0. -1.
         23    2    1    2    0    0  0.24483735451E+02 -0.10228858826E+03 -0.30661181546E+03  0.34741633019E+03  0.12499957006E+03 0.  0.
          5    1    3    3  502    0  0.69216387279E+01  0.13189614866E+02  0.34964190551E+01  0.16005935437E+02  0.47000000000E+01 0.  1.
         -5    1    3    3    0  502  0.17562096723E+02 -0.11547820313E+03 -0.31010823451E+03  0.33141039476E+03  0.47000000000E+01 0.  1.
        -11    1    1    2    0    0 -0.21982161551E+02  0.11494885793E+02 -0.22023811649E+02  0.33172218880E+02  0.00000000000E+00 0.  1.
         11    1    1    2    0    0 -0.25015739000E+01  0.90793702468E+02 -0.41413523932E+03  0.42397847908E+03  0.00000000000E+00 0. -1.
<mgrwt>
<rscale>  0 0.15631308E+03</rscale>
<asrwt>0</asrwt>
<pdfrwt beam="2">  1        2 0.11902600E+00 0.16336248E+03</pdfrwt>
<pdfrwt beam="1">  1       -2 0.47535506E-02 0.16336248E+03</pdfrwt>
<totfact> 0.76228572E+03</totfact>
</mgrwt>
</event>
<event>
 7    1  0.5400401E-006  0.1271720E+03  0.7546771E-02  0.1245744E+00
         -2   -1    0    0    0  501 -0.00000000000E+00  0.00000000000E+00  0.27101813164E+03  0.27101813164E+03  0.00000000000E+00 0.  1.
          2   -1    0    0  501    0  0.00000000000E+00 -0.00000000000E+00 -0.45820124239E+02  0.45820124239E+02  0.00000000000E+00 0. -1.
         23    2    1    2    0    0  0.19705072259E+02  0.12603179626E+02  0.12343307631E+03  0.17722427522E+03  0.12500235753E+03 0.  0.
          5    1    3    3  502    0 -0.30590278133E+02  0.34794439771E+02  0.53328953568E+01  0.46871611111E+02  0.47000000000E+01 0.  1.
         -5    1    3    3    0  502  0.50295350393E+02 -0.22191260145E+02  0.11810018096E+03  0.13035266411E+03  0.47000000000E+01 0.  1.
        -11    1    1    2    0    0 -0.33849825191E+02  0.45886079353E+01  0.11052980371E+03  0.11568795744E+03  0.00000000000E+00 0.  1.
         11    1    1    2    0    0  0.14144752932E+02 -0.17191787561E+02 -0.87648726232E+01  0.23926023221E+02  0.00000000000E+00 0. -1.
<mgrwt>
<rscale>  0 0.11840988E+03</rscale>
<asrwt>0</asrwt>
<pdfrwt beam="2">  1        2 0.70492501E-02 0.12717201E+03</pdfrwt>
<pdfrwt beam="1">  1       -2 0.41695096E-01 0.12717201E+03</pdfrwt>
<totfact> 0.51968900E+03</totfact>
</mgrwt>
</event>
<event>
 7    1  0.5400401E-006  0.1285579E+03  0.7546771E-02  0.1245061E+00
         -1   -1    0    0    0  501 -0.00000000000E+00  0.00000000000E+00  0.96490794338E+02  0.96490794338E+02  0.00000000000E+00 0.  1.
          1   -1    0    0  501    0  0.00000000000E+00 -0.00000000000E+00 -0.13082144485E+03  0.13082144485E+03  0.00000000000E+00 0. -1.
         23    2    1    2    0    0 -0.11699425513E+02  0.27666855617E+02 -0.35963398057E+02  0.13349343682E+03  0.12499920087E+03 0.  0.
          5    1    3    3  502    0  0.24991347838E+02  0.30421347878E+02 -0.71733949174E+02  0.81962645989E+02  0.47000000000E+01 0.  1.
         -5    1    3    3    0  502 -0.36690773351E+02 -0.27544922605E+01  0.35770551117E+02  0.51530790834E+02  0.47000000000E+01 0.  1.
        -11    1    1    2    0    0 -0.36331956268E+02 -0.79376126150E+01 -0.13770951563E+02  0.39656725120E+02  0.00000000000E+00 0. -1.
         11    1    1    2    0    0  0.48031381781E+02 -0.19729243002E+02  0.15403699108E+02  0.54162077245E+02  0.00000000000E+00 0.  1.
<mgrwt>
<rscale>  0 0.11881741E+03</rscale>
<asrwt>0</asrwt>
<pdfrwt beam="2">  1        1 0.20126376E-01 0.12855789E+03</pdfrwt>
<pdfrwt beam="1">  1       -1 0.14844738E-01 0.12855789E+03</pdfrwt>
<totfact> 0.77945055E+03</totfact>
</mgrwt>
</event>
<event>
 7    1  0.5400401E-006  0.1402513E+03  0.7546771E-02  0.1223188E+00
          2   -1    0    0  501    0  0.00000000000E+00  0.00000000000E+00  0.92230120765E+02  0.92230120765E+02  0.00000000000E+00 0. -1.
         -2   -1    0    0    0  501 -0.00000000000E+00 -0.00000000000E+00 -0.19476549602E+03  0.19476549602E+03  0.00000000000E+00 0.  1.
         23    2    1    2    0    0 -0.63509172968E+02  0.27256730466E+01 -0.10273678564E+03  0.17385419589E+03  0.12501835849E+03 0.  0.
          5    1    3    3  502    0 -0.17546766136E+02 -0.48077935635E+02 -0.13655700959E+01  0.51413341444E+02  0.47000000000E+01 0.  1.
         -5    1    3    3    0  502 -0.45962406832E+02  0.50803608681E+02 -0.10137121554E+03  0.12244085445E+03  0.47000000000E+01 0.  1.
        -11    1    1    2    0    0  0.81093296868E+02 -0.19935445502E+02  0.14390814858E+02  0.84738659044E+02  0.00000000000E+00 0.  1.
         11    1    1    2    0    0 -0.17584123900E+02  0.17209772455E+02 -0.14189404469E+02  0.28402761846E+02  0.00000000000E+00 0. -1.
<mgrwt>
<rscale>  0 0.13291851E+03</rscale>
<asrwt>0</asrwt>
<pdfrwt beam="1">  1        2 0.14189250E-01 0.14025133E+03</pdfrwt>
<pdfrwt beam="2">  1       -2 0.29963922E-01 0.14025133E+03</pdfrwt>
<totfact> 0.40911341E+03</totfact>
</mgrwt>
</event>
<event>
 7    1  0.5400401E-006  0.1589636E+03  0.7546771E-02  0.1198000E+00
         -1   -1    0    0    0  501 -0.00000000000E+00  0.00000000000E+00  0.62826785978E+02  0.62826785978E+02  0.00000000000E+00 0.  1.
          1   -1    0    0  501    0  0.00000000000E+00 -0.00000000000E+00 -0.34054353047E+03  0.34054353047E+03  0.00000000000E+00 0. -1.
         23    2    1    2    0    0 -0.69612251062E+00 -0.98214527607E+02 -0.13844965061E+03  0.21080260059E+03  0.12499141026E+03 0.  0.
          5    1    3    3  502    0  0.39488175506E+02 -0.92970510277E+02 -0.48739639837E+02  0.11225183418E+03  0.47000000000E+01 0. -1.
         -5    1    3    3    0  502 -0.40184298017E+02 -0.52440173300E+01 -0.89710010778E+02  0.98550766403E+02  0.47000000000E+01 0. -1.
        -11    1    1    2    0    0  0.21213287080E+02  0.36679704386E+02 -0.40104789126E+01  0.42561581311E+02  0.00000000000E+00 0.  1.
         11    1    1    2    0    0 -0.20517164570E+02  0.61534823221E+02 -0.13525661496E+03  0.15000613455E+03  0.00000000000E+00 0. -1.
<mgrwt>
<rscale>  0 0.15203027E+03</rscale>
<asrwt>0</asrwt>
<pdfrwt beam="2">  1        1 0.52391311E-01 0.15896361E+03</pdfrwt>
<pdfrwt beam="1">  1       -1 0.96656596E-02 0.15896361E+03</pdfrwt>
<totfact> 0.46450916E+03</totfact>
</mgrwt>
</event>
<event>
 7    1  0.5400401E-006  0.1285868E+03  0.7546771E-02  0.1244361E+00
          1   -1    0    0  501    0  0.00000000000E+00  0.00000000000E+00  0.31482545768E+03  0.31482545768E+03  0.00000000000E+00 0. -1.
         -1   -1    0    0    0  501 -0.00000000000E+00 -0.00000000000E+00 -0.45861314572E+02  0.45861314572E+02  0.00000000000E+00 0.  1.
         23    2    1    2    0    0  0.27813352367E+02 -0.11672589466E+02  0.86604828928E+02  0.15503212745E+03  0.12499892892E+03 0.  0.
          5    1    3    3  502    0  0.70742879718E+02  0.95619423371E+01  0.78537183520E+02  0.10623636368E+03  0.47000000000E+01 0.  1.
         -5    1    3    3    0  502 -0.42929527351E+02 -0.21234531803E+02  0.80676454075E+01  0.48795763770E+02  0.47000000000E+01 0.  1.
        -11    1    1    2    0    0 -0.34605183698E+02 -0.19384597342E+02  0.16445031295E+03  0.16916615141E+03  0.00000000000E+00 0. -1.
         11    1    1    2    0    0  0.67918313310E+01  0.31057186808E+02  0.17909001229E+02  0.36488493395E+02  0.00000000000E+00 0.  1.
<mgrwt>
<rscale>  0 0.11923721E+03</rscale>
<asrwt>0</asrwt>
<pdfrwt beam="1">  1        1 0.48434684E-01 0.12858680E+03</pdfrwt>
<pdfrwt beam="2">  1       -1 0.70555871E-02 0.12858680E+03</pdfrwt>
<totfact> 0.81406167E+03</totfact>
</mgrwt>
</event>
<event>
 7    1  0.5400401E-006  0.1827758E+03  0.7546771E-02  0.1170623E+00
          2   -1    0    0  501    0  0.00000000000E+00  0.00000000000E+00  0.73092987161E+03  0.73092987161E+03  0.00000000000E+00 0.  1.
         -2   -1    0    0    0  501 -0.00000000000E+00 -0.00000000000E+00 -0.43643254798E+02  0.43643254798E+02  0.00000000000E+00 0. -1.
         23    2    1    2    0    0 -0.13027491841E+03 -0.28503145466E+02  0.25927858806E+03  0.31722608543E+03  0.12499207729E+03 0.  0.
          5    1    3    3  502    0  0.17139872492E+02 -0.26579918973E+02  0.25928793540E+02  0.41166244134E+02  0.47000000000E+01 0. -1.
         -5    1    3    3    0  502 -0.14741479090E+03 -0.19232264933E+01  0.23334979452E+03  0.27605984130E+03  0.47000000000E+01 0. -1.
        -11    1    1    2    0    0  0.61724590298E+02  0.57623385723E+02  0.18905802890E+03  0.20705873060E+03  0.00000000000E+00 0.  1.
         11    1    1    2    0    0  0.68550328108E+02 -0.29120240256E+02  0.23894999986E+03  0.25028831037E+03  0.00000000000E+00 0. -1.
<mgrwt>
<rscale>  0 0.17711667E+03</rscale>
<asrwt>0</asrwt>
<pdfrwt beam="1">  1        2 0.11245074E+00 0.18277583E+03</pdfrwt>
<pdfrwt beam="2">  1       -2 0.67143474E-02 0.18277583E+03</pdfrwt>
<totfact> 0.48587498E+03</totfact>
</mgrwt>
</event>
<event>
 7    1  0.5400401E-006  0.1447798E+03  0.7546771E-02  0.1216666E+00
          1   -1    0    0  501    0  0.00000000000E+00  0.00000000000E+00  0.12577641936E+03  0.12577641936E+03  0.00000000000E+00 0. -1.
         -1   -1    0    0    0  501 -0.00000000000E+00 -0.00000000000E+00 -0.13846860502E+03  0.13846860502E+03  0.00000000000E+00 0.  1.
         23    2    1    2    0    0  0.14637412759E+02  0.71566870052E+02 -0.19550445160E+02  0.14609383052E+03  0.12500046668E+03 0.  0.
          5    1    3    3  502    0  0.29833296024E+02  0.35431896876E+02  0.48620004811E+02  0.67315969395E+02  0.47000000000E+01 0.  1.
         -5    1    3    3    0  502 -0.15195883265E+02  0.36134973176E+02 -0.68170449970E+02  0.78777861128E+02  0.47000000000E+01 0.  1.
        -11    1    1    2    0    0  0.12430856325E+02 -0.79900438621E+02 -0.15168421584E+02  0.82272032272E+02  0.00000000000E+00 0.  1.
         11    1    1    2    0    0 -0.27068269084E+02  0.83335685692E+01  0.22026681086E+02  0.35879161584E+02  0.00000000000E+00 0. -1.
<mgrwt>
<rscale>  0 0.13754894E+03</rscale>
<asrwt>0</asrwt>
<pdfrwt beam="1">  1        1 0.19350218E-01 0.14477979E+03</pdfrwt>
<pdfrwt beam="2">  1       -1 0.21302862E-01 0.14477979E+03</pdfrwt>
<totfact> 0.46520222E+03</totfact>
</mgrwt>
</event>
<event>
 7    1  0.5400401E-006  0.1416045E+03  0.7546771E-02  0.1222273E+00
          1   -1    0    0  501    0  0.00000000000E+00  0.00000000000E+00  0.53911907997E+02  0.53911907997E+02  0.00000000000E+00 0. -1.
         -1   -1    0    0    0  501 -0.00000000000E+00 -0.00000000000E+00 -0.30375016112E+03  0.30375016112E+03  0.00000000000E+00 0.  1.
         23    2    1    2    0    0  0.24163189847E+02  0.61988133709E+02 -0.11556091152E+03  0.18277353534E+03  0.12500180992E+03 0.  0.
          5    1    3    3  502    0  0.73512686272E+02  0.42142852660E+02 -0.89558848446E+02  0.12338157240E+03  0.47000000000E+01 0. -1.
         -5    1    3    3    0  502 -0.49349496425E+02  0.19845281049E+02 -0.26002063070E+02  0.59391962934E+02  0.47000000000E+01 0. -1.
        -11    1    1    2    0    0  0.14908014076E+02  0.17112895477E+01 -0.82794848690E+02  0.84143712571E+02  0.00000000000E+00 0.  1.
         11    1    1    2    0    0 -0.39071203924E+02 -0.63699423257E+02 -0.51482492916E+02  0.90744821208E+02  0.00000000000E+00 0. -1.
<mgrwt>
<rscale>  0 0.13355572E+03</rscale>
<asrwt>0</asrwt>
<pdfrwt beam="1">  1        1 0.82941398E-02 0.14160452E+03</pdfrwt>
<pdfrwt beam="2">  1       -1 0.46730794E-01 0.14160452E+03</pdfrwt>
<totfact> 0.37079270E+03</totfact>
</mgrwt>
</event>
<event>
 7    1  0.5400401E-006  0.2360019E+03  0.7546771E-02  0.1125221E+00
         -1   -1    0    0    0  501 -0.00000000000E+00  0.00000000000E+00  0.14591419713E+03  0.14591419713E+03  0.00000000000E+00 0.  1.
          1   -1    0    0  501    0  0.00000000000E+00 -0.00000000000E+00 -0.44704581822E+03  0.44704581822E+03  0.00000000000E+00 0. -1.
         23    2    1    2    0    0 -0.19409064167E+03 -0.49019235884E+02 -0.21686063343E+02  0.23699618848E+03  0.12499138106E+03 0.  0.
          5    1    3    3  502    0 -0.95145822483E+02  0.36502020215E+02  0.95244137699E+01  0.10245940403E+03  0.47000000000E+01 0.  1.
         -5    1    3    3    0  502 -0.98944819191E+02 -0.85521256099E+02 -0.31210477113E+02  0.13453678445E+03  0.47000000000E+01 0.  1.
        -11    1    1    2    0    0  0.18455996983E+03  0.22579446822E+02 -0.20694195184E+03  0.27820349623E+03  0.00000000000E+00 0.  1.
         11    1    1    2    0    0  0.95306718442E+01  0.26439789061E+02 -0.72503605904E+02  0.77760330635E+02  0.00000000000E+00 0. -1.
<mgrwt>
<rscale>  0 0.23202726E+03</rscale>
<asrwt>0</asrwt>
<pdfrwt beam="2">  1        1 0.68776278E-01 0.23600192E+03</pdfrwt>
<pdfrwt beam="1">  1       -1 0.22448339E-01 0.23600192E+03</pdfrwt>
<totfact> 0.87517706E+02</totfact>
</mgrwt>
</event>
<event>
 7    1  0.5400401E-006  0.1843472E+03  0.7546771E-02  0.1168979E+00
          4   -1    0    0  501    0  0.00000000000E+00  0.00000000000E+00  0.89417501653E+02  0.89417501653E+02  0.00000000000E+00 0. -1.
         -4   -1    0    0    0  501 -0.00000000000E+00 -0.00000000000E+00 -0.59301341843E+03  0.59301341843E+03  0.00000000000E+00 0.  1.
         23    2    1    2    0    0 -0.67124936724E+02  0.11770388272E+03 -0.48428721522E+03  0.51818723338E+03  0.12499576345E+03 0.  0.
          5    1    3    3  502    0 -0.70319510381E+02  0.64779582398E+02 -0.13870702360E+03  0.16853176624E+03  0.47000000000E+01 0. -1.
         -5    1    3    3    0  502  0.31945736574E+01  0.52924300324E+02 -0.34558019161E+03  0.34965546714E+03  0.47000000000E+01 0. -1.
        -11    1    1    2    0    0  0.38032162325E+02  0.31410851648E+01 -0.10774130507E+02  0.39653419465E+02  0.00000000000E+00 0.  1.
         11    1    1    2    0    0  0.29092774399E+02 -0.12084496789E+03 -0.85345710495E+01  0.12459026723E+03  0.00000000000E+00 0. -1.
<mgrwt>
<rscale>  0 0.17879037E+03</rscale>
<asrwt>0</asrwt>
<pdfrwt beam="1">  1        4 0.13756539E-01 0.18434723E+03</pdfrwt>
<pdfrwt beam="2">  1       -4 0.91232832E-01 0.18434723E+03</pdfrwt>
<totfact> 0.81460748E+01</totfact>
</mgrwt>
</event>
<event>
 7    1  0.5400401E-006  0.1606499E+03  0.7546771E-02  0.1195304E+00
         -4   -1    0    0    0  501 -0.00000000000E+00  0.00000000000E+00  0.59592226003E+03  0.59592226003E+03  0.00000000000E+00 0.  1.
          4   -1    0    0  501    0  0.00000000000E+00 -0.00000000000E+00 -0.38242066261E+02  0.38242066261E+02  0.00000000000E+00 0. -1.
         23    2    1    2    0    0 -0.99243296188E+02  0.18295901961E+02  0.35566379500E+03  0.39026289306E+03  0.12499767502E+03 0.  0.
          5    1    3    3  502    0 -0.22431335425E+02 -0.51191472372E+02  0.10598516191E+03  0.11991111791E+03  0.47000000000E+01 0. -1.
         -5    1    3    3    0  502 -0.76811960763E+02  0.69487374333E+02  0.24967863309E+03  0.27035177515E+03  0.47000000000E+01 0. -1.
        -11    1    1    2    0    0  0.96136825147E+02  0.19065634767E+02  0.15960402952E+03  0.18729451091E+03  0.00000000000E+00 0.  1.
         11    1    1    2    0    0  0.31064710412E+01 -0.37361536728E+02  0.42412369246E+02  0.56606922315E+02  0.00000000000E+00 0. -1.
<mgrwt>
<rscale>  0 0.15428530E+03</rscale>
<asrwt>0</asrwt>
<pdfrwt beam="2">  1        4 0.58833952E-02 0.16064990E+03</pdfrwt>
<pdfrwt beam="1">  1       -4 0.91680341E-01 0.16064990E+03</pdfrwt>
<totfact> 0.32904068E+02</totfact>
</mgrwt>
</event>
<event>
 7    1  0.5400401E-006  0.1290255E+03  0.7546771E-02  0.1251353E+00
         -1   -1    0    0    0  501 -0.00000000000E+00  0.00000000000E+00  0.38105657749E+02  0.38105657749E+02  0.00000000000E+00 0.  1.
          1   -1    0    0  501    0  0.00000000000E+00 -0.00000000000E+00 -0.29497700936E+03  0.29497700936E+03  0.00000000000E+00 0. -1.
         23    2    1    2    0    0  0.10213762652E+02  0.30298821814E+02 -0.13950395333E+03  0.19002350674E+03  0.12500096227E+03 0.  0.
          5    1    3    3  502    0  0.53778130690E+02  0.43974557941E+02 -0.39651794321E+02  0.80126174746E+02  0.47000000000E+01 0. -1.
         -5    1    3    3    0  502 -0.43564368038E+02 -0.13675736127E+02 -0.99852159008E+02  0.10989733200E+03  0.47000000000E+01 0. -1.
        -11    1    1    2    0    0  0.13419338043E+02  0.22670790458E+01  0.48037243815E+01  0.14432395811E+02  0.00000000000E+00 0.  1.
         11    1    1    2    0    0 -0.23633100695E+02 -0.32565900860E+02 -0.12217112266E+03  0.12862676456E+03  0.00000000000E+00 0. -1.
<mgrwt>
<rscale>  0 0.11513081E+03</rscale>
<asrwt>0</asrwt>
<pdfrwt beam="2">  1        1 0.45381078E-01 0.12902550E+03</pdfrwt>
<pdfrwt beam="1">  1       -1 0.58624090E-02 0.12902550E+03</pdfrwt>
<totfact> 0.11635104E+04</totfact>
</mgrwt>
</event>
<event>
 7    1  0.5400401E-006  0.1299714E+03  0.7546771E-02  0.1241383E+00
          2   -1    0    0  501    0  0.00000000000E+00  0.00000000000E+00  0.41756888046E+03  0.41756888046E+03  0.00000000000E+00 0. -1.
         -2   -1    0    0    0  501 -0.00000000000E+00 -0.00000000000E+00 -0.32880351437E+02  0.32880351437E+02  0.00000000000E+00 0.  1.
         23    2    1    2    0    0 -0.21010299197E+02  0.28904078426E+02  0.16545358755E+03  0.21039833834E+03  0.12496276535E+03 0.  0.
          5    1    3    3  502    0  0.27961536094E+02  0.17040007144E+02 -0.42109143230E+01  0.33347130966E+02  0.47000000000E+01 0.  1.
         -5    1    3    3    0  502 -0.48971835291E+02  0.11864071282E+02  0.16966450187E+03  0.17705120738E+03  0.47000000000E+01 0.  1.
        -11    1    1    2    0    0 -0.26695067728E+02 -0.36229632841E+02  0.14214405232E+03  0.14909776842E+03  0.00000000000E+00 0. -1.
         11    1    1    2    0    0  0.47705366926E+02  0.73255544147E+01  0.77090889152E+02  0.90953125132E+02  0.00000000000E+00 0.  1.
<mgrwt>
<rscale>  0 0.12104471E+03</rscale>
<asrwt>0</asrwt>
<pdfrwt beam="1">  1        2 0.64241363E-01 0.12997142E+03</pdfrwt>
<pdfrwt beam="2">  1       -2 0.50585159E-02 0.12997142E+03</pdfrwt>
<totfact> 0.13783263E+04</totfact>
</mgrwt>
</event>
<event>
 7    1  0.5400401E-006  0.1608779E+03  0.7546771E-02  0.1195298E+00
         -1   -1    0    0    0  501 -0.00000000000E+00  0.00000000000E+00  0.16858946485E+03  0.16858946485E+03  0.00000000000E+00 0.  1.
          1   -1    0    0  501    0  0.00000000000E+00 -0.00000000000E+00 -0.13224375746E+03  0.13224375746E+03  0.00000000000E+00 0. -1.
         23    2    1    2    0    0 -0.10056002415E+03  0.12098786619E+02  0.35404523324E+02  0.16472762684E+03  0.12499204646E+03 0.  0.
          5    1    3    3  502    0 -0.15809459536E+02 -0.23234201518E+02  0.62657992326E+02  0.68832268111E+02  0.47000000000E+01 0. -1.
         -5    1    3    3    0  502 -0.84750564617E+02  0.35332988136E+02 -0.27253469002E+02  0.95895358731E+02  0.47000000000E+01 0. -1.
        -11    1    1    2    0    0  0.15149774488E+02  0.26245252238E+02 -0.24633282049E+02  0.39052881028E+02  0.00000000000E+00 0. -1.
         11    1    1    2    0    0  0.85410249664E+02 -0.38344038856E+02  0.25574466110E+02  0.97052714441E+02  0.00000000000E+00 0.  1.
<mgrwt>
<rscale>  0 0.15429035E+03</rscale>
<asrwt>0</asrwt>
<pdfrwt beam="2">  1        1 0.20345194E-01 0.16087794E+03</pdfrwt>
<pdfrwt beam="1">  1       -1 0.25936841E-01 0.16087794E+03</pdfrwt>
<totfact> 0.31799355E+03</totfact>
</mgrwt>
</event>
<event>
 7    1  0.5400401E-006  0.1277907E+03  0.7546771E-02  0.1245169E+00
          1   -1    0    0  501    0  0.00000000000E+00  0.00000000000E+00  0.30768042180E+02  0.30768042180E+02  0.00000000000E+00 0. -1.
         -1   -1    0    0    0  501 -0.00000000000E+00 -0.00000000000E+00 -0.62006136407E+03  0.62006136407E+03  0.00000000000E+00 0.  1.
         23    2    1    2    0    0  0.13611001049E+02 -0.22601812998E+02 -0.51322546985E+03  0.52889587466E+03  0.12503744251E+03 0.  0.
          5    1    3    3  502    0 -0.74866685728E+00  0.16830039526E+02 -0.46277424914E+03  0.46310463872E+03  0.47000000000E+01 0. -1.
         -5    1    3    3    0  502  0.14359667906E+02 -0.39431852524E+02 -0.50451220709E+02  0.65791235943E+02  0.47000000000E+01 0. -1.
        -11    1    1    2    0    0  0.75393478820E+01 -0.24531752169E+02  0.46665199138E+01  0.26084958100E+02  0.00000000000E+00 0. -1.
         11    1    1    2    0    0 -0.21150348931E+02  0.47133565168E+02 -0.80734371952E+02  0.95848573489E+02  0.00000000000E+00 0.  1.
<mgrwt>
<rscale>  0 0.11875282E+03</rscale>
<asrwt>0</asrwt>
<pdfrwt beam="1">  1        1 0.47335451E-02 0.12779070E+03</pdfrwt>
<pdfrwt beam="2">  1       -1 0.95394053E-01 0.12779070E+03</pdfrwt>
<totfact> 0.19477011E+03</totfact>
</mgrwt>
</event>
<event>
 7    1  0.5400401E-006  0.1410250E+03  0.7546771E-02  0.1222546E+00
         -2   -1    0    0    0  501 -0.00000000000E+00  0.00000000000E+00  0.28739999220E+02  0.28739999220E+02  0.00000000000E+00 0.  1.
          2   -1    0    0  501    0  0.00000000000E+00 -0.00000000000E+00 -0.60752403499E+03  0.60752403499E+03  0.00000000000E+00 0. -1.
         23    2    1    2    0    0  0.57070128742E+02  0.31694357208E+02 -0.23098649451E+03  0.27063407018E+03  0.12500602954E+03 0.  0.
          5    1    3    3  502    0  0.39869379261E+02  0.78508140777E+02 -0.17169121707E+03  0.19301051678E+03  0.47000000000E+01 0.  1.
         -5    1    3    3    0  502  0.17200749481E+02 -0.46813783569E+02 -0.59295277442E+02  0.77623553395E+02  0.47000000000E+01 0.  1.
        -11    1    1    2    0    0 -0.78030863773E+02 -0.40174398456E+02 -0.30291941770E+03  0.31537750651E+03  0.00000000000E+00 0. -1.
         11    1    1    2    0    0  0.20960735031E+02  0.84800412486E+01 -0.44878123561E+02  0.50252457522E+02  0.00000000000E+00 0.  1.
<mgrwt>
<rscale>  0 0.13336504E+03</rscale>
<asrwt>0</asrwt>
<pdfrwt beam="2">  1        2 0.93465235E-01 0.14102496E+03</pdfrwt>
<pdfrwt beam="1">  1       -2 0.44215384E-02 0.14102496E+03</pdfrwt>
<totfact> 0.11222540E+04</totfact>
</mgrwt>
</event>
<event>
 7    1  0.5400401E-006  0.1277343E+03  0.7546771E-02  0.1245638E+00
         -1   -1    0    0    0  501 -0.00000000000E+00  0.00000000000E+00  0.36134083174E+02  0.36134083174E+02  0.00000000000E+00 0.  1.
          1   -1    0    0  501    0  0.00000000000E+00 -0.00000000000E+00 -0.35282828433E+03  0.35282828433E+03  0.00000000000E+00 0. -1.
         23    2    1    2    0    0 -0.12116693172E+02 -0.23334328172E+02 -0.14722666714E+03  0.19491473907E+03  0.12499903545E+03 0.  0.
          5    1    3    3  502    0  0.12228534801E+02  0.48511660666E+02 -0.44450424691E+02  0.67088363664E+02  0.47000000000E+01 0.  1.
         -5    1    3    3    0  502 -0.24345227973E+02 -0.71845988838E+02 -0.10277624245E+03  0.12782637541E+03  0.47000000000E+01 0.  1.
        -11    1    1    2    0    0  0.20299337603E+02  0.48116051399E+02 -0.51929250714E+02  0.73646891238E+02  0.00000000000E+00 0. -1.
         11    1    1    2    0    0 -0.81826444309E+01 -0.24781723227E+02 -0.11753828331E+03  0.12040073720E+03  0.00000000000E+00 0.  1.
<mgrwt>
<rscale>  0 0.11847290E+03</rscale>
<asrwt>0</asrwt>
<pdfrwt beam="2">  1        1 0.54281277E-01 0.12773435E+03</pdfrwt>
<pdfrwt beam="1">  1       -1 0.55590895E-02 0.12773435E+03</pdfrwt>
<totfact> 0.10075479E+04</totfact>
</mgrwt>
</event>
<event>
 7    1  0.5400401E-006  0.3024750E+03  0.7546771E-02  0.1085734E+00
          2   -1    0    0  501    0  0.00000000000E+00  0.00000000000E+00  0.89670534493E+03  0.89670534493E+03  0.00000000000E+00 0.  1.
         -2   -1    0    0    0  501 -0.00000000000E+00 -0.00000000000E+00 -0.98511395661E+02  0.98511395661E+02  0.00000000000E+00 0. -1.
         23    2    1    2    0    0  0.13760790377E+03 -0.23860071775E+03  0.35762447294E+03  0.46838701762E+03  0.12499958778E+03 0.  0.
          5    1    3    3  502    0  0.38390744114E+02  0.46081497350E+01  0.35337995167E+02  0.52592282514E+02  0.47000000000E+01 0.  1.
         -5    1    3    3    0  502  0.99217159660E+02 -0.24320886748E+03  0.32228647777E+03  0.41579473511E+03  0.47000000000E+01 0.  1.
        -11    1    1    2    0    0 -0.15693449130E+02  0.56895707299E+02  0.16317150780E+03  0.17351756917E+03  0.00000000000E+00 0.  1.
         11    1    1    2    0    0 -0.12191445464E+03  0.18170501045E+03  0.27739796854E+03  0.35331215380E+03  0.00000000000E+00 0. -1.
<mgrwt>
<rscale>  0 0.29901583E+03</rscale>
<asrwt>0</asrwt>
<pdfrwt beam="1">  1        2 0.13795466E+00 0.30247501E+03</pdfrwt>
<pdfrwt beam="2">  1       -2 0.15155600E-01 0.30247501E+03</pdfrwt>
<totfact> 0.10283347E+03</totfact>
</mgrwt>
</event>
<event>
 7    1  0.5400401E-006  0.1510418E+03  0.7546771E-02  0.1209502E+00
         -2   -1    0    0    0  501 -0.00000000000E+00  0.00000000000E+00  0.24195953850E+02  0.24195953850E+02  0.00000000000E+00 0.  1.
          2   -1    0    0  501    0  0.00000000000E+00 -0.00000000000E+00 -0.87482265659E+03  0.87482265659E+03  0.00000000000E+00 0. -1.
         23    2    1    2    0    0 -0.61738273282E+02  0.58113250098E+02 -0.30758235823E+03  0.34266679543E+03  0.12499944549E+03 0.  0.
          5    1    3    3  502    0 -0.90109628835E+02  0.15182466697E+02 -0.24487843346E+03  0.26141497601E+03  0.47000000000E+01 0.  1.
         -5    1    3    3    0  502  0.28371355553E+02  0.42930783402E+02 -0.62703924761E+02  0.81251819425E+02  0.47000000000E+01 0.  1.
        -11    1    1    2    0    0  0.66411248716E+02 -0.53285046560E+01 -0.26076751706E+03  0.26914409685E+03  0.00000000000E+00 0.  1.
         11    1    1    2    0    0 -0.46729754334E+01 -0.52784745442E+02 -0.28227682745E+03  0.28720771815E+03  0.00000000000E+00 0. -1.
<mgrwt>
<rscale>  0 0.14288251E+03</rscale>
<asrwt>0</asrwt>
<pdfrwt beam="2">  1        2 0.13458812E+00 0.15104180E+03</pdfrwt>
<pdfrwt beam="1">  1       -2 0.37224540E-02 0.15104180E+03</pdfrwt>
<totfact> 0.93651482E+03</totfact>
</mgrwt>
</event>
<event>
 7    1  0.5400401E-006  0.2967394E+03  0.7546771E-02  0.1088423E+00
         -2   -1    0    0    0  501 -0.00000000000E+00  0.00000000000E+00  0.14497431214E+03  0.14497431214E+03  0.00000000000E+00 0. -1.
          2   -1    0    0  501    0  0.00000000000E+00 -0.00000000000E+00 -0.58608008969E+03  0.58608008969E+03  0.00000000000E+00 0.  1.
         23    2    1    2    0    0 -0.22829758152E+03  0.14246879744E+03 -0.19973646997E+03  0.35769953579E+03  0.12504861651E+03 0.  0.
          5    1    3    3  502    0 -0.14292104309E+02  0.23896284938E+02 -0.80860301057E+02  0.85649138738E+02  0.47000000000E+01 0.  1.
         -5    1    3    3    0  502 -0.21400547722E+03  0.11857251250E+03 -0.11887616891E+03  0.27205039705E+03  0.47000000000E+01 0.  1.
        -11    1    1    2    0    0  0.17391202981E+03 -0.10615500576E+03 -0.22949413352E+03  0.30689059399E+03  0.00000000000E+00 0.  1.
         11    1    1    2    0    0  0.54385551710E+02 -0.36313791676E+02 -0.11875174060E+02  0.66464272054E+02  0.00000000000E+00 0. -1.
<mgrwt>
<rscale>  0 0.29371918E+03</rscale>
<asrwt>0</asrwt>
<pdfrwt beam="2">  1        2 0.90166169E-01 0.29673945E+03</pdfrwt>
<pdfrwt beam="1">  1       -2 0.22303740E-01 0.29673945E+03</pdfrwt>
<totfact> 0.90400894E+02</totfact>
</mgrwt>
</event>
<event>
 7    1  0.5400401E-006  0.1651723E+03  0.7546771E-02  0.1190085E+00
         -3   -1    0    0    0  501 -0.00000000000E+00  0.00000000000E+00  0.12809462448E+04  0.12809462448E+04  0.00000000000E+00 0.  1.
          3   -1    0    0  501    0  0.00000000000E+00 -0.00000000000E+00 -0.21960062492E+02  0.21960062492E+02  0.00000000000E+00 0. -1.
         23    2    1    2    0    0 -0.10205121492E+03  0.35243804462E+02  0.93611136376E+03  0.95057159661E+03  0.12500119477E+03 0.  0.
          5    1    3    3  502    0 -0.21160450391E+02 -0.19637882872E+02  0.59448809578E+03  0.59520718840E+03  0.47000000000E+01 0.  1.
         -5    1    3    3    0  502 -0.80890764530E+02  0.54881687334E+02  0.34162326799E+03  0.35536440821E+03  0.47000000000E+01 0.  1.
        -11    1    1    2    0    0  0.78461503524E+02 -0.52642049363E+02  0.15206668740E+03  0.17902980286E+03  0.00000000000E+00 0. -1.
         11    1    1    2    0    0  0.23589711398E+02  0.17398244901E+02  0.17080813112E+03  0.17330490780E+03  0.00000000000E+00 0.  1.
<mgrwt>
<rscale>  0 0.15877662E+03</rscale>
<asrwt>0</asrwt>
<pdfrwt beam="2">  1        3 0.33784722E-02 0.16517226E+03</pdfrwt>
<pdfrwt beam="1">  1       -3 0.19706859E+00 0.16517226E+03</pdfrwt>
<totfact> 0.16950581E+02</totfact>
</mgrwt>
</event>
<event>
 6    1  0.5400401E-006  0.1851587E+03  0.7546771E-02  0.1171530E+00
          1   -1    0    0  501    0  0.00000000000E+00  0.00000000000E+00  0.21204820644E+03  0.21204820644E+03  0.00000000000E+00 0. -1.
         -1   -1    0    0    0  501 -0.00000000000E+00 -0.00000000000E+00 -0.13881744796E+03  0.13881744796E+03  0.00000000000E+00 0.  1.
          5    1    1    2  502    0  0.79651801064E+02 -0.74963411198E+02  0.39995397991E+02  0.11655747205E+03  0.47000000000E+01 0. -1.
         -5    1    1    2    0  502 -0.44421014364E+02 -0.40719050587E+02 -0.32745447260E+02  0.68743159035E+02  0.47000000000E+01 0.  1.
        -11    1    1    2    0    0 -0.11572470528E+02 -0.15054847232E+02  0.83516942078E+01  0.20744187028E+02  0.00000000000E+00 0.  1.
         11    1    1    2    0    0 -0.23658316172E+02  0.13073730902E+03  0.57629113540E+02  0.14482083628E+03  0.00000000000E+00 0. -1.
<mgrwt>
<rscale>  0 0.17620232E+03</rscale>
<asrwt>0</asrwt>
<pdfrwt beam="1">  1        1 0.32622801E-01 0.18515875E+03</pdfrwt>
<pdfrwt beam="2">  1       -1 0.21356530E-01 0.18515875E+03</pdfrwt>
<totfact> 0.24244569E+03</totfact>
</mgrwt>
</event>
<event>
 6    1  0.5400401E-006  0.5638676E+03  0.7546771E-02  0.1023973E+00
          1   -1    0    0  501    0  0.00000000000E+00  0.00000000000E+00  0.93184468924E+03  0.93184468924E+03  0.00000000000E+00 0. -1.
         -1   -1    0    0    0  501 -0.00000000000E+00 -0.00000000000E+00 -0.22239389382E+03  0.22239389382E+03  0.00000000000E+00 0.  1.
          5    1    1    2  502    0 -0.11505852749E+03  0.71476859410E+02  0.34514206675E+03  0.37079986842E+03  0.47000000000E+01 0. -1.
         -5    1    1    2    0  502 -0.10540542054E+03 -0.17569595193E+03 -0.11870160317E+03  0.23683650648E+03  0.47000000000E+01 0.  1.
        -11    1    1    2    0    0  0.19934896647E+03  0.87208571613E+02  0.46677337042E+03  0.51499779099E+03  0.00000000000E+00 0. -1.
         11    1    1    2    0    0  0.21114981566E+02  0.17010520909E+02  0.16236961424E+02  0.31604417166E+02  0.00000000000E+00 0.  1.
<mgrwt>
<rscale>  0 0.46279887E+03</rscale>
<asrwt>0</asrwt>
<pdfrwt beam="1">  1        1 0.14336072E+00 0.56386761E+03</pdfrwt>
<pdfrwt beam="2">  1       -1 0.34214446E-01 0.56386761E+03</pdfrwt>
<totfact> 0.14290590E+02</totfact>
</mgrwt>
</event>
<event>
 7    1  0.5400401E-006  0.1896633E+03  0.7546771E-02  0.1163792E+00
         -2   -1    0    0    0  501 -0.00000000000E+00  0.00000000000E+00  0.15573311959E+03  0.15573311959E+03  0.00000000000E+00 0.  1.
          2   -1    0    0  501    0  0.00000000000E+00 -0.00000000000E+00 -0.21681870711E+03  0.21681870711E+03  0.00000000000E+00 0. -1.
         23    2    1    2    0    0  0.10600929518E+03 -0.95433509085E+02  0.88563113128E+01  0.18987000498E+03  0.12500663671E+03 0.  0.
          5    1    3    3  502    0  0.32520887858E+02 -0.10405223952E+03 -0.18826209432E+02  0.11072936764E+03  0.47000000000E+01 0.  1.
         -5    1    3    3    0  502  0.73488407321E+02  0.86187304320E+01  0.27682520744E+02  0.79140637346E+02  0.47000000000E+01 0.  1.
        -11    1    1    2    0    0 -0.10589780798E+02  0.23179389944E+02 -0.56822752952E+02  0.62275619857E+02  0.00000000000E+00 0. -1.
         11    1    1    2    0    0 -0.95419514380E+02  0.72254119141E+02 -0.13119145881E+02  0.12040620186E+03  0.00000000000E+00 0.  1.
<mgrwt>
<rscale>  0 0.18420717E+03</rscale>
<asrwt>0</asrwt>
<pdfrwt beam="2">  1        2 0.33356724E-01 0.18966335E+03</pdfrwt>
<pdfrwt beam="1">  1       -2 0.23958941E-01 0.18966335E+03</pdfrwt>
<totfact> 0.23536688E+03</totfact>
</mgrwt>
</event>
<event>
 7    1  0.5400401E-006  0.1299260E+03  0.7546771E-02  0.1241893E+00
         -1   -1    0    0    0  501 -0.00000000000E+00  0.00000000000E+00  0.26517027629E+03  0.26517027629E+03  0.00000000000E+00 0.  1.
          1   -1    0    0  501    0  0.00000000000E+00 -0.00000000000E+00 -0.49707415466E+02  0.49707415466E+02  0.00000000000E+00 0. -1.
         23    2    1    2    0    0 -0.10176708572E+02 -0.33939623905E+02  0.14737333413E+03  0.19646794552E+03  0.12500116214E+03 0.  0.
          5    1    3    3  502    0 -0.56086027323E+02  0.18817403962E+02  0.59138970983E+02  0.83780934833E+02  0.47000000000E+01 0.  1.
         -5    1    3    3    0  502  0.45909318751E+02 -0.52757027866E+02  0.88234363150E+02  0.11268701069E+03  0.47000000000E+01 0.  1.
        -11    1    1    2    0    0  0.15049496402E+02  0.57319982596E+02  0.73000475268E+02  0.94027321222E+02  0.00000000000E+00 0.  1.
         11    1    1    2    0    0 -0.48727878302E+01 -0.23380358692E+02 -0.49109485731E+01  0.24382425016E+02  0.00000000000E+00 0. -1.
<mgrwt>
<rscale>  0 0.12073256E+03</rscale>
<asrwt>0</asrwt>
<pdfrwt beam="2">  1        1 0.76472949E-02 0.12992596E+03</pdfrwt>
<pdfrwt beam="1">  1       -1 0.40795426E-01 0.12992596E+03</pdfrwt>
<totfact> 0.52367723E+03</totfact>
</mgrwt>
</event>
<event>
 7    1  0.5400401E-006  0.1561739E+03  0.7546771E-02  0.1201198E+00
         -2   -1    0    0    0  501 -0.00000000000E+00  0.00000000000E+00  0.26146901551E+02  0.26146901551E+02  0.00000000000E+00 0.  1.
          2   -1    0    0  501    0  0.00000000000E+00 -0.00000000000E+00 -0.80289488765E+03  0.80289488765E+03  0.00000000000E+00 0. -1.
         23    2    1    2    0    0 -0.79714993430E+02 -0.49113295249E+02 -0.47901730987E+03  0.50383317205E+03  0.12499474452E+03 0.  0.
          5    1    3    3  502    0 -0.36625817024E+02 -0.10438080767E+02 -0.24299550415E+02  0.45419843165E+02  0.47000000000E+01 0.  1.
         -5    1    3    3    0  502 -0.43089176406E+02 -0.38675214482E+02 -0.45471775945E+03  0.45841332889E+03  0.47000000000E+01 0.  1.
        -11    1    1    2    0    0  0.32951946240E+02  0.71551083308E+02 -0.18802059334E+03  0.20385566414E+03  0.00000000000E+00 0.  1.
         11    1    1    2    0    0  0.46763047189E+02 -0.22437788059E+02 -0.10971008289E+03  0.12135295301E+03  0.00000000000E+00 0. -1.
<mgrwt>
<rscale>  0 0.14941185E+03</rscale>
<asrwt>0</asrwt>
<pdfrwt beam="2">  1        2 0.12352229E+00 0.15617388E+03</pdfrwt>
<pdfrwt beam="1">  1       -2 0.40226003E-02 0.15617388E+03</pdfrwt>
<totfact> 0.93252073E+03</totfact>
</mgrwt>
</event>
<event>
 7    1  0.5400401E-006  0.1834044E+03  0.7546771E-02  0.1169680E+00
         -2   -1    0    0    0  501 -0.00000000000E+00  0.00000000000E+00  0.81161578492E+02  0.81161578492E+02  0.00000000000E+00 0.  1.
          2   -1    0    0  501    0  0.00000000000E+00 -0.00000000000E+00 -0.39747702020E+03  0.39747702020E+03  0.00000000000E+00 0. -1.
         23    2    1    2    0    0  0.73542525875E+02  0.11235046461E+03 -0.10356034537E+03  0.21062270791E+03  0.12492417678E+03 0.  0.
          5    1    3    3  502    0  0.67498715755E+02  0.75025802323E+02 -0.12970808411E+03  0.16441175362E+03  0.47000000000E+01 0.  1.
         -5    1    3    3    0  502  0.60438101202E+01  0.37324662290E+02  0.26147738741E+02  0.46210954298E+02  0.47000000000E+01 0.  1.
        -11    1    1    2    0    0 -0.61349870695E+02 -0.74274887205E+02 -0.20607611793E+03  0.22748171769E+03  0.00000000000E+00 0. -1.
         11    1    1    2    0    0 -0.12192655181E+02 -0.38075577408E+02 -0.66789784092E+01  0.40534173088E+02  0.00000000000E+00 0.  1.
<mgrwt>
<rscale>  0 0.17807451E+03</rscale>
<asrwt>0</asrwt>
<pdfrwt beam="2">  1        2 0.61150310E-01 0.18340442E+03</pdfrwt>
<pdfrwt beam="1">  1       -2 0.12486397E-01 0.18340442E+03</pdfrwt>
<totfact> 0.36523582E+03</totfact>
</mgrwt>
</event>
<event>
 7    1  0.5400401E-006  0.3097210E+03  0.7546771E-02  0.1082008E+00
          1   -1    0    0  501    0  0.00000000000E+00  0.00000000000E+00  0.10821915449E+03  0.10821915449E+03  0.00000000000E+00 0. -1.
         -1   -1    0    0    0  501 -0.00000000000E+00 -0.00000000000E+00 -0.98769192192E+03  0.98769192192E+03  0.00000000000E+00 0.  1.
         23    2    1    2    0    0 -0.51981253503E+02 -0.27856790773E+03 -0.65125892205E+03  0.72115551236E+03  0.12499983811E+03 0.  0.
          5    1    3    3  502    0  0.38316447723E+02 -0.13150083702E+03 -0.29329900987E+03  0.32373912259E+03  0.47000000000E+01 0.  1.
         -5    1    3    3    0  502 -0.90297701225E+02 -0.14706707071E+03 -0.35795991218E+03  0.39741638978E+03  0.47000000000E+01 0.  1.
        -11    1    1    2    0    0  0.40309763052E+02  0.35865129757E+02 -0.34958433624E+02  0.64290563937E+02  0.00000000000E+00 0.  1.
         11    1    1    2    0    0  0.11671490450E+02  0.24270277797E+03 -0.19325541175E+03  0.31046500011E+03  0.00000000000E+00 0. -1.
<mgrwt>
<rscale>  0 0.30655616E+03</rscale>
<asrwt>0</asrwt>
<pdfrwt beam="1">  1        1 0.16649100E-01 0.30972099E+03</pdfrwt>
<pdfrwt beam="2">  1       -1 0.15195261E+00 0.30972099E+03</pdfrwt>
<totfact> 0.11859005E+02</totfact>
</mgrwt>
</event>
<event>
 7    1  0.5400401E-006  0.1337501E+03  0.7546771E-02  0.1235830E+00
         -1   -1    0    0    0  501 -0.00000000000E+00  0.00000000000E+00  0.28258273740E+03  0.28258273740E+03  0.00000000000E+00 0.  1.
          1   -1    0    0  501    0  0.00000000000E+00 -0.00000000000E+00 -0.10854755190E+03  0.10854755190E+03  0.00000000000E+00 0. -1.
         23    2    1    2    0    0  0.21053543627E+02  0.42668282362E+02  0.23730737718E+03  0.27240390512E+03  0.12500104896E+03 0.  0.
          5    1    3    3  502    0  0.55497607102E+02  0.92939564309E+01  0.39751478423E+02  0.69055282614E+02  0.47000000000E+01 0.  1.
         -5    1    3    3    0  502 -0.34444063475E+02  0.33374325931E+02  0.19755589876E+03  0.20334862251E+03  0.47000000000E+01 0.  1.
        -11    1    1    2    0    0 -0.39523179332E+02 -0.27434790123E+02  0.30568030867E+01  0.48208852493E+02  0.00000000000E+00 0.  1.
         11    1    1    2    0    0  0.18469635705E+02 -0.15233492238E+02 -0.66328994767E+02  0.70517531690E+02  0.00000000000E+00 0. -1.
<mgrwt>
<rscale>  0 0.12451479E+03</rscale>
<asrwt>0</asrwt>
<pdfrwt beam="2">  1        1 0.16699624E-01 0.13375013E+03</pdfrwt>
<pdfrwt beam="1">  1       -1 0.43474267E-01 0.13375013E+03</pdfrwt>
<totfact> 0.16784265E+03</totfact>
</mgrwt>
</event>
<event>
 7    1  0.5400401E-006  0.1690400E+03  0.7546771E-02  0.1183835E+00
          2   -1    0    0  501    0  0.00000000000E+00  0.00000000000E+00  0.21006516202E+03  0.21006516202E+03  0.00000000000E+00 0. -1.
         -2   -1    0    0    0  501 -0.00000000000E+00 -0.00000000000E+00 -0.12213626503E+03  0.12213626503E+03  0.00000000000E+00 0.  1.
         23    2    1    2    0    0  0.30377361926E+02  0.10981715067E+03  0.51369942170E+02  0.17667308851E+03  0.12486760407E+03 0.  0.
          5    1    3    3  502    0  0.35422735729E+02 -0.35907291395E+00  0.55721318151E+02  0.66195577166E+02  0.47000000000E+01 0. -1.
         -5    1    3    3    0  502 -0.50453738026E+01  0.11017622358E+03 -0.43513759809E+01  0.11047751134E+03  0.47000000000E+01 0. -1.
        -11    1    1    2    0    0  0.61051908877E+01 -0.12313787124E+02  0.48806890921E+02  0.50705180312E+02  0.00000000000E+00 0. -1.
         11    1    1    2    0    0 -0.36482552814E+02 -0.97503363544E+02 -0.12247936101E+02  0.10482315823E+03  0.00000000000E+00 0.  1.
<mgrwt>
<rscale>  0 0.16438371E+03</rscale>
<asrwt>0</asrwt>
<pdfrwt beam="1">  1        2 0.32317717E-01 0.16903996E+03</pdfrwt>
<pdfrwt beam="2">  1       -2 0.18790195E-01 0.16903996E+03</pdfrwt>
<totfact> 0.36784229E+03</totfact>
</mgrwt>
</event>
<event>
 7    1  0.5400401E-006  0.1282977E+03  0.7546771E-02  0.1244658E+00
          1   -1    0    0  501    0  0.00000000000E+00  0.00000000000E+00  0.79112606061E+03  0.79112606061E+03  0.00000000000E+00 0. -1.
         -1   -1    0    0    0  501 -0.00000000000E+00 -0.00000000000E+00 -0.15936343794E+02  0.15936343794E+02  0.00000000000E+00 0.  1.
         23    2    1    2    0    0  0.28266471194E+02 -0.61094242553E+01  0.40462612742E+03  0.42447920726E+03  0.12499590373E+03 0.  0.
          5    1    3    3  502    0  0.69431126116E+01 -0.35688649821E+02  0.28173481065E+02  0.46235501231E+02  0.47000000000E+01 0.  1.
         -5    1    3    3    0  502  0.21323358582E+02  0.29579225565E+02  0.37645264635E+03  0.37824370603E+03  0.47000000000E+01 0.  1.
        -11    1    1    2    0    0  0.73257407246E+01  0.41982123748E+02  0.20901543002E+03  0.21331576402E+03  0.00000000000E+00 0.  1.
         11    1    1    2    0    0 -0.35592211918E+02 -0.35872699492E+02  0.16154815937E+03  0.16926743312E+03  0.00000000000E+00 0. -1.
<mgrwt>
<rscale>  0 0.11905848E+03</rscale>
<asrwt>0</asrwt>
<pdfrwt beam="1">  1        1 0.12171167E+00 0.12829768E+03</pdfrwt>
<pdfrwt beam="2">  1       -1 0.24517458E-02 0.12829768E+03</pdfrwt>
<totfact> 0.11371270E+04</totfact>
</mgrwt>
</event>
<event>
 7    1  0.5400401E-006  0.1654346E+03  0.7546771E-02  0.1194795E+00
          2   -1    0    0  501    0  0.00000000000E+00  0.00000000000E+00  0.72537435471E+03  0.72537435471E+03  0.00000000000E+00 0. -1.
         -2   -1    0    0    0  501 -0.00000000000E+00 -0.00000000000E+00 -0.30447019907E+02  0.30447019907E+02  0.00000000000E+00 0.  1.
         23    2    1    2    0    0  0.11506371314E+03  0.13505896846E+02  0.32208085613E+03  0.36208382813E+03  0.11809552648E+03 0.  0.
          5    1    3    3  502    0 -0.86078905774E+01 -0.10728367473E+02  0.13908073734E+03  0.13983824637E+03  0.47000000000E+01 0. -1.
         -5    1    3    3    0  502  0.12367160372E+03  0.24234264320E+02  0.18300011879E+03  0.22224558176E+03  0.47000000000E+01 0.  1.
        -11    1    1    2    0    0 -0.10739087276E+03  0.11929565776E+01  0.34498498612E+03  0.36131546236E+03  0.00000000000E+00 0. -1.
         11    1    1    2    0    0 -0.76728403834E+01 -0.14698853424E+02  0.27861492559E+02  0.32422084127E+02  0.00000000000E+00 0.  1.
<mgrwt>
<rscale>  0 0.15471588E+03</rscale>
<asrwt>0</asrwt>
<pdfrwt beam="1">  1        2 0.11159604E+00 0.16543464E+03</pdfrwt>
<pdfrwt beam="2">  1       -2 0.46841574E-02 0.16543464E+03</pdfrwt>
<totfact> 0.84384950E+03</totfact>
</mgrwt>
</event>
<event>
 6    1  0.5400401E-006  0.1688623E+03  0.7546771E-02  0.1222194E+00
          2   -1    0    0  501    0  0.00000000000E+00  0.00000000000E+00  0.30691930819E+02  0.30691930819E+02  0.00000000000E+00 0. -1.
         -2   -1    0    0    0  501 -0.00000000000E+00 -0.00000000000E+00 -0.47579961319E+03  0.47579961319E+03  0.00000000000E+00 0.  1.
          5    1    1    2  502    0  0.32849091628E+02 -0.68268482970E+01  0.17423129239E+01  0.33923359692E+02  0.47000000000E+01 0. -1.
         -5    1    1    2    0  502 -0.17966803207E+02 -0.23936413248E+02 -0.36960974580E+03  0.37084931183E+03  0.47000000000E+01 0.  1.
        -11    1    1    2    0    0  0.20858788157E+02  0.50265069842E+01 -0.18704419960E+02  0.28464190519E+02  0.00000000000E+00 0. -1.
         11    1    1    2    0    0 -0.35741076579E+02  0.25736754561E+02 -0.58535829533E+02  0.73254681963E+02  0.00000000000E+00 0.  1.
<mgrwt>
<rscale>  0 0.13361096E+03</rscale>
<asrwt>0</asrwt>
<pdfrwt beam="1">  1        2 0.47218356E-02 0.16886227E+03</pdfrwt>
<pdfrwt beam="2">  1       -2 0.73199940E-01 0.16886227E+03</pdfrwt>
<totfact> 0.28498886E+03</totfact>
</mgrwt>
</event>
<event>
 7    1  0.5400401E-006  0.1743104E+03  0.7546771E-02  0.1180274E+00
         -2   -1    0    0    0  501 -0.00000000000E+00  0.00000000000E+00  0.20035792505E+02  0.20035792505E+02  0.00000000000E+00 0.  1.
          2   -1    0    0  501    0  0.00000000000E+00 -0.00000000000E+00 -0.13096515636E+04  0.13096515636E+04  0.00000000000E+00 0. -1.
         23    2    1    2    0    0  0.10841458370E+03 -0.54819738178E+02 -0.66365346583E+03  0.68616326503E+03  0.12500071164E+03 0.  0.
          5    1    3    3  502    0  0.12557785755E+03 -0.71369030654E+02 -0.61533447779E+03  0.63207748449E+03  0.47000000000E+01 0. -1.
         -5    1    3    3    0  502 -0.17163273856E+02  0.16549292476E+02 -0.48318988047E+02  0.54085780541E+02  0.47000000000E+01 0. -1.
        -11    1    1    2    0    0 -0.36526229866E+02 -0.22749220211E+02 -0.15753058046E+03  0.16330210124E+03  0.00000000000E+00 0.  1.
         11    1    1    2    0    0 -0.71888353832E+02  0.77568958389E+02 -0.46843172476E+03  0.48022198979E+03  0.00000000000E+00 0. -1.
<mgrwt>
<rscale>  0 0.16769380E+03</rscale>
<asrwt>0</asrwt>
<pdfrwt beam="2">  1        2 0.20148490E+00 0.17431037E+03</pdfrwt>
<pdfrwt beam="1">  1       -2 0.30824289E-02 0.17431037E+03</pdfrwt>
<totfact> 0.69496581E+03</totfact>
</mgrwt>
</event>
<event>
 7    1  0.5400401E-006  0.1583472E+03  0.7546771E-02  0.1198313E+00
          1   -1    0    0  501    0  0.00000000000E+00  0.00000000000E+00  0.30283733965E+02  0.30283733965E+02  0.00000000000E+00 0. -1.
         -1   -1    0    0    0  501 -0.00000000000E+00 -0.00000000000E+00 -0.70756697747E+03  0.70756697747E+03  0.00000000000E+00 0.  1.
         23    2    1    2    0    0 -0.23276978428E+02  0.94392044286E+02 -0.39397643825E+03  0.42460721205E+03  0.12498869901E+03 0.  0.
          5    1    3    3  502    0 -0.27842214070E+02  0.78000314137E+02 -0.39795727408E+03  0.40651115591E+03  0.47000000000E+01 0. -1.
         -5    1    3    3    0  502  0.45652356415E+01  0.16391730149E+02  0.39808358300E+01  0.18096056135E+02  0.47000000000E+01 0. -1.
        -11    1    1    2    0    0  0.10652722985E+02 -0.23266142330E+02 -0.54669505402E+01  0.26166418061E+02  0.00000000000E+00 0. -1.
         11    1    1    2    0    0  0.12624255443E+02 -0.71125901956E+02 -0.27783985472E+03  0.28707708133E+03  0.00000000000E+00 0.  1.
<mgrwt>
<rscale>  0 0.15177116E+03</rscale>
<asrwt>0</asrwt>
<pdfrwt beam="1">  1        1 0.46590362E-02 0.15834725E+03</pdfrwt>
<pdfrwt beam="2">  1       -1 0.10885645E+00 0.15834725E+03</pdfrwt>
<totfact> 0.14990048E+03</totfact>
</mgrwt>
</event>
<event>
 7    1  0.5400401E-006  0.1758821E+03  0.7546771E-02  0.1178518E+00
         -2   -1    0    0    0  501 -0.00000000000E+00  0.00000000000E+00  0.25268934312E+03  0.25268934312E+03  0.00000000000E+00 0.  1.
          2   -1    0    0  501    0  0.00000000000E+00 -0.00000000000E+00 -0.10840381032E+03  0.10840381032E+03  0.00000000000E+00 0. -1.
         23    2    1    2    0    0 -0.78526509386E+02  0.95629917317E+02  0.10510752523E+03  0.20489538816E+03  0.12499213763E+03 0.  0.
          5    1    3    3  502    0 -0.10842210051E+03  0.70358312595E+02  0.10312920183E+03  0.16541876043E+03  0.47000000000E+01 0. -1.
         -5    1    3    3    0  502  0.29895591127E+02  0.25271604722E+02  0.19783233979E+01  0.39476627737E+02  0.47000000000E+01 0. -1.
        -11    1    1    2    0    0  0.15726482368E+02 -0.26031617270E+02 -0.27625602745E+02  0.41086996390E+02  0.00000000000E+00 0. -1.
         11    1    1    2    0    0  0.62800027017E+02 -0.69598300047E+02  0.66803610311E+02  0.11511076889E+03  0.00000000000E+00 0.  1.
<mgrwt>
<rscale>  0 0.16935871E+03</rscale>
<asrwt>0</asrwt>
<pdfrwt beam="2">  1        2 0.16677509E-01 0.17588214E+03</pdfrwt>
<pdfrwt beam="1">  1       -2 0.38875283E-01 0.17588214E+03</pdfrwt>
<totfact> 0.21191359E+03</totfact>
</mgrwt>
</event>
<event>
 7    1  0.5400401E-006  0.1258896E+03  0.7546771E-02  0.1246715E+00
         -1   -1    0    0    0  501 -0.00000000000E+00  0.00000000000E+00  0.35409381956E+03  0.35409381956E+03  0.00000000000E+00 0.  1.
          1   -1    0    0  501    0  0.00000000000E+00 -0.00000000000E+00 -0.37795796613E+02  0.37795796613E+02  0.00000000000E+00 0. -1.
         23    2    1    2    0    0 -0.74850959923E+01  0.12925364988E+02  0.23064361077E+03  0.26276351313E+03  0.12500038768E+03 0.  0.
          5    1    3    3  502    0 -0.42507149849E+02  0.53730697836E+02  0.99031546662E+02  0.12051216915E+03  0.47000000000E+01 0. -1.
         -5    1    3    3    0  502  0.35022053857E+02 -0.40805332849E+02  0.13161206411E+03  0.14225134398E+03  0.47000000000E+01 0. -1.
        -11    1    1    2    0    0  0.14106178320E+02 -0.21370070993E+02  0.10441743310E+03  0.10751122982E+03  0.00000000000E+00 0.  1.
         11    1    1    2    0    0 -0.66210823275E+01  0.84447060057E+01 -0.18763020923E+02  0.21614873233E+02  0.00000000000E+00 0. -1.
<mgrwt>
<rscale>  0 0.11783316E+03</rscale>
<asrwt>0</asrwt>
<pdfrwt beam="2">  1        1 0.58147382E-02 0.12588959E+03</pdfrwt>
<pdfrwt beam="1">  1       -1 0.54475970E-01 0.12588959E+03</pdfrwt>
<totfact> 0.44896235E+03</totfact>
</mgrwt>
</event>
<event>
 7    1  0.5400401E-006  0.2277331E+03  0.7546771E-02  0.1132896E+00
         -2   -1    0    0    0  501 -0.00000000000E+00  0.00000000000E+00  0.31078335590E+03  0.31078335590E+03  0.00000000000E+00 0.  1.
          2   -1    0    0  501    0  0.00000000000E+00 -0.00000000000E+00 -0.16568389937E+03  0.16568389937E+03  0.00000000000E+00 0. -1.
         23    2    1    2    0    0  0.10480761229E+03  0.15891007680E+03  0.15093011022E+03  0.27320733932E+03  0.12500121594E+03 0.  0.
          5    1    3    3  502    0  0.47563030506E+01 -0.20893512056E+01 -0.17963815961E+02  0.19281506452E+02  0.47000000000E+01 0.  1.
         -5    1    3    3    0  502  0.10005130924E+03  0.16099942800E+03  0.16889392618E+03  0.25392583287E+03  0.47000000000E+01 0.  1.
        -11    1    1    2    0    0 -0.82574933992E+02 -0.61595965975E+02  0.28884751629E+01  0.10305836229E+03  0.00000000000E+00 0. -1.
         11    1    1    2    0    0 -0.22232678302E+02 -0.97314110820E+02 -0.87191288466E+01  0.10020155367E+03  0.00000000000E+00 0.  1.
<mgrwt>
<rscale>  0 0.22132875E+03</rscale>
<asrwt>0</asrwt>
<pdfrwt beam="2">  1        2 0.25489831E-01 0.22773307E+03</pdfrwt>
<pdfrwt beam="1">  1       -2 0.47812824E-01 0.22773307E+03</pdfrwt>
<totfact> 0.88239178E+02</totfact>
</mgrwt>
</event>
<event>
 7    1  0.5400401E-006  0.1405050E+03  0.7546771E-02  0.1223408E+00
         -2   -1    0    0    0  501 -0.00000000000E+00  0.00000000000E+00  0.45192529664E+02  0.45192529664E+02  0.00000000000E+00 0.  1.
          2   -1    0    0  501    0  0.00000000000E+00 -0.00000000000E+00 -0.35287223174E+03  0.35287223174E+03  0.00000000000E+00 0. -1.
         23    2    1    2    0    0  0.22623267193E-01  0.64098770604E+02 -0.16744310679E+03  0.21858376104E+03  0.12503205058E+03 0.  0.
          5    1    3    3  502    0  0.22136508075E+02  0.23031525421E+02  0.10980227240E+02  0.34104714384E+02  0.47000000000E+01 0. -1.
         -5    1    3    3    0  502 -0.22113884808E+02  0.41067245183E+02 -0.17842333403E+03  0.18447904665E+03  0.47000000000E+01 0. -1.
        -11    1    1    2    0    0  0.16281788321E+02 -0.38536468540E+02 -0.14304007864E+03  0.14903227884E+03  0.00000000000E+00 0. -1.
         11    1    1    2    0    0 -0.16304411588E+02 -0.25562302063E+02  0.28034833501E+01  0.30448721532E+02  0.00000000000E+00 0.  1.
<mgrwt>
<rscale>  0 0.13276603E+03</rscale>
<asrwt>0</asrwt>
<pdfrwt beam="2">  1        2 0.54288035E-01 0.14050504E+03</pdfrwt>
<pdfrwt beam="1">  1       -2 0.69526970E-02 0.14050504E+03</pdfrwt>
<totfact> 0.10246643E+04</totfact>
</mgrwt>
</event>
<event>
 7    1  0.5400401E-006  0.1357353E+03  0.7546771E-02  0.1232328E+00
         -3   -1    0    0    0  501 -0.00000000000E+00  0.00000000000E+00  0.17129010184E+03  0.17129010184E+03  0.00000000000E+00 0.  1.
          3   -1    0    0  501    0  0.00000000000E+00 -0.00000000000E+00 -0.84625804320E+02  0.84625804320E+02  0.00000000000E+00 0. -1.
         23    2    1    2    0    0  0.24257344824E+02 -0.47017039220E+02  0.64537752050E+02  0.15029705186E+03  0.12500024641E+03 0.  0.
          5    1    3    3  502    0 -0.35539188706E+02  0.23723682182E+02  0.20181842366E+02  0.47489407149E+02  0.47000000000E+01 0. -1.
         -5    1    3    3    0  502  0.59796533530E+02 -0.70740721401E+02  0.44355909684E+02  0.10280764471E+03  0.47000000000E+01 0. -1.
        -11    1    1    2    0    0  0.14483986728E+02  0.58256831853E+02  0.90229634127E+00  0.60037142402E+02  0.00000000000E+00 0. -1.
         11    1    1    2    0    0 -0.38741331552E+02 -0.11239792633E+02  0.21224249130E+02  0.45581711903E+02  0.00000000000E+00 0.  1.
<mgrwt>
<rscale>  0 0.12677064E+03</rscale>
<asrwt>0</asrwt>
<pdfrwt beam="2">  1        3 0.13019355E-01 0.13573534E+03</pdfrwt>
<pdfrwt beam="1">  1       -3 0.26352323E-01 0.13573534E+03</pdfrwt>
<totfact> 0.14836950E+03</totfact>
</mgrwt>
</event>
<event>
 7    1  0.5400401E-006  0.1793123E+03  0.7546771E-02  0.1174931E+00
         -2   -1    0    0    0  501 -0.00000000000E+00  0.00000000000E+00  0.12760954514E+03  0.12760954514E+03  0.00000000000E+00 0.  1.
          2   -1    0    0  501    0  0.00000000000E+00 -0.00000000000E+00 -0.22313236679E+03  0.22313236679E+03  0.00000000000E+00 0. -1.
         23    2    1    2    0    0 -0.12148633319E+03 -0.42141522455E+02 -0.26352643291E+02  0.18123840374E+03  0.12497223737E+03 0.  0.
          5    1    3    3  502    0 -0.12843486843E+03 -0.45448153713E+02 -0.58137301716E+02  0.14819948028E+03  0.47000000000E+01 0. -1.
         -5    1    3    3    0  502  0.69485352363E+01  0.33066312580E+01  0.31784658425E+02  0.33038923460E+02  0.47000000000E+01 0. -1.
        -11    1    1    2    0    0  0.43912600489E+02  0.10303433228E+02  0.17986130132E+02  0.48559016620E+02  0.00000000000E+00 0.  1.
         11    1    1    2    0    0  0.77573732703E+02  0.31838089228E+02 -0.87156308488E+02  0.12094449157E+03  0.00000000000E+00 0. -1.
<mgrwt>
<rscale>  0 0.17282786E+03</rscale>
<asrwt>0</asrwt>
<pdfrwt beam="2">  1        2 0.34328056E-01 0.17931229E+03</pdfrwt>
<pdfrwt beam="1">  1       -2 0.19632238E-01 0.17931229E+03</pdfrwt>
<totfact> 0.32080835E+03</totfact>
</mgrwt>
</event>
<event>
 7    1  0.5400401E-006  0.1450397E+03  0.7546771E-02  0.1216837E+00
          2   -1    0    0  501    0  0.00000000000E+00  0.00000000000E+00  0.22366637742E+03  0.22366637742E+03  0.00000000000E+00 0. -1.
         -2   -1    0    0    0  501 -0.00000000000E+00 -0.00000000000E+00 -0.78687823180E+02  0.78687823180E+02  0.00000000000E+00 0.  1.
         23    2    1    2    0    0 -0.68045417999E+02 -0.28166639034E+02  0.56111498403E+02  0.15551529784E+03  0.12495186731E+03 0.  0.
          5    1    3    3  502    0 -0.29636171866E+01 -0.57051428093E+02 -0.10060218877E+02  0.58197478280E+02  0.47000000000E+01 0.  1.
         -5    1    3    3    0  502 -0.65081800813E+02  0.28884789059E+02  0.66171717280E+02  0.97317819559E+02  0.47000000000E+01 0.  1.
        -11    1    1    2    0    0  0.90368468703E+01  0.35896469952E+02 -0.32617456840E+01  0.37159926551E+02  0.00000000000E+00 0.  1.
         11    1    1    2    0    0  0.59008571129E+02 -0.77298309177E+01  0.92128801517E+02  0.10967897621E+03  0.00000000000E+00 0. -1.
<mgrwt>
<rscale>  0 0.13742431E+03</rscale>
<asrwt>0</asrwt>
<pdfrwt beam="1">  1        2 0.34410212E-01 0.14503968E+03</pdfrwt>
<pdfrwt beam="2">  1       -2 0.12105819E-01 0.14503968E+03</pdfrwt>
<totfact> 0.70114250E+03</totfact>
</mgrwt>
</event>
<event>
 7    1  0.5400401E-006  0.1355881E+03  0.7546771E-02  0.1231678E+00
          2   -1    0    0  501    0  0.00000000000E+00  0.00000000000E+00  0.14638145696E+03  0.14638145696E+03  0.00000000000E+00 0. -1.
         -2   -1    0    0    0  501 -0.00000000000E+00 -0.00000000000E+00 -0.13552493304E+03  0.13552493304E+03  0.00000000000E+00 0.  1.
         23    2    1    2    0    0  0.28903761141E+01 -0.52443936277E+02 -0.66948183393E+02  0.15121572971E+03  0.12500166769E+03 0.  0.
          5    1    3    3  502    0  0.22132042576E+02  0.36652465570E+02 -0.31231587358E+02  0.53204629403E+02  0.47000000000E+01 0. -1.
         -5    1    3    3    0  502 -0.19241666462E+02 -0.89096401847E+02 -0.35716596034E+02  0.98011100303E+02  0.47000000000E+01 0. -1.
        -11    1    1    2    0    0  0.24643965657E+02 -0.51863768310E+01  0.58936867852E+02  0.64091949105E+02  0.00000000000E+00 0. -1.
         11    1    1    2    0    0 -0.27534341771E+02  0.57630313108E+02  0.18867839469E+02  0.66598711189E+02  0.00000000000E+00 0.  1.
<mgrwt>
<rscale>  0 0.12719523E+03</rscale>
<asrwt>0</asrwt>
<pdfrwt beam="1">  1        2 0.22520224E-01 0.13558812E+03</pdfrwt>
<pdfrwt beam="2">  1       -2 0.20849990E-01 0.13558812E+03</pdfrwt>
<totfact> 0.45308805E+03</totfact>
</mgrwt>
</event>
<event>
 7    1  0.5400401E-006  0.2350242E+03  0.7546771E-02  0.1125848E+00
         -1   -1    0    0    0  501 -0.00000000000E+00  0.00000000000E+00  0.39310054436E+03  0.39310054436E+03  0.00000000000E+00 0.  1.
          1   -1    0    0  501    0  0.00000000000E+00 -0.00000000000E+00 -0.20377580821E+03  0.20377580821E+03  0.00000000000E+00 0. -1.
         23    2    1    2    0    0 -0.19727519859E+03  0.26320478899E+02  0.27428730116E+03  0.36120617549E+03  0.12500442409E+03 0.  0.
          5    1    3    3  502    0 -0.73917593631E+02 -0.62030914696E+01  0.20032340816E+03  0.21366760833E+03  0.47000000000E+01 0. -1.
         -5    1    3    3    0  502 -0.12335760496E+03  0.32523570369E+02  0.73963893001E+02  0.14753856716E+03  0.47000000000E+01 0. -1.
        -11    1    1    2    0    0  0.18482564216E+03  0.51902260682E+01 -0.79857802859E+02  0.20140686464E+03  0.00000000000E+00 0. -1.
         11    1    1    2    0    0  0.12449556429E+02 -0.31510704968E+02 -0.51047621552E+01  0.34263312442E+02  0.00000000000E+00 0.  1.
<mgrwt>
<rscale>  0 0.23112788E+03</rscale>
<asrwt>0</asrwt>
<pdfrwt beam="2">  1        1 0.31350124E-01 0.23502421E+03</pdfrwt>
<pdfrwt beam="1">  1       -1 0.60477007E-01 0.23502421E+03</pdfrwt>
<totfact> 0.41230186E+02</totfact>
</mgrwt>
</event>
<event>
 6    1  0.5400401E-006  0.1390615E+03  0.7546771E-02  0.1230442E+00
          2   -1    0    0  501    0  0.00000000000E+00  0.00000000000E+00  0.88226046760E+03  0.88226046760E+03  0.00000000000E+00 0. -1.
         -2   -1    0    0    0  501 -0.00000000000E+00 -0.00000000000E+00 -0.16756000768E+02  0.16756000768E+02  0.00000000000E+00 0.  1.
          5    1    1    2  502    0  0.32630815431E+02 -0.23396113865E+02  0.49747957865E+02  0.64102243107E+02  0.47000000000E+01 0. -1.
         -5    1    1    2    0  502 -0.74387855541E+02  0.22709975193E+02  0.36883808262E+03  0.37697866944E+03  0.47000000000E+01 0.  1.
        -11    1    1    2    0    0  0.53591445910E+02  0.34603412901E+02  0.29694996272E+03  0.30372474318E+03  0.00000000000E+00 0.  1.
         11    1    1    2    0    0 -0.11834405800E+02 -0.33917274229E+02  0.14996846363E+03  0.15421081264E+03  0.00000000000E+00 0. -1.
<mgrwt>
<rscale>  0 0.12800768E+03</rscale>
<asrwt>0</asrwt>
<pdfrwt beam="1">  1        2 0.13573234E+00 0.13906149E+03</pdfrwt>
<pdfrwt beam="2">  1       -2 0.25778470E-02 0.13906149E+03</pdfrwt>
<totfact> 0.15839632E+04</totfact>
</mgrwt>
</event>
<event>
 7    1  0.5400401E-006  0.1472598E+03  0.7546771E-02  0.1213116E+00
         -2   -1    0    0    0  501 -0.00000000000E+00  0.00000000000E+00  0.15824724488E+03  0.15824724488E+03  0.00000000000E+00 0.  1.
          2   -1    0    0  501    0  0.00000000000E+00 -0.00000000000E+00 -0.15255960859E+03  0.15255960859E+03  0.00000000000E+00 0. -1.
         23    2    1    2    0    0  0.76066837707E+02  0.16549689740E+02  0.81343997215E+02  0.16823289373E+03  0.12500161847E+03 0.  0.
          5    1    3    3  502    0  0.28396014123E+02  0.43358639184E+02 -0.17720233046E+02  0.54976375555E+02  0.47000000000E+01 0.  1.
         -5    1    3    3    0  502  0.47670823583E+02 -0.26808949444E+02  0.99064230261E+02  0.11325651817E+03  0.47000000000E+01 0.  1.
        -11    1    1    2    0    0 -0.73288981581E+02 -0.26759347429E+02 -0.93532127474E+02  0.12180146291E+03  0.00000000000E+00 0. -1.
         11    1    1    2    0    0 -0.27778561251E+01  0.10209657689E+02  0.17875766549E+02  0.20772496829E+02  0.00000000000E+00 0.  1.
<mgrwt>
<rscale>  0 0.14015874E+03</rscale>
<asrwt>0</asrwt>
<pdfrwt beam="2">  1        2 0.23470709E-01 0.14725984E+03</pdfrwt>
<pdfrwt beam="1">  1       -2 0.24345730E-01 0.14725984E+03</pdfrwt>
<totfact> 0.33287771E+03</totfact>
</mgrwt>
</event>
<event>
 7    1  0.5400401E-006  0.1346528E+03  0.7546771E-02  0.1233122E+00
         -1   -1    0    0    0  501 -0.00000000000E+00  0.00000000000E+00  0.22896615557E+02  0.22896615557E+02  0.00000000000E+00 0.  1.
          1   -1    0    0  501    0  0.00000000000E+00 -0.00000000000E+00 -0.63053037789E+03  0.63053037789E+03  0.00000000000E+00 0. -1.
         23    2    1    2    0    0 -0.28408574248E+02  0.41223971594E+02 -0.30510110751E+03  0.33349372373E+03  0.12499966017E+03 0.  0.
          5    1    3    3  502    0  0.18720094470E+02 -0.36329465915E+02 -0.66764612183E+02  0.78421141733E+02  0.47000000000E+01 0.  1.
         -5    1    3    3    0  502 -0.47128668718E+02  0.77553437510E+02 -0.23833649532E+03  0.25507258200E+03  0.47000000000E+01 0.  1.
        -11    1    1    2    0    0  0.40142609171E+02 -0.48864423800E+02 -0.29883224326E+03  0.30545027516E+03  0.00000000000E+00 0. -1.
         11    1    1    2    0    0 -0.11734034923E+02  0.76404522063E+01 -0.37004115656E+01  0.14482994554E+02  0.00000000000E+00 0.  1.
<mgrwt>
<rscale>  0 0.12625442E+03</rscale>
<asrwt>0</asrwt>
<pdfrwt beam="2">  1        1 0.97004677E-01 0.13465281E+03</pdfrwt>
<pdfrwt beam="1">  1       -1 0.35225561E-02 0.13465281E+03</pdfrwt>
<totfact> 0.93249034E+03</totfact>
</mgrwt>
</event>
<event>
 7    1  0.5400401E-006  0.1715171E+03  0.7546771E-02  0.1182688E+00
          1   -1    0    0  501    0  0.00000000000E+00  0.00000000000E+00  0.10048553235E+03  0.10048553235E+03  0.00000000000E+00 0. -1.
         -1   -1    0    0    0  501 -0.00000000000E+00 -0.00000000000E+00 -0.25484261725E+03  0.25484261725E+03  0.00000000000E+00 0.  1.
         23    2    1    2    0    0  0.22808915075E+02 -0.11515797869E+03 -0.86184236141E+02  0.19195266495E+03  0.12504597697E+03 0.  0.
          5    1    3    3  502    0 -0.28427572166E+02 -0.87519597428E+02 -0.95620820440E+02  0.13279020331E+03  0.47000000000E+01 0. -1.
         -5    1    3    3    0  502  0.51236487242E+02 -0.27638381265E+02  0.94365842991E+01  0.59162461638E+02  0.47000000000E+01 0. -1.
        -11    1    1    2    0    0  0.29262178069E+02  0.49443596773E+02 -0.36336282315E+01  0.57568633659E+02  0.00000000000E+00 0. -1.
         11    1    1    2    0    0 -0.52071093144E+02  0.65714381920E+02 -0.64539220520E+02  0.10580685100E+03  0.00000000000E+00 0.  1.
<mgrwt>
<rscale>  0 0.16544050E+03</rscale>
<asrwt>0</asrwt>
<pdfrwt beam="1">  1        1 0.15459313E-01 0.17151706E+03</pdfrwt>
<pdfrwt beam="2">  1       -1 0.39206556E-01 0.17151706E+03</pdfrwt>
<totfact> 0.22467567E+03</totfact>
</mgrwt>
</event>
<event>
 7    1  0.5400401E-006  0.1420869E+03  0.7546771E-02  0.1221180E+00
         -2   -1    0    0    0  501 -0.00000000000E+00  0.00000000000E+00  0.15369594378E+03  0.15369594378E+03  0.00000000000E+00 0.  1.
          2   -1    0    0  501    0  0.00000000000E+00 -0.00000000000E+00 -0.14177469438E+03  0.14177469438E+03  0.00000000000E+00 0. -1.
         23    2    1    2    0    0  0.56480634686E+02  0.37056874196E+02  0.80074715301E+02  0.16309706590E+03  0.12500167541E+03 0.  0.
          5    1    3    3  502    0  0.71235987082E+02  0.67644265114E+02  0.82996285477E+02  0.12868871692E+03  0.47000000000E+01 0.  1.
         -5    1    3    3    0  502 -0.14755352396E+02 -0.30587390918E+02 -0.29215701758E+01  0.34408348984E+02  0.47000000000E+01 0.  1.
        -11    1    1    2    0    0 -0.53983126539E+02 -0.68211795283E+01  0.35376396917E+01  0.54527253146E+02  0.00000000000E+00 0.  1.
         11    1    1    2    0    0 -0.24975081475E+01 -0.30235694668E+02 -0.71691105591E+02  0.77846319115E+02  0.00000000000E+00 0. -1.
<mgrwt>
<rscale>  0 0.13432167E+03</rscale>
<asrwt>0</asrwt>
<pdfrwt beam="2">  1        2 0.21811491E-01 0.14208692E+03</pdfrwt>
<pdfrwt beam="1">  1       -2 0.23645530E-01 0.14208692E+03</pdfrwt>
<totfact> 0.37934863E+03</totfact>
</mgrwt>
</event>
<event>
 7    1  0.5400401E-006  0.1389775E+03  0.7546771E-02  0.1225839E+00
          2   -1    0    0  501    0  0.00000000000E+00  0.00000000000E+00  0.89061664490E+03  0.89061664490E+03  0.00000000000E+00 0. -1.
         -2   -1    0    0    0  501 -0.00000000000E+00 -0.00000000000E+00 -0.17410110596E+02  0.17410110596E+02  0.00000000000E+00 0.  1.
         23    2    1    2    0    0  0.48159015189E+02  0.36963044947E+02  0.49477111194E+03  0.51391945083E+03  0.12501676409E+03 0.  0.
          5    1    3    3  502    0 -0.33932736840E+02  0.22100854765E+02  0.28850642399E+03  0.29137248514E+03  0.47000000000E+01 0. -1.
         -5    1    3    3    0  502  0.82091752029E+02  0.14862190182E+02  0.20626468794E+03  0.22254696570E+03  0.47000000000E+01 0. -1.
        -11    1    1    2    0    0 -0.66146430246E+02 -0.74290307652E+01  0.31401709648E+03  0.32099420184E+03  0.00000000000E+00 0.  1.
         11    1    1    2    0    0  0.17987415057E+02 -0.29534014182E+02  0.64418325887E+02  0.73113102822E+02  0.00000000000E+00 0. -1.
<mgrwt>
<rscale>  0 0.13109582E+03</rscale>
<asrwt>0</asrwt>
<pdfrwt beam="1">  1        2 0.13701791E+00 0.13897751E+03</pdfrwt>
<pdfrwt beam="2">  1       -2 0.26784792E-02 0.13897751E+03</pdfrwt>
<totfact> 0.14793096E+04</totfact>
</mgrwt>
</event>
<event>
 7    1  0.5400401E-006  0.1859071E+03  0.7546771E-02  0.1167564E+00
         -2   -1    0    0    0  501 -0.00000000000E+00  0.00000000000E+00  0.12129484982E+03  0.12129484982E+03  0.00000000000E+00 0.  1.
          2   -1    0    0  501    0  0.00000000000E+00 -0.00000000000E+00 -0.25396890054E+03  0.25396890054E+03  0.00000000000E+00 0. -1.
         23    2    1    2    0    0 -0.13760377847E+03 -0.66557813562E+00 -0.57473204461E+02  0.19458835650E+03  0.12500486554E+03 0.  0.
          5    1    3    3  502    0 -0.15877707910E+02  0.48977245952E+02 -0.31389457874E+02  0.60483553923E+02  0.47000000000E+01 0.  1.
         -5    1    3    3    0  502 -0.12172607056E+03 -0.49642824087E+02 -0.26083746587E+02  0.13410480258E+03  0.47000000000E+01 0.  1.
        -11    1    1    2    0    0  0.72534958454E+02 -0.60901618207E+00  0.10255202370E+02  0.73258857992E+02  0.00000000000E+00 0.  1.
         11    1    1    2    0    0  0.65068820019E+02  0.12745943177E+01 -0.85456048633E+02  0.10741653587E+03  0.00000000000E+00 0. -1.
<mgrwt>
<rscale>  0 0.18024749E+03</rscale>
<asrwt>0</asrwt>
<pdfrwt beam="2">  1        2 0.39072139E-01 0.18590713E+03</pdfrwt>
<pdfrwt beam="1">  1       -2 0.18660746E-01 0.18590713E+03</pdfrwt>
<totfact> 0.30453716E+03</totfact>
</mgrwt>
</event>
<event>
 7    1  0.5400401E-006  0.1282058E+03  0.7546771E-02  0.1243637E+00
         -2   -1    0    0    0  501 -0.00000000000E+00  0.00000000000E+00  0.25940886249E+02  0.25940886249E+02  0.00000000000E+00 0.  1.
          2   -1    0    0  501    0  0.00000000000E+00 -0.00000000000E+00 -0.49023563073E+03  0.49023563073E+03  0.00000000000E+00 0. -1.
         23    2    1    2    0    0  0.80317292444E+01  0.27316469068E+02 -0.26332395793E+03  0.29287580293E+03  0.12500412379E+03 0.  0.
          5    1    3    3  502    0  0.62474518283E+02  0.31090076193E+02 -0.11311862340E+03  0.13299462858E+03  0.47000000000E+01 0.  1.
         -5    1    3    3    0  502 -0.54442789038E+02 -0.37736071250E+01 -0.15020533453E+03  0.15988117435E+03  0.47000000000E+01 0.  1.
        -11    1    1    2    0    0 -0.20805924830E+02  0.20198491196E+02 -0.18696582873E+02  0.34502576219E+02  0.00000000000E+00 0.  1.
         11    1    1    2    0    0  0.12774195585E+02 -0.47514960264E+02 -0.18227420368E+03  0.18879813783E+03  0.00000000000E+00 0. -1.
<mgrwt>
<rscale>  0 0.11967327E+03</rscale>
<asrwt>0</asrwt>
<pdfrwt beam="2">  1        2 0.75420858E-01 0.12820581E+03</pdfrwt>
<pdfrwt beam="1">  1       -2 0.39909060E-02 0.12820581E+03</pdfrwt>
<totfact> 0.16487252E+04</totfact>
</mgrwt>
</event>
<event>
 7    1  0.5400401E-006  0.1301800E+03  0.7546771E-02  0.1239923E+00
          4   -1    0    0  501    0  0.00000000000E+00  0.00000000000E+00  0.23315535699E+03  0.23315535699E+03  0.00000000000E+00 0. -1.
         -4   -1    0    0    0  501 -0.00000000000E+00 -0.00000000000E+00 -0.96926900722E+02  0.96926900722E+02  0.00000000000E+00 0.  1.
         23    2    1    2    0    0 -0.26561394537E+02  0.24820968616E+02 -0.32182938978E+02  0.13409910596E+03  0.12500096198E+03 0.  0.
          5    1    3    3  502    0 -0.49758772094E+02  0.65936497819E+02 -0.20520750253E+02  0.85245224710E+02  0.47000000000E+01 0.  1.
         -5    1    3    3    0  502  0.23197377557E+02 -0.41115529203E+02 -0.11662188725E+02  0.48853881249E+02  0.47000000000E+01 0.  1.
        -11    1    1    2    0    0 -0.23376924444E+02 -0.38571743791E+02  0.53758151304E+02  0.70172636028E+02  0.00000000000E+00 0.  1.
         11    1    1    2    0    0  0.49938318980E+02  0.13750775175E+02  0.11465324394E+03  0.12581051572E+03  0.00000000000E+00 0. -1.
<mgrwt>
<rscale>  0 0.12194464E+03</rscale>
<asrwt>0</asrwt>
<pdfrwt beam="1">  1        4 0.35870055E-01 0.13017999E+03</pdfrwt>
<pdfrwt beam="2">  1       -4 0.14911831E-01 0.13017999E+03</pdfrwt>
<totfact> 0.47240857E+02</totfact>
</mgrwt>
</event>
<event>
 7    1  0.5400401E-006  0.1466610E+03  0.7546771E-02  0.1214604E+00
         -1   -1    0    0    0  501 -0.00000000000E+00  0.00000000000E+00  0.83783568297E+02  0.83783568297E+02  0.00000000000E+00 0.  1.
          1   -1    0    0  501    0  0.00000000000E+00 -0.00000000000E+00 -0.29509602759E+03  0.29509602759E+03  0.00000000000E+00 0. -1.
         23    2    1    2    0    0 -0.26874334354E+02 -0.71847693796E+02 -0.12211776923E+02  0.14716856284E+03  0.12500054976E+03 0.  0.
          5    1    3    3  502    0 -0.10283114255E+01 -0.95852954447E+02 -0.37998123420E+02  0.10322206007E+03  0.47000000000E+01 0.  1.
         -5    1    3    3    0  502 -0.25846022928E+02  0.24005260651E+02  0.25786346498E+02  0.43946502771E+02  0.47000000000E+01 0.  1.
        -11    1    1    2    0    0  0.24951849837E+02  0.22885772976E+02 -0.84942150191E+01  0.34907092456E+02  0.00000000000E+00 0.  1.
         11    1    1    2    0    0  0.19224845170E+01  0.48961920821E+02 -0.19060646735E+03  0.19680394059E+03  0.00000000000E+00 0. -1.
<mgrwt>
<rscale>  0 0.13905654E+03</rscale>
<asrwt>0</asrwt>
<pdfrwt beam="2">  1        1 0.45399389E-01 0.14666103E+03</pdfrwt>
<pdfrwt beam="1">  1       -1 0.12889780E-01 0.14666103E+03</pdfrwt>
<totfact> 0.35489992E+03</totfact>
</mgrwt>
</event>
<event>
 7    1  0.5400401E-006  0.1329657E+03  0.7546771E-02  0.1236285E+00
          1   -1    0    0  501    0  0.00000000000E+00  0.00000000000E+00  0.14564608603E+03  0.14564608603E+03  0.00000000000E+00 0. -1.
         -1   -1    0    0    0  501 -0.00000000000E+00 -0.00000000000E+00 -0.94593107944E+02  0.94593107944E+02  0.00000000000E+00 0.  1.
         23    2    1    2    0    0 -0.40840835038E+02 -0.19680360691E+02  0.21330093664E+02  0.13466570843E+03  0.12499835890E+03 0.  0.
          5    1    3    3  502    0 -0.53085075774E+02  0.43277256064E+02  0.11594381021E+02  0.69623744754E+02  0.47000000000E+01 0. -1.
         -5    1    3    3    0  502  0.12244240736E+02 -0.62957616755E+02  0.97357126428E+01  0.65041963680E+02  0.47000000000E+01 0. -1.
        -11    1    1    2    0    0  0.54370437175E+02 -0.19958707022E+02  0.82407199835E+01  0.58501315288E+02  0.00000000000E+00 0.  1.
         11    1    1    2    0    0 -0.13529602137E+02  0.39639067712E+02  0.21482164434E+02  0.47072170248E+02  0.00000000000E+00 0. -1.
<mgrwt>
<rscale>  0 0.12422540E+03</rscale>
<asrwt>0</asrwt>
<pdfrwt beam="1">  1        1 0.22407090E-01 0.13296571E+03</pdfrwt>
<pdfrwt beam="2">  1       -1 0.14552786E-01 0.13296571E+03</pdfrwt>
<totfact> 0.70370047E+03</totfact>
</mgrwt>
</event>
<event>
 7    1  0.5400401E-006  0.4143222E+03  0.7546771E-02  0.1039657E+00
         -2   -1    0    0    0  501 -0.00000000000E+00  0.00000000000E+00  0.39436737184E+03  0.39436737184E+03  0.00000000000E+00 0. -1.
          2   -1    0    0  501    0  0.00000000000E+00 -0.00000000000E+00 -0.49477903155E+03  0.49477903155E+03  0.00000000000E+00 0.  1.
         23    2    1    2    0    0 -0.29339038290E+03 -0.26449509640E+03  0.11482137631E+03  0.42993816694E+03  0.12500922420E+03 0.  0.
          5    1    3    3  502    0 -0.65425935860E+02 -0.17112499847E+01  0.86576145481E+01  0.66185540334E+02  0.47000000000E+01 0.  1.
         -5    1    3    3    0  502 -0.22796444704E+03 -0.26278384642E+03  0.10616376176E+03  0.36375262660E+03  0.47000000000E+01 0.  1.
        -11    1    1    2    0    0  0.22564852374E+03  0.18594000941E+03 -0.20028258721E+03  0.35440662819E+03  0.00000000000E+00 0.  1.
         11    1    1    2    0    0  0.67741859157E+02  0.78555086995E+02 -0.14950448799E+02  0.10480160826E+03  0.00000000000E+00 0. -1.
<mgrwt>
<rscale>  0 0.41213536E+03</rscale>
<asrwt>0</asrwt>
<pdfrwt beam="2">  1        2 0.76119851E-01 0.41432219E+03</pdfrwt>
<pdfrwt beam="1">  1       -2 0.60671904E-01 0.41432219E+03</pdfrwt>
<totfact> 0.16232113E+02</totfact>
</mgrwt>
</event>
<event>
 7    1  0.5400401E-006  0.1904344E+03  0.7546771E-02  0.1163020E+00
         -2   -1    0    0    0  501 -0.00000000000E+00  0.00000000000E+00  0.96235447021E+02  0.96235447021E+02  0.00000000000E+00 0. -1.
          2   -1    0    0  501    0  0.00000000000E+00 -0.00000000000E+00 -0.36332703834E+03  0.36332703834E+03  0.00000000000E+00 0.  1.
         23    2    1    2    0    0  0.13954589387E+03 -0.34177113314E+02 -0.78881594236E+02  0.20612512514E+03  0.12499651889E+03 0.  0.
          5    1    3    3  502    0  0.15067908120E+03 -0.16560469400E+00 -0.78637096329E+02  0.17002969110E+03  0.47000000000E+01 0. -1.
         -5    1    3    3    0  502 -0.11133187336E+02 -0.34011508620E+02 -0.24449790698E+00  0.36095434034E+02  0.47000000000E+01 0. -1.
        -11    1    1    2    0    0 -0.12891103875E+03  0.45429046224E+02 -0.19364930992E+03  0.23702723342E+03  0.00000000000E+00 0.  1.
         11    1    1    2    0    0 -0.10634855122E+02 -0.11251932910E+02  0.54393128335E+01  0.16410126806E+02  0.00000000000E+00 0. -1.
<mgrwt>
<rscale>  0 0.18503217E+03</rscale>
<asrwt>0</asrwt>
<pdfrwt beam="2">  1        2 0.55896468E-01 0.19043440E+03</pdfrwt>
<pdfrwt beam="1">  1       -2 0.14805453E-01 0.19043440E+03</pdfrwt>
<totfact> 0.30530309E+03</totfact>
</mgrwt>
</event>
<event>
 7    1  0.5400401E-006  0.1833317E+03  0.7546771E-02  0.1170011E+00
         -1   -1    0    0    0  501 -0.00000000000E+00  0.00000000000E+00  0.43915897524E+02  0.43915897524E+02  0.00000000000E+00 0.  1.
          1   -1    0    0  501    0  0.00000000000E+00 -0.00000000000E+00 -0.96659083642E+03  0.96659083642E+03  0.00000000000E+00 0. -1.
         23    2    1    2    0    0 -0.13411633608E+03  0.14544713141E+01 -0.20602666202E+03  0.27578526064E+03  0.12498486881E+03 0.  0.
          5    1    3    3  502    0  0.14172308969E+02 -0.16680634480E+02 -0.14641191073E+01  0.22435051881E+02  0.47000000000E+01 0.  1.
         -5    1    3    3    0  502 -0.14828864505E+03  0.18135105794E+02 -0.20456254291E+03  0.25335020875E+03  0.47000000000E+01 0.  1.
        -11    1    1    2    0    0 -0.10267013356E+01 -0.24692299858E+02 -0.11996159760E+03  0.12248080946E+03  0.00000000000E+00 0.  1.
         11    1    1    2    0    0  0.13514303742E+03  0.23237828544E+02 -0.59668667928E+03  0.61224066385E+03  0.00000000000E+00 0. -1.
<mgrwt>
<rscale>  0 0.17773783E+03</rscale>
<asrwt>0</asrwt>
<pdfrwt beam="2">  1        1 0.14870628E+00 0.18333173E+03</pdfrwt>
<pdfrwt beam="1">  1       -1 0.67562921E-02 0.18333173E+03</pdfrwt>
<totfact> 0.18839376E+03</totfact>
</mgrwt>
</event>
<event>
 7    1  0.5400401E-006  0.1417733E+03  0.7546771E-02  0.1220775E+00
          2   -1    0    0  501    0  0.00000000000E+00  0.00000000000E+00  0.33718015522E+03  0.33718015522E+03  0.00000000000E+00 0.  1.
         -2   -1    0    0    0  501 -0.00000000000E+00 -0.00000000000E+00 -0.48971600586E+02  0.48971600586E+02  0.00000000000E+00 0. -1.
         23    2    1    2    0    0 -0.22532564115E+01 -0.66859945694E+02  0.16120838099E+03  0.21468074838E+03  0.12499740846E+03 0.  0.
          5    1    3    3  502    0  0.33342098520E+02 -0.29579365595E+02  0.15640475723E+03  0.16269963886E+03  0.47000000000E+01 0. -1.
         -5    1    3    3    0  502 -0.35595354932E+02 -0.37280580099E+02  0.48036237594E+01  0.51981109516E+02  0.47000000000E+01 0. -1.
        -11    1    1    2    0    0 -0.26750794415E+02  0.59694064190E+02  0.12553884454E+03  0.14155913178E+03  0.00000000000E+00 0.  1.
         11    1    1    2    0    0  0.29004050826E+02  0.71658815038E+01  0.14613291071E+01  0.29911875648E+02  0.00000000000E+00 0. -1.
<mgrwt>
<rscale>  0 0.13460716E+03</rscale>
<asrwt>0</asrwt>
<pdfrwt beam="1">  1        2 0.51873868E-01 0.14177335E+03</pdfrwt>
<pdfrwt beam="2">  1       -2 0.75340926E-02 0.14177335E+03</pdfrwt>
<totfact> 0.95129822E+03</totfact>
</mgrwt>
</event>
<event>
 7    1  0.5400401E-006  0.2586594E+03  0.7546771E-02  0.1110376E+00
         -2   -1    0    0    0  501 -0.00000000000E+00  0.00000000000E+00  0.41280943610E+02  0.41280943610E+02  0.00000000000E+00 0.  1.
          2   -1    0    0  501    0  0.00000000000E+00 -0.00000000000E+00 -0.17796658084E+04  0.17796658084E+04  0.00000000000E+00 0. -1.
         23    2    1    2    0    0 -0.20471572608E+02  0.22552493554E+03 -0.54792168365E+03  0.60590665828E+03  0.12499650114E+03 0.  0.
          5    1    3    3  502    0  0.20317368374E+02  0.11141314072E+03 -0.13886792782E+03  0.17925421825E+03  0.47000000000E+01 0. -1.
         -5    1    3    3    0  502 -0.40788940983E+02  0.11411179482E+03 -0.40905375583E+03  0.42665244003E+03  0.47000000000E+01 0. -1.
        -11    1    1    2    0    0 -0.17235342559E+02 -0.18893384428E+03 -0.88706826033E+03  0.90712907187E+03  0.00000000000E+00 0.  1.
         11    1    1    2    0    0  0.37706915168E+02 -0.36591091261E+02 -0.30339492083E+03  0.30791102189E+03  0.00000000000E+00 0. -1.
<mgrwt>
<rscale>  0 0.25469060E+03</rscale>
<asrwt>0</asrwt>
<pdfrwt beam="2">  1        2 0.27379469E+00 0.25865944E+03</pdfrwt>
<pdfrwt beam="1">  1       -2 0.63509155E-02 0.25865944E+03</pdfrwt>
<totfact> 0.13165839E+03</totfact>
</mgrwt>
</event>
<event>
 7    1  0.5400401E-006  0.1258479E+03  0.7546771E-02  0.1249327E+00
          2   -1    0    0  501    0  0.00000000000E+00  0.00000000000E+00  0.16135942553E+03  0.16135942553E+03  0.00000000000E+00 0. -1.
         -2   -1    0    0    0  501 -0.00000000000E+00 -0.00000000000E+00 -0.84403746617E+02  0.84403746617E+02  0.00000000000E+00 0.  1.
         23    2    1    2    0    0  0.12234495374E+02  0.79365628855E+01 -0.20730267826E+00  0.12584809789E+03  0.12500011544E+03 0.  0.
          5    1    3    3  502    0  0.75444894813E+01 -0.79453047812E+01  0.61057655773E+02  0.62210726713E+02  0.47000000000E+01 0. -1.
         -5    1    3    3    0  502  0.46900058925E+01  0.15881867667E+02 -0.61264958451E+02  0.63637371174E+02  0.47000000000E+01 0. -1.
        -11    1    1    2    0    0 -0.28416022518E+02 -0.24093873199E+02 -0.22027810605E+01  0.37320735602E+02  0.00000000000E+00 0.  1.
         11    1    1    2    0    0  0.16181527144E+02  0.16157310313E+02  0.79365762653E+02  0.82594338660E+02  0.00000000000E+00 0. -1.
<mgrwt>
<rscale>  0 0.11630115E+03</rscale>
<asrwt>0</asrwt>
<pdfrwt beam="1">  1        2 0.24824527E-01 0.12584793E+03</pdfrwt>
<pdfrwt beam="2">  1       -2 0.12985192E-01 0.12584793E+03</pdfrwt>
<totfact> 0.88425449E+03</totfact>
</mgrwt>
</event>
<event>
 7    1  0.5400401E-006  0.1279205E+03  0.7546771E-02  0.1245129E+00
          1   -1    0    0  501    0  0.00000000000E+00  0.00000000000E+00  0.20139039920E+02  0.20139039920E+02  0.00000000000E+00 0. -1.
         -1   -1    0    0    0  501 -0.00000000000E+00 -0.00000000000E+00 -0.63387101604E+03  0.63387101604E+03  0.00000000000E+00 0.  1.
         23    2    1    2    0    0  0.27186717781E+02 -0.12770699041E+01 -0.40311768193E+03  0.42292731239E+03  0.12499158992E+03 0.  0.
          5    1    3    3  502    0  0.90822482110E+01  0.39884693357E+02 -0.41380486629E+02  0.58375599958E+02  0.47000000000E+01 0.  1.
         -5    1    3    3    0  502  0.18104469570E+02 -0.41161763261E+02 -0.36173719530E+03  0.36455171243E+03  0.47000000000E+01 0.  1.
        -11    1    1    2    0    0 -0.12851898615E+02 -0.31055141818E+02 -0.18340700886E+03  0.18646105232E+03  0.00000000000E+00 0.  1.
         11    1    1    2    0    0 -0.14334819166E+02  0.32332211722E+02 -0.27207285326E+02  0.44621691251E+02  0.00000000000E+00 0. -1.
<mgrwt>
<rscale>  0 0.11877669E+03</rscale>
<asrwt>0</asrwt>
<pdfrwt beam="1">  1        1 0.30983143E-02 0.12792047E+03</pdfrwt>
<pdfrwt beam="2">  1       -1 0.97518605E-01 0.12792047E+03</pdfrwt>
<totfact> 0.33258855E+03</totfact>
</mgrwt>
</event>
<event>
 7    1  0.5400401E-006  0.1683269E+03  0.7546771E-02  0.1188594E+00
          2   -1    0    0  501    0  0.00000000000E+00  0.00000000000E+00  0.18287454546E+03  0.18287454546E+03  0.00000000000E+00 0. -1.
         -2   -1    0    0    0  501 -0.00000000000E+00 -0.00000000000E+00 -0.13455047431E+03  0.13455047431E+03  0.00000000000E+00 0.  1.
         23    2    1    2    0    0 -0.57004010139E+01  0.11259569625E+03 -0.82599711531E+01  0.16852941874E+03  0.12499460977E+03 0.  0.
          5    1    3    3  502    0  0.24728411816E+02  0.12572269312E+03  0.13003195659E+02  0.12887537784E+03  0.47000000000E+01 0. -1.
         -5    1    3    3    0  502 -0.30428812830E+02 -0.13126996868E+02 -0.21263166812E+02  0.39654040903E+02  0.47000000000E+01 0. -1.
        -11    1    1    2    0    0 -0.35455102602E+02 -0.55976216470E+02  0.38369726692E+02  0.76567859035E+02  0.00000000000E+00 0. -1.
         11    1    1    2    0    0  0.41155503616E+02 -0.56619479780E+02  0.18214315616E+02  0.72327741993E+02  0.00000000000E+00 0.  1.
<mgrwt>
<rscale>  0 0.16009148E+03</rscale>
<asrwt>0</asrwt>
<pdfrwt beam="1">  1        2 0.28134545E-01 0.16832688E+03</pdfrwt>
<pdfrwt beam="2">  1       -2 0.20700073E-01 0.16832688E+03</pdfrwt>
<totfact> 0.36292277E+03</totfact>
</mgrwt>
</event>
<event>
 7    1  0.5400401E-006  0.1684334E+03  0.7546771E-02  0.1186350E+00
         -1   -1    0    0    0  501 -0.00000000000E+00  0.00000000000E+00  0.19096632479E+02  0.19096632479E+02  0.00000000000E+00 0.  1.
          1   -1    0    0  501    0  0.00000000000E+00 -0.00000000000E+00 -0.13440215272E+04  0.13440215272E+04  0.00000000000E+00 0. -1.
         23    2    1    2    0    0  0.85548976552E+02 -0.73666488195E+02 -0.56464549539E+03  0.58923199581E+03  0.12499772220E+03 0.  0.
          5    1    3    3  502    0  0.45174541231E+02 -0.10254213083E+03 -0.45762270631E+03  0.47116478975E+03  0.47000000000E+01 0. -1.
         -5    1    3    3    0  502  0.40374435320E+02  0.28875642637E+02 -0.10702278908E+03  0.11806720606E+03  0.47000000000E+01 0. -1.
        -11    1    1    2    0    0 -0.43790872015E+02  0.89427486730E+02 -0.50235443668E+03  0.51212781208E+03  0.00000000000E+00 0.  1.
         11    1    1    2    0    0 -0.41758104536E+02 -0.15760998535E+02 -0.25792496264E+03  0.26175835177E+03  0.00000000000E+00 0. -1.
<mgrwt>
<rscale>  0 0.16209684E+03</rscale>
<asrwt>0</asrwt>
<pdfrwt beam="2">  1        1 0.20677255E+00 0.16843340E+03</pdfrwt>
<pdfrwt beam="1">  1       -1 0.29379434E-02 0.16843340E+03</pdfrwt>
<totfact> 0.35155036E+03</totfact>
</mgrwt>
</event>
<event>
 7    1  0.5400401E-006  0.1367421E+03  0.7546771E-02  0.1229710E+00
         -2   -1    0    0    0  501 -0.00000000000E+00  0.00000000000E+00  0.40913063610E+02  0.40913063610E+02  0.00000000000E+00 0.  1.
          2   -1    0    0  501    0  0.00000000000E+00 -0.00000000000E+00 -0.40570416616E+03  0.40570416616E+03  0.00000000000E+00 0. -1.
         23    2    1    2    0    0  0.42594156875E+02 -0.35482686030E+02 -0.12964251804E+03  0.18842926736E+03  0.12500049242E+03 0.  0.
          5    1    3    3  502    0 -0.30093436128E+02 -0.37812357100E+02 -0.11953843197E+02  0.50003736006E+02  0.47000000000E+01 0. -1.
         -5    1    3    3    0  502  0.72687593003E+02  0.23296710704E+01 -0.11768867485E+03  0.13842553136E+03  0.47000000000E+01 0. -1.
        -11    1    1    2    0    0  0.22752610471E+02  0.33610161941E+02 -0.10426464512E+03  0.11188583687E+03  0.00000000000E+00 0.  1.
         11    1    1    2    0    0 -0.65346767346E+02  0.18725240888E+01 -0.13088393939E+03  0.14630212554E+03  0.00000000000E+00 0. -1.
<mgrwt>
<rscale>  0 0.12849271E+03</rscale>
<asrwt>0</asrwt>
<pdfrwt beam="2">  1        2 0.62416022E-01 0.13674212E+03</pdfrwt>
<pdfrwt beam="1">  1       -2 0.62943178E-02 0.13674212E+03</pdfrwt>
<totfact> 0.10257831E+04</totfact>
</mgrwt>
</event>
<event>
 7    1  0.5400401E-006  0.1366813E+03  0.7546771E-02  0.1229544E+00
          2   -1    0    0  501    0  0.00000000000E+00  0.00000000000E+00  0.17765205392E+02  0.17765205392E+02  0.00000000000E+00 0. -1.
         -2   -1    0    0    0  501 -0.00000000000E+00 -0.00000000000E+00 -0.89682682111E+03  0.89682682111E+03  0.00000000000E+00 0.  1.
         23    2    1    2    0    0 -0.20853450710E+02  0.51181382670E+02 -0.60705880777E+03  0.62225571037E+03  0.12500949028E+03 0.  0.
          5    1    3    3  502    0 -0.66115900827E+01 -0.25598840846E+02 -0.40017083749E+03  0.40107082037E+03  0.47000000000E+01 0.  1.
         -5    1    3    3    0  502 -0.14241860627E+02  0.76780223517E+02 -0.20688797028E+03  0.22118489000E+03  0.47000000000E+01 0.  1.
        -11    1    1    2    0    0  0.25633561753E+02  0.21751778522E+02 -0.74161317097E+02  0.81425550723E+02  0.00000000000E+00 0. -1.
         11    1    1    2    0    0 -0.47801110426E+01 -0.72933161193E+02 -0.19784149085E+03  0.21091076541E+03  0.00000000000E+00 0.  1.
<mgrwt>
<rscale>  0 0.12860292E+03</rscale>
<asrwt>0</asrwt>
<pdfrwt beam="1">  1        2 0.27331079E-02 0.13668128E+03</pdfrwt>
<pdfrwt beam="2">  1       -2 0.13797339E+00 0.13668128E+03</pdfrwt>
<totfact> 0.13476874E+03</totfact>
</mgrwt>
</event>
<event>
 7    1  0.5400401E-006  0.1882300E+03  0.7546771E-02  0.1165710E+00
         -2   -1    0    0    0  501 -0.00000000000E+00  0.00000000000E+00  0.77288818252E+02  0.77288818252E+02  0.00000000000E+00 0.  1.
          2   -1    0    0  501    0  0.00000000000E+00 -0.00000000000E+00 -0.40810593678E+03  0.40810593678E+03  0.00000000000E+00 0. -1.
         23    2    1    2    0    0  0.85321310378E+01  0.14047202525E+03 -0.15174931785E+03  0.24178170210E+03  0.12500139544E+03 0.  0.
          5    1    3    3  502    0 -0.20525841234E+02 -0.17590890791E+02 -0.21178008273E+02  0.34660462080E+02  0.47000000000E+01 0. -1.
         -5    1    3    3    0  502  0.29057972272E+02  0.15806291604E+03 -0.13057130958E+03  0.20712124002E+03  0.47000000000E+01 0. -1.
        -11    1    1    2    0    0  0.13100578513E+02 -0.60215279295E+02 -0.21144626717E+02  0.65150596750E+02  0.00000000000E+00 0.  1.
         11    1    1    2    0    0 -0.21632709551E+02 -0.80256745959E+02 -0.15792317396E+03  0.17846245619E+03  0.00000000000E+00 0. -1.
<mgrwt>
<rscale>  0 0.18218023E+03</rscale>
<asrwt>0</asrwt>
<pdfrwt beam="2">  1        2 0.62785528E-01 0.18823001E+03</pdfrwt>
<pdfrwt beam="1">  1       -2 0.11890588E-01 0.18823001E+03</pdfrwt>
<totfact> 0.38446682E+03</totfact>
</mgrwt>
</event>
<event>
 7    1  0.5400401E-006  0.1487964E+03  0.7546771E-02  0.1211445E+00
          3   -1    0    0  501    0  0.00000000000E+00  0.00000000000E+00  0.94634512788E+02  0.94634512788E+02  0.00000000000E+00 0. -1.
         -3   -1    0    0    0  501 -0.00000000000E+00 -0.00000000000E+00 -0.29070117401E+03  0.29070117401E+03  0.00000000000E+00 0.  1.
         23    2    1    2    0    0  0.28940401778E+02 -0.75350893701E+02 -0.21604312388E+03  0.26232613038E+03  0.12500025307E+03 0.  0.
          5    1    3    3  502    0 -0.30841685636E+02  0.66642703163E+01 -0.11448664565E+02  0.33893716114E+02  0.47000000000E+01 0. -1.
         -5    1    3    3    0  502  0.59782087414E+02 -0.82015164017E+02 -0.20459445932E+03  0.22843241427E+03  0.47000000000E+01 0. -1.
        -11    1    1    2    0    0  0.27485635088E+02  0.27757435930E+01 -0.42275198190E+01  0.27947035844E+02  0.00000000000E+00 0.  1.
         11    1    1    2    0    0 -0.56426036866E+02  0.72575150108E+02  0.24203982481E+02  0.95062520572E+02  0.00000000000E+00 0. -1.
<mgrwt>
<rscale>  0 0.14140934E+03</rscale>
<asrwt>0</asrwt>
<pdfrwt beam="1">  1        3 0.14559156E-01 0.14879640E+03</pdfrwt>
<pdfrwt beam="2">  1       -3 0.44723256E-01 0.14879640E+03</pdfrwt>
<totfact> 0.45842517E+02</totfact>
</mgrwt>
</event>
<event>
 7    1  0.5400401E-006  0.1147056E+03  0.7546771E-02  0.1262322E+00
          2   -1    0    0  501    0  0.00000000000E+00  0.00000000000E+00  0.19755582294E+03  0.19755582294E+03  0.00000000000E+00 0. -1.
         -2   -1    0    0    0  501 -0.00000000000E+00 -0.00000000000E+00 -0.63995945489E+02  0.63995945489E+02  0.00000000000E+00 0.  1.
         23    2    1    2    0    0  0.16679424379E+02  0.20698546249E+02  0.23682016510E+02  0.11712481723E+03  0.11158293728E+03 0.  0.
          5    1    3    3  502    0  0.15653496525E+02  0.30176905217E+02  0.65516740924E+02  0.73960874138E+02  0.47000000000E+01 0. -1.
         -5    1    3    3    0  502  0.10259278548E+01 -0.94783589679E+01 -0.41834724415E+02  0.43163943095E+02  0.47000000000E+01 0.  1.
        -11    1    1    2    0    0 -0.15684648348E+02 -0.53073545401E+02  0.92179306667E+02  0.10751666844E+03  0.00000000000E+00 0.  1.
         11    1    1    2    0    0 -0.99477603154E+00  0.32374999152E+02  0.17698554272E+02  0.36910282751E+02  0.00000000000E+00 0. -1.
<mgrwt>
<rscale>  0 0.10905925E+03</rscale>
<asrwt>0</asrwt>
<pdfrwt beam="1">  1        2 0.30393203E-01 0.11470564E+03</pdfrwt>
<pdfrwt beam="2">  1       -2 0.98455301E-02 0.11470564E+03</pdfrwt>
<totfact> 0.10914508E+04</totfact>
</mgrwt>
</event>
<event>
 7    1  0.5400401E-006  0.1633608E+03  0.7546771E-02  0.1190576E+00
          2   -1    0    0  501    0  0.00000000000E+00  0.00000000000E+00  0.59066183185E+03  0.59066183185E+03  0.00000000000E+00 0. -1.
         -2   -1    0    0    0  501 -0.00000000000E+00 -0.00000000000E+00 -0.41441817707E+02  0.41441817707E+02  0.00000000000E+00 0.  1.
         23    2    1    2    0    0  0.66509486926E+02 -0.81482871009E+02  0.23309776733E+03  0.28464245058E+03  0.12499514158E+03 0.  0.
          5    1    3    3  502    0 -0.37040729697E+02 -0.17442481485E+02  0.51556768649E+02  0.66003380295E+02  0.47000000000E+01 0. -1.
         -5    1    3    3    0  502  0.10355021662E+03 -0.64040389524E+02  0.18154099868E+03  0.21863907028E+03  0.47000000000E+01 0. -1.
        -11    1    1    2    0    0 -0.19820542033E+02  0.27494439755E+02  0.13414113716E+02  0.36451838784E+02  0.00000000000E+00 0.  1.
         11    1    1    2    0    0 -0.46688944893E+02  0.53988431253E+02  0.30270813310E+03  0.31100936020E+03  0.00000000000E+00 0. -1.
<mgrwt>
<rscale>  0 0.15834648E+03</rscale>
<asrwt>0</asrwt>
<pdfrwt beam="1">  1        2 0.90871045E-01 0.16336081E+03</pdfrwt>
<pdfrwt beam="2">  1       -2 0.63756647E-02 0.16336081E+03</pdfrwt>
<totfact> 0.67262898E+03</totfact>
</mgrwt>
</event>
<event>
 7    1  0.5400401E-006  0.1550300E+03  0.7546771E-02  0.1204898E+00
         -1   -1    0    0    0  501 -0.00000000000E+00  0.00000000000E+00  0.97605651335E+02  0.97605651335E+02  0.00000000000E+00 0.  1.
          1   -1    0    0  501    0  0.00000000000E+00 -0.00000000000E+00 -0.20483226350E+03  0.20483226350E+03  0.00000000000E+00 0. -1.
         23    2    1    2    0    0  0.66043243222E+02 -0.63618374863E+02 -0.33432174911E+02  0.15859385540E+03  0.12500117222E+03 0.  0.
          5    1    3    3  502    0  0.23225622731E+02  0.15818809332E+02  0.35080791793E+02  0.45193099393E+02  0.47000000000E+01 0. -1.
         -5    1    3    3    0  502  0.42817620492E+02 -0.79437184195E+02 -0.68512966703E+02  0.11340075601E+03  0.47000000000E+01 0. -1.
        -11    1    1    2    0    0  0.68513756293E+01  0.15550433429E+02  0.12488682476E+02  0.21088492545E+02  0.00000000000E+00 0.  1.
         11    1    1    2    0    0 -0.72894618852E+02  0.48067941434E+02 -0.86283119733E+02  0.12275556689E+03  0.00000000000E+00 0. -1.
<mgrwt>
<rscale>  0 0.14645510E+03</rscale>
<asrwt>0</asrwt>
<pdfrwt beam="2">  1        1 0.31512656E-01 0.15503000E+03</pdfrwt>
<pdfrwt beam="1">  1       -1 0.15016254E-01 0.15503000E+03</pdfrwt>
<totfact> 0.44112330E+03</totfact>
</mgrwt>
</event>
<event>
 7    1  0.5400401E-006  0.2077207E+03  0.7546771E-02  0.1147493E+00
         -1   -1    0    0    0  501 -0.00000000000E+00  0.00000000000E+00  0.32142474971E+03  0.32142474971E+03  0.00000000000E+00 0.  1.
          1   -1    0    0  501    0  0.00000000000E+00 -0.00000000000E+00 -0.15056270883E+03  0.15056270883E+03  0.00000000000E+00 0. -1.
         23    2    1    2    0    0  0.16580054795E+03  0.55893675025E+01  0.19154573862E+03  0.28255561479E+03  0.12500737074E+03 0.  0.
          5    1    3    3  502    0  0.18212478241E+03 -0.21248845520E+01  0.19089388734E+03  0.26388732013E+03  0.47000000000E+01 0. -1.
         -5    1    3    3    0  502 -0.16324234462E+02  0.77142520545E+01  0.65185128299E+00  0.18668294663E+02  0.47000000000E+01 0. -1.
        -11    1    1    2    0    0 -0.15191148750E+03 -0.20355975495E+02  0.89468876335E+01  0.15353016827E+03  0.00000000000E+00 0. -1.
         11    1    1    2    0    0 -0.13889060450E+02  0.14766607993E+02 -0.29630585373E+02  0.35901675467E+02  0.00000000000E+00 0.  1.
<mgrwt>
<rscale>  0 0.20268520E+03</rscale>
<asrwt>0</asrwt>
<pdfrwt beam="2">  1        1 0.23163494E-01 0.20772074E+03</pdfrwt>
<pdfrwt beam="1">  1       -1 0.49449961E-01 0.20772074E+03</pdfrwt>
<totfact> 0.88373079E+02</totfact>
</mgrwt>
</event>
<event>
 7    1  0.5400401E-006  0.1618515E+03  0.7546771E-02  0.1193901E+00
         -1   -1    0    0    0  501 -0.00000000000E+00  0.00000000000E+00  0.20592174085E+03  0.20592174085E+03  0.00000000000E+00 0.  1.
          1   -1    0    0  501    0  0.00000000000E+00 -0.00000000000E+00 -0.11296766736E+03  0.11296766736E+03  0.00000000000E+00 0. -1.
         23    2    1    2    0    0  0.64824640154E+02 -0.79800524213E+02  0.79769985712E+02  0.18044152553E+03  0.12500214350E+03 0.  0.
          5    1    3    3  502    0  0.23561968997E+02 -0.86682760348E+02 -0.33236197624E+00  0.89951474636E+02  0.47000000000E+01 0.  1.
         -5    1    3    3    0  502  0.41262671157E+02  0.68822361358E+01  0.80102347688E+02  0.90490050892E+02  0.47000000000E+01 0.  1.
        -11    1    1    2    0    0 -0.51061031676E+02  0.51830898447E+02  0.51435836347E+02  0.89102840866E+02  0.00000000000E+00 0.  1.
         11    1    1    2    0    0 -0.13763608478E+02  0.27969625765E+02 -0.38251748561E+02  0.49345041815E+02  0.00000000000E+00 0. -1.
<mgrwt>
<rscale>  0 0.15547641E+03</rscale>
<asrwt>0</asrwt>
<pdfrwt beam="2">  1        1 0.17379641E-01 0.16185146E+03</pdfrwt>
<pdfrwt beam="1">  1       -1 0.31680268E-01 0.16185146E+03</pdfrwt>
<totfact> 0.27832415E+03</totfact>
</mgrwt>
</event>
<event>
 7    1  0.5400401E-006  0.1371642E+03  0.7546771E-02  0.1228850E+00
          1   -1    0    0  501    0  0.00000000000E+00  0.00000000000E+00  0.21715512757E+03  0.21715512757E+03  0.00000000000E+00 0. -1.
         -1   -1    0    0    0  501 -0.00000000000E+00 -0.00000000000E+00 -0.74998383226E+02  0.74998383226E+02  0.00000000000E+00 0.  1.
         23    2    1    2    0    0  0.72054095430E+00  0.56482112971E+02  0.37716738879E+02  0.14225529122E+03  0.12499306870E+03 0.  0.
          5    1    3    3  502    0 -0.36972954441E+02  0.69574936726E+02 -0.10353494684E+02  0.79605000048E+02  0.47000000000E+01 0.  1.
         -5    1    3    3    0  502  0.37693495396E+02 -0.13092823754E+02  0.48070233563E+02  0.62650291171E+02  0.47000000000E+01 0.  1.
        -11    1    1    2    0    0 -0.85571463650E+01  0.15559486096E+02 -0.51739158449E+01  0.18495722929E+02  0.00000000000E+00 0.  1.
         11    1    1    2    0    0  0.78366054107E+01 -0.72041599067E+02  0.10961392131E+03  0.13140249665E+03  0.00000000000E+00 0. -1.
<mgrwt>
<rscale>  0 0.12906502E+03</rscale>
<asrwt>0</asrwt>
<pdfrwt beam="1">  1        1 0.33408481E-01 0.13716419E+03</pdfrwt>
<pdfrwt beam="2">  1       -1 0.11538213E-01 0.13716419E+03</pdfrwt>
<totfact> 0.61354207E+03</totfact>
</mgrwt>
</event>
<event>
 7    1  0.5400401E-006  0.1323361E+03  0.7546771E-02  0.1239416E+00
          1   -1    0    0  501    0  0.00000000000E+00  0.00000000000E+00  0.54035699438E+03  0.54035699438E+03  0.00000000000E+00 0. -1.
         -1   -1    0    0    0  501 -0.00000000000E+00 -0.00000000000E+00 -0.29464056571E+02  0.29464056571E+02  0.00000000000E+00 0.  1.
         23    2    1    2    0    0 -0.43387990126E+02 -0.14802338434E+01  0.16929415490E+03  0.21487986389E+03  0.12501254434E+03 0.  0.
          5    1    3    3  502    0  0.82990239704E+01 -0.42951996125E+02  0.13101667960E+03  0.13820712031E+03  0.47000000000E+01 0. -1.
         -5    1    3    3    0  502 -0.51687014096E+02  0.41471762282E+02  0.38277475303E+02  0.76672743583E+02  0.47000000000E+01 0.  1.
        -11    1    1    2    0    0 -0.17942235168E+02 -0.23827627389E+02  0.11755750115E+03  0.12128250371E+03  0.00000000000E+00 0. -1.
         11    1    1    2    0    0  0.61330225294E+02  0.25307861233E+02  0.22404128176E+03  0.23365868335E+03  0.00000000000E+00 0.  1.
<mgrwt>
<rscale>  0 0.12225912E+03</rscale>
<asrwt>0</asrwt>
<pdfrwt beam="1">  1        1 0.83131838E-01 0.13233611E+03</pdfrwt>
<pdfrwt beam="2">  1       -1 0.45329322E-02 0.13233611E+03</pdfrwt>
<totfact> 0.79247336E+03</totfact>
</mgrwt>
</event>
<event>
 7    1  0.5400401E-006  0.2409165E+03  0.7546771E-02  0.1121862E+00
         -2   -1    0    0    0  501 -0.00000000000E+00  0.00000000000E+00  0.69132650194E+02  0.69132650194E+02  0.00000000000E+00 0.  1.
          2   -1    0    0  501    0  0.00000000000E+00 -0.00000000000E+00 -0.80239961951E+03  0.80239961951E+03  0.00000000000E+00 0. -1.
         23    2    1    2    0    0  0.52097168972E+02 -0.19925514942E+03 -0.44073920839E+03  0.50228657413E+03  0.12499609256E+03 0.  0.
          5    1    3    3  502    0  0.26069076877E+02 -0.62993254957E+02 -0.28757814906E+03  0.29558590757E+03  0.47000000000E+01 0.  1.
         -5    1    3    3    0  502  0.26028092095E+02 -0.13626189446E+03 -0.15316105933E+03  0.20670066656E+03  0.47000000000E+01 0.  1.
        -11    1    1    2    0    0 -0.70452196224E+02  0.14457139030E+03 -0.25125807540E+03  0.29832033001E+03  0.00000000000E+00 0.  1.
         11    1    1    2    0    0  0.18355027252E+02  0.54683759115E+02 -0.41269685535E+02  0.70925365565E+02  0.00000000000E+00 0. -1.
<mgrwt>
<rscale>  0 0.23691942E+03</rscale>
<asrwt>0</asrwt>
<pdfrwt beam="2">  1        2 0.12344609E+00 0.24091648E+03</pdfrwt>
<pdfrwt beam="1">  1       -2 0.10635793E-01 0.24091648E+03</pdfrwt>
<totfact> 0.21183253E+03</totfact>
</mgrwt>
</event>
<event>
 7    1  0.5400401E-006  0.3314322E+03  0.7546771E-02  0.1071824E+00
          4   -1    0    0  501    0  0.00000000000E+00  0.00000000000E+00  0.23984911304E+03  0.23984911304E+03  0.00000000000E+00 0. -1.
         -4   -1    0    0    0  501 -0.00000000000E+00 -0.00000000000E+00 -0.54785794784E+03  0.54785794784E+03  0.00000000000E+00 0.  1.
         23    2    1    2    0    0  0.13224678385E+03 -0.27700966309E+03 -0.32945605203E+03  0.46732065486E+03  0.12499495569E+03 0.  0.
          5    1    3    3  502    0  0.12643520911E+02 -0.16410435870E+02 -0.93705398372E+02  0.96083051110E+02  0.47000000000E+01 0.  1.
         -5    1    3    3    0  502  0.11960326294E+03 -0.26059922722E+03 -0.23575065366E+03  0.37123760375E+03  0.47000000000E+01 0.  1.
        -11    1    1    2    0    0 -0.81196923282E+02  0.96510898978E+02 -0.21525952222E+02  0.12794788232E+03  0.00000000000E+00 0.  1.
         11    1    1    2    0    0 -0.51049860571E+02  0.18049876411E+03  0.42973169461E+02  0.19243852370E+03  0.00000000000E+00 0. -1.
<mgrwt>
<rscale>  0 0.32845111E+03</rscale>
<asrwt>0</asrwt>
<pdfrwt beam="1">  1        4 0.36899863E-01 0.33143220E+03</pdfrwt>
<pdfrwt beam="2">  1       -4 0.84285838E-01 0.33143220E+03</pdfrwt>
<totfact> 0.16709674E+01</totfact>
</mgrwt>
</event>
<event>
 7    1  0.5400401E-006  0.1289938E+03  0.7546771E-02  0.1243621E+00
          1   -1    0    0  501    0  0.00000000000E+00  0.00000000000E+00  0.94485895667E+02  0.94485895667E+02  0.00000000000E+00 0. -1.
         -1   -1    0    0    0  501 -0.00000000000E+00 -0.00000000000E+00 -0.20835640054E+03  0.20835640054E+03  0.00000000000E+00 0.  1.
         23    2    1    2    0    0  0.17376607742E+02  0.26515150110E+02 -0.15250087540E+03  0.19973960061E+03  0.12503755984E+03 0.  0.
          5    1    3    3  502    0  0.45650542379E+02  0.63779811655E+02 -0.72305760542E+02  0.10678037929E+03  0.47000000000E+01 0.  1.
         -5    1    3    3    0  502 -0.28273934638E+02 -0.37264661545E+02 -0.80195114863E+02  0.92959221317E+02  0.47000000000E+01 0.  1.
        -11    1    1    2    0    0 -0.18206011829E+02  0.24420929809E+02 -0.10606889807E+02  0.32254407309E+02  0.00000000000E+00 0.  1.
         11    1    1    2    0    0  0.82940408795E+00 -0.50936079919E+02  0.49237260335E+02  0.70848288292E+02  0.00000000000E+00 0. -1.
<mgrwt>
<rscale>  0 0.11968290E+03</rscale>
<asrwt>0</asrwt>
<pdfrwt beam="1">  1        1 0.14536292E-01 0.12899376E+03</pdfrwt>
<pdfrwt beam="2">  1       -1 0.32054830E-01 0.12899376E+03</pdfrwt>
<totfact> 0.33979091E+03</totfact>
</mgrwt>
</event>
<event>
 7    1  0.5400401E-006  0.1432448E+03  0.7546771E-02  0.1219473E+00
         -2   -1    0    0    0  501 -0.00000000000E+00  0.00000000000E+00  0.31423268934E+02  0.31423268934E+02  0.00000000000E+00 0.  1.
          2   -1    0    0  501    0  0.00000000000E+00 -0.00000000000E+00 -0.64727521983E+03  0.64727521983E+03  0.00000000000E+00 0. -1.
         23    2    1    2    0    0 -0.68464216331E+02  0.14391788327E+02 -0.19181909124E+03  0.23940269186E+03  0.12499845045E+03 0.  0.
          5    1    3    3  502    0 -0.10005583577E+03  0.17084452602E+02 -0.10174506472E+03  0.14379567792E+03  0.47000000000E+01 0.  1.
         -5    1    3    3    0  502  0.31591619443E+02 -0.26926642749E+01 -0.90074026530E+02  0.95607013944E+02  0.47000000000E+01 0.  1.
        -11    1    1    2    0    0  0.38185623524E+02  0.38152285863E+02 -0.18786793257E+03  0.19546892042E+03  0.00000000000E+00 0.  1.
         11    1    1    2    0    0  0.30278592808E+02 -0.52544074191E+02 -0.23616492707E+03  0.24382687648E+03  0.00000000000E+00 0. -1.
<mgrwt>
<rscale>  0 0.13553019E+03</rscale>
<asrwt>0</asrwt>
<pdfrwt beam="2">  1        2 0.99580801E-01 0.14324484E+03</pdfrwt>
<pdfrwt beam="1">  1       -2 0.48343492E-02 0.14324484E+03</pdfrwt>
<totfact> 0.91357033E+03</totfact>
</mgrwt>
</event>
<event>
 7    1  0.5400401E-006  0.1721922E+03  0.7546771E-02  0.1180305E+00
          2   -1    0    0  501    0  0.00000000000E+00  0.00000000000E+00  0.14017216361E+04  0.14017216361E+04  0.00000000000E+00 0. -1.
         -2   -1    0    0    0  501 -0.00000000000E+00 -0.00000000000E+00 -0.19160935716E+02  0.19160935716E+02  0.00000000000E+00 0.  1.
         23    2    1    2    0    0 -0.92275442887E+02  0.74205469085E+02  0.77717922545E+03  0.79602620168E+03  0.12501582414E+03 0.  0.
          5    1    3    3  502    0  0.70648367269E+00  0.31786679347E+02  0.37863496993E+02  0.49665143789E+02  0.47000000000E+01 0.  1.
         -5    1    3    3    0  502 -0.92981926560E+02  0.42418789738E+02  0.73931572846E+03  0.74636105789E+03  0.47000000000E+01 0.  1.
        -11    1    1    2    0    0  0.69533834358E+02 -0.89932979650E+02  0.56222083081E+03  0.57359842882E+03  0.00000000000E+00 0. -1.
         11    1    1    2    0    0  0.22741608529E+02  0.15727510566E+02  0.43160644140E+02  0.51257941332E+02  0.00000000000E+00 0.  1.
<mgrwt>
<rscale>  0 0.16766530E+03</rscale>
<asrwt>0</asrwt>
<pdfrwt beam="1">  1        2 0.21564940E+00 0.17219223E+03</pdfrwt>
<pdfrwt beam="2">  1       -2 0.29478374E-02 0.17219223E+03</pdfrwt>
<totfact> 0.66202401E+03</totfact>
</mgrwt>
</event>
<event>
 7    1  0.5400401E-006  0.1328664E+03  0.7546771E-02  0.1236847E+00
          2   -1    0    0  501    0  0.00000000000E+00  0.00000000000E+00  0.12045565818E+03  0.12045565818E+03  0.00000000000E+00 0. -1.
         -2   -1    0    0    0  501 -0.00000000000E+00 -0.00000000000E+00 -0.12422112080E+03  0.12422112080E+03  0.00000000000E+00 0.  1.
         23    2    1    2    0    0  0.35260818271E+02 -0.28020360837E+02 -0.38718589932E+02  0.13839291303E+03  0.12500001297E+03 0.  0.
          5    1    3    3  502    0 -0.40198708149E+02  0.23660493299E+01  0.12164189429E+02  0.42327199656E+02  0.47000000000E+01 0. -1.
         -5    1    3    3    0  502  0.75459526420E+02 -0.30386410166E+02 -0.50882779361E+02  0.96065713373E+02  0.47000000000E+01 0. -1.
        -11    1    1    2    0    0 -0.41597647517E+02  0.40519889842E+02  0.56212389274E+02  0.80821151066E+02  0.00000000000E+00 0. -1.
         11    1    1    2    0    0  0.63368292458E+01 -0.12499529005E+02 -0.21259261963E+02  0.25462714888E+02  0.00000000000E+00 0.  1.
<mgrwt>
<rscale>  0 0.12386951E+03</rscale>
<asrwt>0</asrwt>
<pdfrwt beam="1">  1        2 0.18531640E-01 0.13286636E+03</pdfrwt>
<pdfrwt beam="2">  1       -2 0.19110942E-01 0.13286636E+03</pdfrwt>
<totfact> 0.65320037E+03</totfact>
</mgrwt>
</event>
<event>
 7    1  0.5400401E-006  0.1987454E+03  0.7546771E-02  0.1155667E+00
          1   -1    0    0  501    0  0.00000000000E+00  0.00000000000E+00  0.61526868585E+03  0.61526868585E+03  0.00000000000E+00 0. -1.
         -1   -1    0    0    0  501 -0.00000000000E+00 -0.00000000000E+00 -0.60294551104E+02  0.60294551104E+02  0.00000000000E+00 0.  1.
         23    2    1    2    0    0  0.51587692030E+02 -0.14565149865E+03  0.21917571189E+03  0.29586774144E+03  0.12499631480E+03 0.  0.
          5    1    3    3  502    0 -0.14661371317E+01 -0.84077982295E+02  0.29128972857E+02  0.89117022642E+02  0.47000000000E+01 0.  1.
         -5    1    3    3    0  502  0.53053829162E+02 -0.61573516354E+02  0.19004673904E+03  0.20675071880E+03  0.47000000000E+01 0.  1.
        -11    1    1    2    0    0 -0.73007758521E+02  0.87818202548E+02  0.19496288520E+03  0.22594843683E+03  0.00000000000E+00 0.  1.
         11    1    1    2    0    0  0.21420066491E+02  0.57833296101E+02  0.14083553766E+03  0.15374705869E+03  0.00000000000E+00 0. -1.
<mgrwt>
<rscale>  0 0.19313144E+03</rscale>
<asrwt>0</asrwt>
<pdfrwt beam="1">  1        1 0.94656716E-01 0.19874538E+03</pdfrwt>
<pdfrwt beam="2">  1       -1 0.92760852E-02 0.19874538E+03</pdfrwt>
<totfact> 0.23064921E+03</totfact>
</mgrwt>
</event>
<event>
 7    1  0.5400401E-006  0.1467641E+03  0.7546771E-02  0.1213183E+00
          3   -1    0    0  501    0  0.00000000000E+00  0.00000000000E+00  0.17979147149E+03  0.17979147149E+03  0.00000000000E+00 0. -1.
         -3   -1    0    0    0  501 -0.00000000000E+00 -0.00000000000E+00 -0.12502125126E+03  0.12502125126E+03  0.00000000000E+00 0.  1.
         23    2    1    2    0    0 -0.76388726439E+02 -0.27154201150E+02 -0.38029433236E+02  0.15161118868E+03  0.12234020833E+03 0.  0.
          5    1    3    3  502    0 -0.92453671361E+02  0.21629217390E+02 -0.27605222620E+02  0.98993144757E+02  0.47000000000E+01 0. -1.
         -5    1    3    3    0  502  0.16064944922E+02 -0.48783418539E+02 -0.10424210615E+02  0.52618043927E+02  0.47000000000E+01 0.  1.
        -11    1    1    2    0    0  0.35373058829E+02  0.50742907555E+02  0.85190925821E+02  0.10527862936E+03  0.00000000000E+00 0. -1.
         11    1    1    2    0    0  0.41015667610E+02 -0.23588706405E+02  0.76087276490E+01  0.47922904709E+02  0.00000000000E+00 0.  1.
<mgrwt>
<rscale>  0 0.14010816E+03</rscale>
<asrwt>0</asrwt>
<pdfrwt beam="1">  1        3 0.27660226E-01 0.14676415E+03</pdfrwt>
<pdfrwt beam="2">  1       -3 0.19234039E-01 0.14676415E+03</pdfrwt>
<totfact> 0.70234008E+02</totfact>
</mgrwt>
</event>
<event>
 7    1  0.5400401E-006  0.1276304E+03  0.7546771E-02  0.1244990E+00
          1   -1    0    0  501    0  0.00000000000E+00  0.00000000000E+00  0.22237762411E+03  0.22237762411E+03  0.00000000000E+00 0. -1.
         -1   -1    0    0    0  501 -0.00000000000E+00 -0.00000000000E+00 -0.85278166847E+02  0.85278166847E+02  0.00000000000E+00 0.  1.
         23    2    1    2    0    0  0.20634656220E+02 -0.15463927811E+02 -0.14254325196E+02  0.12842393759E+03  0.12499839943E+03 0.  0.
          5    1    3    3  502    0  0.63603612105E+02 -0.42113396397E+02 -0.34339947962E+01  0.76503855780E+02  0.47000000000E+01 0. -1.
         -5    1    3    3    0  502 -0.42968955885E+02  0.26649468586E+02 -0.10820330400E+02  0.51920081815E+02  0.47000000000E+01 0. -1.
        -11    1    1    2    0    0 -0.47996378001E+02 -0.10911961531E+02  0.12088444920E+03  0.13052116022E+03  0.00000000000E+00 0. -1.
         11    1    1    2    0    0  0.27361721781E+02  0.26375889342E+02  0.30469333252E+02  0.48710693140E+02  0.00000000000E+00 0.  1.
<mgrwt>
<rscale>  0 0.11885952E+03</rscale>
<asrwt>0</asrwt>
<pdfrwt beam="1">  1        1 0.34211942E-01 0.12763041E+03</pdfrwt>
<pdfrwt beam="2">  1       -1 0.13119718E-01 0.12763041E+03</pdfrwt>
<totfact> 0.48635283E+03</totfact>
</mgrwt>
</event>
<event>
 7    1  0.5400401E-006  0.1921322E+03  0.7546771E-02  0.1163154E+00
         -2   -1    0    0    0  501 -0.00000000000E+00  0.00000000000E+00  0.11921272364E+03  0.11921272364E+03  0.00000000000E+00 0.  1.
          2   -1    0    0  501    0  0.00000000000E+00 -0.00000000000E+00 -0.26712699297E+03  0.26712699297E+03  0.00000000000E+00 0. -1.
         23    2    1    2    0    0  0.34135319119E+02 -0.14186097655E+03 -0.77738194415E+02  0.20726317272E+03  0.12500015686E+03 0.  0.
          5    1    3    3  502    0  0.60448237457E+02 -0.25366944648E+02 -0.19768343513E+01  0.65753092448E+02  0.47000000000E+01 0. -1.
         -5    1    3    3    0  502 -0.26312918337E+02 -0.11649403190E+03 -0.75761360064E+02  0.14151008027E+03  0.47000000000E+01 0. -1.
        -11    1    1    2    0    0 -0.45608993657E+02  0.11659746005E+03 -0.81192660168E+02  0.14922263923E+03  0.00000000000E+00 0.  1.
         11    1    1    2    0    0  0.11473674538E+02  0.25263516497E+02  0.11016585259E+02  0.29853904668E+02  0.00000000000E+00 0. -1.
<mgrwt>
<rscale>  0 0.18488806E+03</rscale>
<asrwt>0</asrwt>
<pdfrwt beam="2">  1        2 0.41096460E-01 0.19213224E+03</pdfrwt>
<pdfrwt beam="1">  1       -2 0.18340419E-01 0.19213224E+03</pdfrwt>
<totfact> 0.29741988E+03</totfact>
</mgrwt>
</event>
<event>
 7    1  0.5400401E-006  0.1414565E+03  0.7546771E-02  0.1224731E+00
         -2   -1    0    0    0  501 -0.00000000000E+00  0.00000000000E+00  0.76542508195E+02  0.76542508195E+02  0.00000000000E+00 0. -1.
          2   -1    0    0  501    0  0.00000000000E+00 -0.00000000000E+00 -0.20243788342E+03  0.20243788342E+03  0.00000000000E+00 0.  1.
         23    2    1    2    0    0 -0.43947847024E+02 -0.49914108592E+02 -0.82179515577E+02  0.16359528946E+03  0.12484836586E+03 0.  0.
          5    1    3    3  502    0 -0.41652328808E+02  0.88017153181E+01  0.18716006307E+02  0.46741476012E+02  0.47000000000E+01 0.  1.
         -5    1    3    3    0  502 -0.22955182152E+01 -0.58715823910E+02 -0.10089552188E+03  0.11685381345E+03  0.47000000000E+01 0.  1.
        -11    1    1    2    0    0  0.33493558035E+02  0.66533721668E+02 -0.83770425850E+01  0.74958184285E+02  0.00000000000E+00 0. -1.
         11    1    1    2    0    0  0.10454288988E+02 -0.16619613076E+02 -0.35338817061E+02  0.40426917868E+02  0.00000000000E+00 0.  1.
<mgrwt>
<rscale>  0 0.13185388E+03</rscale>
<asrwt>0</asrwt>
<pdfrwt beam="2">  1        2 0.31144289E-01 0.14145652E+03</pdfrwt>
<pdfrwt beam="1">  1       -2 0.11775771E-01 0.14145652E+03</pdfrwt>
<totfact> 0.81454353E+03</totfact>
</mgrwt>
</event>
<event>
 7    1  0.5400401E-006  0.2580634E+03  0.7546771E-02  0.1110663E+00
          2   -1    0    0  501    0  0.00000000000E+00  0.00000000000E+00  0.16523951071E+04  0.16523951071E+04  0.00000000000E+00 0. -1.
         -2   -1    0    0    0  501 -0.00000000000E+00 -0.00000000000E+00 -0.41327333608E+02  0.41327333608E+02  0.00000000000E+00 0.  1.
         23    2    1    2    0    0 -0.15614028262E+03  0.16301850937E+03  0.58726151320E+03  0.64146144557E+03  0.12506749781E+03 0.  0.
          5    1    3    3  502    0 -0.75172359637E+02  0.70459398948E+02  0.11984206254E+03  0.15811268294E+03  0.47000000000E+01 0.  1.
         -5    1    3    3    0  502 -0.80967922979E+02  0.92559110424E+02  0.46741945066E+03  0.48334876263E+03  0.47000000000E+01 0.  1.
        -11    1    1    2    0    0  0.15194010930E+03 -0.10569300452E+03  0.75181577030E+03  0.77426336636E+03  0.00000000000E+00 0.  1.
         11    1    1    2    0    0  0.42001733210E+01 -0.57325504850E+02  0.27199049003E+03  0.27799762882E+03  0.00000000000E+00 0. -1.
<mgrwt>
<rscale>  0 0.25422559E+03</rscale>
<asrwt>0</asrwt>
<pdfrwt beam="1">  1        2 0.25421458E+00 0.25806337E+03</pdfrwt>
<pdfrwt beam="2">  1       -2 0.63580526E-02 0.25806337E+03</pdfrwt>
<totfact> 0.15334643E+03</totfact>
</mgrwt>
</event>
<event>
 7    1  0.5400401E-006  0.1403397E+03  0.7546771E-02  0.1224036E+00
          4   -1    0    0  501    0  0.00000000000E+00  0.00000000000E+00  0.11751853119E+03  0.11751853119E+03  0.00000000000E+00 0. -1.
         -4   -1    0    0    0  501 -0.00000000000E+00 -0.00000000000E+00 -0.13502752507E+03  0.13502752507E+03  0.00000000000E+00 0.  1.
         23    2    1    2    0    0 -0.74128720398E+01  0.63365456634E+02 -0.18777854922E+02  0.14159038830E+03  0.12500039382E+03 0.  0.
          5    1    3    3  502    0 -0.63476434339E+02  0.52046927637E+02 -0.39361941440E+01  0.82314786140E+02  0.47000000000E+01 0. -1.
         -5    1    3    3    0  502  0.56063562299E+02  0.11318528997E+02 -0.14841660778E+02  0.59275602156E+02  0.47000000000E+01 0. -1.
        -11    1    1    2    0    0 -0.32332419275E+02 -0.19058148357E+02  0.26873518178E+02  0.46160419563E+02  0.00000000000E+00 0. -1.
         11    1    1    2    0    0  0.39745291315E+02 -0.44307308276E+02 -0.25604657131E+02  0.64795248400E+02  0.00000000000E+00 0.  1.
<mgrwt>
<rscale>  0 0.13233224E+03</rscale>
<asrwt>0</asrwt>
<pdfrwt beam="1">  1        4 0.18079774E-01 0.14033970E+03</pdfrwt>
<pdfrwt beam="2">  1       -4 0.20773465E-01 0.14033970E+03</pdfrwt>
<totfact> 0.94762431E+02</totfact>
</mgrwt>
</event>
<event>
 7    1  0.5400401E-006  0.1288799E+03  0.7546771E-02  0.1250968E+00
          1   -1    0    0  501    0  0.00000000000E+00  0.00000000000E+00  0.66231864095E+03  0.66231864095E+03  0.00000000000E+00 0. -1.
         -1   -1    0    0    0  501 -0.00000000000E+00 -0.00000000000E+00 -0.17810464394E+02  0.17810464394E+02  0.00000000000E+00 0.  1.
         23    2    1    2    0    0 -0.95073060223E+01 -0.23271686362E+02  0.31378586354E+03  0.33922202797E+03  0.12640433478E+03 0.  0.
          5    1    3    3  502    0 -0.43501952991E+02 -0.23070965840E+02  0.29686663061E+03  0.30095942542E+03  0.47000000000E+01 0. -1.
         -5    1    3    3    0  502  0.33994646969E+02 -0.20072052266E+00  0.16919232928E+02  0.38262602553E+02  0.47000000000E+01 0.  1.
        -11    1    1    2    0    0 -0.26238768397E+02  0.34812104590E+02  0.20995777862E+03  0.21443559499E+03  0.00000000000E+00 0.  1.
         11    1    1    2    0    0  0.35746074419E+02 -0.11540418228E+02  0.12076453440E+03  0.12647148239E+03  0.00000000000E+00 0. -1.
<mgrwt>
<rscale>  0 0.11535166E+03</rscale>
<asrwt>0</asrwt>
<pdfrwt beam="1">  1        1 0.10189516E+00 0.12887985E+03</pdfrwt>
<pdfrwt beam="2">  1       -1 0.27400720E-02 0.12887985E+03</pdfrwt>
<totfact> 0.12517761E+04</totfact>
</mgrwt>
</event>
<event>
 7    1  0.5400401E-006  0.1330077E+03  0.7546771E-02  0.1235517E+00
         -1   -1    0    0    0  501 -0.00000000000E+00  0.00000000000E+00  0.57872526399E+02  0.57872526399E+02  0.00000000000E+00 0.  1.
          1   -1    0    0  501    0  0.00000000000E+00 -0.00000000000E+00 -0.24531237215E+03  0.24531237215E+03  0.00000000000E+00 0. -1.
         23    2    1    2    0    0  0.12159590164E+02  0.43794968296E+02 -0.83815361700E+02  0.15721344117E+03  0.12500078538E+03 0.  0.
          5    1    3    3  502    0 -0.23954163400E+02  0.59534538110E+02  0.15203710063E+00  0.64344978728E+02  0.47000000000E+01 0. -1.
         -5    1    3    3    0  502  0.36113753564E+02 -0.15739569814E+02 -0.83967398801E+02  0.92868462439E+02  0.47000000000E+01 0. -1.
        -11    1    1    2    0    0 -0.18885778300E+02 -0.36238395768E+02 -0.11997550136E+03  0.12674389483E+03  0.00000000000E+00 0. -1.
         11    1    1    2    0    0  0.67261881359E+01 -0.75565725276E+01  0.16351017302E+02  0.19227562560E+02  0.00000000000E+00 0.  1.
<mgrwt>
<rscale>  0 0.12471397E+03</rscale>
<asrwt>0</asrwt>
<pdfrwt beam="2">  1        1 0.37740365E-01 0.13300771E+03</pdfrwt>
<pdfrwt beam="1">  1       -1 0.89034655E-02 0.13300771E+03</pdfrwt>
<totfact> 0.78227112E+03</totfact>
</mgrwt>
</event>
<event>
 7    1  0.5400401E-006  0.1294315E+03  0.7546771E-02  0.1243127E+00
         -2   -1    0    0    0  501 -0.00000000000E+00  0.00000000000E+00  0.31581435263E+02  0.31581435263E+02  0.00000000000E+00 0.  1.
          2   -1    0    0  501    0  0.00000000000E+00 -0.00000000000E+00 -0.44467817251E+03  0.44467817251E+03  0.00000000000E+00 0. -1.
         23    2    1    2    0    0  0.27575551414E+02 -0.19160649382E+02 -0.16049916727E+03  0.20618557497E+03  0.12499986845E+03 0.  0.
          5    1    3    3  502    0 -0.33605864643E+02  0.31765511329E+02 -0.82185670221E+02  0.94419151861E+02  0.47000000000E+01 0.  1.
         -5    1    3    3    0  502  0.61181416057E+02 -0.50926160712E+02 -0.78313497046E+02  0.11176642311E+03  0.47000000000E+01 0.  1.
        -11    1    1    2    0    0 -0.56381264109E+02 -0.37817762777E+01 -0.18014497565E+03  0.18879979085E+03  0.00000000000E+00 0. -1.
         11    1    1    2    0    0  0.28805712695E+02  0.22942425660E+02 -0.72452594334E+02  0.81274241951E+02  0.00000000000E+00 0.  1.
<mgrwt>
<rscale>  0 0.11998177E+03</rscale>
<asrwt>0</asrwt>
<pdfrwt beam="2">  1        2 0.68412021E-01 0.12943148E+03</pdfrwt>
<pdfrwt beam="1">  1       -2 0.48586827E-02 0.12943148E+03</pdfrwt>
<totfact> 0.13680151E+04</totfact>
</mgrwt>
</event>
<event>
 7    1  0.5400401E-006  0.1132491E+03  0.7546771E-02  0.1265625E+00
         -2   -1    0    0    0  501 -0.00000000000E+00  0.00000000000E+00  0.52704735773E+02  0.52704735773E+02  0.00000000000E+00 0.  1.
          2   -1    0    0  501    0  0.00000000000E+00 -0.00000000000E+00 -0.26027018994E+03  0.26027018994E+03  0.00000000000E+00 0. -1.
         23    2    1    2    0    0  0.52410665146E+00  0.20563836679E+01 -0.36364144108E+02  0.11894414740E+03  0.11322921806E+03 0.  0.
          5    1    3    3  502    0  0.11518601638E+02  0.36605603381E+02 -0.62856483076E+02  0.73794822632E+02  0.47000000000E+01 0. -1.
         -5    1    3    3    0  502 -0.10994494986E+02 -0.34549219713E+02  0.26492338969E+02  0.45149324766E+02  0.47000000000E+01 0.  1.
        -11    1    1    2    0    0 -0.26687411217E+02  0.30612167085E+02 -0.42893992129E+02  0.59069596679E+02  0.00000000000E+00 0. -1.
         11    1    1    2    0    0  0.26163304565E+02 -0.32668550753E+02 -0.12830731793E+03  0.13496118164E+03  0.00000000000E+00 0.  1.
<mgrwt>
<rscale>  0 0.10731469E+03</rscale>
<asrwt>0</asrwt>
<pdfrwt beam="2">  1        2 0.40041568E-01 0.11324910E+03</pdfrwt>
<pdfrwt beam="1">  1       -2 0.81084209E-02 0.11324910E+03</pdfrwt>
<totfact> 0.10980718E+04</totfact>
</mgrwt>
</event>
<event>
 7    1  0.5400401E-006  0.1323506E+03  0.7546771E-02  0.1236624E+00
         -3   -1    0    0    0  501 -0.00000000000E+00  0.00000000000E+00  0.25516944147E+03  0.25516944147E+03  0.00000000000E+00 0.  1.
          3   -1    0    0  501    0  0.00000000000E+00 -0.00000000000E+00 -0.58041179191E+02  0.58041179191E+02  0.00000000000E+00 0. -1.
         23    2    1    2    0    0  0.35754544064E+02 -0.24865471777E+02  0.15233116389E+03  0.20179563347E+03  0.12498005877E+03 0.  0.
          5    1    3    3  502    0  0.29894742817E+02 -0.74068342124E+02  0.11247818704E+03  0.13803350141E+03  0.47000000000E+01 0. -1.
         -5    1    3    3    0  502  0.58598012470E+01  0.49202870347E+02  0.39852976853E+02  0.63762132062E+02  0.47000000000E+01 0. -1.
        -11    1    1    2    0    0 -0.54310042318E+02  0.28469291429E+02  0.61018724662E+02  0.86506450687E+02  0.00000000000E+00 0. -1.
         11    1    1    2    0    0  0.18555498254E+02 -0.36038196520E+01 -0.16221626274E+02  0.24908536499E+02  0.00000000000E+00 0.  1.
<mgrwt>
<rscale>  0 0.12401030E+03</rscale>
<asrwt>0</asrwt>
<pdfrwt beam="2">  1        3 0.89294123E-02 0.13235065E+03</pdfrwt>
<pdfrwt beam="1">  1       -3 0.39256837E-01 0.13235065E+03</pdfrwt>
<totfact> 0.13139038E+03</totfact>
</mgrwt>
</event>
<event>
 7    1  0.5400401E-006  0.1250647E+03  0.7546771E-02  0.1250918E+00
         -2   -1    0    0    0  501 -0.00000000000E+00  0.00000000000E+00  0.14966440857E+02  0.14966440857E+02  0.00000000000E+00 0.  1.
          2   -1    0    0  501    0  0.00000000000E+00 -0.00000000000E+00 -0.82572048170E+03  0.82572048170E+03  0.00000000000E+00 0. -1.
         23    2    1    2    0    0 -0.36768733635E+01 -0.16491313136E+01 -0.36538460640E+03  0.38619565965E+03  0.12499975161E+03 0.  0.
          5    1    3    3  502    0  0.53261265622E+02  0.22820113579E+02 -0.22989066627E+03  0.23712724103E+03  0.47000000000E+01 0.  1.
         -5    1    3    3    0  502 -0.56938138985E+02 -0.24469244893E+02 -0.13549394013E+03  0.14906841862E+03  0.47000000000E+01 0.  1.
        -11    1    1    2    0    0 -0.31849002750E+02 -0.29283422852E+02 -0.19711787803E+03  0.20181014759E+03  0.00000000000E+00 0. -1.
         11    1    1    2    0    0  0.35525876114E+02  0.30932554165E+02 -0.24825155641E+03  0.25268111533E+03  0.00000000000E+00 0.  1.
<mgrwt>
<rscale>  0 0.11538070E+03</rscale>
<asrwt>0</asrwt>
<pdfrwt beam="2">  1        2 0.12703390E+00 0.12506469E+03</pdfrwt>
<pdfrwt beam="1">  1       -2 0.23025298E-02 0.12506469E+03</pdfrwt>
<totfact> 0.20162195E+04</totfact>
</mgrwt>
</event>
<event>
 7    1  0.5400401E-006  0.1355500E+03  0.7546771E-02  0.1230776E+00
          3   -1    0    0  501    0  0.00000000000E+00  0.00000000000E+00  0.10025165576E+03  0.10025165576E+03  0.00000000000E+00 0. -1.
         -3   -1    0    0    0  501 -0.00000000000E+00 -0.00000000000E+00 -0.14927407432E+03  0.14927407432E+03  0.00000000000E+00 0.  1.
         23    2    1    2    0    0  0.52392308101E+02  0.19112519270E+01 -0.43329570189E+02  0.14230692193E+03  0.12500080617E+03 0.  0.
          5    1    3    3  502    0  0.80377038546E+02  0.37768845240E+02 -0.20810290047E+02  0.91335163919E+02  0.47000000000E+01 0. -1.
         -5    1    3    3    0  502 -0.27984730445E+02 -0.35857593313E+02 -0.22519280142E+02  0.50971758008E+02  0.47000000000E+01 0. -1.
        -11    1    1    2    0    0 -0.17101486353E+02  0.45065092815E+02 -0.49959783597E+01  0.48459088164E+02  0.00000000000E+00 0.  1.
         11    1    1    2    0    0 -0.35290821749E+02 -0.46976344742E+02 -0.69687001168E+00  0.58759719986E+02  0.00000000000E+00 0. -1.
<mgrwt>
<rscale>  0 0.12778774E+03</rscale>
<asrwt>0</asrwt>
<pdfrwt beam="1">  1        3 0.15423332E-01 0.13555002E+03</pdfrwt>
<pdfrwt beam="2">  1       -3 0.22965242E-01 0.13555002E+03</pdfrwt>
<totfact> 0.14248745E+03</totfact>
</mgrwt>
</event>
<event>
 7    1  0.5400401E-006  0.1867417E+03  0.7546771E-02  0.1166392E+00
         -2   -1    0    0    0  501 -0.00000000000E+00  0.00000000000E+00  0.52022310863E+03  0.52022310863E+03  0.00000000000E+00 0.  1.
          2   -1    0    0  501    0  0.00000000000E+00 -0.00000000000E+00 -0.62705735656E+02  0.62705735656E+02  0.00000000000E+00 0. -1.
         23    2    1    2    0    0 -0.11840595528E+03 -0.72270924925E+02  0.30207729856E+03  0.35513824805E+03  0.12501769508E+03 0.  0.
          5    1    3    3  502    0 -0.40902522723E+02 -0.72229910120E+02  0.24513625484E+03  0.25885140470E+03  0.47000000000E+01 0.  1.
         -5    1    3    3    0  502 -0.77503432558E+02 -0.41014805027E-01  0.56941043727E+02  0.96286843344E+02  0.47000000000E+01 0.  1.
        -11    1    1    2    0    0  0.97948534303E+02  0.63526636906E+02  0.62896630890E+02  0.13261046394E+03  0.00000000000E+00 0. -1.
         11    1    1    2    0    0  0.20457420979E+02  0.87442880181E+01  0.92543443523E+02  0.95180132303E+02  0.00000000000E+00 0.  1.
<mgrwt>
<rscale>  0 0.18146539E+03</rscale>
<asrwt>0</asrwt>
<pdfrwt beam="2">  1        2 0.96470366E-02 0.18674175E+03</pdfrwt>
<pdfrwt beam="1">  1       -2 0.80034321E-01 0.18674175E+03</pdfrwt>
<totfact> 0.94260399E+02</totfact>
</mgrwt>
</event>
<event>
 7    1  0.6574227E-006  0.1317685E+03  0.7546771E-02  0.1237785E+00
          1   -1    0    0  501    0  0.00000000000E+00  0.00000000000E+00  0.24546183710E+03  0.24546183710E+03  0.00000000000E+00 0. -1.
         -1   -1    0    0    0  501 -0.00000000000E+00 -0.00000000000E+00 -0.55589067482E+02  0.55589067482E+02  0.00000000000E+00 0.  1.
         23    2    1    2    0    0  0.38306965646E+02  0.16435484547E+02  0.94289423056E+02  0.16202912307E+03  0.12500157060E+03 0.  0.
          5    1    3    3  502    0  0.46375708095E+02  0.23056293474E+02 -0.13424618693E+02  0.53708559440E+02  0.47000000000E+01 0. -1.
         -5    1    3    3    0  502 -0.80687424488E+01 -0.66208089274E+01  0.10771404175E+03  0.10832056363E+03  0.47000000000E+01 0. -1.
        -11    1    1    2    0    0 -0.36339053846E+02  0.19876911393E+02  0.53851600598E+01  0.41768629254E+02  0.00000000000E+00 0.  1.
         11    1    1    2    0    0 -0.19679118002E+01 -0.36312395939E+02  0.90198186504E+02  0.97253152259E+02  0.00000000000E+00 0. -1.
<mgrwt>
<rscale>  0 0.12327789E+03</rscale>
<asrwt>0</asrwt>
<pdfrwt beam="1">  1        1 0.37763359E-01 0.13176851E+03</pdfrwt>
<pdfrwt beam="2">  1       -1 0.85521644E-02 0.13176851E+03</pdfrwt>
<totfact> 0.83024249E+03</totfact>
</mgrwt>
</event>
<event>
 7    1  0.5400401E-006  0.1456477E+03  0.7546771E-02  0.1215715E+00
         -2   -1    0    0    0  501 -0.00000000000E+00  0.00000000000E+00  0.22542799506E+02  0.22542799506E+02  0.00000000000E+00 0.  1.
          2   -1    0    0  501    0  0.00000000000E+00 -0.00000000000E+00 -0.77440774790E+03  0.77440774790E+03  0.00000000000E+00 0. -1.
         23    2    1    2    0    0  0.67174849995E+02 -0.32964121539E+02 -0.43667770980E+03  0.46032671371E+03  0.12495666183E+03 0.  0.
          5    1    3    3  502    0  0.32182443401E+01 -0.70834013600E+02 -0.20432114577E+03  0.21632622399E+03  0.47000000000E+01 0. -1.
         -5    1    3    3    0  502  0.63956605655E+02  0.37869892061E+02 -0.23235656403E+03  0.24400048971E+03  0.47000000000E+01 0. -1.
        -11    1    1    2    0    0 -0.38295207946E+02 -0.28214397936E+02 -0.16854221231E+03  0.17512581915E+03  0.00000000000E+00 0. -1.
         11    1    1    2    0    0 -0.28879642049E+02  0.61178519474E+02 -0.14664502629E+03  0.16149801455E+03  0.00000000000E+00 0.  1.
<mgrwt>
<rscale>  0 0.13824120E+03</rscale>
<asrwt>0</asrwt>
<pdfrwt beam="2">  1        2 0.11913965E+00 0.14564773E+03</pdfrwt>
<pdfrwt beam="1">  1       -2 0.34681232E-02 0.14564773E+03</pdfrwt>
<totfact> 0.12106773E+04</totfact>
</mgrwt>
</event>
<event>
 7    1  0.5400401E-006  0.1344312E+03  0.7546771E-02  0.1228579E+00
         -1   -1    0    0    0  501 -0.00000000000E+00  0.00000000000E+00  0.26533627419E+03  0.26533627419E+03  0.00000000000E+00 0.  1.
          1   -1    0    0  501    0  0.00000000000E+00 -0.00000000000E+00 -0.67367962838E+02  0.67367962838E+02  0.00000000000E+00 0. -1.
         23    2    1    2    0    0  0.24835421101E+02 -0.42789388101E+02  0.16574860610E+03  0.21341119476E+03  0.12499603094E+03 0.  0.
          5    1    3    3  502    0 -0.22895328595E+02 -0.73727308940E+02  0.96864307146E+02  0.12395441160E+03  0.47000000000E+01 0. -1.
         -5    1    3    3    0  502  0.47730749696E+02  0.30937920840E+02  0.68884298953E+02  0.89456783167E+02  0.47000000000E+01 0. -1.
        -11    1    1    2    0    0  0.13477647677E+02  0.14354235109E+02  0.60640843495E+02  0.63757375670E+02  0.00000000000E+00 0.  1.
         11    1    1    2    0    0 -0.38313068778E+02  0.28435152992E+02 -0.28421138245E+02  0.55535666593E+02  0.00000000000E+00 0. -1.
<mgrwt>
<rscale>  0 0.12924590E+03</rscale>
<asrwt>0</asrwt>
<pdfrwt beam="2">  1        1 0.10364302E-01 0.13443116E+03</pdfrwt>
<pdfrwt beam="1">  1       -1 0.40820965E-01 0.13443116E+03</pdfrwt>
<totfact> 0.34958879E+03</totfact>
</mgrwt>
</event>
<event>
 7    1  0.5400401E-006  0.1531165E+03  0.7546771E-02  0.1205725E+00
         -1   -1    0    0    0  501 -0.00000000000E+00  0.00000000000E+00  0.50983205174E+03  0.50983205174E+03  0.00000000000E+00 0.  1.
          1   -1    0    0  501    0  0.00000000000E+00 -0.00000000000E+00 -0.40950907227E+02  0.40950907227E+02  0.00000000000E+00 0. -1.
         23    2    1    2    0    0 -0.55880029134E+02  0.68532043590E+02  0.32715541093E+03  0.36121366686E+03  0.12500172628E+03 0.  0.
          5    1    3    3  502    0 -0.37031340793E+02  0.99006135461E+02  0.17228376232E+03  0.20218140325E+03  0.47000000000E+01 0. -1.
         -5    1    3    3    0  502 -0.18848688341E+02 -0.30474091872E+02  0.15487164861E+03  0.15903226361E+03  0.47000000000E+01 0. -1.
        -11    1    1    2    0    0  0.45720543794E+02 -0.61053877397E+01  0.10899627607E+03  0.11835468762E+03  0.00000000000E+00 0.  1.
         11    1    1    2    0    0  0.10159485340E+02 -0.62426655850E+02  0.32729457516E+02  0.71214604487E+02  0.00000000000E+00 0. -1.
<mgrwt>
<rscale>  0 0.14580459E+03</rscale>
<asrwt>0</asrwt>
<pdfrwt beam="2">  1        1 0.63001399E-02 0.15311646E+03</pdfrwt>
<pdfrwt beam="1">  1       -1 0.78435696E-01 0.15311646E+03</pdfrwt>
<totfact> 0.20048413E+03</totfact>
</mgrwt>
</event>
<event>
 7    1  0.5400401E-006  0.1260865E+03  0.7546771E-02  0.1247669E+00
          1   -1    0    0  501    0  0.00000000000E+00  0.00000000000E+00  0.17790723984E+03  0.17790723984E+03  0.00000000000E+00 0. -1.
         -1   -1    0    0    0  501 -0.00000000000E+00 -0.00000000000E+00 -0.69130664572E+02  0.69130664572E+02  0.00000000000E+00 0.  1.
         23    2    1    2    0    0  0.75156509755E+01 -0.14721104594E+02  0.48595245759E+02  0.13512696984E+03  0.12499841654E+03 0.  0.
          5    1    3    3  502    0  0.46451724205E+02 -0.42334684496E+02  0.58680752160E+02  0.86113348948E+02  0.47000000000E+01 0. -1.
         -5    1    3    3    0  502 -0.38936073229E+02  0.27613579902E+02 -0.10085506401E+02  0.49013620892E+02  0.47000000000E+01 0. -1.
        -11    1    1    2    0    0 -0.31944069390E+02 -0.24426319436E+02  0.58619985120E+01  0.40637810927E+02  0.00000000000E+00 0.  1.
         11    1    1    2    0    0  0.24428418414E+02  0.39147424030E+02  0.54319330999E+02  0.71273123648E+02  0.00000000000E+00 0. -1.
<mgrwt>
<rscale>  0 0.11727055E+03</rscale>
<asrwt>0</asrwt>
<pdfrwt beam="1">  1        1 0.27370344E-01 0.12608648E+03</pdfrwt>
<pdfrwt beam="2">  1       -1 0.10635487E-01 0.12608648E+03</pdfrwt>
<totfact> 0.88526739E+03</totfact>
</mgrwt>
</event>
<event>
 7    1  0.5400401E-006  0.1457717E+03  0.7546771E-02  0.1217193E+00
         -3   -1    0    0    0  501 -0.00000000000E+00  0.00000000000E+00  0.23495233273E+02  0.23495233273E+02  0.00000000000E+00 0.  1.
          3   -1    0    0  501    0  0.00000000000E+00 -0.00000000000E+00 -0.71961193378E+03  0.71961193378E+03  0.00000000000E+00 0. -1.
         23    2    1    2    0    0 -0.62528243420E+02  0.41404917953E+02 -0.38797456809E+03  0.41445583745E+03  0.12500090900E+03 0.  0.
          5    1    3    3  502    0 -0.24088411986E+02  0.75185774345E+02 -0.13626873892E+03  0.15755764488E+03  0.47000000000E+01 0.  1.
         -5    1    3    3    0  502 -0.38439831435E+02 -0.33780856392E+02 -0.25170582918E+03  0.25689819256E+03  0.47000000000E+01 0.  1.
        -11    1    1    2    0    0  0.83513014941E+02 -0.33687287393E+02 -0.26769505641E+03  0.28243565679E+03  0.00000000000E+00 0. -1.
         11    1    1    2    0    0 -0.20984771520E+02 -0.77176305599E+01 -0.40447076000E+02  0.46215672820E+02  0.00000000000E+00 0.  1.
<mgrwt>
<rscale>  0 0.13716655E+03</rscale>
<asrwt>0</asrwt>
<pdfrwt beam="2">  1        3 0.11070954E+00 0.14577166E+03</pdfrwt>
<pdfrwt beam="1">  1       -3 0.36146508E-02 0.14577166E+03</pdfrwt>
<totfact> 0.63896219E+02</totfact>
</mgrwt>
</event>
<event>
 7    1  0.5400401E-006  0.1250634E+03  0.7546771E-02  0.1247938E+00
          1   -1    0    0  501    0  0.00000000000E+00  0.00000000000E+00  0.74347189973E+02  0.74347189973E+02  0.00000000000E+00 0. -1.
         -1   -1    0    0    0  501 -0.00000000000E+00 -0.00000000000E+00 -0.20010086623E+03  0.20010086623E+03  0.00000000000E+00 0.  1.
         23    2    1    2    0    0 -0.88634020167E+00 -0.38030703222E+01 -0.12704615547E+03  0.17827391676E+03  0.12500245931E+03 0.  0.
          5    1    3    3  502    0 -0.33488113557E+02 -0.26252309194E+02  0.23522549004E+01  0.42874941291E+02  0.47000000000E+01 0. -1.
         -5    1    3    3    0  502  0.32601773355E+02  0.22449238871E+02 -0.12939841037E+03  0.13539897547E+03  0.47000000000E+01 0. -1.
        -11    1    1    2    0    0  0.24113565534E+01  0.23847542371E+02  0.43363532754E+02  0.49547107791E+02  0.00000000000E+00 0. -1.
         11    1    1    2    0    0 -0.15250163517E+01 -0.20044472049E+02 -0.42071053541E+02  0.46627031652E+02  0.00000000000E+00 0.  1.
<mgrwt>
<rscale>  0 0.11711231E+03</rscale>
<asrwt>0</asrwt>
<pdfrwt beam="1">  1        1 0.11438029E-01 0.12506344E+03</pdfrwt>
<pdfrwt beam="2">  1       -1 0.30784748E-01 0.12506344E+03</pdfrwt>
<totfact> 0.49629008E+03</totfact>
</mgrwt>
</event>
<event>
 7    1  0.5400401E-006  0.1774213E+03  0.7546771E-02  0.1176154E+00
          2   -1    0    0  501    0  0.00000000000E+00  0.00000000000E+00  0.69642548584E+02  0.69642548584E+02  0.00000000000E+00 0. -1.
         -2   -1    0    0    0  501 -0.00000000000E+00 -0.00000000000E+00 -0.40033348995E+03  0.40033348995E+03  0.00000000000E+00 0.  1.
         23    2    1    2    0    0 -0.11852773510E+03 -0.42485602935E+02 -0.15683536768E+03  0.23680294290E+03  0.12499780304E+03 0.  0.
          5    1    3    3  502    0 -0.13258373388E+03 -0.46382271146E+02 -0.16711048048E+03  0.21835238550E+03  0.47000000000E+01 0.  1.
         -5    1    3    3    0  502  0.14055998789E+02  0.38966682112E+01  0.10275112800E+02  0.18450557394E+02  0.47000000000E+01 0.  1.
        -11    1    1    2    0    0  0.42096608011E+02  0.56049417211E+02 -0.11903630229E+03  0.13814232819E+03  0.00000000000E+00 0.  1.
         11    1    1    2    0    0  0.76431127085E+02 -0.13563814276E+02 -0.54819271394E+02  0.95030767446E+02  0.00000000000E+00 0. -1.
<mgrwt>
<rscale>  0 0.17163475E+03</rscale>
<asrwt>0</asrwt>
<pdfrwt beam="1">  1        2 0.10714238E-01 0.17742125E+03</pdfrwt>
<pdfrwt beam="2">  1       -2 0.61589767E-01 0.17742125E+03</pdfrwt>
<totfact> 0.14466244E+03</totfact>
</mgrwt>
</event>
<event>
 7    1  0.5400401E-006  0.1455559E+03  0.7546771E-02  0.1216005E+00
          1   -1    0    0  501    0  0.00000000000E+00  0.00000000000E+00  0.74881755970E+03  0.74881755970E+03  0.00000000000E+00 0. -1.
         -1   -1    0    0    0  501 -0.00000000000E+00 -0.00000000000E+00 -0.23357800148E+02  0.23357800148E+02  0.00000000000E+00 0.  1.
         23    2    1    2    0    0 -0.74335321323E+02  0.63226390426E+01  0.36357712203E+03  0.39163101495E+03  0.12498324865E+03 0.  0.
          5    1    3    3  502    0 -0.75342450542E+02  0.37855533521E+02  0.12452112789E+03  0.15045639755E+03  0.47000000000E+01 0.  1.
         -5    1    3    3    0  502  0.10071292186E+01 -0.31532894479E+02  0.23905599414E+03  0.24117461740E+03  0.47000000000E+01 0.  1.
        -11    1    1    2    0    0  0.58104331540E+01 -0.35718481340E+02  0.18635050795E+03  0.18983172247E+03  0.00000000000E+00 0.  1.
         11    1    1    2    0    0  0.68524888169E+02  0.29395842298E+02  0.17553212957E+03  0.19071262244E+03  0.00000000000E+00 0. -1.
<mgrwt>
<rscale>  0 0.13802987E+03</rscale>
<asrwt>0</asrwt>
<pdfrwt beam="1">  1        1 0.11520268E+00 0.14555593E+03</pdfrwt>
<pdfrwt beam="2">  1       -1 0.35935083E-02 0.14555593E+03</pdfrwt>
<totfact> 0.71237456E+03</totfact>
</mgrwt>
</event>
<event>
 7    1  0.5400401E-006  0.1352450E+03  0.7546771E-02  0.1232460E+00
          1   -1    0    0  501    0  0.00000000000E+00  0.00000000000E+00  0.11206328122E+03  0.11206328122E+03  0.00000000000E+00 0. -1.
         -1   -1    0    0    0  501 -0.00000000000E+00 -0.00000000000E+00 -0.17613917544E+03  0.17613917544E+03  0.00000000000E+00 0.  1.
         23    2    1    2    0    0  0.44735612242E+02  0.25781604969E+02 -0.11007173641E+03  0.17437603818E+03  0.12500099751E+03 0.  0.
          5    1    3    3  502    0  0.44447356322E+02 -0.32285649382E+02 -0.10147571589E+03  0.11548740865E+03  0.47000000000E+01 0. -1.
         -5    1    3    3    0  502  0.28825592044E+00  0.58067254352E+02 -0.85960205168E+01  0.58888629532E+02  0.47000000000E+01 0. -1.
        -11    1    1    2    0    0  0.48054843849E+01 -0.22267080647E+02 -0.20625319678E+02  0.30729779897E+02  0.00000000000E+00 0.  1.
         11    1    1    2    0    0 -0.49541096627E+02 -0.35145243223E+01  0.66621161864E+02  0.83096638586E+02  0.00000000000E+00 0. -1.
<mgrwt>
<rscale>  0 0.12668460E+03</rscale>
<asrwt>0</asrwt>
<pdfrwt beam="1">  1        1 0.17240505E-01 0.13524502E+03</pdfrwt>
<pdfrwt beam="2">  1       -1 0.27098335E-01 0.13524502E+03</pdfrwt>
<totfact> 0.36227380E+03</totfact>
</mgrwt>
</event>
<event>
 7    1  0.5400401E-006  0.1553448E+03  0.7546771E-02  0.1202338E+00
          1   -1    0    0  501    0  0.00000000000E+00  0.00000000000E+00  0.14462317362E+03  0.14462317362E+03  0.00000000000E+00 0.  1.
         -1   -1    0    0    0  501 -0.00000000000E+00 -0.00000000000E+00 -0.14464055287E+03  0.14464055287E+03  0.00000000000E+00 0. -1.
         23    2    1    2    0    0 -0.17082601514E+02 -0.90632243665E+02 -0.24540155033E+02  0.15727121167E+03  0.12500398372E+03 0.  0.
          5    1    3    3  502    0  0.48416876997E+02 -0.70335929770E+02 -0.43279091413E+01  0.85628019901E+02  0.47000000000E+01 0. -1.
         -5    1    3    3    0  502 -0.65499478510E+02 -0.20296313895E+02 -0.20212245892E+02  0.71643191769E+02  0.47000000000E+01 0. -1.
        -11    1    1    2    0    0 -0.31138650484E+02  0.39760964954E+02 -0.13464015805E+02  0.52266907404E+02  0.00000000000E+00 0.  1.
         11    1    1    2    0    0  0.48221251997E+02  0.50871278711E+02  0.37986791598E+02  0.79725607415E+02  0.00000000000E+00 0. -1.
<mgrwt>
<rscale>  0 0.14849197E+03</rscale>
<asrwt>0</asrwt>
<pdfrwt beam="1">  1        1 0.22249719E-01 0.15534483E+03</pdfrwt>
<pdfrwt beam="2">  1       -1 0.22252393E-01 0.15534483E+03</pdfrwt>
<totfact> 0.36431677E+03</totfact>
</mgrwt>
</event>
<event>
 7    1  0.5400401E-006  0.2739651E+03  0.7546771E-02  0.1100910E+00
         -2   -1    0    0    0  501 -0.00000000000E+00  0.00000000000E+00  0.68379087786E+02  0.68379087786E+02  0.00000000000E+00 0. -1.
          2   -1    0    0  501    0  0.00000000000E+00 -0.00000000000E+00 -0.11278713163E+04  0.11278713163E+04  0.00000000000E+00 0.  1.
         23    2    1    2    0    0 -0.15125836285E+03 -0.19117352421E+03 -0.38066710670E+03  0.46900352821E+03  0.12502181675E+03 0.  0.
          5    1    3    3  502    0 -0.98177415514E+02 -0.27865993212E+02 -0.14467837472E+03  0.17711363755E+03  0.47000000000E+01 0. -1.
         -5    1    3    3    0  502 -0.53080947337E+02 -0.16330753099E+03 -0.23598873198E+03  0.29188989066E+03  0.47000000000E+01 0. -1.
        -11    1    1    2    0    0  0.24526162801E+02  0.79244594450E+02 -0.32004539606E+03  0.33062107306E+03  0.00000000000E+00 0.  1.
         11    1    1    2    0    0  0.12673220005E+03  0.11192892976E+03 -0.35877972576E+03  0.39662580282E+03  0.00000000000E+00 0. -1.
<mgrwt>
<rscale>  0 0.27064650E+03</rscale>
<asrwt>0</asrwt>
<pdfrwt beam="2">  1        2 0.17351866E+00 0.27396508E+03</pdfrwt>
<pdfrwt beam="1">  1       -2 0.10519860E-01 0.27396508E+03</pdfrwt>
<totfact> 0.13466250E+03</totfact>
</mgrwt>
</event>
<event>
 7    1  0.5400401E-006  0.1653788E+03  0.7546771E-02  0.1189722E+00
          2   -1    0    0  501    0  0.00000000000E+00  0.00000000000E+00  0.10005237178E+03  0.10005237178E+03  0.00000000000E+00 0.  1.
         -2   -1    0    0    0  501 -0.00000000000E+00 -0.00000000000E+00 -0.28782326780E+03  0.28782326780E+03  0.00000000000E+00 0. -1.
         23    2    1    2    0    0 -0.89909757403E+02 -0.60338327407E+02 -0.18228981736E+03  0.24612946992E+03  0.12500264085E+03 0.  0.
          5    1    3    3  502    0 -0.10013170090E+03  0.36726212388E+01 -0.11427836652E+03  0.15205749152E+03  0.47000000000E+01 0.  1.
         -5    1    3    3    0  502  0.10221943500E+02 -0.64010948645E+02 -0.68011450834E+02  0.94071978399E+02  0.47000000000E+01 0.  1.
        -11    1    1    2    0    0  0.48677407377E+02 -0.16458259124E+02  0.12182728609E+02  0.52808930672E+02  0.00000000000E+00 0. -1.
         11    1    1    2    0    0  0.41232350026E+02  0.76796586531E+02 -0.17663807275E+02  0.88937238988E+02  0.00000000000E+00 0.  1.
<mgrwt>
<rscale>  0 0.15909496E+03</rscale>
<asrwt>0</asrwt>
<pdfrwt beam="1">  1        2 0.15392673E-01 0.16537877E+03</pdfrwt>
<pdfrwt beam="2">  1       -2 0.44280503E-01 0.16537877E+03</pdfrwt>
<totfact> 0.18093624E+03</totfact>
</mgrwt>
</event>
<event>
 7    1  0.5400401E-006  0.1257702E+03  0.7546771E-02  0.1250111E+00
          2   -1    0    0  501    0  0.00000000000E+00  0.00000000000E+00  0.37775724135E+03  0.37775724135E+03  0.00000000000E+00 0. -1.
         -2   -1    0    0    0  501 -0.00000000000E+00 -0.00000000000E+00 -0.31032303911E+02  0.31032303911E+02  0.00000000000E+00 0.  1.
         23    2    1    2    0    0 -0.77254102049E+01  0.11456083944E+02  0.21107351063E+03  0.24570341522E+03  0.12500886985E+03 0.  0.
          5    1    3    3  502    0  0.57321276428E+02  0.17605828053E+02  0.95761335256E+02  0.11308411578E+03  0.47000000000E+01 0.  1.
         -5    1    3    3    0  502 -0.65046686633E+02 -0.61497441095E+01  0.11531217537E+03  0.13261929944E+03  0.47000000000E+01 0.  1.
        -11    1    1    2    0    0  0.23094877346E+02  0.32190865136E+02  0.37399061625E+02  0.54482244523E+02  0.00000000000E+00 0.  1.
         11    1    1    2    0    0 -0.15369467141E+02 -0.43646949080E+02  0.98252365184E+02  0.10860388551E+03  0.00000000000E+00 0. -1.
<mgrwt>
<rscale>  0 0.11584627E+03</rscale>
<asrwt>0</asrwt>
<pdfrwt beam="1">  1        2 0.58116495E-01 0.12577019E+03</pdfrwt>
<pdfrwt beam="2">  1       -2 0.47742009E-02 0.12577019E+03</pdfrwt>
<totfact> 0.16678548E+04</totfact>
</mgrwt>
</event>
<event>
 7    1  0.5400401E-006  0.1302153E+03  0.7546771E-02  0.1240272E+00
          3   -1    0    0  501    0  0.00000000000E+00  0.00000000000E+00  0.42028461956E+02  0.42028461956E+02  0.00000000000E+00 0. -1.
         -3   -1    0    0    0  501 -0.00000000000E+00 -0.00000000000E+00 -0.32351802824E+03  0.32351802824E+03  0.00000000000E+00 0.  1.
         23    2    1    2    0    0  0.33116931960E+02 -0.15235178954E+02 -0.19052523587E+03  0.23077235201E+03  0.12500868406E+03 0.  0.
          5    1    3    3  502    0  0.42593327625E+02 -0.57348757534E+02 -0.16628890702E+03  0.18104464131E+03  0.47000000000E+01 0.  1.
         -5    1    3    3    0  502 -0.94763956648E+01  0.42113578580E+02 -0.24236328844E+02  0.49727710699E+02  0.47000000000E+01 0.  1.
        -11    1    1    2    0    0 -0.18744206745E+02 -0.96364680038E+01 -0.10188527630E+03  0.10404237756E+03  0.00000000000E+00 0.  1.
         11    1    1    2    0    0 -0.14372725215E+02  0.24871646958E+02  0.10920945876E+02  0.30731760628E+02  0.00000000000E+00 0. -1.
<mgrwt>
<rscale>  0 0.12172885E+03</rscale>
<asrwt>0</asrwt>
<pdfrwt beam="1">  1        3 0.64659173E-02 0.13021526E+03</pdfrwt>
<pdfrwt beam="2">  1       -3 0.49772004E-01 0.13021526E+03</pdfrwt>
<totfact> 0.13897079E+03</totfact>
</mgrwt>
</event>
<event>
 7    1  0.5400401E-006  0.1549495E+03  0.7546771E-02  0.1202588E+00
          4   -1    0    0  501    0  0.00000000000E+00  0.00000000000E+00  0.55956363179E+02  0.55956363179E+02  0.00000000000E+00 0. -1.
         -4   -1    0    0    0  501 -0.00000000000E+00 -0.00000000000E+00 -0.36273822227E+03  0.36273822227E+03  0.00000000000E+00 0.  1.
         23    2    1    2    0    0  0.49127780202E+02 -0.77270810751E+02 -0.16566219112E+03  0.22683324223E+03  0.12500016492E+03 0.  0.
          5    1    3    3  502    0 -0.11852928012E+02 -0.45949023334E+01  0.16524333667E+02  0.21371678293E+02  0.47000000000E+01 0. -1.
         -5    1    3    3    0  502  0.60980708214E+02 -0.72675908417E+02 -0.18218652479E+03  0.20546156393E+03  0.47000000000E+01 0. -1.
        -11    1    1    2    0    0 -0.45398509522E+02  0.33089796997E+02 -0.13610184416E+03  0.14724018241E+03  0.00000000000E+00 0.  1.
         11    1    1    2    0    0 -0.37292706796E+01  0.44181013754E+02 -0.50178238004E+01  0.44621160808E+02  0.00000000000E+00 0. -1.
<mgrwt>
<rscale>  0 0.14829132E+03</rscale>
<asrwt>0</asrwt>
<pdfrwt beam="1">  1        4 0.86086716E-02 0.15494953E+03</pdfrwt>
<pdfrwt beam="2">  1       -4 0.55805878E-01 0.15494953E+03</pdfrwt>
<totfact> 0.51369763E+02</totfact>
</mgrwt>
</event>
<event>
 7    1  0.5400401E-006  0.1367349E+03  0.7546771E-02  0.1230307E+00
         -2   -1    0    0    0  501 -0.00000000000E+00  0.00000000000E+00  0.49400168127E+02  0.49400168127E+02  0.00000000000E+00 0.  1.
          2   -1    0    0  501    0  0.00000000000E+00 -0.00000000000E+00 -0.31625810097E+03  0.31625810097E+03  0.00000000000E+00 0. -1.
         23    2    1    2    0    0 -0.26091358497E+02  0.48892360948E+02 -0.10434648946E+03  0.17200179008E+03  0.12500081592E+03 0.  0.
          5    1    3    3  502    0  0.37166109199E+02  0.59837131020E+02 -0.40743797702E+02  0.81510422480E+02  0.47000000000E+01 0.  1.
         -5    1    3    3    0  502 -0.63257467696E+02 -0.10944770072E+02 -0.63602691756E+02  0.90491367598E+02  0.47000000000E+01 0.  1.
        -11    1    1    2    0    0 -0.47655396091E+00 -0.41408551755E+02 -0.16075014226E+03  0.16599850450E+03  0.00000000000E+00 0. -1.
         11    1    1    2    0    0  0.26567912458E+02 -0.74838091927E+01 -0.17613011258E+01  0.27657974511E+02  0.00000000000E+00 0.  1.
<mgrwt>
<rscale>  0 0.12809729E+03</rscale>
<asrwt>0</asrwt>
<pdfrwt beam="2">  1        2 0.48655092E-01 0.13673487E+03</pdfrwt>
<pdfrwt beam="1">  1       -2 0.76000260E-02 0.13673487E+03</pdfrwt>
<totfact> 0.10020476E+04</totfact>
</mgrwt>
</event>
<event>
 7    1  0.5400401E-006  0.1389817E+03  0.7546771E-02  0.1224791E+00
          2   -1    0    0  501    0  0.00000000000E+00  0.00000000000E+00  0.28976127352E+03  0.28976127352E+03  0.00000000000E+00 0. -1.
         -2   -1    0    0    0  501 -0.00000000000E+00 -0.00000000000E+00 -0.56178286553E+02  0.56178286553E+02  0.00000000000E+00 0.  1.
         23    2    1    2    0    0  0.59144090348E+02  0.13701926469E+02  0.99404079370E+02  0.17087151755E+03  0.12502055152E+03 0.  0.
          5    1    3    3  502    0  0.56761616003E+02  0.39255335049E+02  0.11940616385E+03  0.13799559539E+03  0.47000000000E+01 0.  1.
         -5    1    3    3    0  502  0.23824743453E+01 -0.25553408580E+02 -0.20002084482E+02  0.32875922157E+02  0.47000000000E+01 0.  1.
        -11    1    1    2    0    0  0.21314785352E+02  0.59793219519E+01  0.68595542133E+01  0.23175975700E+02  0.00000000000E+00 0.  1.
         11    1    1    2    0    0 -0.80458875701E+02 -0.19681248421E+02  0.12731935338E+03  0.15189206682E+03  0.00000000000E+00 0. -1.
<mgrwt>
<rscale>  0 0.13181272E+03</rscale>
<asrwt>0</asrwt>
<pdfrwt beam="1">  1        2 0.44578657E-01 0.13898167E+03</pdfrwt>
<pdfrwt beam="2">  1       -2 0.86428134E-02 0.13898167E+03</pdfrwt>
<totfact> 0.90225595E+03</totfact>
</mgrwt>
</event>
<event>
 6    1  0.5400401E-006  0.4315351E+03  0.7546771E-02  0.1048767E+00
          1   -1    0    0  501    0  0.00000000000E+00  0.00000000000E+00  0.13685726437E+04  0.13685726437E+04  0.00000000000E+00 0. -1.
         -1   -1    0    0    0  501 -0.00000000000E+00 -0.00000000000E+00 -0.60834463108E+03  0.60834463108E+03  0.00000000000E+00 0.  1.
          5    1    1    2  502    0  0.13291973885E+03  0.75254679379E+02 -0.47961452091E+02  0.16016652157E+03  0.47000000000E+01 0. -1.
         -5    1    1    2    0  502  0.10410348219E+03 -0.18128048024E+03 -0.46718766807E+03  0.51184622174E+03  0.47000000000E+01 0.  1.
        -11    1    1    2    0    0 -0.37914650128E+02 -0.15405837187E+02  0.14190431949E+03  0.14768783431E+03  0.00000000000E+00 0.  1.
         11    1    1    2    0    0 -0.19910857091E+03  0.12143163804E+03  0.11334728133E+04  0.11572166972E+04  0.00000000000E+00 0. -1.
<mgrwt>
<rscale>  0 0.38592117E+03</rscale>
<asrwt>0</asrwt>
<pdfrwt beam="1">  1        1 0.21054964E+00 0.43153506E+03</pdfrwt>
<pdfrwt beam="2">  1       -1 0.93591482E-01 0.43153506E+03</pdfrwt>
<totfact> 0.98823755E+00</totfact>
</mgrwt>
</event>
<event>
 7    1  0.5400401E-006  0.1786439E+03  0.7546771E-02  0.1174140E+00
         -1   -1    0    0    0  501 -0.00000000000E+00  0.00000000000E+00  0.32350990061E+02  0.32350990061E+02  0.00000000000E+00 0.  1.
          1   -1    0    0  501    0  0.00000000000E+00 -0.00000000000E+00 -0.88308014013E+03  0.88308014013E+03  0.00000000000E+00 0. -1.
         23    2    1    2    0    0 -0.80593673089E+00  0.12759327483E+03 -0.43988826702E+03  0.47477924494E+03  0.12503179857E+03 0.  0.
          5    1    3    3  502    0 -0.49535830935E+02  0.14713392360E+02 -0.17835439176E+03  0.18574892064E+03  0.47000000000E+01 0.  1.
         -5    1    3    3    0  502  0.48729894204E+02  0.11287988247E+03 -0.26153387526E+03  0.28903032430E+03  0.47000000000E+01 0.  1.
        -11    1    1    2    0    0  0.39382406828E+02 -0.23277074135E+02 -0.15666261533E+03  0.16320530380E+03  0.00000000000E+00 0.  1.
         11    1    1    2    0    0 -0.38576470097E+02 -0.10431620070E+03 -0.25417826773E+03  0.27744658145E+03  0.00000000000E+00 0. -1.
<mgrwt>
<rscale>  0 0.17360445E+03</rscale>
<asrwt>0</asrwt>
<pdfrwt beam="2">  1        1 0.13585849E+00 0.17864390E+03</pdfrwt>
<pdfrwt beam="1">  1       -1 0.49770751E-02 0.17864390E+03</pdfrwt>
<totfact> 0.34498606E+03</totfact>
</mgrwt>
</event>
<event>
 6    1  0.5400401E-006  0.2102996E+03  0.7546771E-02  0.1173881E+00
         -1   -1    0    0    0  501 -0.00000000000E+00  0.00000000000E+00  0.40184019005E+02  0.40184019005E+02  0.00000000000E+00 0.  1.
          1   -1    0    0  501    0  0.00000000000E+00 -0.00000000000E+00 -0.62000688858E+03  0.62000688858E+03  0.00000000000E+00 0. -1.
          5    1    1    2  502    0 -0.17426329834E+02  0.40647832485E+02 -0.29859571612E+03  0.30188973971E+03  0.47000000000E+01 0. -1.
         -5    1    1    2    0  502  0.44894044375E+02 -0.67418612698E+02 -0.26606411039E+02  0.85385804832E+02  0.47000000000E+01 0.  1.
        -11    1    1    2    0    0 -0.26541169651E+02  0.54405597473E+02 -0.22223332502E+03  0.23033031384E+03  0.00000000000E+00 0. -1.
         11    1    1    2    0    0 -0.92654489022E+00 -0.27634817260E+02 -0.32387417402E+02  0.42585049212E+02  0.00000000000E+00 0.  1.
<mgrwt>
<rscale>  0 0.17386045E+03</rscale>
<asrwt>0</asrwt>
<pdfrwt beam="2">  1        1 0.95385674E-01 0.21029961E+03</pdfrwt>
<pdfrwt beam="1">  1       -1 0.61821568E-02 0.21029961E+03</pdfrwt>
<totfact> 0.42358501E+03</totfact>
</mgrwt>
</event>
<event>
 7    1  0.5400401E-006  0.1354962E+03  0.7546771E-02  0.1232256E+00
          4   -1    0    0  501    0  0.00000000000E+00  0.00000000000E+00  0.79764614518E+02  0.79764614518E+02  0.00000000000E+00 0.  1.
         -4   -1    0    0    0  501 -0.00000000000E+00 -0.00000000000E+00 -0.19637769940E+03  0.19637769940E+03  0.00000000000E+00 0. -1.
         23    2    1    2    0    0 -0.30094626321E+02 -0.42782452775E+02 -0.10520180185E+03  0.17154193579E+03  0.12499276709E+03 0.  0.
          5    1    3    3  502    0 -0.17408448735E+02 -0.84489426187E+02 -0.90941072438E+02  0.12543478736E+03  0.47000000000E+01 0. -1.
         -5    1    3    3    0  502 -0.12686177586E+02  0.41706973411E+02 -0.14260729410E+02  0.46107148428E+02  0.47000000000E+01 0. -1.
        -11    1    1    2    0    0 -0.16830488620E+02 -0.15954474305E+01  0.25210342538E+02  0.30354112911E+02  0.00000000000E+00 0.  1.
         11    1    1    2    0    0  0.46925114941E+02  0.44377900206E+02 -0.36621625570E+02  0.74246265215E+02  0.00000000000E+00 0. -1.
<mgrwt>
<rscale>  0 0.12681734E+03</rscale>
<asrwt>0</asrwt>
<pdfrwt beam="1">  1        4 0.12271479E-01 0.13549619E+03</pdfrwt>
<pdfrwt beam="2">  1       -4 0.30211954E-01 0.13549619E+03</pdfrwt>
<totfact> 0.92626220E+02</totfact>
</mgrwt>
</event>
<event>
 6    1  0.5400401E-006  0.2631237E+03  0.7546771E-02  0.1142612E+00
          1   -1    0    0  501    0  0.00000000000E+00  0.00000000000E+00  0.49094300966E+03  0.49094300966E+03  0.00000000000E+00 0. -1.
         -1   -1    0    0    0  501 -0.00000000000E+00 -0.00000000000E+00 -0.85027385548E+02  0.85027385548E+02  0.00000000000E+00 0.  1.
          5    1    1    2  502    0  0.97710373067E+02  0.53571510620E+02  0.89470356672E+02  0.14298342029E+03  0.47000000000E+01 0. -1.
         -5    1    1    2    0  502 -0.14309855470E+03 -0.40812944567E+02  0.68123035953E+02  0.16372455781E+03  0.47000000000E+01 0.  1.
        -11    1    1    2    0    0 -0.13704261441E+02 -0.27553962787E+01  0.17442705829E+00  0.13979607115E+02  0.00000000000E+00 0.  1.
         11    1    1    2    0    0  0.59092443078E+02 -0.10003169775E+02  0.24814780443E+03  0.25528280999E+03  0.00000000000E+00 0. -1.
<mgrwt>
<rscale>  0 0.20868454E+03</rscale>
<asrwt>0</asrwt>
<pdfrwt beam="1">  1        1 0.75529692E-01 0.26312375E+03</pdfrwt>
<pdfrwt beam="2">  1       -1 0.13081137E-01 0.26312375E+03</pdfrwt>
<totfact> 0.18461147E+03</totfact>
</mgrwt>
</event>
<event>
 7    1  0.5400401E-006  0.1324536E+03  0.7546771E-02  0.1239602E+00
          1   -1    0    0  501    0  0.00000000000E+00  0.00000000000E+00  0.42998850087E+02  0.42998850087E+02  0.00000000000E+00 0. -1.
         -1   -1    0    0    0  501 -0.00000000000E+00 -0.00000000000E+00 -0.32065871970E+03  0.32065871970E+03  0.00000000000E+00 0.  1.
         23    2    1    2    0    0  0.30645084271E+02  0.31316915221E+02 -0.20219725807E+03  0.24171818591E+03  0.12499631939E+03 0.  0.
          5    1    3    3  502    0 -0.23375371093E+02 -0.35334385351E+02 -0.96554383735E+02  0.10554508885E+03  0.47000000000E+01 0.  1.
         -5    1    3    3    0  502  0.54020455364E+02  0.66651300572E+02 -0.10564287433E+03  0.13617309706E+03  0.47000000000E+01 0.  1.
        -11    1    1    2    0    0  0.22289242690E+02 -0.29174430927E+02 -0.52818235695E+02  0.64325141131E+02  0.00000000000E+00 0.  1.
         11    1    1    2    0    0 -0.52934326961E+02 -0.21424842939E+01 -0.22644375856E+02  0.57614242751E+02  0.00000000000E+00 0. -1.
<mgrwt>
<rscale>  0 0.12214374E+03</rscale>
<asrwt>0</asrwt>
<pdfrwt beam="1">  1        1 0.66152079E-02 0.13245358E+03</pdfrwt>
<pdfrwt beam="2">  1       -1 0.49332109E-01 0.13245358E+03</pdfrwt>
<totfact> 0.45391171E+03</totfact>
</mgrwt>
</event>
<event>
 7    1  0.5400401E-006  0.1380197E+03  0.7546771E-02  0.1227325E+00
          2   -1    0    0  501    0  0.00000000000E+00  0.00000000000E+00  0.39784445352E+03  0.39784445352E+03  0.00000000000E+00 0. -1.
         -2   -1    0    0    0  501 -0.00000000000E+00 -0.00000000000E+00 -0.38579138493E+02  0.38579138493E+02  0.00000000000E+00 0.  1.
         23    2    1    2    0    0  0.46902808662E+02 -0.34971995135E+02  0.18290134206E+03  0.22913388820E+03  0.12500609541E+03 0.  0.
          5    1    3    3  502    0  0.12554696509E+02  0.36980026220E+02  0.12345691551E+03  0.12957176672E+03  0.47000000000E+01 0.  1.
         -5    1    3    3    0  502  0.34348112152E+02 -0.71952021355E+02  0.59444426544E+02  0.99562121475E+02  0.47000000000E+01 0.  1.
        -11    1    1    2    0    0 -0.37276185880E+02 -0.27599814170E+01  0.13352406352E+02  0.39691539231E+02  0.00000000000E+00 0.  1.
         11    1    1    2    0    0 -0.96266227816E+01  0.37731976552E+02  0.16301156662E+03  0.16759816459E+03  0.00000000000E+00 0. -1.
<mgrwt>
<rscale>  0 0.13008830E+03</rscale>
<asrwt>0</asrwt>
<pdfrwt beam="1">  1        2 0.61206836E-01 0.13801970E+03</pdfrwt>
<pdfrwt beam="2">  1       -2 0.59352523E-02 0.13801970E+03</pdfrwt>
<totfact> 0.11459509E+04</totfact>
</mgrwt>
</event>
<event>
 7    1  0.5400401E-006  0.2362378E+03  0.7546771E-02  0.1123710E+00
         -4   -1    0    0    0  501 -0.00000000000E+00  0.00000000000E+00  0.78862756208E+03  0.78862756208E+03  0.00000000000E+00 0.  1.
          4   -1    0    0  501    0  0.00000000000E+00 -0.00000000000E+00 -0.93160953298E+02  0.93160953298E+02  0.00000000000E+00 0. -1.
         23    2    1    2    0    0 -0.15772787534E+03  0.13599972076E+03  0.57944763646E+03  0.62575384466E+03  0.11150921041E+03 0.  0.
          5    1    3    3  502    0 -0.14906976486E+02  0.46230913246E+01  0.18421101852E+01  0.16403484120E+02  0.47000000000E+01 0. -1.
         -5    1    3    3    0  502 -0.14282089885E+03  0.13137662944E+03  0.57760552628E+03  0.60935036054E+03  0.47000000000E+01 0.  1.
        -11    1    1    2    0    0  0.85660529990E+02 -0.10402869532E+03  0.11504739126E+03  0.17718803031E+03  0.00000000000E+00 0.  1.
         11    1    1    2    0    0  0.72067345345E+02 -0.31971025439E+02  0.97158105663E+00  0.78846640401E+02  0.00000000000E+00 0. -1.
<mgrwt>
<rscale>  0 0.23421239E+03</rscale>
<asrwt>0</asrwt>
<pdfrwt beam="2">  1        4 0.14332455E-01 0.23623783E+03</pdfrwt>
<pdfrwt beam="1">  1       -4 0.12132731E+00 0.23623783E+03</pdfrwt>
<totfact> 0.39847972E+01</totfact>
</mgrwt>
</event>
<event>
 7    1  0.5400401E-006  0.2019486E+03  0.7546771E-02  0.1153265E+00
         -2   -1    0    0    0  501 -0.00000000000E+00  0.00000000000E+00  0.84440167781E+02  0.84440167781E+02  0.00000000000E+00 0.  1.
          2   -1    0    0  501    0  0.00000000000E+00 -0.00000000000E+00 -0.57607978192E+03  0.57607978192E+03  0.00000000000E+00 0. -1.
         23    2    1    2    0    0 -0.12898961150E+03  0.92306906243E+02 -0.90375652870E+02  0.22124873786E+03  0.12499744222E+03 0.  0.
          5    1    3    3  502    0  0.19521332625E+02  0.27868549096E+02  0.26957559711E+01  0.34454253097E+02  0.47000000000E+01 0.  1.
         -5    1    3    3    0  502 -0.14851094412E+03  0.64438357146E+02 -0.93071408841E+02  0.18679448477E+03  0.47000000000E+01 0.  1.
        -11    1    1    2    0    0  0.36403867241E+02 -0.24491816453E+02 -0.37123780985E+02  0.57474044036E+02  0.00000000000E+00 0.  1.
         11    1    1    2    0    0  0.92585744257E+02 -0.67815089790E+02 -0.36414018028E+03  0.38179716780E+03  0.00000000000E+00 0. -1.
<mgrwt>
<rscale>  0 0.19587701E+03</rscale>
<asrwt>0</asrwt>
<pdfrwt beam="2">  1        2 0.88627657E-01 0.20194862E+03</pdfrwt>
<pdfrwt beam="1">  1       -2 0.12990795E-01 0.20194862E+03</pdfrwt>
<totfact> 0.22785979E+03</totfact>
</mgrwt>
</event>
<event>
 7    1  0.5400401E-006  0.2621047E+03  0.7546771E-02  0.1108026E+00
         -2   -1    0    0    0  501 -0.00000000000E+00  0.00000000000E+00  0.51816195482E+02  0.51816195482E+02  0.00000000000E+00 0.  1.
          2   -1    0    0  501    0  0.00000000000E+00 -0.00000000000E+00 -0.13603922293E+04  0.13603922293E+04  0.00000000000E+00 0. -1.
         23    2    1    2    0    0 -0.93534890919E+02 -0.21054924616E+03 -0.47531996996E+03  0.54279642433E+03  0.12497649194E+03 0.  0.
          5    1    3    3  502    0 -0.94919635290E+02 -0.22105520072E+03 -0.47340675757E+03  0.53104725500E+03  0.47000000000E+01 0.  1.
         -5    1    3    3    0  502  0.13847443716E+01  0.10505954558E+02 -0.19132123885E+01  0.11749169324E+02  0.47000000000E+01 0.  1.
        -11    1    1    2    0    0  0.78416812043E+01  0.73853386544E+02 -0.15016616131E+03  0.16752817874E+03  0.00000000000E+00 0.  1.
         11    1    1    2    0    0  0.85693209714E+02  0.13669585962E+03 -0.68308990251E+03  0.70188382168E+03  0.00000000000E+00 0. -1.
<mgrwt>
<rscale>  0 0.25853529E+03</rscale>
<asrwt>0</asrwt>
<pdfrwt beam="2">  1        2 0.20929109E+00 0.26210472E+03</pdfrwt>
<pdfrwt beam="1">  1       -2 0.79717231E-02 0.26210472E+03</pdfrwt>
<totfact> 0.15461455E+03</totfact>
</mgrwt>
</event>
<event>
 7    1  0.5400401E-006  0.1292375E+03  0.7546771E-02  0.1249797E+00
         -2   -1    0    0    0  501 -0.00000000000E+00  0.00000000000E+00  0.10663444511E+03  0.10663444511E+03  0.00000000000E+00 0.  1.
          2   -1    0    0  501    0  0.00000000000E+00 -0.00000000000E+00 -0.10707021721E+03  0.10707021721E+03  0.00000000000E+00 0. -1.
         23    2    1    2    0    0  0.32768533341E+02  0.16406378540E+01  0.69027907431E+01  0.12942169111E+03  0.12500342851E+03 0.  0.
          5    1    3    3  502    0 -0.41977073390E+02 -0.26619454574E+01  0.28896848303E+02  0.51247229056E+02  0.47000000000E+01 0. -1.
         -5    1    3    3    0  502  0.74745606732E+02  0.43025833114E+01 -0.21994057560E+02  0.78174462050E+02  0.47000000000E+01 0. -1.
        -11    1    1    2    0    0  0.79864931061E+01  0.23207481083E+02  0.17815975505E+02  0.30327878817E+02  0.00000000000E+00 0.  1.
         11    1    1    2    0    0 -0.40755026447E+02 -0.24848118937E+02 -0.25154538352E+02  0.53955092393E+02  0.00000000000E+00 0. -1.
<mgrwt>
<rscale>  0 0.11602810E+03</rscale>
<asrwt>0</asrwt>
<pdfrwt beam="2">  1        2 0.16472341E-01 0.12923748E+03</pdfrwt>
<pdfrwt beam="1">  1       -2 0.16405299E-01 0.12923748E+03</pdfrwt>
<totfact> 0.96204067E+03</totfact>
</mgrwt>
</event>
<event>
 7    1  0.5400401E-006  0.1809380E+03  0.7546771E-02  0.1172512E+00
          1   -1    0    0  501    0  0.00000000000E+00  0.00000000000E+00  0.33854257203E+02  0.33854257203E+02  0.00000000000E+00 0. -1.
         -1   -1    0    0    0  501 -0.00000000000E+00 -0.00000000000E+00 -0.10184149227E+04  0.10184149227E+04  0.00000000000E+00 0.  1.
         23    2    1    2    0    0 -0.26407659349E+02  0.12812998444E+03 -0.72981523352E+03  0.75191013417E+03  0.12499566951E+03 0.  0.
          5    1    3    3  502    0  0.22621003195E+01  0.18101128602E+02 -0.44218101251E+03  0.44258208931E+03  0.47000000000E+01 0. -1.
         -5    1    3    3    0  502 -0.28669759668E+02  0.11002885584E+03 -0.28763422101E+03  0.30932804486E+03  0.47000000000E+01 0. -1.
        -11    1    1    2    0    0  0.89957655507E+01 -0.10687053234E+03 -0.25057833729E+03  0.27256510708E+03  0.00000000000E+00 0.  1.
         11    1    1    2    0    0  0.17411893798E+02 -0.21259452108E+02 -0.41670947234E+01  0.27793938692E+02  0.00000000000E+00 0. -1.
<mgrwt>
<rscale>  0 0.17521895E+03</rscale>
<asrwt>0</asrwt>
<pdfrwt beam="1">  1        1 0.52083481E-02 0.18093804E+03</pdfrwt>
<pdfrwt beam="2">  1       -1 0.15667919E+00 0.18093804E+03</pdfrwt>
<totfact> 0.52804435E+02</totfact>
</mgrwt>
</event>
<event>
 7    1  0.5400401E-006  0.1742928E+03  0.7546771E-02  0.1179166E+00
         -1   -1    0    0    0  501 -0.00000000000E+00  0.00000000000E+00  0.34259923715E+02  0.34259923715E+02  0.00000000000E+00 0.  1.
          1   -1    0    0  501    0  0.00000000000E+00 -0.00000000000E+00 -0.83092302842E+03  0.83092302842E+03  0.00000000000E+00 0. -1.
         23    2    1    2    0    0  0.11504756079E+03 -0.38953112059E+02 -0.31812394315E+03  0.36274073266E+03  0.12499883896E+03 0.  0.
          5    1    3    3  502    0  0.65126592851E+02  0.17123687848E+02 -0.25728374050E+03  0.26599193015E+03  0.47000000000E+01 0.  1.
         -5    1    3    3    0  502  0.49920967938E+02 -0.56076799907E+02 -0.60840202656E+02  0.96748802509E+02  0.47000000000E+01 0.  1.
        -11    1    1    2    0    0 -0.44267764063E+02 -0.94619240548E+01 -0.59739660996E+02  0.74953252350E+02  0.00000000000E+00 0.  1.
         11    1    1    2    0    0 -0.70779796725E+02  0.48415036113E+02 -0.41879950056E+03  0.42748896713E+03  0.00000000000E+00 0. -1.
<mgrwt>
<rscale>  0 0.16874229E+03</rscale>
<asrwt>0</asrwt>
<pdfrwt beam="2">  1        1 0.12783430E+00 0.17429285E+03</pdfrwt>
<pdfrwt beam="1">  1       -1 0.52707580E-02 0.17429285E+03</pdfrwt>
<totfact> 0.34824825E+03</totfact>
</mgrwt>
</event>
<event>
 7    1  0.5400401E-006  0.1268083E+03  0.7546771E-02  0.1246948E+00
         -4   -1    0    0    0  501 -0.00000000000E+00  0.00000000000E+00  0.17173410137E+03  0.17173410137E+03  0.00000000000E+00 0. -1.
          4   -1    0    0  501    0  0.00000000000E+00 -0.00000000000E+00 -0.72682370379E+02  0.72682370379E+02  0.00000000000E+00 0.  1.
         23    2    1    2    0    0  0.20058326368E+02  0.69651155307E+01  0.38526469242E+02  0.13253165983E+03  0.12501800964E+03 0.  0.
          5    1    3    3  502    0  0.40388332602E+02  0.32057222852E+02 -0.27684760238E+02  0.58714724701E+02  0.47000000000E+01 0. -1.
         -5    1    3    3    0  502 -0.20330006234E+02 -0.25092107321E+02  0.66211229479E+02  0.73816935133E+02  0.47000000000E+01 0. -1.
        -11    1    1    2    0    0 -0.38191725593E+02  0.31807855252E+02  0.22217726988E+02  0.54442400315E+02  0.00000000000E+00 0.  1.
         11    1    1    2    0    0  0.18133399225E+02 -0.38772970783E+02  0.38307534761E+02  0.57442411599E+02  0.00000000000E+00 0. -1.
<mgrwt>
<rscale>  0 0.11769522E+03</rscale>
<asrwt>0</asrwt>
<pdfrwt beam="2">  1        4 0.11181903E-01 0.12680833E+03</pdfrwt>
<pdfrwt beam="1">  1       -4 0.26420631E-01 0.12680833E+03</pdfrwt>
<totfact> 0.13756546E+03</totfact>
</mgrwt>
</event>
<event>
 7    1  0.5400401E-006  0.1498981E+03  0.7546771E-02  0.1210732E+00
          1   -1    0    0  501    0  0.00000000000E+00  0.00000000000E+00  0.34810044957E+03  0.34810044957E+03  0.00000000000E+00 0. -1.
         -1   -1    0    0    0  501 -0.00000000000E+00 -0.00000000000E+00 -0.52847023597E+02  0.52847023597E+02  0.00000000000E+00 0.  1.
         23    2    1    2    0    0  0.49311760591E+02 -0.66427952261E+02  0.14799570133E+03  0.21064698853E+03  0.12500041437E+03 0.  0.
          5    1    3    3  502    0  0.10745240712E+02 -0.52154117895E+02  0.15906020272E+03  0.16780271244E+03  0.47000000000E+01 0. -1.
         -5    1    3    3    0  502  0.38566519879E+02 -0.14273834366E+02 -0.11064501392E+02  0.42844276095E+02  0.47000000000E+01 0. -1.
        -11    1    1    2    0    0 -0.63311958102E+02  0.16261042919E+02  0.60267593334E+02  0.88910113946E+02  0.00000000000E+00 0. -1.
         11    1    1    2    0    0  0.14000197511E+02  0.50166909342E+02  0.86990131312E+02  0.10139037069E+03  0.00000000000E+00 0.  1.
<mgrwt>
<rscale>  0 0.14194761E+03</rscale>
<asrwt>0</asrwt>
<pdfrwt beam="1">  1        1 0.53553914E-01 0.14989805E+03</pdfrwt>
<pdfrwt beam="2">  1       -1 0.81303115E-02 0.14989805E+03</pdfrwt>
<totfact> 0.58606180E+03</totfact>
</mgrwt>
</event>
<event>
 7    1  0.5400401E-006  0.1355968E+03  0.7546771E-02  0.1230484E+00
          1   -1    0    0  501    0  0.00000000000E+00  0.00000000000E+00  0.66493632981E+03  0.66493632981E+03  0.00000000000E+00 0. -1.
         -1   -1    0    0    0  501 -0.00000000000E+00 -0.00000000000E+00 -0.22238592528E+02  0.22238592528E+02  0.00000000000E+00 0.  1.
         23    2    1    2    0    0 -0.50968668413E+02 -0.12759964195E+02  0.36096242833E+03  0.38559094301E+03  0.12500351523E+03 0.  0.
          5    1    3    3  502    0 -0.67646561906E+02 -0.46784137458E+02  0.14938069544E+03  0.17059160304E+03  0.47000000000E+01 0.  1.
         -5    1    3    3    0  502  0.16677893493E+02  0.34024173262E+02  0.21158173289E+03  0.21499933997E+03  0.47000000000E+01 0.  1.
        -11    1    1    2    0    0 -0.62783607247E+01  0.39346315363E+02  0.68951714162E+02  0.79635979506E+02  0.00000000000E+00 0.  1.
         11    1    1    2    0    0  0.57247029138E+02 -0.26586351168E+02  0.21278359479E+03  0.22194799982E+03  0.00000000000E+00 0. -1.
<mgrwt>
<rscale>  0 0.12797993E+03</rscale>
<asrwt>0</asrwt>
<pdfrwt beam="1">  1        1 0.10229788E+00 0.13559683E+03</pdfrwt>
<pdfrwt beam="2">  1       -1 0.34213224E-02 0.13559683E+03</pdfrwt>
<totfact> 0.90411273E+03</totfact>
</mgrwt>
</event>
<event>
 7    1  0.5400401E-006  0.1266564E+03  0.7546771E-02  0.1246131E+00
          2   -1    0    0  501    0  0.00000000000E+00  0.00000000000E+00  0.16783886477E+03  0.16783886477E+03  0.00000000000E+00 0. -1.
         -2   -1    0    0    0  501 -0.00000000000E+00 -0.00000000000E+00 -0.78989124375E+02  0.78989124375E+02  0.00000000000E+00 0.  1.
         23    2    1    2    0    0 -0.11300086864E+02 -0.17014108938E+02  0.18931793668E+02  0.12806346177E+03  0.12499866224E+03 0.  0.
          5    1    3    3  502    0 -0.38730577742E+02 -0.52285282784E+02  0.41970740235E+02  0.77572169519E+02  0.47000000000E+01 0. -1.
         -5    1    3    3    0  502  0.27430490877E+02  0.35271173846E+02 -0.23038946567E+02  0.50491292251E+02  0.47000000000E+01 0. -1.
        -11    1    1    2    0    0 -0.40854398515E+02  0.14933967541E+02  0.27066428631E+02  0.51231795043E+02  0.00000000000E+00 0.  1.
         11    1    1    2    0    0  0.52154485379E+02  0.20801413964E+01  0.42851518098E+02  0.67532732335E+02  0.00000000000E+00 0. -1.
<mgrwt>
<rscale>  0 0.11817919E+03</rscale>
<asrwt>0</asrwt>
<pdfrwt beam="1">  1        2 0.25821364E-01 0.12665638E+03</pdfrwt>
<pdfrwt beam="2">  1       -2 0.12152173E-01 0.12665638E+03</pdfrwt>
<totfact> 0.94210359E+03</totfact>
</mgrwt>
</event>
<event>
 7    1  0.5400401E-006  0.1547573E+03  0.7546771E-02  0.1202871E+00
         -2   -1    0    0    0  501 -0.00000000000E+00  0.00000000000E+00  0.41807514755E+02  0.41807514755E+02  0.00000000000E+00 0.  1.
          2   -1    0    0  501    0  0.00000000000E+00 -0.00000000000E+00 -0.50736050151E+03  0.50736050151E+03  0.00000000000E+00 0. -1.
         23    2    1    2    0    0 -0.42261781654E+02 -0.80708104943E+02 -0.19336846181E+03  0.24767154944E+03  0.12509987205E+03 0.  0.
          5    1    3    3  502    0 -0.38761051140E+02 -0.11301878803E+03 -0.13225955974E+03  0.17829847637E+03  0.47000000000E+01 0. -1.
         -5    1    3    3    0  502 -0.35007305142E+01  0.32310683083E+02 -0.61108902069E+02  0.69373073073E+02  0.47000000000E+01 0. -1.
        -11    1    1    2    0    0 -0.20861813814E+02  0.58299936868E+02 -0.14722645714E+03  0.15971764961E+03  0.00000000000E+00 0.  1.
         11    1    1    2    0    0  0.63123595468E+02  0.22408168075E+02 -0.12495806781E+03  0.14177881722E+03  0.00000000000E+00 0. -1.
<mgrwt>
<rscale>  0 0.14806514E+03</rscale>
<asrwt>0</asrwt>
<pdfrwt beam="2">  1        2 0.78055465E-01 0.15475734E+03</pdfrwt>
<pdfrwt beam="1">  1       -2 0.64319251E-02 0.15475734E+03</pdfrwt>
<totfact> 0.78480925E+03</totfact>
</mgrwt>
</event>
<event>
 7    1  0.5400401E-006  0.1439023E+03  0.7546771E-02  0.1218901E+00
          1   -1    0    0  501    0  0.00000000000E+00  0.00000000000E+00  0.41317804731E+03  0.41317804731E+03  0.00000000000E+00 0. -1.
         -1   -1    0    0    0  501 -0.00000000000E+00 -0.00000000000E+00 -0.61770726548E+02  0.61770726548E+02  0.00000000000E+00 0.  1.
         23    2    1    2    0    0 -0.28913349748E+02  0.65160496339E+02  0.49752198612E+02  0.15226015667E+03  0.12500400779E+03 0.  0.
          5    1    3    3  502    0 -0.13477184333E+02  0.13793262857E+02  0.85406834878E+02  0.87682986044E+02  0.47000000000E+01 0. -1.
         -5    1    3    3    0  502 -0.15436165415E+02  0.51367233482E+02 -0.35654636266E+02  0.64577170622E+02  0.47000000000E+01 0. -1.
        -11    1    1    2    0    0  0.19237845625E+02 -0.86576519721E+02  0.20776911164E+03  0.22590615800E+03  0.00000000000E+00 0.  1.
         11    1    1    2    0    0  0.96755041230E+01  0.21416023382E+02  0.93886010508E+02  0.96782459189E+02  0.00000000000E+00 0. -1.
<mgrwt>
<rscale>  0 0.13593858E+03</rscale>
<asrwt>0</asrwt>
<pdfrwt beam="1">  1        1 0.63565852E-01 0.14390231E+03</pdfrwt>
<pdfrwt beam="2">  1       -1 0.95031889E-02 0.14390231E+03</pdfrwt>
<totfact> 0.37191972E+03</totfact>
</mgrwt>
</event>
<event>
 7    1  0.5400401E-006  0.1293284E+03  0.7546771E-02  0.1241275E+00
          3   -1    0    0  501    0  0.00000000000E+00  0.00000000000E+00  0.61309680368E+02  0.61309680368E+02  0.00000000000E+00 0. -1.
         -3   -1    0    0    0  501 -0.00000000000E+00 -0.00000000000E+00 -0.21634254427E+03  0.21634254427E+03  0.00000000000E+00 0.  1.
         23    2    1    2    0    0 -0.81624355969E+00 -0.33174748295E+02 -0.10342748798E+03  0.16559918253E+03  0.12499845522E+03 0.  0.
          5    1    3    3  502    0 -0.38395547553E+02 -0.66897854184E+02 -0.73868585693E+02  0.10690275450E+03  0.47000000000E+01 0. -1.
         -5    1    3    3    0  502  0.37579303993E+02  0.33723105889E+02 -0.29558902285E+02  0.58696428032E+02  0.47000000000E+01 0. -1.
        -11    1    1    2    0    0  0.27444003698E+02  0.41658479862E+02  0.37670391640E+01  0.50027920879E+02  0.00000000000E+00 0.  1.
         11    1    1    2    0    0 -0.26627760138E+02 -0.84837315678E+01 -0.55372415091E+02  0.62025121236E+02  0.00000000000E+00 0. -1.
<mgrwt>
<rscale>  0 0.12111146E+03</rscale>
<asrwt>0</asrwt>
<pdfrwt beam="1">  1        3 0.94322588E-02 0.12932843E+03</pdfrwt>
<pdfrwt beam="2">  1       -3 0.33283467E-01 0.12932843E+03</pdfrwt>
<totfact> 0.16357779E+03</totfact>
</mgrwt>
</event>
<event>
 7    1  0.5400401E-006  0.1862478E+03  0.7546771E-02  0.1166900E+00
          1   -1    0    0  501    0  0.00000000000E+00  0.00000000000E+00  0.13957618643E+03  0.13957618643E+03  0.00000000000E+00 0. -1.
         -1   -1    0    0    0  501 -0.00000000000E+00 -0.00000000000E+00 -0.28496387787E+03  0.28496387787E+03  0.00000000000E+00 0.  1.
         23    2    1    2    0    0 -0.12034299065E+03 -0.67674895270E+02 -0.17553116950E+03  0.25592857573E+03  0.12500367019E+03 0.  0.
          5    1    3    3  502    0 -0.12750975423E+03 -0.61344460121E+02 -0.19062762394E+03  0.23745075536E+03  0.47000000000E+01 0. -1.
         -5    1    3    3    0  502  0.71667635708E+01 -0.63304351488E+01  0.15096454439E+02  0.18477820377E+02  0.47000000000E+01 0. -1.
        -11    1    1    2    0    0  0.62881995903E+02  0.36251885763E+02  0.62297629575E+02  0.95652178652E+02  0.00000000000E+00 0. -1.
         11    1    1    2    0    0  0.57460994751E+02  0.31423009507E+02 -0.32154151510E+02  0.72959309917E+02  0.00000000000E+00 0.  1.
<mgrwt>
<rscale>  0 0.18093676E+03</rscale>
<asrwt>0</asrwt>
<pdfrwt beam="1">  1        1 0.21473260E-01 0.18624780E+03</pdfrwt>
<pdfrwt beam="2">  1       -1 0.43840596E-01 0.18624780E+03</pdfrwt>
<totfact> 0.12093898E+03</totfact>
</mgrwt>
</event>
<event>
 6    1  0.5400401E-006  0.1852412E+03  0.7546771E-02  0.1189070E+00
         -1   -1    0    0    0  501 -0.00000000000E+00  0.00000000000E+00  0.11237317368E+03  0.11237317368E+03  0.00000000000E+00 0.  1.
          1   -1    0    0  501    0  0.00000000000E+00 -0.00000000000E+00 -0.20766698225E+03  0.20766698225E+03  0.00000000000E+00 0. -1.
          5    1    1    2  502    0 -0.34297651538E+02 -0.67935412508E+02 -0.70579748042E+02  0.10389966317E+03  0.47000000000E+01 0. -1.
         -5    1    1    2    0  502 -0.98440534327E+01  0.50698868596E+02  0.62874173284E+02  0.81501732074E+02  0.47000000000E+01 0.  1.
        -11    1    1    2    0    0  0.22804741677E+02 -0.34870914375E+02 -0.56863630561E+02  0.70494747272E+02  0.00000000000E+00 0.  1.
         11    1    1    2    0    0  0.21336963293E+02  0.52107458287E+02 -0.30724603247E+02  0.64144013410E+02  0.00000000000E+00 0. -1.
<mgrwt>
<rscale>  0 0.15967001E+03</rscale>
<asrwt>0</asrwt>
<pdfrwt beam="2">  1        1 0.31948766E-01 0.18524120E+03</pdfrwt>
<pdfrwt beam="1">  1       -1 0.17288181E-01 0.18524120E+03</pdfrwt>
<totfact> 0.34990040E+03</totfact>
</mgrwt>
</event>
<event>
 7    1  0.5400401E-006  0.1287093E+03  0.7546771E-02  0.1243191E+00
         -1   -1    0    0    0  501 -0.00000000000E+00  0.00000000000E+00  0.15239994238E+03  0.15239994238E+03  0.00000000000E+00 0.  1.
          1   -1    0    0  501    0  0.00000000000E+00 -0.00000000000E+00 -0.15168896378E+03  0.15168896378E+03  0.00000000000E+00 0. -1.
         23    2    1    2    0    0  0.36071338516E+01 -0.30339800800E+02  0.10168133080E+03  0.16402797551E+03  0.12503027149E+03 0.  0.
          5    1    3    3  502    0  0.30073451349E+02 -0.54235013155E+02  0.68056303420E+01  0.62564013077E+02  0.47000000000E+01 0. -1.
         -5    1    3    3    0  502 -0.26466317497E+02  0.23895212355E+02  0.94875700458E+02  0.10146396243E+03  0.47000000000E+01 0. -1.
        -11    1    1    2    0    0  0.10570133978E+02  0.65237293933E+01  0.15770636557E+02  0.20074853796E+02  0.00000000000E+00 0.  1.
         11    1    1    2    0    0 -0.14177267829E+02  0.23816071407E+02 -0.11674098876E+03  0.11998607685E+03  0.00000000000E+00 0. -1.
<mgrwt>
<rscale>  0 0.11994320E+03</rscale>
<asrwt>0</asrwt>
<pdfrwt beam="2">  1        1 0.23336764E-01 0.12870930E+03</pdfrwt>
<pdfrwt beam="1">  1       -1 0.23446145E-01 0.12870930E+03</pdfrwt>
<totfact> 0.31203425E+03</totfact>
</mgrwt>
</event>
<event>
 6    1  0.5400401E-006  0.1714104E+03  0.7546771E-02  0.1198958E+00
         -1   -1    0    0    0  501 -0.00000000000E+00  0.00000000000E+00  0.18969509448E+03  0.18969509448E+03  0.00000000000E+00 0.  1.
          1   -1    0    0  501    0  0.00000000000E+00 -0.00000000000E+00 -0.11085725348E+03  0.11085725348E+03  0.00000000000E+00 0. -1.
          5    1    1    2  502    0 -0.62900010695E+02  0.23367679195E+02  0.32725195822E+02  0.74802996050E+02  0.47000000000E+01 0. -1.
         -5    1    1    2    0  502  0.62555977050E+02 -0.82917886179E+02  0.61393195361E+02  0.12074701052E+03  0.47000000000E+01 0.  1.
        -11    1    1    2    0    0  0.25298878265E+02  0.68849004396E+02 -0.23680790531E+02  0.77077872882E+02  0.00000000000E+00 0. -1.
         11    1    1    2    0    0 -0.24954844620E+02 -0.92987974119E+01  0.84002403453E+01  0.27924468503E+02  0.00000000000E+00 0.  1.
<mgrwt>
<rscale>  0 0.15123964E+03</rscale>
<asrwt>0</asrwt>
<pdfrwt beam="2">  1        1 0.17054962E-01 0.17141042E+03</pdfrwt>
<pdfrwt beam="1">  1       -1 0.29183861E-01 0.17141042E+03</pdfrwt>
<totfact> 0.32850509E+03</totfact>
</mgrwt>
</event>
<event>
 7    1  0.5400401E-006  0.1266450E+03  0.7546771E-02  0.1246844E+00
         -2   -1    0    0    0  501 -0.00000000000E+00  0.00000000000E+00  0.44985627052E+02  0.44985627052E+02  0.00000000000E+00 0.  1.
          2   -1    0    0  501    0  0.00000000000E+00 -0.00000000000E+00 -0.27316452276E+03  0.27316452276E+03  0.00000000000E+00 0. -1.
         23    2    1    2    0    0  0.17319747322E+02 -0.10660039216E+02 -0.13994249246E+03  0.18874016007E+03  0.12500134696E+03 0.  0.
          5    1    3    3  502    0 -0.35048522742E+02 -0.49237021433E+02 -0.78113913319E+02  0.98876471822E+02  0.47000000000E+01 0.  1.
         -5    1    3    3    0  502  0.52368270064E+02  0.38576982217E+02 -0.61828579141E+02  0.89863688245E+02  0.47000000000E+01 0.  1.
        -11    1    1    2    0    0 -0.29047532141E+02 -0.35979919700E+02 -0.37859637736E+02  0.59763416189E+02  0.00000000000E+00 0. -1.
         11    1    1    2    0    0  0.11727784819E+02  0.46639958916E+02 -0.50376765510E+02  0.69646573553E+02  0.00000000000E+00 0.  1.
<mgrwt>
<rscale>  0 0.11775713E+03</rscale>
<asrwt>0</asrwt>
<pdfrwt beam="2">  1        2 0.42025311E-01 0.12664496E+03</pdfrwt>
<pdfrwt beam="1">  1       -2 0.69208658E-02 0.12664496E+03</pdfrwt>
<totfact> 0.13424656E+04</totfact>
</mgrwt>
</event>
<event>
 7    1  0.5400401E-006  0.1342138E+03  0.7546771E-02  0.1233224E+00
          2   -1    0    0  501    0  0.00000000000E+00  0.00000000000E+00  0.81615173158E+03  0.81615173158E+03  0.00000000000E+00 0.  1.
         -2   -1    0    0    0  501 -0.00000000000E+00 -0.00000000000E+00 -0.17531650816E+02  0.17531650816E+02  0.00000000000E+00 0. -1.
         23    2    1    2    0    0 -0.29936223732E+02 -0.38623678980E+02  0.43386313599E+03  0.45414816265E+03  0.12500146719E+03 0.  0.
          5    1    3    3  502    0  0.45046271670E+02 -0.35305433203E+02  0.15404957469E+03  0.16440499283E+03  0.47000000000E+01 0. -1.
         -5    1    3    3    0  502 -0.74982495402E+02 -0.33182457765E+01  0.27981356130E+03  0.28974316982E+03  0.47000000000E+01 0. -1.
        -11    1    1    2    0    0  0.57722735186E+02  0.36697958633E+02  0.31658968535E+03  0.32389455567E+03  0.00000000000E+00 0.  1.
         11    1    1    2    0    0 -0.27786511454E+02  0.19257203469E+01  0.48167259422E+02  0.55640664067E+02  0.00000000000E+00 0. -1.
<mgrwt>
<rscale>  0 0.12618818E+03</rscale>
<asrwt>0</asrwt>
<pdfrwt beam="1">  1        2 0.12556178E+00 0.13421376E+03</pdfrwt>
<pdfrwt beam="2">  1       -2 0.26971777E-02 0.13421376E+03</pdfrwt>
<totfact> 0.16330291E+04</totfact>
</mgrwt>
</event>
<event>
 6    1  0.5400401E-006  0.2458158E+03  0.7546771E-02  0.1130431E+00
         -1   -1    0    0    0  501 -0.00000000000E+00  0.00000000000E+00  0.99598000669E+03  0.99598000669E+03  0.00000000000E+00 0.  1.
          1   -1    0    0  501    0  0.00000000000E+00 -0.00000000000E+00 -0.43914884635E+02  0.43914884635E+02  0.00000000000E+00 0. -1.
          5    1    1    2  502    0 -0.53143314591E+02 -0.87373386311E+00  0.14254843954E+03  0.15220749952E+03  0.47000000000E+01 0. -1.
         -5    1    1    2    0  502  0.17211834389E+03 -0.85291438394E+02  0.45037257679E+03  0.48964977452E+03  0.47000000000E+01 0.  1.
        -11    1    1    2    0    0 -0.53977526819E+02  0.31996618430E+02  0.26109291050E+03  0.26852721446E+03  0.00000000000E+00 0.  1.
         11    1    1    2    0    0 -0.64997502480E+02  0.54168553827E+02  0.98051195226E+02  0.12951040282E+03  0.00000000000E+00 0. -1.
<mgrwt>
<rscale>  0 0.22469430E+03</rscale>
<asrwt>0</asrwt>
<pdfrwt beam="2">  1        1 0.67561368E-02 0.24581584E+03</pdfrwt>
<pdfrwt beam="1">  1       -1 0.15322768E+00 0.24581584E+03</pdfrwt>
<totfact> 0.39217844E+02</totfact>
</mgrwt>
</event>
<event>
 7    1  0.5400401E-006  0.1574481E+03  0.7546771E-02  0.1199086E+00
         -2   -1    0    0    0  501 -0.00000000000E+00  0.00000000000E+00  0.90893536374E+03  0.90893536374E+03  0.00000000000E+00 0.  1.
          2   -1    0    0  501    0  0.00000000000E+00 -0.00000000000E+00 -0.33175258477E+02  0.33175258477E+02  0.00000000000E+00 0. -1.
         23    2    1    2    0    0  0.79067531808E+02 -0.53969373771E+02  0.71927348540E+03  0.73630444994E+03  0.12500211326E+03 0.  0.
          5    1    3    3  502    0 -0.22711755831E+02  0.15569899213E+02  0.23129188455E+03  0.23297268396E+03  0.47000000000E+01 0.  1.
         -5    1    3    3    0  502  0.10177928764E+03 -0.69539272984E+02  0.48798160085E+03  0.50333176598E+03  0.47000000000E+01 0.  1.
        -11    1    1    2    0    0  0.18048730640E+02  0.13093935254E+02  0.55697998390E+02  0.59995623530E+02  0.00000000000E+00 0.  1.
         11    1    1    2    0    0 -0.97116262448E+02  0.40875438517E+02  0.10078862148E+03  0.14581054874E+03  0.00000000000E+00 0. -1.
<mgrwt>
<rscale>  0 0.15113424E+03</rscale>
<asrwt>0</asrwt>
<pdfrwt beam="2">  1        2 0.51038866E-02 0.15744807E+03</pdfrwt>
<pdfrwt beam="1">  1       -2 0.13983619E+00 0.15744807E+03</pdfrwt>
<totfact> 0.57122402E+02</totfact>
</mgrwt>
</event>
<event>
 7    1  0.5400401E-006  0.1849283E+03  0.7546771E-02  0.1168551E+00
         -1   -1    0    0    0  501 -0.00000000000E+00  0.00000000000E+00  0.16900405559E+03  0.16900405559E+03  0.00000000000E+00 0.  1.
          1   -1    0    0  501    0  0.00000000000E+00 -0.00000000000E+00 -0.23444455367E+03  0.23444455367E+03  0.00000000000E+00 0. -1.
         23    2    1    2    0    0 -0.13601716939E+03 -0.85813730537E+01  0.63457897372E+02  0.19551313917E+03  0.12499669002E+03 0.  0.
          5    1    3    3  502    0 -0.45793935917E+02 -0.28163949698E+02 -0.31909667098E+02  0.62694573000E+02  0.47000000000E+01 0.  1.
         -5    1    3    3    0  502 -0.90223233478E+02  0.19582576644E+02  0.95367564471E+02  0.13281856617E+03  0.47000000000E+01 0.  1.
        -11    1    1    2    0    0  0.54567567562E+02  0.33806831555E+02 -0.15463420234E+02  0.66027559812E+02  0.00000000000E+00 0.  1.
         11    1    1    2    0    0  0.81449601833E+02 -0.25225458501E+02 -0.11343497522E+03  0.14190791028E+03  0.00000000000E+00 0. -1.
<mgrwt>
<rscale>  0 0.17922905E+03</rscale>
<asrwt>0</asrwt>
<pdfrwt beam="2">  1        1 0.36068393E-01 0.18492832E+03</pdfrwt>
<pdfrwt beam="1">  1       -1 0.26000624E-01 0.18492832E+03</pdfrwt>
<totfact> 0.15470655E+03</totfact>
</mgrwt>
</event>
<event>
 7    1  0.5400401E-006  0.1379005E+03  0.7546771E-02  0.1227194E+00
         -2   -1    0    0    0  501 -0.00000000000E+00  0.00000000000E+00  0.43155365819E+02  0.43155365819E+02  0.00000000000E+00 0.  1.
          2   -1    0    0  501    0  0.00000000000E+00 -0.00000000000E+00 -0.36959058324E+03  0.36959058324E+03  0.00000000000E+00 0. -1.
         23    2    1    2    0    0  0.49064870316E+01  0.58034998386E+02 -0.13987284568E+03  0.19642036672E+03  0.12499765138E+03 0.  0.
          5    1    3    3  502    0  0.22304137358E+02 -0.30815608446E+02 -0.12978728768E+02  0.40467439598E+02  0.47000000000E+01 0.  1.
         -5    1    3    3    0  502 -0.17397650327E+02  0.88850606832E+02 -0.12689411692E+03  0.15595292713E+03  0.47000000000E+01 0.  1.
        -11    1    1    2    0    0  0.32356485849E+02 -0.42432234461E+02 -0.47249809760E+02  0.71273986982E+02  0.00000000000E+00 0.  1.
         11    1    1    2    0    0 -0.37262972881E+02 -0.15602763925E+02 -0.13931256197E+03  0.14505159535E+03  0.00000000000E+00 0. -1.
<mgrwt>
<rscale>  0 0.13017644E+03</rscale>
<asrwt>0</asrwt>
<pdfrwt beam="2">  1        2 0.56860087E-01 0.13790050E+03</pdfrwt>
<pdfrwt beam="1">  1       -2 0.66392874E-02 0.13790050E+03</pdfrwt>
<totfact> 0.10452249E+04</totfact>
</mgrwt>
</event>
<event>
 7    1  0.5400401E-006  0.1314732E+03  0.7546771E-02  0.1239213E+00
          2   -1    0    0  501    0  0.00000000000E+00  0.00000000000E+00  0.31859166228E+03  0.31859166228E+03  0.00000000000E+00 0. -1.
         -2   -1    0    0    0  501 -0.00000000000E+00 -0.00000000000E+00 -0.47775585778E+02  0.47775585778E+02  0.00000000000E+00 0.  1.
         23    2    1    2    0    0 -0.14298698127E+02 -0.38165625332E+02  0.86796965167E+02  0.15754019227E+03  0.12499652512E+03 0.  0.
          5    1    3    3  502    0 -0.63121376737E+02 -0.11916670771E+02  0.78102440140E+02  0.10123436373E+03  0.47000000000E+01 0.  1.
         -5    1    3    3    0  502  0.48822678611E+02 -0.26248954562E+02  0.86945250264E+01  0.56305828541E+02  0.47000000000E+01 0.  1.
        -11    1    1    2    0    0 -0.34363171774E+02 -0.19385712870E+01  0.49836933539E+02  0.60566538432E+02  0.00000000000E+00 0.  1.
         11    1    1    2    0    0  0.48661869901E+02  0.40104196619E+02  0.13418217779E+03  0.14826051735E+03  0.00000000000E+00 0. -1.
<mgrwt>
<rscale>  0 0.12238538E+03</rscale>
<asrwt>0</asrwt>
<pdfrwt beam="1">  1        2 0.49014101E-01 0.13147319E+03</pdfrwt>
<pdfrwt beam="2">  1       -2 0.73500903E-02 0.13147319E+03</pdfrwt>
<totfact> 0.10436601E+04</totfact>
</mgrwt>
</event>
<event>
 6    1  0.5400401E-006  0.3038746E+03  0.7546771E-02  0.1098982E+00
         -2   -1    0    0    0  501 -0.00000000000E+00  0.00000000000E+00  0.17815365542E+03  0.17815365542E+03  0.00000000000E+00 0.  1.
          2   -1    0    0  501    0  0.00000000000E+00 -0.00000000000E+00 -0.35784647258E+03  0.35784647258E+03  0.00000000000E+00 0. -1.
          5    1    1    2  502    0  0.49023439567E+02 -0.47396112723E+02 -0.12777129752E+03  0.14490439469E+03  0.47000000000E+01 0. -1.
         -5    1    1    2    0  502  0.10168390541E+03  0.14671626262E+03  0.15049881357E+02  0.17920342426E+03  0.47000000000E+01 0.  1.
        -11    1    1    2    0    0 -0.10716059713E+03 -0.11265003168E+03 -0.50868639403E+02  0.16358802429E+03  0.00000000000E+00 0. -1.
         11    1    1    2    0    0 -0.43546747850E+02  0.13329881781E+02 -0.16102761592E+02  0.48304284773E+02  0.00000000000E+00 0.  1.
<mgrwt>
<rscale>  0 0.27405401E+03</rscale>
<asrwt>0</asrwt>
<pdfrwt beam="2">  1        2 0.55053303E-01 0.30387458E+03</pdfrwt>
<pdfrwt beam="1">  1       -2 0.27408255E-01 0.30387458E+03</pdfrwt>
<totfact> 0.10895703E+03</totfact>
</mgrwt>
</event>
<event>
 7    1  0.5400401E-006  0.1505657E+03  0.7546771E-02  0.1208809E+00
          1   -1    0    0  501    0  0.00000000000E+00  0.00000000000E+00  0.81133544441E+03  0.81133544441E+03  0.00000000000E+00 0. -1.
         -1   -1    0    0    0  501 -0.00000000000E+00 -0.00000000000E+00 -0.25117645264E+02  0.25117645264E+02  0.00000000000E+00 0.  1.
         23    2    1    2    0    0 -0.45470413084E+02  0.70561127703E+02  0.31382940452E+03  0.34807889651E+03  0.12499436725E+03 0.  0.
          5    1    3    3  502    0 -0.84002603763E+01  0.60120393292E+02  0.43132875051E+02  0.74616090585E+02  0.47000000000E+01 0. -1.
         -5    1    3    3    0  502 -0.37070152708E+02  0.10440734410E+02  0.27069652947E+03  0.27346280592E+03  0.47000000000E+01 0. -1.
        -11    1    1    2    0    0  0.38889295534E+02  0.12252267729E+02  0.14730698049E+03  0.15284581078E+03  0.00000000000E+00 0.  1.
         11    1    1    2    0    0  0.65811175508E+01 -0.82813395432E+02  0.32508141414E+03  0.33552838239E+03  0.00000000000E+00 0. -1.
<mgrwt>
<rscale>  0 0.14341292E+03</rscale>
<asrwt>0</asrwt>
<pdfrwt beam="1">  1        1 0.12482082E+00 0.15056568E+03</pdfrwt>
<pdfrwt beam="2">  1       -1 0.38642537E-02 0.15056568E+03</pdfrwt>
<totfact> 0.56890748E+03</totfact>
</mgrwt>
</event>
<event>
 7    1  0.5400401E-006  0.6240601E+03  0.7546771E-02  0.9859634E-01
         -1   -1    0    0    0  501 -0.00000000000E+00  0.00000000000E+00  0.51213112629E+03  0.51213112629E+03  0.00000000000E+00 0.  1.
          1   -1    0    0  501    0  0.00000000000E+00 -0.00000000000E+00 -0.95526462264E+03  0.95526462264E+03  0.00000000000E+00 0. -1.
         23    2    1    2    0    0  0.57382045526E+03 -0.21107981596E+03  0.11497261188E+03  0.63456262145E+03  0.12500566175E+03 0.  0.
          5    1    3    3  502    0  0.70525466438E+02 -0.13125171488E+01 -0.18723396370E+02  0.73131523225E+02  0.47000000000E+01 0.  1.
         -5    1    3    3    0  502  0.50329498883E+03 -0.20976729881E+03  0.13369600825E+03  0.56143109822E+03  0.47000000000E+01 0.  1.
        -11    1    1    2    0    0 -0.55288619575E+02  0.51452092560E+02 -0.63515143020E+02  0.98682940148E+02  0.00000000000E+00 0.  1.
         11    1    1    2    0    0 -0.51853183569E+03  0.15962772340E+03 -0.49459096521E+03  0.73415018734E+03  0.00000000000E+00 0. -1.
<mgrwt>
<rscale>  0 0.62258121E+03</rscale>
<asrwt>0</asrwt>
<pdfrwt beam="2">  1        1 0.14696379E+00 0.62406011E+03</pdfrwt>
<pdfrwt beam="1">  1       -1 0.78789405E-01 0.62406011E+03</pdfrwt>
<totfact> 0.27593663E+01</totfact>
</mgrwt>
</event>
<event>
 6    1  0.5400401E-006  0.2589308E+03  0.7546771E-02  0.1143277E+00
          2   -1    0    0  501    0  0.00000000000E+00  0.00000000000E+00  0.39586419251E+03  0.39586419251E+03  0.00000000000E+00 0. -1.
         -2   -1    0    0    0  501 -0.00000000000E+00 -0.00000000000E+00 -0.10879756492E+03  0.10879756492E+03  0.00000000000E+00 0.  1.
          5    1    1    2  502    0 -0.14020120271E+03  0.10304414778E+02  0.11149181308E+03  0.17948557766E+03  0.47000000000E+01 0. -1.
         -5    1    1    2    0  502  0.83918935980E+02 -0.15918481828E+02 -0.32060041726E+02  0.91354924088E+02  0.47000000000E+01 0.  1.
        -11    1    1    2    0    0  0.12805160204E+02  0.46119751624E+02  0.85054605252E+02  0.97597589582E+02  0.00000000000E+00 0.  1.
         11    1    1    2    0    0  0.43477106527E+02 -0.40505684574E+02  0.12258025098E+03  0.13622366610E+03  0.00000000000E+00 0. -1.
<mgrwt>
<rscale>  0 0.20785392E+03</rscale>
<asrwt>0</asrwt>
<pdfrwt beam="1">  1        2 0.60902183E-01 0.25893082E+03</pdfrwt>
<pdfrwt beam="2">  1       -2 0.16738087E-01 0.25893082E+03</pdfrwt>
<totfact> 0.22909536E+03</totfact>
</mgrwt>
</event>
<event>
 7    1  0.5400401E-006  0.2919433E+03  0.7546771E-02  0.1090640E+00
          2   -1    0    0  501    0  0.00000000000E+00  0.00000000000E+00  0.10524941463E+04  0.10524941463E+04  0.00000000000E+00 0. -1.
         -2   -1    0    0    0  501 -0.00000000000E+00 -0.00000000000E+00 -0.78266366643E+02  0.78266366643E+02  0.00000000000E+00 0.  1.
         23    2    1    2    0    0  0.23951376037E+03 -0.11063872294E+03  0.49806842501E+03  0.57732404634E+03  0.12499252005E+03 0.  0.
          5    1    3    3  502    0  0.11675119986E+02 -0.36278449867E+02  0.21860115084E+02  0.44185845957E+02  0.47000000000E+01 0.  1.
         -5    1    3    3    0  502  0.22783864039E+03 -0.74360273070E+02  0.47620830992E+03  0.53313820038E+03  0.47000000000E+01 0.  1.
        -11    1    1    2    0    0 -0.82495420945E+02  0.77443259551E+02  0.13311648779E+03  0.17470819170E+03  0.00000000000E+00 0.  1.
         11    1    1    2    0    0 -0.15701833943E+03  0.33195463386E+02  0.34304286686E+03  0.37872827490E+03  0.00000000000E+00 0. -1.
<mgrwt>
<rscale>  0 0.28944337E+03</rscale>
<asrwt>0</asrwt>
<pdfrwt beam="1">  1        2 0.16192217E+00 0.29194331E+03</pdfrwt>
<pdfrwt beam="2">  1       -2 0.12040980E-01 0.29194331E+03</pdfrwt>
<totfact> 0.11996653E+03</totfact>
</mgrwt>
</event>
<event>
 7    1  0.5400401E-006  0.1476122E+03  0.7546771E-02  0.1213567E+00
         -2   -1    0    0    0  501 -0.00000000000E+00  0.00000000000E+00  0.36424451452E+02  0.36424451452E+02  0.00000000000E+00 0.  1.
          2   -1    0    0  501    0  0.00000000000E+00 -0.00000000000E+00 -0.54797277924E+03  0.54797277924E+03  0.00000000000E+00 0. -1.
         23    2    1    2    0    0 -0.57240354752E+02  0.53720143843E+02 -0.18359309502E+03  0.23557540979E+03  0.12500814812E+03 0.  0.
          5    1    3    3  502    0  0.36371068129E+02  0.12527181346E+02 -0.85099993833E+02  0.93508736596E+02  0.47000000000E+01 0.  1.
         -5    1    3    3    0  502 -0.93611422881E+02  0.41192962498E+02 -0.98493101183E+02  0.14206667320E+03  0.47000000000E+01 0.  1.
        -11    1    1    2    0    0  0.64772989933E+02 -0.70662444936E+02 -0.30253466461E+03  0.31735775497E+03  0.00000000000E+00 0. -1.
         11    1    1    2    0    0 -0.75326351815E+01  0.16942301092E+02 -0.25420568167E+02  0.31464065933E+02  0.00000000000E+00 0.  1.
<mgrwt>
<rscale>  0 0.13982304E+03</rscale>
<asrwt>0</asrwt>
<pdfrwt beam="2">  1        2 0.84303504E-01 0.14761216E+03</pdfrwt>
<pdfrwt beam="1">  1       -2 0.56037618E-02 0.14761216E+03</pdfrwt>
<totfact> 0.88573572E+03</totfact>
</mgrwt>
</event>
<event>
 7    1  0.5400401E-006  0.1257117E+03  0.7546771E-02  0.1249446E+00
         -2   -1    0    0    0  501 -0.00000000000E+00  0.00000000000E+00  0.36673310418E+03  0.36673310418E+03  0.00000000000E+00 0.  1.
          2   -1    0    0  501    0  0.00000000000E+00 -0.00000000000E+00 -0.32615883433E+02  0.32615883433E+02  0.00000000000E+00 0. -1.
         23    2    1    2    0    0 -0.11656522497E+02  0.64508382987E+01  0.21300009169E+03  0.24733070710E+03  0.12500380707E+03 0.  0.
          5    1    3    3  502    0 -0.63639299784E+02  0.15720438286E+02  0.76244064778E+02  0.10065952548E+03  0.47000000000E+01 0.  1.
         -5    1    3    3    0  502  0.51982777287E+02 -0.92695999877E+01  0.13675602691E+03  0.14667118161E+03  0.47000000000E+01 0.  1.
        -11    1    1    2    0    0 -0.34681430893E+02  0.14863254241E+02  0.71583637654E+02  0.80919312622E+02  0.00000000000E+00 0. -1.
         11    1    1    2    0    0  0.46337953390E+02 -0.21314092540E+02  0.49533491401E+02  0.71098967894E+02  0.00000000000E+00 0.  1.
<mgrwt>
<rscale>  0 0.11623206E+03</rscale>
<asrwt>0</asrwt>
<pdfrwt beam="2">  1        2 0.50178285E-02 0.12571173E+03</pdfrwt>
<pdfrwt beam="1">  1       -2 0.56420475E-01 0.12571173E+03</pdfrwt>
<totfact> 0.44384592E+03</totfact>
</mgrwt>
</event>
<event>
 7    1  0.5400401E-006  0.1703101E+03  0.7546771E-02  0.1178506E+00
          2   -1    0    0  501    0  0.00000000000E+00  0.00000000000E+00  0.50673774305E+03  0.50673774305E+03  0.00000000000E+00 0. -1.
         -2   -1    0    0    0  501 -0.00000000000E+00 -0.00000000000E+00 -0.57078495309E+02  0.57078495309E+02  0.00000000000E+00 0.  1.
         23    2    1    2    0    0 -0.11561539722E+03  0.35769778969E+01  0.18840600899E+03  0.25397310920E+03  0.12500320447E+03 0.  0.
          5    1    3    3  502    0 -0.23165104688E+02  0.53732865184E+02  0.36418673272E+02  0.69081492739E+02  0.47000000000E+01 0.  1.
         -5    1    3    3    0  502 -0.92450292527E+02 -0.50155887288E+02  0.15198733572E+03  0.18489161646E+03  0.47000000000E+01 0.  1.
        -11    1    1    2    0    0  0.32040644845E+02  0.26718788828E+02  0.94051015716E+01  0.42766254618E+02  0.00000000000E+00 0. -1.
         11    1    1    2    0    0  0.83574752370E+02 -0.30295766724E+02  0.25184813718E+03  0.26707687454E+03  0.00000000000E+00 0.  1.
<mgrwt>
<rscale>  0 0.16937025E+03</rscale>
<asrwt>0</asrwt>
<pdfrwt beam="1">  1        2 0.77959650E-01 0.17031006E+03</pdfrwt>
<pdfrwt beam="2">  1       -2 0.87813073E-02 0.17031006E+03</pdfrwt>
<totfact> 0.48826969E+03</totfact>
</mgrwt>
</event>
<event>
 7    1  0.5400401E-006  0.1403595E+03  0.7546771E-02  0.1231853E+00
          2   -1    0    0  501    0  0.00000000000E+00  0.00000000000E+00  0.26491876408E+02  0.26491876408E+02  0.00000000000E+00 0. -1.
         -2   -1    0    0    0  501 -0.00000000000E+00 -0.00000000000E+00 -0.52359444957E+03  0.52359444957E+03  0.00000000000E+00 0.  1.
         23    2    1    2    0    0  0.63286405619E+02  0.84357488663E+01 -0.27373652993E+03  0.30762392124E+03  0.12499783242E+03 0.  0.
          5    1    3    3  502    0 -0.15352213929E+02 -0.32068687416E+02 -0.15721995638E+03  0.16125847534E+03  0.47000000000E+01 0. -1.
         -5    1    3    3    0  502  0.78638619548E+02  0.40504436282E+02 -0.11651657355E+03  0.14636544590E+03  0.47000000000E+01 0. -1.
        -11    1    1    2    0    0 -0.76290642336E+02  0.11377792740E+01 -0.19999666483E+03  0.21405658736E+03  0.00000000000E+00 0.  1.
         11    1    1    2    0    0  0.13004236717E+02 -0.95735281403E+01 -0.23369378405E+02  0.28405817374E+02  0.00000000000E+00 0. -1.
<mgrwt>
<rscale>  0 0.12708036E+03</rscale>
<asrwt>0</asrwt>
<pdfrwt beam="1">  1        2 0.40756736E-02 0.14035950E+03</pdfrwt>
<pdfrwt beam="2">  1       -2 0.80552986E-01 0.14035950E+03</pdfrwt>
<totfact> 0.27773110E+03</totfact>
</mgrwt>
</event>
<event>
 6    1  0.5400401E-006  0.3220346E+03  0.7546771E-02  0.1074717E+00
          2   -1    0    0  501    0  0.00000000000E+00  0.00000000000E+00  0.16637902317E+03  0.16637902317E+03  0.00000000000E+00 0. -1.
         -2   -1    0    0    0  501 -0.00000000000E+00 -0.00000000000E+00 -0.15582838657E+03  0.15582838657E+03  0.00000000000E+00 0.  1.
          5    1    1    2  502    0 -0.93493415667E+01 -0.13387700599E+02  0.30370655822E+02  0.34800969097E+02  0.47000000000E+01 0. -1.
         -5    1    1    2    0  502  0.79182682318E+02  0.96146762078E+02 -0.62209750648E+02  0.13930628167E+03  0.47000000000E+01 0.  1.
        -11    1    1    2    0    0 -0.90326242091E+02 -0.50252366867E+02  0.33511885903E+02  0.10866083417E+03  0.00000000000E+00 0. -1.
         11    1    1    2    0    0  0.20492901340E+02 -0.32506694613E+02  0.88778455151E+01  0.39439324803E+02  0.00000000000E+00 0.  1.
<mgrwt>
<rscale>  0 0.32203462E+03</rscale>
<asrwt>0</asrwt>
<pdfrwt beam="1">  1        2 0.25596773E-01 0.32203462E+03</pdfrwt>
<pdfrwt beam="2">  1       -2 0.23973598E-01 0.32203462E+03</pdfrwt>
<totfact> 0.32115708E+03</totfact>
</mgrwt>
</event>
<event>
 6    1  0.5400401E-006  0.1897599E+03  0.7546771E-02  0.1166892E+00
         -2   -1    0    0    0  501 -0.00000000000E+00  0.00000000000E+00  0.59424703690E+02  0.59424703690E+02  0.00000000000E+00 0.  1.
          2   -1    0    0  501    0  0.00000000000E+00 -0.00000000000E+00 -0.51024081725E+03  0.51024081725E+03  0.00000000000E+00 0. -1.
          5    1    1    2  502    0  0.98052895476E+02  0.45127916961E+02 -0.18455343066E+03  0.21385265481E+03  0.47000000000E+01 0. -1.
         -5    1    1    2    0  502 -0.30245906256E+02  0.60447831448E+02 -0.34733603418E+02  0.76139794972E+02  0.47000000000E+01 0.  1.
        -11    1    1    2    0    0 -0.81889376438E+02 -0.52514116736E+02 -0.11339221897E+03  0.14940347302E+03  0.00000000000E+00 0.  1.
         11    1    1    2    0    0  0.14082387218E+02 -0.53061631674E+02 -0.11813686052E+03  0.13026959814E+03  0.00000000000E+00 0. -1.
<mgrwt>
<rscale>  0 0.18094441E+03</rscale>
<asrwt>0</asrwt>
<pdfrwt beam="2">  1        2 0.78498586E-01 0.18975989E+03</pdfrwt>
<pdfrwt beam="1">  1       -2 0.91422623E-02 0.18975989E+03</pdfrwt>
<totfact> 0.45707524E+03</totfact>
</mgrwt>
</event>
<event>
 7    1  0.5400401E-006  0.1663289E+03  0.7546771E-02  0.1188651E+00
          1   -1    0    0  501    0  0.00000000000E+00  0.00000000000E+00  0.42660224931E+03  0.42660224931E+03  0.00000000000E+00 0. -1.
         -1   -1    0    0    0  501 -0.00000000000E+00 -0.00000000000E+00 -0.76431107561E+02  0.76431107561E+02  0.00000000000E+00 0.  1.
         23    2    1    2    0    0 -0.29179609749E+02  0.10577632046E+03  0.54914861132E+02  0.17515979607E+03  0.12500093035E+03 0.  0.
          5    1    3    3  502    0 -0.12093040931E+02  0.50398840579E+02  0.92352028301E+02  0.10600599937E+03  0.47000000000E+01 0.  1.
         -5    1    3    3    0  502 -0.17086568817E+02  0.55377479883E+02 -0.37437167168E+02  0.69153796698E+02  0.47000000000E+01 0.  1.
        -11    1    1    2    0    0 -0.49334581036E+01 -0.97793046322E+02  0.26146429317E+03  0.27919777134E+03  0.00000000000E+00 0. -1.
         11    1    1    2    0    0  0.34113067852E+02 -0.79832741397E+01  0.33791987438E+02  0.48675789458E+02  0.00000000000E+00 0.  1.
<mgrwt>
<rscale>  0 0.16004022E+03</rscale>
<asrwt>0</asrwt>
<pdfrwt beam="1">  1        1 0.65631114E-01 0.16632893E+03</pdfrwt>
<pdfrwt beam="2">  1       -1 0.11758632E-01 0.16632893E+03</pdfrwt>
<totfact> 0.25891958E+03</totfact>
</mgrwt>
</event>
<event>
 7    1  0.5400401E-006  0.1222474E+03  0.7546771E-02  0.1251047E+00
          1   -1    0    0  501    0  0.00000000000E+00  0.00000000000E+00  0.13895570042E+03  0.13895570042E+03  0.00000000000E+00 0. -1.
         -1   -1    0    0    0  501 -0.00000000000E+00 -0.00000000000E+00 -0.90028359903E+02  0.90028359903E+02  0.00000000000E+00 0.  1.
         23    2    1    2    0    0 -0.12284107781E+02  0.43778802288E+01  0.40254141163E+01  0.12231369464E+03  0.12154986959E+03 0.  0.
          5    1    3    3  502    0  0.21176090424E+00 -0.57906173562E+02 -0.33257189276E+01  0.58192097279E+02  0.47000000000E+01 0. -1.
         -5    1    3    3    0  502 -0.12495868685E+02  0.62284053791E+02  0.73511330439E+01  0.64121597359E+02  0.47000000000E+01 0.  1.
        -11    1    1    2    0    0 -0.22696237958E+02  0.14244045304E+02 -0.18032761885E+02  0.32298491378E+02  0.00000000000E+00 0.  1.
         11    1    1    2    0    0  0.34980345739E+02 -0.18621925532E+02  0.62934688285E+02  0.74371874308E+02  0.00000000000E+00 0. -1.
<mgrwt>
<rscale>  0 0.11530632E+03</rscale>
<asrwt>0</asrwt>
<pdfrwt beam="1">  1        1 0.21377800E-01 0.12224744E+03</pdfrwt>
<pdfrwt beam="2">  1       -1 0.13850517E-01 0.12224744E+03</pdfrwt>
<totfact> 0.80146247E+03</totfact>
</mgrwt>
</event>
<event>
 7    1  0.5400401E-006  0.1428032E+03  0.7546771E-02  0.1220205E+00
         -1   -1    0    0    0  501 -0.00000000000E+00  0.00000000000E+00  0.68221621313E+02  0.68221621313E+02  0.00000000000E+00 0.  1.
          1   -1    0    0  501    0  0.00000000000E+00 -0.00000000000E+00 -0.24772334540E+03  0.24772334540E+03  0.00000000000E+00 0. -1.
         23    2    1    2    0    0 -0.59466406279E+02  0.35095991206E+02 -0.75351693504E+02  0.16146404494E+03  0.12499911208E+03 0.  0.
          5    1    3    3  502    0 -0.29193431262E+02  0.22171959649E+02 -0.10843416489E+03  0.11455963661E+03  0.47000000000E+01 0. -1.
         -5    1    3    3    0  502 -0.30272975017E+02  0.12924031557E+02  0.33082471388E+02  0.46904408334E+02  0.47000000000E+01 0. -1.
        -11    1    1    2    0    0  0.18858834658E+02 -0.32050405096E+02  0.54277924771E+01  0.37581179367E+02  0.00000000000E+00 0.  1.
         11    1    1    2    0    0  0.40607571621E+02 -0.30455861096E+01 -0.10957782306E+03  0.11689974241E+03  0.00000000000E+00 0. -1.
<mgrwt>
<rscale>  0 0.13501061E+03</rscale>
<asrwt>0</asrwt>
<pdfrwt beam="2">  1        1 0.38111284E-01 0.14280322E+03</pdfrwt>
<pdfrwt beam="1">  1       -1 0.10495634E-01 0.14280322E+03</pdfrwt>
<totfact> 0.60427607E+03</totfact>
</mgrwt>
</event>
<event>
 7    1  0.5400401E-006  0.1441142E+03  0.7546771E-02  0.1217899E+00
         -1   -1    0    0    0  501 -0.00000000000E+00  0.00000000000E+00  0.48907923134E+02  0.48907923134E+02  0.00000000000E+00 0.  1.
          1   -1    0    0  501    0  0.00000000000E+00 -0.00000000000E+00 -0.37610389779E+03  0.37610389779E+03  0.00000000000E+00 0. -1.
         23    2    1    2    0    0  0.63335154732E+02 -0.33694720347E+02 -0.12102610227E+03  0.18819197440E+03  0.12498890268E+03 0.  0.
          5    1    3    3  502    0  0.50517237106E+02  0.35654333442E+02 -0.20512200510E+02  0.65315106275E+02  0.47000000000E+01 0.  1.
         -5    1    3    3    0  502  0.12817917626E+02 -0.69349053789E+02 -0.10051390176E+03  0.12287686812E+03  0.47000000000E+01 0.  1.
        -11    1    1    2    0    0  0.14851366994E+02  0.27207854992E+02 -0.26549807951E+02  0.40813267170E+02  0.00000000000E+00 0.  1.
         11    1    1    2    0    0 -0.78186521726E+02  0.64868653557E+01 -0.17962006443E+03  0.19600657935E+03  0.00000000000E+00 0. -1.
<mgrwt>
<rscale>  0 0.13665737E+03</rscale>
<asrwt>0</asrwt>
<pdfrwt beam="2">  1        1 0.57862140E-01 0.14411420E+03</pdfrwt>
<pdfrwt beam="1">  1       -1 0.75242957E-02 0.14411420E+03</pdfrwt>
<totfact> 0.59650883E+03</totfact>
</mgrwt>
</event>
<event>
 7    1  0.5400401E-006  0.1360486E+03  0.7546771E-02  0.1230687E+00
         -1   -1    0    0    0  501 -0.00000000000E+00  0.00000000000E+00  0.33167171297E+02  0.33167171297E+02  0.00000000000E+00 0.  1.
          1   -1    0    0  501    0  0.00000000000E+00 -0.00000000000E+00 -0.49039889382E+03  0.49039889382E+03  0.00000000000E+00 0. -1.
         23    2    1    2    0    0  0.52838415998E+02 -0.99987629405E+01 -0.17238088746E+03  0.21960050096E+03  0.12496934101E+03 0.  0.
          5    1    3    3  502    0  0.40116504939E+02 -0.54500628652E+02 -0.15628462882E+03  0.17037202734E+03  0.47000000000E+01 0. -1.
         -5    1    3    3    0  502  0.12721911059E+02  0.44501865712E+02 -0.16096258638E+02  0.49228473620E+02  0.47000000000E+01 0. -1.
        -11    1    1    2    0    0 -0.62200414357E+02  0.38039933467E+02 -0.23454728515E+03  0.24561831580E+03  0.00000000000E+00 0. -1.
         11    1    1    2    0    0  0.93619983591E+01 -0.28041170526E+02 -0.50303549912E+02  0.58347248363E+02  0.00000000000E+00 0.  1.
<mgrwt>
<rscale>  0 0.12784653E+03</rscale>
<asrwt>0</asrwt>
<pdfrwt beam="2">  1        1 0.75445983E-01 0.13604856E+03</pdfrwt>
<pdfrwt beam="1">  1       -1 0.51026418E-02 0.13604856E+03</pdfrwt>
<totfact> 0.75691817E+03</totfact>
</mgrwt>
</event>
<event>
 7    1  0.5400401E-006  0.1506878E+03  0.7546771E-02  0.1208393E+00
          2   -1    0    0  501    0  0.00000000000E+00  0.00000000000E+00  0.17455240335E+03  0.17455240335E+03  0.00000000000E+00 0. -1.
         -2   -1    0    0    0  501 -0.00000000000E+00 -0.00000000000E+00 -0.12257570848E+03  0.12257570848E+03  0.00000000000E+00 0.  1.
         23    2    1    2    0    0  0.15233810902E+02  0.82757212890E+02 -0.21727286097E+02  0.15224613435E+03  0.12500394068E+03 0.  0.
          5    1    3    3  502    0  0.40543257824E+02 -0.12522656742E+02 -0.31516850832E+02  0.53065757068E+02  0.47000000000E+01 0. -1.
         -5    1    3    3    0  502 -0.25309446923E+02  0.95279869632E+02  0.97895647345E+01  0.99180377285E+02  0.47000000000E+01 0. -1.
        -11    1    1    2    0    0  0.11499749606E+02 -0.55018151641E+02  0.87469569145E+02  0.10397195188E+03  0.00000000000E+00 0. -1.
         11    1    1    2    0    0 -0.26733560508E+02 -0.27739061248E+02 -0.13765588181E+02  0.40910025597E+02  0.00000000000E+00 0.  1.
<mgrwt>
<rscale>  0 0.14373236E+03</rscale>
<asrwt>0</asrwt>
<pdfrwt beam="1">  1        2 0.26854216E-01 0.15068779E+03</pdfrwt>
<pdfrwt beam="2">  1       -2 0.18857801E-01 0.15068779E+03</pdfrwt>
<totfact> 0.44471489E+03</totfact>
</mgrwt>
</event>
<event>
 7    1  0.5400401E-006  0.1379176E+03  0.7546771E-02  0.1227728E+00
         -2   -1    0    0    0  501 -0.00000000000E+00  0.00000000000E+00  0.14196818666E+02  0.14196818666E+02  0.00000000000E+00 0.  1.
          2   -1    0    0  501    0  0.00000000000E+00 -0.00000000000E+00 -0.10977290849E+04  0.10977290849E+04  0.00000000000E+00 0. -1.
         23    2    1    2    0    0 -0.84836494933E+01 -0.57654427737E+02 -0.69731149398E+03  0.71081965622E+03  0.12500103470E+03 0.  0.
          5    1    3    3  502    0 -0.62620566755E+02 -0.87396743004E+01 -0.37478442965E+03  0.38010942635E+03  0.47000000000E+01 0. -1.
         -5    1    3    3    0  502  0.54136917261E+02 -0.48914753437E+02 -0.32252706433E+03  0.33071022987E+03  0.47000000000E+01 0. -1.
        -11    1    1    2    0    0 -0.10620813037E+02  0.78934736652E+02 -0.28132335441E+03  0.29238044404E+03  0.00000000000E+00 0.  1.
         11    1    1    2    0    0  0.19104462531E+02 -0.21280308915E+02 -0.10489741787E+03  0.10872580334E+03  0.00000000000E+00 0. -1.
<mgrwt>
<rscale>  0 0.12981638E+03</rscale>
<asrwt>0</asrwt>
<pdfrwt beam="2">  1        2 0.16888144E+00 0.13791760E+03</pdfrwt>
<pdfrwt beam="1">  1       -2 0.21841254E-02 0.13791760E+03</pdfrwt>
<totfact> 0.14954313E+04</totfact>
</mgrwt>
</event>
<event>
 7    1  0.5400401E-006  0.1276542E+03  0.7546771E-02  0.1246516E+00
          3   -1    0    0  501    0  0.00000000000E+00  0.00000000000E+00  0.40364650413E+03  0.40364650413E+03  0.00000000000E+00 0. -1.
         -3   -1    0    0    0  501 -0.00000000000E+00 -0.00000000000E+00 -0.30359840057E+02  0.30359840057E+02  0.00000000000E+00 0.  1.
         23    2    1    2    0    0  0.24346039631E+02 -0.87369791319E+01  0.19868526647E+03  0.23615976503E+03  0.12500614008E+03 0.  0.
          5    1    3    3  502    0  0.53943792043E+02 -0.22920973915E+02  0.33485983037E+02  0.67666127458E+02  0.47000000000E+01 0. -1.
         -5    1    3    3    0  502 -0.29597752412E+02  0.14183994783E+02  0.16519928343E+03  0.16849363757E+03  0.47000000000E+01 0. -1.
        -11    1    1    2    0    0 -0.17284739810E+01  0.29272103651E+02  0.10843840652E+02  0.31263917773E+02  0.00000000000E+00 0.  1.
         11    1    1    2    0    0 -0.22617565650E+02 -0.20535124519E+02  0.16375755695E+03  0.16658266138E+03  0.00000000000E+00 0. -1.
<mgrwt>
<rscale>  0 0.11795088E+03</rscale>
<asrwt>0</asrwt>
<pdfrwt beam="1">  1        3 0.62099458E-01 0.12765422E+03</pdfrwt>
<pdfrwt beam="2">  1       -3 0.46707449E-02 0.12765422E+03</pdfrwt>
<totfact> 0.14826811E+03</totfact>
</mgrwt>
</event>
<event>
 6    1  0.5400401E-006  0.2059489E+03  0.7546771E-02  0.1159196E+00
         -2   -1    0    0    0  501 -0.00000000000E+00  0.00000000000E+00  0.57498250804E+02  0.57498250804E+02  0.00000000000E+00 0.  1.
          2   -1    0    0  501    0  0.00000000000E+00 -0.00000000000E+00 -0.54415027896E+03  0.54415027896E+03  0.00000000000E+00 0. -1.
          5    1    1    2  502    0 -0.36969080038E+02  0.66959569808E+02 -0.22997028221E+03  0.24240197517E+03  0.47000000000E+01 0. -1.
         -5    1    1    2    0  502  0.72011249733E+02  0.43093616344E+02 -0.29968351844E+02  0.89234925730E+02  0.47000000000E+01 0.  1.
        -11    1    1    2    0    0  0.26554304993E+02 -0.28924325166E+02 -0.99993146490E+02  0.10742614693E+03  0.00000000000E+00 0. -1.
         11    1    1    2    0    0 -0.61596474689E+02 -0.81128860985E+02 -0.12672024761E+03  0.16258548193E+03  0.00000000000E+00 0.  1.
<mgrwt>
<rscale>  0 0.18918768E+03</rscale>
<asrwt>0</asrwt>
<pdfrwt beam="2">  1        2 0.83715427E-01 0.20594888E+03</pdfrwt>
<pdfrwt beam="1">  1       -2 0.88458847E-02 0.20594888E+03</pdfrwt>
<totfact> 0.44928853E+03</totfact>
</mgrwt>
</event>
<event>
 7    1  0.5400401E-006  0.1470347E+03  0.7546771E-02  0.1212982E+00
         -2   -1    0    0    0  501 -0.00000000000E+00  0.00000000000E+00  0.26906439618E+03  0.26906439618E+03  0.00000000000E+00 0.  1.
          2   -1    0    0  501    0  0.00000000000E+00 -0.00000000000E+00 -0.75931033242E+02  0.75931033242E+02  0.00000000000E+00 0. -1.
         23    2    1    2    0    0  0.57777137783E+01 -0.77209510283E+02  0.16311645460E+03  0.21960457303E+03  0.12499800109E+03 0.  0.
          5    1    3    3  502    0  0.76420636127E+01  0.29941341278E+01 -0.18624676332E+02  0.20888622355E+02  0.47000000000E+01 0. -1.
         -5    1    3    3    0  502 -0.18643498344E+01 -0.80203644411E+02  0.18174113094E+03  0.19871595067E+03  0.47000000000E+01 0. -1.
        -11    1    1    2    0    0 -0.28791355135E+02 -0.23863822161E+01 -0.13402371092E+02  0.31847456750E+02  0.00000000000E+00 0. -1.
         11    1    1    2    0    0  0.23013641356E+02  0.79595892499E+02  0.43419279425E+02  0.93543399644E+02  0.00000000000E+00 0.  1.
<mgrwt>
<rscale>  0 0.14025799E+03</rscale>
<asrwt>0</asrwt>
<pdfrwt beam="2">  1        2 0.11681698E-01 0.14703466E+03</pdfrwt>
<pdfrwt beam="1">  1       -2 0.41394522E-01 0.14703466E+03</pdfrwt>
<totfact> 0.28446810E+03</totfact>
</mgrwt>
</event>
<event>
 7    1  0.5400401E-006  0.1389298E+03  0.7546771E-02  0.1226688E+00
         -1   -1    0    0    0  501 -0.00000000000E+00  0.00000000000E+00  0.16963800394E+02  0.16963800394E+02  0.00000000000E+00 0.  1.
          1   -1    0    0  501    0  0.00000000000E+00 -0.00000000000E+00 -0.91392518907E+03  0.91392518907E+03  0.00000000000E+00 0. -1.
         23    2    1    2    0    0  0.26994052998E+01  0.60329575366E+02 -0.56000731522E+03  0.57698327031E+03  0.12511817080E+03 0.  0.
          5    1    3    3  502    0  0.32223709927E+02  0.90461134783E+02 -0.36937244127E+03  0.38168006859E+03  0.47000000000E+01 0. -1.
         -5    1    3    3    0  502 -0.29524304627E+02 -0.30131559417E+02 -0.19063487395E+03  0.19530320172E+03  0.47000000000E+01 0. -1.
        -11    1    1    2    0    0  0.35642403617E+02  0.35696533795E+00 -0.92506047758E+02  0.99135650659E+02  0.00000000000E+00 0.  1.
         11    1    1    2    0    0 -0.38341808916E+02 -0.60686540704E+02 -0.24444802570E+03  0.25477006850E+03  0.00000000000E+00 0. -1.
<mgrwt>
<rscale>  0 0.13051844E+03</rscale>
<asrwt>0</asrwt>
<pdfrwt beam="2">  1        1 0.14060391E+00 0.13892984E+03</pdfrwt>
<pdfrwt beam="1">  1       -1 0.26098148E-02 0.13892984E+03</pdfrwt>
<totfact> 0.83468245E+03</totfact>
</mgrwt>
</event>
<event>
 7    1  0.5400401E-006  0.1279981E+03  0.7546771E-02  0.1248814E+00
          3   -1    0    0  501    0  0.00000000000E+00  0.00000000000E+00  0.95505314998E+02  0.95505314998E+02  0.00000000000E+00 0. -1.
         -3   -1    0    0    0  501 -0.00000000000E+00 -0.00000000000E+00 -0.12312069789E+03  0.12312069789E+03  0.00000000000E+00 0.  1.
         23    2    1    2    0    0 -0.20820164868E+02  0.18033330176E+02 -0.25173324294E+02  0.13045005972E+03  0.12499936625E+03 0.  0.
          5    1    3    3  502    0 -0.19672881376E+02 -0.12923687450E+02 -0.70993405517E+02  0.74941294263E+02  0.47000000000E+01 0. -1.
         -5    1    3    3    0  502 -0.11472834925E+01  0.30957017626E+02  0.45820081222E+02  0.55508765460E+02  0.47000000000E+01 0. -1.
        -11    1    1    2    0    0  0.48487987531E+02 -0.31013114608E+02 -0.25579815423E+01  0.57614594349E+02  0.00000000000E+00 0. -1.
         11    1    1    2    0    0 -0.27667822663E+02  0.12979784431E+02  0.11592294038E+00  0.30561358820E+02  0.00000000000E+00 0.  1.
<mgrwt>
<rscale>  0 0.11660002E+03</rscale>
<asrwt>0</asrwt>
<pdfrwt beam="1">  1        3 0.14693125E-01 0.12799813E+03</pdfrwt>
<pdfrwt beam="2">  1       -3 0.18941646E-01 0.12799813E+03</pdfrwt>
<totfact> 0.21546934E+03</totfact>
</mgrwt>
</event>
<event>
 7    1  0.5400401E-006  0.1743711E+03  0.7546771E-02  0.1179318E+00
          1   -1    0    0  501    0  0.00000000000E+00  0.00000000000E+00  0.50244638999E+03  0.50244638999E+03  0.00000000000E+00 0. -1.
         -1   -1    0    0    0  501 -0.00000000000E+00 -0.00000000000E+00 -0.86202228423E+02  0.86202228423E+02  0.00000000000E+00 0.  1.
         23    2    1    2    0    0 -0.20585613130E+02 -0.11982201402E+03  0.34695628261E+02  0.17778938996E+03  0.12499679216E+03 0.  0.
          5    1    3    3  502    0  0.47506624164E+02 -0.65419881655E+02  0.40040024891E+02  0.90343421723E+02  0.47000000000E+01 0.  1.
         -5    1    3    3    0  502 -0.68092237294E+02 -0.54402132361E+02 -0.53443966304E+01  0.87445968234E+02  0.47000000000E+01 0.  1.
        -11    1    1    2    0    0 -0.23401901695E+02  0.96139069846E+02  0.29212190580E+03  0.30842434664E+03  0.00000000000E+00 0. -1.
         11    1    1    2    0    0  0.43987514824E+02  0.23682944169E+02  0.89426627507E+02  0.10243488181E+03  0.00000000000E+00 0.  1.
<mgrwt>
<rscale>  0 0.16859812E+03</rscale>
<asrwt>0</asrwt>
<pdfrwt beam="1">  1        1 0.77299443E-01 0.17437110E+03</pdfrwt>
<pdfrwt beam="2">  1       -1 0.13261882E-01 0.17437110E+03</pdfrwt>
<totfact> 0.17388484E+03</totfact>
</mgrwt>
</event>
<event>
 7    1  0.5400401E-006  0.1997256E+03  0.7546771E-02  0.1153964E+00
          2   -1    0    0  501    0  0.00000000000E+00  0.00000000000E+00  0.11943573533E+04  0.11943573533E+04  0.00000000000E+00 0. -1.
         -2   -1    0    0    0  501 -0.00000000000E+00 -0.00000000000E+00 -0.31289988847E+02  0.31289988847E+02  0.00000000000E+00 0.  1.
         23    2    1    2    0    0 -0.86334279166E+02  0.12967105426E+03  0.50859925951E+03  0.54640965497E+03  0.12498845627E+03 0.  0.
          5    1    3    3  502    0 -0.62723450990E+02  0.84629000342E+02  0.47185521625E+03  0.48349326169E+03  0.47000000000E+01 0.  1.
         -5    1    3    3    0  502 -0.23610828177E+02  0.45042053914E+02  0.36744043264E+02  0.62916393280E+02  0.47000000000E+01 0.  1.
        -11    1    1    2    0    0  0.83987761905E+02 -0.74031267881E+02  0.54542537891E+03  0.55679746474E+03  0.00000000000E+00 0. -1.
         11    1    1    2    0    0  0.23465172610E+01 -0.55639786375E+02  0.10904272604E+03  0.12244022245E+03  0.00000000000E+00 0.  1.
<mgrwt>
<rscale>  0 0.19507319E+03</rscale>
<asrwt>0</asrwt>
<pdfrwt beam="1">  1        2 0.18374725E+00 0.19972557E+03</pdfrwt>
<pdfrwt beam="2">  1       -2 0.48138454E-02 0.19972557E+03</pdfrwt>
<totfact> 0.41474926E+03</totfact>
</mgrwt>
</event>
<event>
 7    1  0.5400401E-006  0.1275460E+03  0.7546771E-02  0.1246485E+00
          3   -1    0    0  501    0  0.00000000000E+00  0.00000000000E+00  0.42837842905E+02  0.42837842905E+02  0.00000000000E+00 0. -1.
         -3   -1    0    0    0  501 -0.00000000000E+00 -0.00000000000E+00 -0.29973204190E+03  0.29973204190E+03  0.00000000000E+00 0.  1.
         23    2    1    2    0    0  0.16073423777E+02 -0.19623752877E+02 -0.18520145155E+03  0.22487232668E+03  0.12499815608E+03 0.  0.
          5    1    3    3  502    0 -0.15320952585E+01 -0.50481228033E+02 -0.18195139190E+03  0.18888912281E+03  0.47000000000E+01 0. -1.
         -5    1    3    3    0  502  0.17605519036E+02  0.30857475156E+02 -0.32500596453E+01  0.35983203876E+02  0.47000000000E+01 0. -1.
        -11    1    1    2    0    0 -0.64290021347E+01 -0.28865700044E+02  0.12265255467E+01  0.29598396449E+02  0.00000000000E+00 0. -1.
         11    1    1    2    0    0 -0.96444216426E+01  0.48489452921E+02 -0.72919272994E+02  0.88099161672E+02  0.00000000000E+00 0.  1.
<mgrwt>
<rscale>  0 0.11796965E+03</rscale>
<asrwt>0</asrwt>
<pdfrwt beam="1">  1        3 0.65904372E-02 0.12754601E+03</pdfrwt>
<pdfrwt beam="2">  1       -3 0.46112623E-01 0.12754601E+03</pdfrwt>
<totfact> 0.15621851E+03</totfact>
</mgrwt>
</event>
<event>
 7    1  0.5400401E-006  0.1418151E+03  0.7546771E-02  0.1221593E+00
          2   -1    0    0  501    0  0.00000000000E+00  0.00000000000E+00  0.37388602030E+02  0.37388602030E+02  0.00000000000E+00 0. -1.
         -2   -1    0    0    0  501 -0.00000000000E+00 -0.00000000000E+00 -0.45842144034E+03  0.45842144034E+03  0.00000000000E+00 0.  1.
         23    2    1    2    0    0  0.33226467909E+02  0.58160015990E+02 -0.28903577659E+03  0.32195218922E+03  0.12499978546E+03 0.  0.
          5    1    3    3  502    0  0.14233864543E+02  0.46610013102E+02 -0.21534175701E+02  0.53487446605E+02  0.47000000000E+01 0. -1.
         -5    1    3    3    0  502  0.18992603367E+02  0.11550002887E+02 -0.26750160089E+03  0.26846474261E+03  0.47000000000E+01 0. -1.
        -11    1    1    2    0    0  0.45835785543E+01 -0.72538598147E+02 -0.83360217213E+02  0.11059739250E+03  0.00000000000E+00 0. -1.
         11    1    1    2    0    0 -0.37810046464E+02  0.14378582158E+02 -0.48636844509E+02  0.63260460655E+02  0.00000000000E+00 0.  1.
<mgrwt>
<rscale>  0 0.13403163E+03</rscale>
<asrwt>0</asrwt>
<pdfrwt beam="1">  1        2 0.57520925E-02 0.14181513E+03</pdfrwt>
<pdfrwt beam="2">  1       -2 0.70526377E-01 0.14181513E+03</pdfrwt>
<totfact> 0.23589824E+03</totfact>
</mgrwt>
</event>
<event>
 7    1  0.5400401E-006  0.1840827E+03  0.7546771E-02  0.1169203E+00
          1   -1    0    0  501    0  0.00000000000E+00  0.00000000000E+00  0.60635270978E+02  0.60635270978E+02  0.00000000000E+00 0. -1.
         -1   -1    0    0    0  501 -0.00000000000E+00 -0.00000000000E+00 -0.63921987339E+03  0.63921987339E+03  0.00000000000E+00 0.  1.
         23    2    1    2    0    0  0.10875753638E+03 -0.80214305101E+02 -0.46801311086E+03  0.50291421797E+03  0.12499560887E+03 0.  0.
          5    1    3    3  502    0  0.96709513083E+02  0.12540735307E+01 -0.19511294793E+03  0.21781977658E+03  0.47000000000E+01 0. -1.
         -5    1    3    3    0  502  0.12048023299E+02 -0.81468378632E+02 -0.27290016293E+03  0.28509444139E+03  0.47000000000E+01 0. -1.
        -11    1    1    2    0    0 -0.32913088137E+02  0.73465362463E+02 -0.83866016080E+02  0.11624947099E+03  0.00000000000E+00 0.  1.
         11    1    1    2    0    0 -0.75844448245E+02  0.67489426384E+01 -0.26705475479E+02  0.80691455414E+02  0.00000000000E+00 0. -1.
<mgrwt>
<rscale>  0 0.17856139E+03</rscale>
<asrwt>0</asrwt>
<pdfrwt beam="1">  1        1 0.93285032E-02 0.18408270E+03</pdfrwt>
<pdfrwt beam="2">  1       -1 0.98341520E-01 0.18408270E+03</pdfrwt>
<totfact> 0.73447093E+02</totfact>
</mgrwt>
</event>
<event>
 7    1  0.5400401E-006  0.2103090E+03  0.7546771E-02  0.1143701E+00
         -2   -1    0    0    0  501 -0.00000000000E+00  0.00000000000E+00  0.35805814815E+02  0.35805814815E+02  0.00000000000E+00 0.  1.
          2   -1    0    0  501    0  0.00000000000E+00 -0.00000000000E+00 -0.11738323623E+04  0.11738323623E+04  0.00000000000E+00 0. -1.
         23    2    1    2    0    0 -0.13689810198E+03 -0.99314398279E+02 -0.62911365051E+03  0.66333539271E+03  0.12500167174E+03 0.  0.
          5    1    3    3  502    0 -0.35332592410E+01  0.21340118973E+02 -0.26969698092E+02  0.34890388559E+02  0.47000000000E+01 0.  1.
         -5    1    3    3    0  502 -0.13336484274E+03 -0.12065451725E+03 -0.60214395242E+03  0.62844500416E+03  0.47000000000E+01 0.  1.
        -11    1    1    2    0    0  0.13254808096E+03  0.49476545962E+02 -0.30306073610E+03  0.33445886463E+03  0.00000000000E+00 0. -1.
         11    1    1    2    0    0  0.43500210189E+01  0.49837852318E+02 -0.20585216087E+03  0.21184391977E+03  0.00000000000E+00 0.  1.
<mgrwt>
<rscale>  0 0.20732671E+03</rscale>
<asrwt>0</asrwt>
<pdfrwt beam="2">  1        2 0.18058960E+00 0.21030896E+03</pdfrwt>
<pdfrwt beam="1">  1       -2 0.55085867E-02 0.21030896E+03</pdfrwt>
<totfact> 0.34745470E+03</totfact>
</mgrwt>
</event>
<event>
 7    1  0.5400401E-006  0.1298036E+03  0.7546771E-02  0.1241807E+00
         -1   -1    0    0    0  501 -0.00000000000E+00  0.00000000000E+00  0.29796474340E+03  0.29796474340E+03  0.00000000000E+00 0.  1.
          1   -1    0    0  501    0  0.00000000000E+00 -0.00000000000E+00 -0.64420694013E+02  0.64420694013E+02  0.00000000000E+00 0. -1.
         23    2    1    2    0    0 -0.34695873168E+01 -0.34829000288E+02  0.23107194565E+03  0.26503439089E+03  0.12499554787E+03 0.  0.
          5    1    3    3  502    0  0.38257854434E+02 -0.19750123314E+02  0.17270411646E+02  0.46627115665E+02  0.47000000000E+01 0.  1.
         -5    1    3    3    0  502 -0.41727441751E+02 -0.15078876974E+02  0.21380153401E+03  0.21840727522E+03  0.47000000000E+01 0.  1.
        -11    1    1    2    0    0 -0.52924400652E+01  0.41531331548E+02 -0.37302859776E+02  0.56074635705E+02  0.00000000000E+00 0. -1.
         11    1    1    2    0    0  0.87620273820E+01 -0.67023312600E+01  0.39774963514E+02  0.41276410826E+02  0.00000000000E+00 0.  1.
<mgrwt>
<rscale>  0 0.12078563E+03</rscale>
<asrwt>0</asrwt>
<pdfrwt beam="2">  1        1 0.99108762E-02 0.12980364E+03</pdfrwt>
<pdfrwt beam="1">  1       -1 0.45840729E-01 0.12980364E+03</pdfrwt>
<totfact> 0.30129301E+03</totfact>
</mgrwt>
</event>
<event>
 6    1  0.5400401E-006  0.2736128E+03  0.7546771E-02  0.1135698E+00
          2   -1    0    0  501    0  0.00000000000E+00  0.00000000000E+00  0.79533774372E+03  0.79533774372E+03  0.00000000000E+00 0. -1.
         -2   -1    0    0    0  501 -0.00000000000E+00 -0.00000000000E+00 -0.46292984597E+02  0.46292984597E+02  0.00000000000E+00 0.  1.
          5    1    1    2  502    0  0.71488888397E+01 -0.62133577971E+02  0.49242655591E+03  0.49640476538E+03  0.47000000000E+01 0. -1.
         -5    1    1    2    0  502  0.53447430999E+02  0.60830017622E+02  0.18532643321E+02  0.83201368936E+02  0.47000000000E+01 0.  1.
        -11    1    1    2    0    0 -0.23088793356E+02 -0.26931169856E+02  0.23946508781E+02  0.42799714616E+02  0.00000000000E+00 0.  1.
         11    1    1    2    0    0 -0.37507526483E+02  0.28234730205E+02  0.21413905111E+03  0.21922487939E+03  0.00000000000E+00 0. -1.
<mgrwt>
<rscale>  0 0.21758244E+03</rscale>
<asrwt>0</asrwt>
<pdfrwt beam="1">  1        2 0.12235964E+00 0.27361281E+03</pdfrwt>
<pdfrwt beam="2">  1       -2 0.71219982E-02 0.27361281E+03</pdfrwt>
<totfact> 0.40434196E+03</totfact>
</mgrwt>
</event>
<event>
 7    1  0.5400401E-006  0.1307748E+03  0.7546771E-02  0.1244442E+00
          1   -1    0    0  501    0  0.00000000000E+00  0.00000000000E+00  0.23863081007E+02  0.23863081007E+02  0.00000000000E+00 0. -1.
         -1   -1    0    0    0  501 -0.00000000000E+00 -0.00000000000E+00 -0.74699245677E+03  0.74699245677E+03  0.00000000000E+00 0.  1.
         23    2    1    2    0    0  0.31711322841E+01  0.38259975215E+02 -0.62080269389E+03  0.63442731760E+03  0.12501261853E+03 0.  0.
          5    1    3    3  502    0 -0.15882121621E+02 -0.18616896655E+02 -0.23990565245E+02  0.34589996372E+02  0.47000000000E+01 0.  1.
         -5    1    3    3    0  502  0.19053253905E+02  0.56876871870E+02 -0.59681212865E+03  0.59983732123E+03  0.47000000000E+01 0.  1.
        -11    1    1    2    0    0 -0.42154186343E+02 -0.21575814916E+02 -0.46981965457E+02  0.66706793461E+02  0.00000000000E+00 0.  1.
         11    1    1    2    0    0  0.38983054059E+02 -0.16684160298E+02 -0.55344716416E+02  0.69721426720E+02  0.00000000000E+00 0. -1.
<mgrwt>
<rscale>  0 0.11918833E+03</rscale>
<asrwt>0</asrwt>
<pdfrwt beam="1">  1        1 0.36712436E-02 0.13077476E+03</pdfrwt>
<pdfrwt beam="2">  1       -1 0.11492190E+00 0.13077476E+03</pdfrwt>
<totfact> 0.18234970E+03</totfact>
</mgrwt>
</event>
<event>
 7    1  0.5400401E-006  0.1427800E+03  0.7546771E-02  0.1219373E+00
         -2   -1    0    0    0  501 -0.00000000000E+00  0.00000000000E+00  0.40234786120E+02  0.40234786120E+02  0.00000000000E+00 0.  1.
          2   -1    0    0  501    0  0.00000000000E+00 -0.00000000000E+00 -0.42237554591E+03  0.42237554591E+03  0.00000000000E+00 0. -1.
         23    2    1    2    0    0 -0.10491166055E+02 -0.68222065053E+02 -0.18357335292E+03  0.23256250390E+03  0.12498730973E+03 0.  0.
          5    1    3    3  502    0  0.39803669663E+02 -0.81210191336E+02 -0.11319633699E+03  0.14496526482E+03  0.47000000000E+01 0. -1.
         -5    1    3    3    0  502 -0.50294835718E+02  0.12988126282E+02 -0.70377015926E+02  0.87597239083E+02  0.47000000000E+01 0. -1.
        -11    1    1    2    0    0  0.31415061967E+02 -0.10446930227E+02 -0.76151257372E+02  0.83036488780E+02  0.00000000000E+00 0.  1.
         11    1    1    2    0    0 -0.20923895912E+02  0.78668995280E+02 -0.12241614950E+03  0.14701133935E+03  0.00000000000E+00 0. -1.
<mgrwt>
<rscale>  0 0.13560140E+03</rscale>
<asrwt>0</asrwt>
<pdfrwt beam="2">  1        2 0.64980853E-01 0.14278005E+03</pdfrwt>
<pdfrwt beam="1">  1       -2 0.61899671E-02 0.14278005E+03</pdfrwt>
<totfact> 0.10107603E+04</totfact>
</mgrwt>
</event>
<event>
 7    1  0.5400401E-006  0.1316672E+03  0.7546771E-02  0.1238406E+00
         -2   -1    0    0    0  501 -0.00000000000E+00  0.00000000000E+00  0.26175136069E+02  0.26175136069E+02  0.00000000000E+00 0.  1.
          2   -1    0    0  501    0  0.00000000000E+00 -0.00000000000E+00 -0.54888341561E+03  0.54888341561E+03  0.00000000000E+00 0. -1.
         23    2    1    2    0    0  0.25095009322E+02 -0.32904721349E+02 -0.22113406465E+03  0.25736459613E+03  0.12499512236E+03 0.  0.
          5    1    3    3  502    0 -0.31466560221E+02 -0.28018816609E+02 -0.17417368945E+02  0.45832883798E+02  0.47000000000E+01 0. -1.
         -5    1    3    3    0  502  0.56561569543E+02 -0.48859047407E+01 -0.20371669571E+03  0.21153171234E+03  0.47000000000E+01 0. -1.
        -11    1    1    2    0    0 -0.48752110315E+02  0.49937126374E+02 -0.19132192683E+03  0.20365304942E+03  0.00000000000E+00 0.  1.
         11    1    1    2    0    0  0.23657100994E+02 -0.17032405025E+02 -0.11025228806E+03  0.11404090613E+03  0.00000000000E+00 0. -1.
<mgrwt>
<rscale>  0 0.12288897E+03</rscale>
<asrwt>0</asrwt>
<pdfrwt beam="2">  1        2 0.84443596E-01 0.13166724E+03</pdfrwt>
<pdfrwt beam="1">  1       -2 0.40269443E-02 0.13166724E+03</pdfrwt>
<totfact> 0.14393309E+04</totfact>
</mgrwt>
</event>
<event>
 7    1  0.5400401E-006  0.1370708E+03  0.7546771E-02  0.1232196E+00
          1   -1    0    0  501    0  0.00000000000E+00  0.00000000000E+00  0.99640449420E+02  0.99640449420E+02  0.00000000000E+00 0. -1.
         -1   -1    0    0    0  501 -0.00000000000E+00 -0.00000000000E+00 -0.14940208910E+03  0.14940208910E+03  0.00000000000E+00 0.  1.
         23    2    1    2    0    0 -0.44563889007E+02  0.34107393909E+02 -0.56498516257E+02  0.14825819411E+03  0.12505660822E+03 0.  0.
          5    1    3    3  502    0  0.25668233992E+02 -0.45588194654E+01  0.23127298840E+02  0.35165366809E+02  0.47000000000E+01 0.  1.
         -5    1    3    3    0  502 -0.70232122999E+02  0.38666213374E+02 -0.79625815097E+02  0.11309282730E+03  0.47000000000E+01 0.  1.
        -11    1    1    2    0    0  0.19676104752E+02 -0.56288370533E+02 -0.14358866882E+02  0.61332754818E+02  0.00000000000E+00 0.  1.
         11    1    1    2    0    0  0.24887784255E+02  0.22180976624E+02  0.21095743457E+02  0.39451589590E+02  0.00000000000E+00 0. -1.
<mgrwt>
<rscale>  0 0.12685685E+03</rscale>
<asrwt>0</asrwt>
<pdfrwt beam="1">  1        1 0.15329300E-01 0.13707082E+03</pdfrwt>
<pdfrwt beam="2">  1       -1 0.22984937E-01 0.13707082E+03</pdfrwt>
<totfact> 0.55278387E+03</totfact>
</mgrwt>
</event>
<event>
 7    1  0.5400401E-006  0.1264139E+03  0.7546771E-02  0.1247854E+00
         -2   -1    0    0    0  501 -0.00000000000E+00  0.00000000000E+00  0.39110170602E+03  0.39110170602E+03  0.00000000000E+00 0.  1.
          2   -1    0    0  501    0  0.00000000000E+00 -0.00000000000E+00 -0.36537120651E+02  0.36537120651E+02  0.00000000000E+00 0. -1.
         23    2    1    2    0    0  0.18702562444E+02 -0.19389571014E+01  0.28340429792E+03  0.31031996818E+03  0.12500776444E+03 0.  0.
          5    1    3    3  502    0 -0.28632324240E+02  0.44017797274E+02  0.18008291529E+03  0.18764147422E+03  0.47000000000E+01 0. -1.
         -5    1    3    3    0  502  0.47334886684E+02 -0.45956754375E+02  0.10332138263E+03  0.12267849396E+03  0.47000000000E+01 0. -1.
        -11    1    1    2    0    0  0.75305505582E+01 -0.26019618981E+02  0.74072260837E+02  0.78869700070E+02  0.00000000000E+00 0.  1.
         11    1    1    2    0    0 -0.26233113002E+02  0.27958576082E+02 -0.29119733943E+01  0.38449158422E+02  0.00000000000E+00 0. -1.
<mgrwt>
<rscale>  0 0.11716171E+03</rscale>
<asrwt>0</asrwt>
<pdfrwt beam="2">  1        2 0.56210957E-02 0.12641395E+03</pdfrwt>
<pdfrwt beam="1">  1       -2 0.60169490E-01 0.12641395E+03</pdfrwt>
<totfact> 0.33614261E+03</totfact>
</mgrwt>
</event>
<event>
 7    1  0.5400401E-006  0.1392671E+03  0.7546771E-02  0.1225971E+00
          3   -1    0    0  501    0  0.00000000000E+00  0.00000000000E+00  0.28360276105E+02  0.28360276105E+02  0.00000000000E+00 0. -1.
         -3   -1    0    0    0  501 -0.00000000000E+00 -0.00000000000E+00 -0.56946914507E+03  0.56946914507E+03  0.00000000000E+00 0.  1.
         23    2    1    2    0    0 -0.27367960886E+02  0.54978619069E+02 -0.36530583914E+03  0.39095228637E+03  0.12499472098E+03 0.  0.
          5    1    3    3  502    0  0.72460762900E+01 -0.35781970958E+02 -0.58642038458E+02  0.69237516866E+02  0.47000000000E+01 0.  1.
         -5    1    3    3    0  502 -0.34614037176E+02  0.90760590026E+02 -0.30666380068E+03  0.32171476951E+03  0.47000000000E+01 0.  1.
        -11    1    1    2    0    0  0.57118788572E+02 -0.15452513867E+02 -0.10455624925E+03  0.12013885903E+03  0.00000000000E+00 0.  1.
         11    1    1    2    0    0 -0.29750827686E+02 -0.39526105202E+02 -0.71246780572E+02  0.86738275763E+02  0.00000000000E+00 0. -1.
<mgrwt>
<rscale>  0 0.13100588E+03</rscale>
<asrwt>0</asrwt>
<pdfrwt beam="1">  1        3 0.43631197E-02 0.13926713E+03</pdfrwt>
<pdfrwt beam="2">  1       -3 0.87610632E-01 0.13926713E+03</pdfrwt>
<totfact> 0.80135028E+02</totfact>
</mgrwt>
</event>
<event>
 6    1  0.5400401E-006  0.1590164E+03  0.7546771E-02  0.1212017E+00
         -2   -1    0    0    0  501 -0.00000000000E+00  0.00000000000E+00  0.13727910978E+03  0.13727910978E+03  0.00000000000E+00 0.  1.
          2   -1    0    0  501    0  0.00000000000E+00 -0.00000000000E+00 -0.13754914219E+03  0.13754914219E+03  0.00000000000E+00 0. -1.
          5    1    1    2  502    0  0.74046740885E+01 -0.64752049081E+02 -0.33940587462E+02  0.73632265589E+02  0.47000000000E+01 0. -1.
         -5    1    1    2    0  502 -0.37402034259E+02  0.22963110765E+02  0.80925175404E+02  0.92180207403E+02  0.47000000000E+01 0.  1.
        -11    1    1    2    0    0  0.45593214287E+02  0.50815640648E+02 -0.11853972425E+02  0.69292764311E+02  0.00000000000E+00 0. -1.
         11    1    1    2    0    0 -0.15595854117E+02 -0.90267023321E+01 -0.35400647930E+02  0.39723014670E+02  0.00000000000E+00 0.  1.
<mgrwt>
<rscale>  0 0.14097935E+03</rscale>
<asrwt>0</asrwt>
<pdfrwt beam="2">  1        2 0.21161406E-01 0.15901643E+03</pdfrwt>
<pdfrwt beam="1">  1       -2 0.21119863E-01 0.15901643E+03</pdfrwt>
<totfact> 0.47990145E+03</totfact>
</mgrwt>
</event>
<event>
 7    1  0.5400401E-006  0.1593288E+03  0.7546771E-02  0.1197608E+00
          2   -1    0    0  501    0  0.00000000000E+00  0.00000000000E+00  0.61726908973E+03  0.61726908973E+03  0.00000000000E+00 0. -1.
         -2   -1    0    0    0  501 -0.00000000000E+00 -0.00000000000E+00 -0.34926716733E+02  0.34926716733E+02  0.00000000000E+00 0.  1.
         23    2    1    2    0    0 -0.45536189391E+02 -0.87671378905E+02  0.34528264073E+03  0.38027065934E+03  0.12500342852E+03 0.  0.
          5    1    3    3  502    0 -0.23374134551E+02  0.15721393606E+02  0.19128713566E+03  0.19340726629E+03  0.47000000000E+01 0. -1.
         -5    1    3    3    0  502 -0.22162054840E+02 -0.10339277251E+03  0.15399550507E+03  0.18686339305E+03  0.47000000000E+01 0. -1.
        -11    1    1    2    0    0  0.25758526745E+02  0.30215021345E+02  0.16240125167E+02  0.42897446083E+02  0.00000000000E+00 0.  1.
         11    1    1    2    0    0  0.19777662646E+02  0.57456357560E+02  0.22081960710E+03  0.22902770104E+03  0.00000000000E+00 0. -1.
<mgrwt>
<rscale>  0 0.15235553E+03</rscale>
<asrwt>0</asrwt>
<pdfrwt beam="1">  1        2 0.94964468E-01 0.15932882E+03</pdfrwt>
<pdfrwt beam="2">  1       -2 0.53733415E-02 0.15932882E+03</pdfrwt>
<totfact> 0.82829514E+03</totfact>
</mgrwt>
</event>
<event>
 7    1  0.5400401E-006  0.1755751E+03  0.7546771E-02  0.1178078E+00
          1   -1    0    0  501    0  0.00000000000E+00  0.00000000000E+00  0.30423984576E+03  0.30423984576E+03  0.00000000000E+00 0. -1.
         -1   -1    0    0    0  501 -0.00000000000E+00 -0.00000000000E+00 -0.13025393835E+03  0.13025393835E+03  0.00000000000E+00 0.  1.
         23    2    1    2    0    0  0.78871842559E+02 -0.94841793355E+02 -0.31107480768E+02  0.17830951279E+03  0.12494348193E+03 0.  0.
          5    1    3    3  502    0  0.64072861584E+02 -0.18745128350E+02 -0.65252572804E+02  0.93470314464E+02  0.47000000000E+01 0. -1.
         -5    1    3    3    0  502  0.14798980975E+02 -0.76096665005E+02  0.34145092036E+02  0.84839198328E+02  0.47000000000E+01 0. -1.
        -11    1    1    2    0    0 -0.34994523324E+02  0.26543547159E+02  0.15428926505E+03  0.16041930640E+03  0.00000000000E+00 0. -1.
         11    1    1    2    0    0 -0.43877319235E+02  0.68298246195E+02  0.50804123134E+02  0.95764964909E+02  0.00000000000E+00 0.  1.
<mgrwt>
<rscale>  0 0.16977955E+03</rscale>
<asrwt>0</asrwt>
<pdfrwt beam="1">  1        1 0.46806130E-01 0.17557508E+03</pdfrwt>
<pdfrwt beam="2">  1       -1 0.20039068E-01 0.17557508E+03</pdfrwt>
<totfact> 0.17104418E+03</totfact>
</mgrwt>
</event>
<event>
 7    1  0.5400401E-006  0.1753256E+03  0.7546771E-02  0.1178621E+00
         -1   -1    0    0    0  501 -0.00000000000E+00  0.00000000000E+00  0.12970598354E+04  0.12970598354E+04  0.00000000000E+00 0.  1.
          1   -1    0    0  501    0  0.00000000000E+00 -0.00000000000E+00 -0.23445840800E+02  0.23445840800E+02  0.00000000000E+00 0. -1.
         23    2    1    2    0    0  0.86098191758E+02 -0.87756419990E+02  0.90223264558E+03  0.91910979829E+03  0.12499994673E+03 0.  0.
          5    1    3    3  502    0 -0.45989776510E+01 -0.75308584659E+02  0.54883950543E+03  0.55402114241E+03  0.47000000000E+01 0. -1.
         -5    1    3    3    0  502  0.90697169409E+02 -0.12447835331E+02  0.35339314015E+03  0.36508865588E+03  0.47000000000E+01 0. -1.
        -11    1    1    2    0    0 -0.76042238235E+02  0.13972811533E+02  0.17264128502E+03  0.18916309035E+03  0.00000000000E+00 0.  1.
         11    1    1    2    0    0 -0.10055953523E+02  0.73783608457E+02  0.19874006401E+03  0.21223278757E+03  0.00000000000E+00 0. -1.
<mgrwt>
<rscale>  0 0.16926115E+03</rscale>
<asrwt>0</asrwt>
<pdfrwt beam="2">  1        1 0.36070534E-02 0.17532562E+03</pdfrwt>
<pdfrwt beam="1">  1       -1 0.19954761E+00 0.17532562E+03</pdfrwt>
<totfact> 0.44123391E+02</totfact>
</mgrwt>
</event>
<event>
 7    1  0.5400401E-006  0.2386018E+03  0.7546771E-02  0.1123252E+00
         -3   -1    0    0    0  501 -0.00000000000E+00  0.00000000000E+00  0.10493055420E+03  0.10493055420E+03  0.00000000000E+00 0.  1.
          3   -1    0    0  501    0  0.00000000000E+00 -0.00000000000E+00 -0.52463042304E+03  0.52463042304E+03  0.00000000000E+00 0. -1.
         23    2    1    2    0    0  0.95879116190E+02  0.17919632756E+03 -0.16369503805E+03  0.28935601878E+03  0.12500684535E+03 0.  0.
          5    1    3    3  502    0  0.26684295662E+02  0.16380631531E+03 -0.99225175060E+02  0.19342255798E+03  0.47000000000E+01 0.  1.
         -5    1    3    3    0  502  0.69194820528E+02  0.15390012250E+02 -0.64469862995E+02  0.95933460792E+02  0.47000000000E+01 0.  1.
        -11    1    1    2    0    0 -0.10116438090E+03 -0.98424753742E+02 -0.14042791960E+03  0.19910214644E+03  0.00000000000E+00 0.  1.
         11    1    1    2    0    0  0.52852647105E+01 -0.80771573822E+02 -0.11557691119E+03  0.14110281202E+03  0.00000000000E+00 0. -1.
<mgrwt>
<rscale>  0 0.23487908E+03</rscale>
<asrwt>0</asrwt>
<pdfrwt beam="2">  1        3 0.80712374E-01 0.23860184E+03</pdfrwt>
<pdfrwt beam="1">  1       -3 0.16143162E-01 0.23860184E+03</pdfrwt>
<totfact> 0.11874203E+02</totfact>
</mgrwt>
</event>
<event>
 7    1  0.5400401E-006  0.1460224E+03  0.7546771E-02  0.1215209E+00
          2   -1    0    0  501    0  0.00000000000E+00  0.00000000000E+00  0.60435783082E+02  0.60435783082E+02  0.00000000000E+00 0. -1.
         -2   -1    0    0    0  501 -0.00000000000E+00 -0.00000000000E+00 -0.29015131046E+03  0.29015131046E+03  0.00000000000E+00 0.  1.
         23    2    1    2    0    0  0.42839540395E+01 -0.75351567811E+02 -0.11905154217E+03  0.18840329053E+03  0.12500527651E+03 0.  0.
          5    1    3    3  502    0  0.24449082571E+02  0.25801559672E+02 -0.79379452824E+01  0.36723004989E+02  0.47000000000E+01 0. -1.
         -5    1    3    3    0  502 -0.20165128532E+02 -0.10115312748E+03 -0.11111359689E+03  0.15168028554E+03  0.47000000000E+01 0. -1.
        -11    1    1    2    0    0  0.95440870826E+01  0.13959517888E+02 -0.96118333801E+02  0.97594527667E+02  0.00000000000E+00 0.  1.
         11    1    1    2    0    0 -0.13828041122E+02  0.61392049923E+02 -0.14545651410E+02  0.64589275348E+02  0.00000000000E+00 0. -1.
<mgrwt>
<rscale>  0 0.13861217E+03</rscale>
<asrwt>0</asrwt>
<pdfrwt beam="1">  1        2 0.92978130E-02 0.14602236E+03</pdfrwt>
<pdfrwt beam="2">  1       -2 0.44638662E-01 0.14602236E+03</pdfrwt>
<totfact> 0.32524367E+03</totfact>
</mgrwt>
</event>
<event>
 7    1  0.5400401E-006  0.1469254E+03  0.7546771E-02  0.1213720E+00
         -4   -1    0    0    0  501 -0.00000000000E+00  0.00000000000E+00  0.10326509085E+03  0.10326509085E+03  0.00000000000E+00 0.  1.
          4   -1    0    0  501    0  0.00000000000E+00 -0.00000000000E+00 -0.21674444693E+03  0.21674444693E+03  0.00000000000E+00 0. -1.
         23    2    1    2    0    0  0.61627789315E+02  0.46526471338E+02  0.10606076499E+02  0.14730769223E+03  0.12499748150E+03 0.  0.
          5    1    3    3  502    0  0.11291785770E+02  0.50676187080E+02 -0.47254212739E+02  0.70360720466E+02  0.47000000000E+01 0.  1.
         -5    1    3    3    0  502  0.50336003545E+02 -0.41497157424E+01  0.57860289238E+02  0.76946971769E+02  0.47000000000E+01 0.  1.
        -11    1    1    2    0    0 -0.38523449459E+02 -0.18524763121E+01  0.26119835049E+00  0.38568848197E+02  0.00000000000E+00 0.  1.
         11    1    1    2    0    0 -0.23104339857E+02 -0.44673995025E+02 -0.12434663093E+03  0.13413299734E+03  0.00000000000E+00 0. -1.
<mgrwt>
<rscale>  0 0.13970957E+03</rscale>
<asrwt>0</asrwt>
<pdfrwt beam="2">  1        4 0.33345299E-01 0.14692538E+03</pdfrwt>
<pdfrwt beam="1">  1       -4 0.15886937E-01 0.14692538E+03</pdfrwt>
<totfact> 0.49808550E+02</totfact>
</mgrwt>
</event>
<event>
 7    1  0.5400401E-006  0.1526201E+03  0.7546771E-02  0.1205767E+00
          1   -1    0    0  501    0  0.00000000000E+00  0.00000000000E+00  0.48798143470E+03  0.48798143470E+03  0.00000000000E+00 0. -1.
         -1   -1    0    0    0  501 -0.00000000000E+00 -0.00000000000E+00 -0.67253349463E+02  0.67253349463E+02  0.00000000000E+00 0.  1.
         23    2    1    2    0    0  0.13003148027E+02  0.86596544741E+02  0.45751318464E+02  0.15933011176E+03  0.12499943180E+03 0.  0.
          5    1    3    3  502    0 -0.36255990024E+02  0.59167611436E+02  0.69176542937E+02  0.98095805968E+02  0.47000000000E+01 0.  1.
         -5    1    3    3    0  502  0.49259138052E+02  0.27428933305E+02 -0.23425224473E+02  0.61234305789E+02  0.47000000000E+01 0.  1.
        -11    1    1    2    0    0  0.77547337961E+01 -0.11020402823E+02  0.68231473935E+00  0.13492617538E+02  0.00000000000E+00 0.  1.
         11    1    1    2    0    0 -0.20757881824E+02 -0.75576141918E+02  0.37429445203E+03  0.38241205486E+03  0.00000000000E+00 0. -1.
<mgrwt>
<rscale>  0 0.14577163E+03</rscale>
<asrwt>0</asrwt>
<pdfrwt beam="1">  1        1 0.75074065E-01 0.15262012E+03</pdfrwt>
<pdfrwt beam="2">  1       -1 0.10346669E-01 0.15262012E+03</pdfrwt>
<totfact> 0.26434944E+03</totfact>
</mgrwt>
</event>
<event>
 7    1  0.5400401E-006  0.1598633E+03  0.7546771E-02  0.1196418E+00
          3   -1    0    0  501    0  0.00000000000E+00  0.00000000000E+00  0.29069281166E+03  0.29069281166E+03  0.00000000000E+00 0. -1.
         -3   -1    0    0    0  501 -0.00000000000E+00 -0.00000000000E+00 -0.95012913253E+02  0.95012913253E+02  0.00000000000E+00 0.  1.
         23    2    1    2    0    0 -0.14374996641E+02 -0.98619742041E+02  0.15874572387E+02  0.16064955949E+03  0.12499513937E+03 0.  0.
          5    1    3    3  502    0 -0.41838344429E+02  0.12526295522E+02  0.13811974917E+02  0.46045801059E+02  0.47000000000E+01 0.  1.
         -5    1    3    3    0  502  0.27463347788E+02 -0.11114603756E+03  0.20625974701E+01  0.11460375843E+03  0.47000000000E+01 0.  1.
        -11    1    1    2    0    0  0.11073785070E+02  0.74250983464E+02  0.43945636618E+02  0.86988828242E+02  0.00000000000E+00 0.  1.
         11    1    1    2    0    0  0.33012115710E+01  0.24368758577E+02  0.13585968941E+03  0.13806733719E+03  0.00000000000E+00 0. -1.
<mgrwt>
<rscale>  0 0.15334805E+03</rscale>
<asrwt>0</asrwt>
<pdfrwt beam="1">  1        3 0.44721971E-01 0.15986331E+03</pdfrwt>
<pdfrwt beam="2">  1       -3 0.14617371E-01 0.15986331E+03</pdfrwt>
<totfact> 0.45998502E+02</totfact>
</mgrwt>
</event>
<event>
 7    1  0.5400401E-006  0.1964415E+03  0.7546771E-02  0.1157559E+00
          1   -1    0    0  501    0  0.00000000000E+00  0.00000000000E+00  0.86655123709E+02  0.86655123709E+02  0.00000000000E+00 0. -1.
         -1   -1    0    0    0  501 -0.00000000000E+00 -0.00000000000E+00 -0.40580030303E+03  0.40580030303E+03  0.00000000000E+00 0.  1.
         23    2    1    2    0    0 -0.16258643203E+02 -0.15066604856E+03 -0.13721610956E+03  0.23961955469E+03  0.12499867439E+03 0.  0.
          5    1    3    3  502    0  0.48285714793E+02 -0.79596251705E+02 -0.99560536451E+02  0.13638718399E+03  0.47000000000E+01 0.  1.
         -5    1    3    3    0  502 -0.64544357996E+02 -0.71069796859E+02 -0.37655573113E+02  0.10323237070E+03  0.47000000000E+01 0.  1.
        -11    1    1    2    0    0 -0.29879936168E+02  0.67693506695E+02 -0.46319040804E+02  0.87296477450E+02  0.00000000000E+00 0. -1.
         11    1    1    2    0    0  0.46138579371E+02  0.82972541868E+02 -0.13561002895E+03  0.16553939460E+03  0.00000000000E+00 0.  1.
<mgrwt>
<rscale>  0 0.19100413E+03</rscale>
<asrwt>0</asrwt>
<pdfrwt beam="1">  1        1 0.13331558E-01 0.19644152E+03</pdfrwt>
<pdfrwt beam="2">  1       -1 0.62430815E-01 0.19644152E+03</pdfrwt>
<totfact> 0.11642232E+03</totfact>
</mgrwt>
</event>
<event>
 7    1  0.5400401E-006  0.1331137E+03  0.7546771E-02  0.1235600E+00
         -3   -1    0    0    0  501 -0.00000000000E+00  0.00000000000E+00  0.62943376487E+02  0.62943376487E+02  0.00000000000E+00 0.  1.
          3   -1    0    0  501    0  0.00000000000E+00 -0.00000000000E+00 -0.22072976771E+03  0.22072976771E+03  0.00000000000E+00 0. -1.
         23    2    1    2    0    0  0.41256394048E+02  0.19782406982E+02 -0.95480257231E+02  0.16381620318E+03  0.12500334087E+03 0.  0.
          5    1    3    3  502    0 -0.44056352360E+02 -0.31820885047E+01 -0.36396936185E+02  0.57427474559E+02  0.47000000000E+01 0. -1.
         -5    1    3    3    0  502  0.85312746409E+02  0.22964495487E+02 -0.59083321046E+02  0.10638872863E+03  0.47000000000E+01 0. -1.
        -11    1    1    2    0    0  0.19345214885E+02 -0.14520124429E+02 -0.53080194567E+02  0.58331624422E+02  0.00000000000E+00 0. -1.
         11    1    1    2    0    0 -0.60601608933E+02 -0.52622825538E+01 -0.92259394218E+01  0.61525316588E+02  0.00000000000E+00 0.  1.
<mgrwt>
<rscale>  0 0.12466115E+03</rscale>
<asrwt>0</asrwt>
<pdfrwt beam="2">  1        3 0.33958425E-01 0.13311374E+03</pdfrwt>
<pdfrwt beam="1">  1       -3 0.96835965E-02 0.13311374E+03</pdfrwt>
<totfact> 0.15164173E+03</totfact>
</mgrwt>
</event>
<event>
 7    1  0.5400401E-006  0.1625333E+03  0.7546771E-02  0.1192378E+00
          1   -1    0    0  501    0  0.00000000000E+00  0.00000000000E+00  0.56428532948E+03  0.56428532948E+03  0.00000000000E+00 0. -1.
         -1   -1    0    0    0  501 -0.00000000000E+00 -0.00000000000E+00 -0.40759306707E+02  0.40759306707E+02  0.00000000000E+00 0.  1.
         23    2    1    2    0    0 -0.10104587589E+03  0.24122149535E+02  0.27466485132E+03  0.31915178859E+03  0.12499974592E+03 0.  0.
          5    1    3    3  502    0 -0.10093684994E+03  0.62109265677E+02  0.16659662993E+03  0.20450509936E+03  0.47000000000E+01 0. -1.
         -5    1    3    3    0  502 -0.10902595708E+00 -0.37987116142E+02  0.10806822139E+03  0.11464668924E+03  0.47000000000E+01 0. -1.
        -11    1    1    2    0    0  0.45044719544E+02 -0.32510736704E+01  0.20062594981E+02  0.49417648226E+02  0.00000000000E+00 0.  1.
         11    1    1    2    0    0  0.56001156349E+02 -0.20871075864E+02  0.22879857647E+03  0.23647519937E+03  0.00000000000E+00 0. -1.
<mgrwt>
<rscale>  0 0.15678256E+03</rscale>
<asrwt>0</asrwt>
<pdfrwt beam="1">  1        1 0.86813122E-01 0.16253333E+03</pdfrwt>
<pdfrwt beam="2">  1       -1 0.62706630E-02 0.16253333E+03</pdfrwt>
<totfact> 0.46692160E+03</totfact>
</mgrwt>
</event>
<event>
 7    1  0.5400401E-006  0.1590186E+03  0.7546771E-02  0.1197419E+00
         -3   -1    0    0    0  501 -0.00000000000E+00  0.00000000000E+00  0.32598832090E+02  0.32598832090E+02  0.00000000000E+00 0.  1.
          3   -1    0    0  501    0  0.00000000000E+00 -0.00000000000E+00 -0.66111544228E+03  0.66111544228E+03  0.00000000000E+00 0. -1.
         23    2    1    2    0    0  0.89996109254E+00  0.98297508592E+02 -0.33463423053E+03  0.37049557370E+03  0.12499476695E+03 0.  0.
          5    1    3    3  502    0  0.83749958700E+01  0.12779216043E+03 -0.27430074289E+03  0.30276057268E+03  0.47000000000E+01 0. -1.
         -5    1    3    3    0  502 -0.74750347775E+01 -0.29494651839E+02 -0.60333487645E+02  0.67735001022E+02  0.47000000000E+01 0. -1.
        -11    1    1    2    0    0 -0.28680905157E+02 -0.48039797880E+02 -0.23260458588E+03  0.23923902247E+03  0.00000000000E+00 0. -1.
         11    1    1    2    0    0  0.27780944065E+02 -0.50257710711E+02 -0.61277793781E+02  0.83979678195E+02  0.00000000000E+00 0.  1.
<mgrwt>
<rscale>  0 0.15251273E+03</rscale>
<asrwt>0</asrwt>
<pdfrwt beam="2">  1        3 0.10171007E+00 0.15901856E+03</pdfrwt>
<pdfrwt beam="1">  1       -3 0.50152049E-02 0.15901856E+03</pdfrwt>
<totfact> 0.46966327E+02</totfact>
</mgrwt>
</event>
<event>
 7    1  0.5400401E-006  0.1590914E+03  0.7546771E-02  0.1197468E+00
          2   -1    0    0  501    0  0.00000000000E+00  0.00000000000E+00  0.21315042003E+03  0.21315042003E+03  0.00000000000E+00 0. -1.
         -2   -1    0    0    0  501 -0.00000000000E+00 -0.00000000000E+00 -0.10092557654E+03  0.10092557654E+03  0.00000000000E+00 0.  1.
         23    2    1    2    0    0 -0.22772116031E+02  0.95742179578E+02  0.58694482897E+02  0.16957334166E+03  0.12499976664E+03 0.  0.
          5    1    3    3  502    0  0.26166253899E+02 -0.20031496582E+02  0.11078291013E+02  0.35082078476E+02  0.47000000000E+01 0. -1.
         -5    1    3    3    0  502 -0.48938369931E+02  0.11577367616E+03  0.47616191884E+02  0.13449126318E+03  0.47000000000E+01 0. -1.
        -11    1    1    2    0    0  0.32741236163E+02 -0.22106357136E+02  0.57869772915E+02  0.70068467862E+02  0.00000000000E+00 0. -1.
         11    1    1    2    0    0 -0.99691201318E+01 -0.73635822442E+02 -0.43394123253E+01  0.74434187053E+02  0.00000000000E+00 0.  1.
<mgrwt>
<rscale>  0 0.15247228E+03</rscale>
<asrwt>0</asrwt>
<pdfrwt beam="1">  1        2 0.32792372E-01 0.15909141E+03</pdfrwt>
<pdfrwt beam="2">  1       -2 0.15527012E-01 0.15909141E+03</pdfrwt>
<totfact> 0.49594456E+03</totfact>
</mgrwt>
</event>
<event>
 7    1  0.5400401E-006  0.1407651E+03  0.7546771E-02  0.1222703E+00
          2   -1    0    0  501    0  0.00000000000E+00  0.00000000000E+00  0.91564787456E+02  0.91564787456E+02  0.00000000000E+00 0. -1.
         -2   -1    0    0    0  501 -0.00000000000E+00 -0.00000000000E+00 -0.23766724305E+03  0.23766724305E+03  0.00000000000E+00 0.  1.
         23    2    1    2    0    0 -0.42749533857E+02 -0.48605790748E+02 -0.16251291443E+03  0.21500057383E+03  0.12499901540E+03 0.  0.
          5    1    3    3  502    0 -0.65075028575E+01  0.13964334780E+02  0.15777961928E+02  0.22547379491E+02  0.47000000000E+01 0.  1.
         -5    1    3    3    0  502 -0.36242030999E+02 -0.62570125528E+02 -0.17829087636E+03  0.19245319434E+03  0.47000000000E+01 0.  1.
        -11    1    1    2    0    0 -0.11063988511E+01 -0.99525703849E+01 -0.27251360541E+02  0.29032988600E+02  0.00000000000E+00 0.  1.
         11    1    1    2    0    0  0.43855932708E+02  0.58558361133E+02  0.43661819372E+02  0.85198468079E+02  0.00000000000E+00 0. -1.
<mgrwt>
<rscale>  0 0.13325560E+03</rscale>
<asrwt>0</asrwt>
<pdfrwt beam="1">  1        2 0.14086890E-01 0.14076505E+03</pdfrwt>
<pdfrwt beam="2">  1       -2 0.36564191E-01 0.14076505E+03</pdfrwt>
<totfact> 0.28669886E+03</totfact>
</mgrwt>
</event>
<event>
 7    1  0.5400401E-006  0.1647274E+03  0.7546771E-02  0.1190090E+00
         -1   -1    0    0    0  501 -0.00000000000E+00  0.00000000000E+00  0.50805268754E+03  0.50805268754E+03  0.00000000000E+00 0.  1.
          1   -1    0    0  501    0  0.00000000000E+00 -0.00000000000E+00 -0.62997082729E+02  0.62997082729E+02  0.00000000000E+00 0. -1.
         23    2    1    2    0    0 -0.10677550420E+03  0.10452976018E+02  0.38106179745E+03  0.41514238782E+03  0.12499934273E+03 0.  0.
          5    1    3    3  502    0  0.16397859181E+02  0.30771403014E+02  0.13056469380E+03  0.13522203333E+03  0.47000000000E+01 0.  1.
         -5    1    3    3    0  502 -0.12317336339E+03 -0.20318426996E+02  0.25049710365E+03  0.27992035449E+03  0.47000000000E+01 0.  1.
        -11    1    1    2    0    0  0.24462917018E+02 -0.46991739230E+01 -0.24481574192E+02  0.34926551784E+02  0.00000000000E+00 0. -1.
         11    1    1    2    0    0  0.82312587186E+02 -0.57538020945E+01  0.88475381551E+02  0.12098083067E+03  0.00000000000E+00 0.  1.
<mgrwt>
<rscale>  0 0.15877248E+03</rscale>
<asrwt>0</asrwt>
<pdfrwt beam="2">  1        1 0.96918592E-02 0.16472738E+03</pdfrwt>
<pdfrwt beam="1">  1       -1 0.78161949E-01 0.16472738E+03</pdfrwt>
<totfact> 0.11325996E+03</totfact>
</mgrwt>
</event>
<event>
 7    1  0.5400401E-006  0.1399009E+03  0.7546771E-02  0.1224416E+00
         -1   -1    0    0    0  501 -0.00000000000E+00  0.00000000000E+00  0.22320113237E+03  0.22320113237E+03  0.00000000000E+00 0. -1.
          1   -1    0    0  501    0  0.00000000000E+00 -0.00000000000E+00 -0.90412679856E+02  0.90412679856E+02  0.00000000000E+00 0.  1.
         23    2    1    2    0    0 -0.35560966679E+02  0.51786919485E+02  0.14541669723E+03  0.20178770482E+03  0.12500317838E+03 0.  0.
          5    1    3    3  502    0 -0.19351536944E+02  0.58155608063E+02  0.66227393989E+01  0.61826429692E+02  0.47000000000E+01 0.  1.
         -5    1    3    3    0  502 -0.16209429734E+02 -0.63686885781E+01  0.13879395783E+03  0.13996127513E+03  0.47000000000E+01 0.  1.
        -11    1    1    2    0    0 -0.14354398865E+02 -0.54343103474E+02 -0.23085371275E+02  0.60763114048E+02  0.00000000000E+00 0.  1.
         11    1    1    2    0    0  0.49915365543E+02  0.25561839886E+01  0.10457126556E+02  0.51062993349E+02  0.00000000000E+00 0. -1.
<mgrwt>
<rscale>  0 0.13207008E+03</rscale>
<asrwt>0</asrwt>
<pdfrwt beam="2">  1        1 0.13909643E-01 0.13990090E+03</pdfrwt>
<pdfrwt beam="1">  1       -1 0.34338635E-01 0.13990090E+03</pdfrwt>
<totfact> 0.32140933E+03</totfact>
</mgrwt>
</event>
<event>
 7    1  0.5400401E-006  0.1669962E+03  0.7546771E-02  0.1186869E+00
          1   -1    0    0  501    0  0.00000000000E+00  0.00000000000E+00  0.32632889547E+03  0.32632889547E+03  0.00000000000E+00 0. -1.
         -1   -1    0    0    0  501 -0.00000000000E+00 -0.00000000000E+00 -0.10128333361E+03  0.10128333361E+03  0.00000000000E+00 0.  1.
         23    2    1    2    0    0 -0.74111442382E+02  0.82278074802E+02  0.98857385975E+01  0.16728851472E+03  0.12500212736E+03 0.  0.
          5    1    3    3  502    0 -0.75699146396E+02  0.71624874357E-01  0.31527065349E+02  0.82136543297E+02  0.47000000000E+01 0.  1.
         -5    1    3    3    0  502  0.15877040143E+01  0.82206449928E+02 -0.21641326751E+02  0.85151971424E+02  0.47000000000E+01 0.  1.
        -11    1    1    2    0    0  0.82023157803E+02 -0.24137342605E+02  0.14985082196E+03  0.17252732701E+03  0.00000000000E+00 0.  1.
         11    1    1    2    0    0 -0.79117154209E+01 -0.58140732198E+02  0.65309001303E+02  0.87796387355E+02  0.00000000000E+00 0. -1.
<mgrwt>
<rscale>  0 0.16162954E+03</rscale>
<asrwt>0</asrwt>
<pdfrwt beam="1">  1        1 0.50204445E-01 0.16699617E+03</pdfrwt>
<pdfrwt beam="2">  1       -1 0.15582051E-01 0.16699617E+03</pdfrwt>
<totfact> 0.23385785E+03</totfact>
</mgrwt>
</event>
<event>
 7    1  0.5400401E-006  0.1761336E+03  0.7546771E-02  0.1177599E+00
          2   -1    0    0  501    0  0.00000000000E+00  0.00000000000E+00  0.75975266010E+03  0.75975266010E+03  0.00000000000E+00 0. -1.
         -2   -1    0    0    0  501 -0.00000000000E+00 -0.00000000000E+00 -0.36107436685E+02  0.36107436685E+02  0.00000000000E+00 0.  1.
         23    2    1    2    0    0  0.10310497302E+01  0.12409507759E+03  0.34959069630E+03  0.39145460121E+03  0.12498959366E+03 0.  0.
          5    1    3    3  502    0  0.24232534954E+02 -0.31237903921E+01  0.79374214849E+01  0.26116402443E+02  0.47000000000E+01 0. -1.
         -5    1    3    3    0  502 -0.23201485224E+02  0.12721886799E+03  0.34165327482E+03  0.36533819877E+03  0.47000000000E+01 0. -1.
        -11    1    1    2    0    0  0.41951884059E+02 -0.49700645506E+02  0.12433541838E+03  0.14031896167E+03  0.00000000000E+00 0. -1.
         11    1    1    2    0    0 -0.42982933789E+02 -0.74394432087E+02  0.24971910873E+03  0.26408653390E+03  0.00000000000E+00 0.  1.
<mgrwt>
<rscale>  0 0.17023850E+03</rscale>
<asrwt>0</asrwt>
<pdfrwt beam="1">  1        2 0.11688501E+00 0.17613361E+03</pdfrwt>
<pdfrwt beam="2">  1       -2 0.55549908E-02 0.17613361E+03</pdfrwt>
<totfact> 0.61812823E+03</totfact>
</mgrwt>
</event>
<event>
 7    1  0.5400401E-006  0.1484159E+03  0.7546771E-02  0.1212247E+00
         -3   -1    0    0    0  501 -0.00000000000E+00  0.00000000000E+00  0.38009881234E+03  0.38009881234E+03  0.00000000000E+00 0.  1.
          3   -1    0    0  501    0  0.00000000000E+00 -0.00000000000E+00 -0.48738649282E+02  0.48738649282E+02  0.00000000000E+00 0. -1.
         23    2    1    2    0    0 -0.72473323758E+02  0.33903517102E+02  0.21698071872E+03  0.26288383622E+03  0.12500179168E+03 0.  0.
          5    1    3    3  502    0 -0.75649991380E+02 -0.31962851750E+02  0.11703419921E+03  0.14305117571E+03  0.47000000000E+01 0.  1.
         -5    1    3    3    0  502  0.31766676223E+01  0.65866368851E+02  0.99946519512E+02  0.11983266051E+03  0.47000000000E+01 0.  1.
        -11    1    1    2    0    0  0.87512112950E+02 -0.66980372583E+01  0.72752469019E+02  0.11400068142E+03  0.00000000000E+00 0.  1.
         11    1    1    2    0    0 -0.15038789193E+02 -0.27205479843E+02  0.41626975325E+02  0.51952943984E+02  0.00000000000E+00 0. -1.
<mgrwt>
<rscale>  0 0.14080681E+03</rscale>
<asrwt>0</asrwt>
<pdfrwt beam="2">  1        3 0.74982540E-02 0.14841590E+03</pdfrwt>
<pdfrwt beam="1">  1       -3 0.58476738E-01 0.14841590E+03</pdfrwt>
<totfact> 0.80635306E+02</totfact>
</mgrwt>
</event>
<event>
 7    1  0.5400401E-006  0.1271144E+03  0.7546771E-02  0.1249218E+00
         -2   -1    0    0    0  501 -0.00000000000E+00  0.00000000000E+00  0.11007819681E+03  0.11007819681E+03  0.00000000000E+00 0.  1.
          2   -1    0    0  501    0  0.00000000000E+00 -0.00000000000E+00 -0.14927350382E+03  0.14927350382E+03  0.00000000000E+00 0. -1.
         23    2    1    2    0    0 -0.36477060446E+01  0.21837926413E+02  0.46746586915E+02  0.13543747357E+03  0.12517134284E+03 0.  0.
          5    1    3    3  502    0 -0.35152086972E+02  0.20625989535E+01  0.78590664645E+02  0.86246774445E+02  0.47000000000E+01 0.  1.
         -5    1    3    3    0  502  0.31504380928E+02  0.19775327460E+02 -0.31844077730E+02  0.49190699123E+02  0.47000000000E+01 0.  1.
        -11    1    1    2    0    0  0.73342667251E+01 -0.54423702251E+02 -0.42267061219E+02  0.69298162307E+02  0.00000000000E+00 0.  1.
         11    1    1    2    0    0 -0.36865606805E+01  0.32585775837E+02 -0.43674832706E+02  0.54616064747E+02  0.00000000000E+00 0. -1.
<mgrwt>
<rscale>  0 0.11636426E+03</rscale>
<asrwt>0</asrwt>
<pdfrwt beam="2">  1        2 0.22965155E-01 0.12711438E+03</pdfrwt>
<pdfrwt beam="1">  1       -2 0.16935107E-01 0.12711438E+03</pdfrwt>
<totfact> 0.62568992E+03</totfact>
</mgrwt>
</event>
<event>
 6    1  0.5400401E-006  0.5128365E+03  0.7546771E-02  0.1010482E+00
          1   -1    0    0  501    0  0.00000000000E+00  0.00000000000E+00  0.30664399399E+03  0.30664399399E+03  0.00000000000E+00 0. -1.
         -1   -1    0    0    0  501 -0.00000000000E+00 -0.00000000000E+00 -0.21441907503E+03  0.21441907503E+03  0.00000000000E+00 0.  1.
          5    1    1    2  502    0 -0.63997135115E+02  0.16501856683E+02 -0.63720310921E+02  0.91925581863E+02  0.47000000000E+01 0. -1.
         -5    1    1    2    0  502  0.70954777530E+02 -0.37383317153E+02 -0.64569027514E+02  0.10306959867E+03  0.47000000000E+01 0.  1.
        -11    1    1    2    0    0  0.90472394927E+02 -0.54494237285E+02  0.15206367858E+03  0.18514383188E+03  0.00000000000E+00 0.  1.
         11    1    1    2    0    0 -0.97430037342E+02  0.75375697755E+02  0.68450578820E+02  0.14092405660E+03  0.00000000000E+00 0. -1.
<mgrwt>
<rscale>  0 0.51283651E+03</rscale>
<asrwt>0</asrwt>
<pdfrwt beam="1">  1        1 0.47175999E-01 0.51283651E+03</pdfrwt>
<pdfrwt beam="2">  1       -1 0.32987550E-01 0.51283651E+03</pdfrwt>
<totfact> 0.73983935E+02</totfact>
</mgrwt>
</event>
<event>
 7    1  0.5400401E-006  0.2283045E+03  0.7546771E-02  0.1131905E+00
         -1   -1    0    0    0  501 -0.00000000000E+00  0.00000000000E+00  0.10903141809E+03  0.10903141809E+03  0.00000000000E+00 0.  1.
          1   -1    0    0  501    0  0.00000000000E+00 -0.00000000000E+00 -0.47860996189E+03  0.47860996189E+03  0.00000000000E+00 0. -1.
         23    2    1    2    0    0  0.18697407186E+03  0.39216576090E+02 -0.28305649600E+03  0.36365356538E+03  0.12500276917E+03 0.  0.
          5    1    3    3  502    0  0.58563565271E+02 -0.23512212129E+02 -0.23858405690E+02  0.67630088115E+02  0.47000000000E+01 0. -1.
         -5    1    3    3    0  502  0.12841050659E+03  0.62728788219E+02 -0.25919809031E+03  0.29602347727E+03  0.47000000000E+01 0. -1.
        -11    1    1    2    0    0 -0.13963690284E+03 -0.60675473379E+02 -0.78831683616E+02  0.17144798641E+03  0.00000000000E+00 0.  1.
         11    1    1    2    0    0 -0.47337169026E+02  0.21458897289E+02 -0.76903641840E+01  0.52539828183E+02  0.00000000000E+00 0. -1.
<mgrwt>
<rscale>  0 0.22267403E+03</rscale>
<asrwt>0</asrwt>
<pdfrwt beam="2">  1        1 0.73632301E-01 0.22830448E+03</pdfrwt>
<pdfrwt beam="1">  1       -1 0.16774064E-01 0.22830448E+03</pdfrwt>
<totfact> 0.12838609E+03</totfact>
</mgrwt>
</event>
<event>
 6    1  0.5400401E-006  0.3014859E+03  0.7546771E-02  0.1121058E+00
          4   -1    0    0  501    0  0.00000000000E+00  0.00000000000E+00  0.31451177852E+02  0.31451177852E+02  0.00000000000E+00 0. -1.
         -4   -1    0    0    0  501 -0.00000000000E+00 -0.00000000000E+00 -0.13996036806E+04  0.13996036806E+04  0.00000000000E+00 0.  1.
          5    1    1    2  502    0 -0.67718646331E+02  0.62085213624E+02 -0.11706628198E+03  0.14888583945E+03  0.47000000000E+01 0. -1.
         -5    1    1    2    0  502  0.52051143328E+02 -0.13606400636E+03 -0.90701019058E+03  0.91864700030E+03  0.47000000000E+01 0.  1.
        -11    1    1    2    0    0  0.11719290585E+02  0.94938432793E+02 -0.27045337758E+03  0.28687223156E+03  0.00000000000E+00 0. -1.
         11    1    1    2    0    0  0.39482124180E+01 -0.20959640059E+02 -0.73622652626E+02  0.76649787164E+02  0.00000000000E+00 0.  1.
<mgrwt>
<rscale>  0 0.23810983E+03</rscale>
<asrwt>0</asrwt>
<pdfrwt beam="1">  1        4 0.48386441E-02 0.30148589E+03</pdfrwt>
<pdfrwt beam="2">  1       -4 0.21532358E+00 0.30148589E+03</pdfrwt>
<totfact> 0.54225620E+01</totfact>
</mgrwt>
</event>
<event>
 7    1  0.5400401E-006  0.1438311E+03  0.7546771E-02  0.1218258E+00
          1   -1    0    0  501    0  0.00000000000E+00  0.00000000000E+00  0.49568527898E+03  0.49568527898E+03  0.00000000000E+00 0. -1.
         -1   -1    0    0    0  501 -0.00000000000E+00 -0.00000000000E+00 -0.52456709958E+02  0.52456709958E+02  0.00000000000E+00 0.  1.
         23    2    1    2    0    0  0.37712774167E+02  0.60330366410E+02  0.75481119049E+02  0.16243390013E+03  0.12500146453E+03 0.  0.
          5    1    3    3  502    0  0.36163850133E+02  0.74390458359E+02 -0.26528832237E+01  0.82890844734E+02  0.47000000000E+01 0.  1.
         -5    1    3    3    0  502  0.15489240340E+01 -0.14060091949E+02  0.78134002273E+02  0.79543055400E+02  0.47000000000E+01 0.  1.
        -11    1    1    2    0    0  0.19197387375E+02  0.12845558404E+02  0.59628761507E+02  0.63946362302E+02  0.00000000000E+00 0.  1.
         11    1    1    2    0    0 -0.56910161542E+02 -0.73175924814E+02  0.30811868846E+03  0.32176172650E+03  0.00000000000E+00 0. -1.
<mgrwt>
<rscale>  0 0.13639923E+03</rscale>
<asrwt>0</asrwt>
<pdfrwt beam="1">  1        1 0.76259271E-01 0.14383106E+03</pdfrwt>
<pdfrwt beam="2">  1       -1 0.80702634E-02 0.14383106E+03</pdfrwt>
<totfact> 0.37720398E+03</totfact>
</mgrwt>
</event>
<event>
 7    1  0.5400401E-006  0.1707495E+03  0.7546771E-02  0.1183468E+00
          2   -1    0    0  501    0  0.00000000000E+00  0.00000000000E+00  0.91520431517E+02  0.91520431517E+02  0.00000000000E+00 0. -1.
         -2   -1    0    0    0  501 -0.00000000000E+00 -0.00000000000E+00 -0.27733978445E+03  0.27733978445E+03  0.00000000000E+00 0.  1.
         23    2    1    2    0    0  0.74859359704E-01 -0.11630516060E+03 -0.10078510354E+03  0.19827511557E+03  0.12501395272E+03 0.  0.
          5    1    3    3  502    0 -0.29893492793E+02  0.16381530715E+02 -0.16294205827E+02  0.38073174329E+02  0.47000000000E+01 0.  1.
         -5    1    3    3    0  502  0.29968352153E+02 -0.13268669131E+03 -0.84490897712E+02  0.16020194125E+03  0.47000000000E+01 0.  1.
        -11    1    1    2    0    0 -0.28541355020E+02  0.42011141099E+02 -0.74735951842E+02  0.90360430613E+02  0.00000000000E+00 0.  1.
         11    1    1    2    0    0  0.28466495661E+02  0.74294019501E+02 -0.10298297551E+02  0.80224669779E+02  0.00000000000E+00 0. -1.
<mgrwt>
<rscale>  0 0.16472018E+03</rscale>
<asrwt>0</asrwt>
<pdfrwt beam="1">  1        2 0.14080066E-01 0.17074948E+03</pdfrwt>
<pdfrwt beam="2">  1       -2 0.42667659E-01 0.17074948E+03</pdfrwt>
<totfact> 0.21623100E+03</totfact>
</mgrwt>
</event>
<event>
 7    1  0.5400401E-006  0.1446846E+03  0.7546771E-02  0.1218266E+00
         -2   -1    0    0    0  501 -0.00000000000E+00  0.00000000000E+00  0.65495996101E+02  0.65495996101E+02  0.00000000000E+00 0.  1.
          2   -1    0    0  501    0  0.00000000000E+00 -0.00000000000E+00 -0.33154099528E+03  0.33154099528E+03  0.00000000000E+00 0. -1.
         23    2    1    2    0    0  0.32993646249E+02 -0.64963157234E+02 -0.50800219506E+02  0.15334368903E+03  0.12499932869E+03 0.  0.
          5    1    3    3  502    0  0.67364818990E+02  0.23516370983E+00 -0.80429210911E+01  0.68006269705E+02  0.47000000000E+01 0.  1.
         -5    1    3    3    0  502 -0.34371172741E+02 -0.65198320943E+02 -0.42757298415E+02  0.85337419326E+02  0.47000000000E+01 0.  1.
        -11    1    1    2    0    0 -0.25133159682E+02  0.74650479062E+01 -0.64727293015E+01  0.27005534256E+02  0.00000000000E+00 0.  1.
         11    1    1    2    0    0 -0.78604865664E+01  0.57498109327E+02 -0.20877205038E+03  0.21668776810E+03  0.00000000000E+00 0. -1.
<mgrwt>
<rscale>  0 0.13639341E+03</rscale>
<asrwt>0</asrwt>
<pdfrwt beam="2">  1        2 0.51006307E-01 0.14468457E+03</pdfrwt>
<pdfrwt beam="1">  1       -2 0.10076307E-01 0.14468457E+03</pdfrwt>
<totfact> 0.61680480E+03</totfact>
</mgrwt>
</event>
<event>
 7    1  0.5400401E-006  0.1365790E+03  0.7546771E-02  0.1230075E+00
         -1   -1    0    0    0  501 -0.00000000000E+00  0.00000000000E+00  0.37771105838E+03  0.37771105838E+03  0.00000000000E+00 0.  1.
          1   -1    0    0  501    0  0.00000000000E+00 -0.00000000000E+00 -0.41108127875E+02  0.41108127875E+02  0.00000000000E+00 0. -1.
         23    2    1    2    0    0 -0.37734796294E+01 -0.54904698717E+02  0.23525890248E+03  0.27203044291E+03  0.12500018234E+03 0.  0.
          5    1    3    3  502    0  0.53998093400E+02 -0.56419848193E+02  0.12527713867E+03  0.14770052415E+03  0.47000000000E+01 0.  1.
         -5    1    3    3    0  502 -0.57771573030E+02  0.15151494752E+01  0.10998176380E+03  0.12432991876E+03  0.47000000000E+01 0.  1.
        -11    1    1    2    0    0  0.23464493576E+02  0.40957281457E+02  0.11113808802E+03  0.12074666029E+03  0.00000000000E+00 0.  1.
         11    1    1    2    0    0 -0.19691013946E+02  0.13947417261E+02 -0.97940599950E+01  0.26042083051E+02  0.00000000000E+00 0. -1.
<mgrwt>
<rscale>  0 0.12825041E+03</rscale>
<asrwt>0</asrwt>
<pdfrwt beam="2">  1        1 0.63243276E-02 0.13657895E+03</pdfrwt>
<pdfrwt beam="1">  1       -1 0.58109391E-01 0.13657895E+03</pdfrwt>
<totfact> 0.35692210E+03</totfact>
</mgrwt>
</event>
<event>
 7    1  0.5400401E-006  0.1941118E+03  0.7546771E-02  0.1159523E+00
         -1   -1    0    0    0  501 -0.00000000000E+00  0.00000000000E+00  0.93185554822E+02  0.93185554822E+02  0.00000000000E+00 0.  1.
          1   -1    0    0  501    0  0.00000000000E+00 -0.00000000000E+00 -0.38247883365E+03  0.38247883365E+03  0.00000000000E+00 0. -1.
         23    2    1    2    0    0 -0.38313357185E+02 -0.14347786232E+03 -0.20555821763E+03  0.28272524528E+03  0.12500229264E+03 0.  0.
          5    1    3    3  502    0 -0.28523928445E+02 -0.13707278588E+03 -0.90057103021E+02  0.16653808852E+03  0.47000000000E+01 0.  1.
         -5    1    3    3    0  502 -0.97894287396E+01 -0.64050764427E+01 -0.11550111461E+03  0.11618715676E+03  0.47000000000E+01 0.  1.
        -11    1    1    2    0    0  0.17775014158E+02  0.14711763793E+03 -0.56406162271E+02  0.15855978576E+03  0.00000000000E+00 0.  1.
         11    1    1    2    0    0  0.20538343027E+02 -0.36397756106E+01 -0.27328898926E+02  0.34379357430E+02  0.00000000000E+00 0. -1.
<mgrwt>
<rscale>  0 0.18882733E+03</rscale>
<asrwt>0</asrwt>
<pdfrwt beam="2">  1        1 0.58842897E-01 0.19411178E+03</pdfrwt>
<pdfrwt beam="1">  1       -1 0.14336239E-01 0.19411178E+03</pdfrwt>
<totfact> 0.21938135E+03</totfact>
</mgrwt>
</event>
<event>
 7    1  0.5400401E-006  0.1334766E+03  0.7546771E-02  0.1235212E+00
         -1   -1    0    0    0  501 -0.00000000000E+00  0.00000000000E+00  0.29348875133E+03  0.29348875133E+03  0.00000000000E+00 0.  1.
          1   -1    0    0  501    0  0.00000000000E+00 -0.00000000000E+00 -0.47486858696E+02  0.47486858696E+02  0.00000000000E+00 0. -1.
         23    2    1    2    0    0 -0.33685342218E+02 -0.32537340408E+02  0.13117414013E+03  0.18714339538E+03  0.12499045801E+03 0.  0.
          5    1    3    3  502    0 -0.40306616407E+02 -0.75673594482E+02  0.64826186918E+02  0.10759015168E+03  0.47000000000E+01 0.  1.
         -5    1    3    3    0  502  0.66212741890E+01  0.43136254075E+02  0.66347953213E+02  0.79553243699E+02  0.47000000000E+01 0.  1.
        -11    1    1    2    0    0 -0.16354470531E+01  0.10352067151E+02 -0.14530444493E+02  0.17915741641E+02  0.00000000000E+00 0. -1.
         11    1    1    2    0    0  0.35320789272E+02  0.22185273257E+02  0.12935819700E+03  0.13591647301E+03  0.00000000000E+00 0.  1.
<mgrwt>
<rscale>  0 0.12490892E+03</rscale>
<asrwt>0</asrwt>
<pdfrwt beam="2">  1        1 0.73056707E-02 0.13347657E+03</pdfrwt>
<pdfrwt beam="1">  1       -1 0.45152115E-01 0.13347657E+03</pdfrwt>
<totfact> 0.46602503E+03</totfact>
</mgrwt>
</event>
<event>
 6    1  0.5400401E-006  0.3455962E+03  0.7546771E-02  0.1101653E+00
          1   -1    0    0  501    0  0.00000000000E+00  0.00000000000E+00  0.58426078429E+03  0.58426078429E+03  0.00000000000E+00 0. -1.
         -1   -1    0    0    0  501 -0.00000000000E+00 -0.00000000000E+00 -0.10621679250E+03  0.10621679250E+03  0.00000000000E+00 0.  1.
          5    1    1    2  502    0  0.32353357222E+02 -0.11583263977E+03  0.19025462189E+03  0.22512852176E+03  0.47000000000E+01 0. -1.
         -5    1    1    2    0  502  0.21311582724E+02  0.18827864426E+03  0.50792421293E+02  0.19622688782E+03  0.47000000000E+01 0.  1.
        -11    1    1    2    0    0  0.36077215891E+01  0.13125919247E+02  0.36916658380E+01  0.14104389665E+02  0.00000000000E+00 0.  1.
         11    1    1    2    0    0 -0.57272661535E+02 -0.85571923737E+02  0.23330528277E+03  0.25501777754E+03  0.00000000000E+00 0. -1.
<mgrwt>
<rscale>  0 0.26934817E+03</rscale>
<asrwt>0</asrwt>
<pdfrwt beam="1">  1        1 0.89886272E-01 0.34559616E+03</pdfrwt>
<pdfrwt beam="2">  1       -1 0.16341045E-01 0.34559616E+03</pdfrwt>
<totfact> 0.10239366E+03</totfact>
</mgrwt>
</event>
<event>
 7    1  0.5400401E-006  0.1403771E+03  0.7546771E-02  0.1223807E+00
         -3   -1    0    0    0  501 -0.00000000000E+00  0.00000000000E+00  0.34127591385E+03  0.34127591385E+03  0.00000000000E+00 0.  1.
          3   -1    0    0  501    0  0.00000000000E+00 -0.00000000000E+00 -0.53297276034E+02  0.53297276034E+02  0.00000000000E+00 0. -1.
         23    2    1    2    0    0 -0.57381263694E+02  0.28213743019E+02  0.22882288944E+03  0.26845046947E+03  0.12496845646E+03 0.  0.
          5    1    3    3  502    0 -0.60628654214E+02 -0.32664150320E+02  0.70209249828E+02  0.98459175242E+02  0.47000000000E+01 0.  1.
         -5    1    3    3    0  502  0.32473905201E+01  0.60877893338E+02  0.15861363961E+03  0.16999129423E+03  0.47000000000E+01 0.  1.
        -11    1    1    2    0    0 -0.24958624592E+02 -0.53118579144E+01  0.18251349578E+02  0.31372926823E+02  0.00000000000E+00 0. -1.
         11    1    1    2    0    0  0.82339888285E+02 -0.22901885104E+02  0.40904398795E+02  0.94749793588E+02  0.00000000000E+00 0.  1.
<mgrwt>
<rscale>  0 0.13248996E+03</rscale>
<asrwt>0</asrwt>
<pdfrwt beam="2">  1        3 0.81995811E-02 0.14037713E+03</pdfrwt>
<pdfrwt beam="1">  1       -3 0.52503985E-01 0.14037713E+03</pdfrwt>
<totfact> 0.86074752E+02</totfact>
</mgrwt>
</event>
<event>
 7    1  0.5400401E-006  0.2152078E+03  0.7546771E-02  0.1141163E+00
         -1   -1    0    0    0  501 -0.00000000000E+00  0.00000000000E+00  0.11389831709E+03  0.11389831709E+03  0.00000000000E+00 0.  1.
          1   -1    0    0  501    0  0.00000000000E+00 -0.00000000000E+00 -0.40567223024E+03  0.40567223024E+03  0.00000000000E+00 0. -1.
         23    2    1    2    0    0  0.17018475791E+03 -0.41427577925E+02 -0.78138045555E+02  0.22895406294E+03  0.12504124414E+03 0.  0.
          5    1    3    3  502    0  0.66719480605E+02 -0.58334463975E+02  0.13328857779E+02  0.89744900853E+02  0.47000000000E+01 0. -1.
         -5    1    3    3    0  502  0.10346527731E+03  0.16906886050E+02 -0.91466903334E+02  0.13920916209E+03  0.47000000000E+01 0. -1.
        -11    1    1    2    0    0 -0.11812184103E+03  0.60627317755E+02 -0.10744254066E+03  0.17079912333E+03  0.00000000000E+00 0.  1.
         11    1    1    2    0    0 -0.52062916888E+02 -0.19199739830E+02 -0.10619332694E+03  0.11981736106E+03  0.00000000000E+00 0. -1.
<mgrwt>
<rscale>  0 0.21050975E+03</rscale>
<asrwt>0</asrwt>
<pdfrwt beam="2">  1        1 0.62411112E-01 0.21520783E+03</pdfrwt>
<pdfrwt beam="1">  1       -1 0.17522818E-01 0.21520783E+03</pdfrwt>
<totfact> 0.14824296E+03</totfact>
</mgrwt>
</event>
<event>
 6    1  0.5400401E-006  0.2216476E+03  0.7546771E-02  0.1155383E+00
         -2   -1    0    0    0  501 -0.00000000000E+00  0.00000000000E+00  0.86858404026E+02  0.86858404026E+02  0.00000000000E+00 0.  1.
          2   -1    0    0  501    0  0.00000000000E+00 -0.00000000000E+00 -0.57515273150E+03  0.57515273150E+03  0.00000000000E+00 0. -1.
          5    1    1    2  502    0  0.74885449656E+02 -0.23125842247E+02 -0.42238699314E+02  0.89156227318E+02  0.47000000000E+01 0. -1.
         -5    1    1    2    0  502 -0.13382852177E+03 -0.46527639828E+02 -0.40564906630E+02  0.14745336943E+03  0.47000000000E+01 0.  1.
        -11    1    1    2    0    0  0.12916324972E+02  0.10175096840E+02 -0.39928629934E+01  0.16920608776E+02  0.00000000000E+00 0.  1.
         11    1    1    2    0    0  0.46026747142E+02  0.59478385236E+02 -0.40149785854E+03  0.40848093000E+03  0.00000000000E+00 0. -1.
<mgrwt>
<rscale>  0 0.19345347E+03</rscale>
<asrwt>0</asrwt>
<pdfrwt beam="2">  1        2 0.88485035E-01 0.22164761E+03</pdfrwt>
<pdfrwt beam="1">  1       -2 0.13362832E-01 0.22164761E+03</pdfrwt>
<totfact> 0.21847591E+03</totfact>
</mgrwt>
</event>
<event>
 7    1  0.5400401E-006  0.2664272E+03  0.7546771E-02  0.1105681E+00
          1   -1    0    0  501    0  0.00000000000E+00  0.00000000000E+00  0.91795692929E+03  0.91795692929E+03  0.00000000000E+00 0. -1.
         -1   -1    0    0    0  501 -0.00000000000E+00 -0.00000000000E+00 -0.83161312261E+02  0.83161312261E+02  0.00000000000E+00 0.  1.
         23    2    1    2    0    0 -0.18682301478E+03 -0.14327784764E+03  0.25243734097E+03  0.36702598433E+03  0.12470798523E+03 0.  0.
          5    1    3    3  502    0 -0.12471314302E+03 -0.83308753108E+02  0.70921790038E+02  0.16596899315E+03  0.47000000000E+01 0. -1.
         -5    1    3    3    0  502 -0.62109871757E+02 -0.59969094532E+02  0.18151555094E+03  0.20105699117E+03  0.47000000000E+01 0. -1.
        -11    1    1    2    0    0  0.82359715540E+02  0.17904636155E+02  0.25012686561E+03  0.26394534972E+03  0.00000000000E+00 0. -1.
         11    1    1    2    0    0  0.10446329924E+03  0.12537321148E+03  0.33223141044E+03  0.37014690750E+03  0.00000000000E+00 0.  1.
<mgrwt>
<rscale>  0 0.26244768E+03</rscale>
<asrwt>0</asrwt>
<pdfrwt beam="1">  1        1 0.14122414E+00 0.26642722E+03</pdfrwt>
<pdfrwt beam="2">  1       -1 0.12794049E-01 0.26642722E+03</pdfrwt>
<totfact> 0.76767200E+02</totfact>
</mgrwt>
</event>
<event>
 7    1  0.5400401E-006  0.1284124E+03  0.7546771E-02  0.1244465E+00
          1   -1    0    0  501    0  0.00000000000E+00  0.00000000000E+00  0.21493896033E+03  0.21493896033E+03  0.00000000000E+00 0.  1.
         -1   -1    0    0    0  501 -0.00000000000E+00 -0.00000000000E+00 -0.85135454585E+02  0.85135454585E+02  0.00000000000E+00 0. -1.
         23    2    1    2    0    0  0.15367478641E+01  0.29357341934E+02 -0.12295327062E+02  0.12899968139E+03  0.12500211043E+03 0.  0.
          5    1    3    3  502    0  0.17216824835E+02 -0.38208303971E+02  0.26087176329E+02  0.49587541969E+02  0.47000000000E+01 0. -1.
         -5    1    3    3    0  502 -0.15680076971E+02  0.67565645905E+02 -0.38382503391E+02  0.79412139418E+02  0.47000000000E+01 0. -1.
        -11    1    1    2    0    0 -0.25686661307E+02  0.90462675678E+01  0.11511063411E+03  0.11828819726E+03  0.00000000000E+00 0.  1.
         11    1    1    2    0    0  0.24149913443E+02 -0.38403609502E+02  0.26988198696E+02  0.52786536266E+02  0.00000000000E+00 0. -1.
<mgrwt>
<rscale>  0 0.11917440E+03</rscale>
<asrwt>0</asrwt>
<pdfrwt beam="1">  1        1 0.33067532E-01 0.12841239E+03</pdfrwt>
<pdfrwt beam="2">  1       -1 0.13097762E-01 0.12841239E+03</pdfrwt>
<totfact> 0.50877271E+03</totfact>
</mgrwt>
</event>
<event>
 7    1  0.2622842E-005  0.4958523E+03  0.7546771E-02  0.1015360E+00
         -2   -1    0    0    0  501 -0.00000000000E+00  0.00000000000E+00  0.98317839820E+02  0.98317839820E+02  0.00000000000E+00 0.  1.
          2   -1    0    0  501    0  0.00000000000E+00 -0.00000000000E+00 -0.26773851760E+04  0.26773851760E+04  0.00000000000E+00 0. -1.
         23    2    1    2    0    0 -0.34117234906E+03  0.33740567604E+03 -0.16906666192E+04  0.17618805535E+04  0.12501322237E+03 0.  0.
          5    1    3    3  502    0 -0.28329103507E+03  0.20115872260E+03 -0.11585245120E+04  0.12095122062E+04  0.47000000000E+01 0.  1.
         -5    1    3    3    0  502 -0.57881313995E+02  0.13624695344E+03 -0.53214210722E+03  0.55236834731E+03  0.47000000000E+01 0.  1.
        -11    1    1    2    0    0  0.15176677996E+02 -0.53180083801E+02 -0.85113936610E+02  0.10150288209E+03  0.00000000000E+00 0.  1.
         11    1    1    2    0    0  0.32599567106E+03 -0.28422559224E+03 -0.80328678041E+03  0.91231958020E+03  0.00000000000E+00 0. -1.
<mgrwt>
<rscale>  0 0.49399041E+03</rscale>
<asrwt>0</asrwt>
<pdfrwt beam="2">  1        2 0.41190538E+00 0.49585226E+03</pdfrwt>
<pdfrwt beam="1">  1       -2 0.15125823E-01 0.49585226E+03</pdfrwt>
<totfact> 0.10256624E+02</totfact>
</mgrwt>
</event>
<event>
 7    1  0.5400401E-006  0.1543217E+03  0.7546771E-02  0.1203565E+00
         -2   -1    0    0    0  501 -0.00000000000E+00  0.00000000000E+00  0.20182549531E+02  0.20182549531E+02  0.00000000000E+00 0.  1.
          2   -1    0    0  501    0  0.00000000000E+00 -0.00000000000E+00 -0.10390239834E+04  0.10390239834E+04  0.00000000000E+00 0. -1.
         23    2    1    2    0    0 -0.86113297855E+02 -0.27816367638E+02 -0.44238079021E+03  0.46852530502E+03  0.12500379003E+03 0.  0.
          5    1    3    3  502    0 -0.80133621342E+02  0.34243265981E+02 -0.31121837356E+03  0.32322277856E+03  0.47000000000E+01 0.  1.
         -5    1    3    3    0  502 -0.59796765132E+01 -0.62059633619E+02 -0.13116241665E+03  0.14530252646E+03  0.47000000000E+01 0.  1.
        -11    1    1    2    0    0  0.29204558800E+02  0.56335110909E+02 -0.23967363667E+03  0.24793144837E+03  0.00000000000E+00 0.  1.
         11    1    1    2    0    0  0.56908739054E+02 -0.28518743271E+02 -0.33678700697E+03  0.34274977952E+03  0.00000000000E+00 0. -1.
<mgrwt>
<rscale>  0 0.14751136E+03</rscale>
<asrwt>0</asrwt>
<pdfrwt beam="2">  1        2 0.15984992E+00 0.15432174E+03</pdfrwt>
<pdfrwt beam="1">  1       -2 0.31050062E-02 0.15432174E+03</pdfrwt>
<totfact> 0.97211663E+03</totfact>
</mgrwt>
</event>
<event>
 7    1  0.5400401E-006  0.1528494E+03  0.7546771E-02  0.1205277E+00
         -3   -1    0    0    0  501 -0.00000000000E+00  0.00000000000E+00  0.13543258061E+04  0.13543258061E+04  0.00000000000E+00 0.  1.
          3   -1    0    0  501    0  0.00000000000E+00 -0.00000000000E+00 -0.16016869385E+02  0.16016869385E+02  0.00000000000E+00 0. -1.
         23    2    1    2    0    0 -0.83274598081E+02 -0.28374934749E+02  0.93084453554E+03  0.94331039100E+03  0.12499259507E+03 0.  0.
          5    1    3    3  502    0 -0.40589811208E+02  0.38302842566E+02  0.61937865184E+03  0.62190565593E+03  0.47000000000E+01 0. -1.
         -5    1    3    3    0  502 -0.42684786872E+02 -0.66677777315E+02  0.31146588370E+03  0.32140473507E+03  0.47000000000E+01 0. -1.
        -11    1    1    2    0    0  0.10103062705E+03  0.31025091735E+02  0.37829527780E+03  0.39278118734E+03  0.00000000000E+00 0.  1.
         11    1    1    2    0    0 -0.17756028973E+02 -0.26501569856E+01  0.29169123345E+02  0.34251097116E+02  0.00000000000E+00 0. -1.
<mgrwt>
<rscale>  0 0.14615676E+03</rscale>
<asrwt>0</asrwt>
<pdfrwt beam="2">  1        3 0.24641348E-02 0.15284942E+03</pdfrwt>
<pdfrwt beam="1">  1       -3 0.20835772E+00 0.15284942E+03</pdfrwt>
<totfact> 0.23466064E+02</totfact>
</mgrwt>
</event>
<event>
 7    1  0.5400401E-006  0.2358834E+03  0.7546771E-02  0.1125163E+00
          1   -1    0    0  501    0  0.00000000000E+00  0.00000000000E+00  0.95010553758E+03  0.95010553758E+03  0.00000000000E+00 0. -1.
         -1   -1    0    0    0  501 -0.00000000000E+00 -0.00000000000E+00 -0.82054242056E+02  0.82054242056E+02  0.00000000000E+00 0.  1.
         23    2    1    2    0    0 -0.19991141549E+03 -0.71408335810E+01  0.14695733514E+03  0.27791625595E+03  0.12500168568E+03 0.  0.
          5    1    3    3  502    0 -0.45420571724E+02  0.53063457876E+02  0.42904317082E+02  0.82107425497E+02  0.47000000000E+01 0.  1.
         -5    1    3    3    0  502 -0.15449084376E+03 -0.60204291457E+02  0.10405301805E+03  0.19580883045E+03  0.47000000000E+01 0.  1.
        -11    1    1    2    0    0  0.10206159093E+03  0.36990537293E+02  0.48392032411E+03  0.49594732410E+03  0.00000000000E+00 0. -1.
         11    1    1    2    0    0  0.97849824559E+02 -0.29849703712E+02  0.23717363628E+03  0.25829619959E+03  0.00000000000E+00 0.  1.
<mgrwt>
<rscale>  0 0.23211019E+03</rscale>
<asrwt>0</asrwt>
<pdfrwt beam="1">  1        1 0.14617007E+00 0.23588342E+03</pdfrwt>
<pdfrwt beam="2">  1       -1 0.12623730E-01 0.23588342E+03</pdfrwt>
<totfact> 0.74169611E+02</totfact>
</mgrwt>
</event>
<event>
 6    1  0.5400401E-006  0.1708458E+03  0.7546771E-02  0.1214317E+00
         -2   -1    0    0    0  501 -0.00000000000E+00  0.00000000000E+00  0.25286362201E+02  0.25286362201E+02  0.00000000000E+00 0.  1.
          2   -1    0    0  501    0  0.00000000000E+00 -0.00000000000E+00 -0.63493623435E+03  0.63493623435E+03  0.00000000000E+00 0. -1.
          5    1    1    2  502    0  0.54596180180E+02  0.62376019117E+02 -0.17790466270E+03  0.19632541777E+03  0.47000000000E+01 0. -1.
         -5    1    1    2    0  502  0.14378245798E+02 -0.86254754817E+02 -0.16639859238E+03  0.18803509839E+03  0.47000000000E+01 0.  1.
        -11    1    1    2    0    0 -0.33292401845E+02  0.20994179809E+02 -0.15080490998E+03  0.15585653814E+03  0.00000000000E+00 0. -1.
         11    1    1    2    0    0 -0.35682024132E+02  0.28845558904E+01 -0.11454170710E+03  0.12000554226E+03  0.00000000000E+00 0.  1.
<mgrwt>
<rscale>  0 0.13926831E+03</rscale>
<asrwt>0</asrwt>
<pdfrwt beam="2">  1        2 0.97682498E-01 0.17084576E+03</pdfrwt>
<pdfrwt beam="1">  1       -2 0.38902095E-02 0.17084576E+03</pdfrwt>
<totfact> 0.13079174E+04</totfact>
</mgrwt>
</event>
<event>
 7    1  0.5400401E-006  0.1305336E+03  0.7546771E-02  0.1241127E+00
         -2   -1    0    0    0  501 -0.00000000000E+00  0.00000000000E+00  0.52587889758E+03  0.52587889758E+03  0.00000000000E+00 0.  1.
          2   -1    0    0  501    0  0.00000000000E+00 -0.00000000000E+00 -0.24969829377E+02  0.24969829377E+02  0.00000000000E+00 0. -1.
         23    2    1    2    0    0 -0.70022663545E+01  0.36962090592E+02  0.25442239149E+03  0.28595415552E+03  0.12499519149E+03 0.  0.
          5    1    3    3  502    0 -0.53212337904E+02  0.64864766963E+01  0.47741340023E+02  0.71937145011E+02  0.47000000000E+01 0. -1.
         -5    1    3    3    0  502  0.46210071549E+02  0.30475613895E+02  0.20668105146E+03  0.21401701051E+03  0.47000000000E+01 0. -1.
        -11    1    1    2    0    0 -0.26298072684E+02  0.16329986238E+02  0.11607925202E+03  0.12013596392E+03  0.00000000000E+00 0. -1.
         11    1    1    2    0    0  0.33300339039E+02 -0.53292076830E+02  0.13040742469E+03  0.14475860751E+03  0.00000000000E+00 0.  1.
<mgrwt>
<rscale>  0 0.12120217E+03</rscale>
<asrwt>0</asrwt>
<pdfrwt beam="2">  1        2 0.38415126E-02 0.13053362E+03</pdfrwt>
<pdfrwt beam="1">  1       -2 0.80904437E-01 0.13053362E+03</pdfrwt>
<totfact> 0.29599650E+03</totfact>
</mgrwt>
</event>
<event>
 7    1  0.5400401E-006  0.2326265E+03  0.7546771E-02  0.1127730E+00
          2   -1    0    0  501    0  0.00000000000E+00  0.00000000000E+00  0.10959597090E+04  0.10959597090E+04  0.00000000000E+00 0. -1.
         -2   -1    0    0    0  501 -0.00000000000E+00 -0.00000000000E+00 -0.50723576707E+02  0.50723576707E+02  0.00000000000E+00 0.  1.
         23    2    1    2    0    0 -0.46555534212E+01 -0.19613443845E+03  0.36473476619E+03  0.43260435102E+03  0.12499873092E+03 0.  0.
          5    1    3    3  502    0 -0.58969065467E+02 -0.53572525667E+02  0.13357165202E+03  0.15559833679E+03  0.47000000000E+01 0.  1.
         -5    1    3    3    0  502  0.54313512046E+02 -0.14256191278E+03  0.23116311417E+03  0.27700601423E+03  0.47000000000E+01 0.  1.
        -11    1    1    2    0    0 -0.33106938798E+02  0.13072888451E+03  0.51133857716E+03  0.52882251383E+03  0.00000000000E+00 0. -1.
         11    1    1    2    0    0  0.37762492219E+02  0.65405553937E+02  0.16916278892E+03  0.18525642084E+03  0.00000000000E+00 0.  1.
<mgrwt>
<rscale>  0 0.22845778E+03</rscale>
<asrwt>0</asrwt>
<pdfrwt beam="1">  1        2 0.16860917E+00 0.23262647E+03</pdfrwt>
<pdfrwt beam="2">  1       -2 0.78036280E-02 0.23262647E+03</pdfrwt>
<totfact> 0.22546503E+03</totfact>
</mgrwt>
</event>
<event>
 7    1  0.5400401E-006  0.1298706E+03  0.7546771E-02  0.1241843E+00
          2   -1    0    0  501    0  0.00000000000E+00  0.00000000000E+00  0.23484668055E+02  0.23484668055E+02  0.00000000000E+00 0. -1.
         -2   -1    0    0    0  501 -0.00000000000E+00 -0.00000000000E+00 -0.56556803817E+03  0.56556803817E+03  0.00000000000E+00 0.  1.
         23    2    1    2    0    0  0.91556756220E+01 -0.34026962315E+02 -0.35979993489E+03  0.38252107928E+03  0.12499888955E+03 0.  0.
          5    1    3    3  502    0  0.66391045152E+02 -0.91400016648E+01 -0.19376270744E+03  0.20507897820E+03  0.47000000000E+01 0.  1.
         -5    1    3    3    0  502 -0.57235369530E+02 -0.24886960650E+02 -0.16603722745E+03  0.17744210108E+03  0.47000000000E+01 0.  1.
        -11    1    1    2    0    0  0.20886502851E+02 -0.14579748074E+02 -0.11714359642E+03  0.11988092942E+03  0.00000000000E+00 0.  1.
         11    1    1    2    0    0 -0.30042178473E+02  0.48606710390E+02 -0.65139838799E+02  0.86650697522E+02  0.00000000000E+00 0. -1.
<mgrwt>
<rscale>  0 0.12076360E+03</rscale>
<asrwt>0</asrwt>
<pdfrwt beam="1">  1        2 0.36130257E-02 0.12987064E+03</pdfrwt>
<pdfrwt beam="2">  1       -2 0.87010471E-01 0.12987064E+03</pdfrwt>
<totfact> 0.27334438E+03</totfact>
</mgrwt>
</event>
<event>
 6    1  0.5400401E-006  0.2310393E+03  0.7546771E-02  0.1158759E+00
         -2   -1    0    0    0  501 -0.00000000000E+00  0.00000000000E+00  0.78799109223E+02  0.78799109223E+02  0.00000000000E+00 0.  1.
          2   -1    0    0  501    0  0.00000000000E+00 -0.00000000000E+00 -0.35844382314E+03  0.35844382314E+03  0.00000000000E+00 0. -1.
          5    1    1    2  502    0 -0.72538188399E+02 -0.62481170566E+02 -0.14795378725E+03  0.17628981426E+03  0.47000000000E+01 0. -1.
         -5    1    1    2    0  502  0.11293660200E+03  0.33355403838E+02 -0.50254188695E+02  0.12812038291E+03  0.47000000000E+01 0.  1.
        -11    1    1    2    0    0 -0.70170732562E+02  0.17298189569E+02 -0.49504412834E+02  0.87600490642E+02  0.00000000000E+00 0. -1.
         11    1    1    2    0    0  0.29772318962E+02  0.11827577158E+02 -0.31932325138E+02  0.45232244544E+02  0.00000000000E+00 0.  1.
<mgrwt>
<rscale>  0 0.18967086E+03</rscale>
<asrwt>0</asrwt>
<pdfrwt beam="2">  1        2 0.55145205E-01 0.23103932E+03</pdfrwt>
<pdfrwt beam="1">  1       -2 0.12122940E-01 0.23103932E+03</pdfrwt>
<totfact> 0.43248239E+03</totfact>
</mgrwt>
</event>
<event>
 7    1  0.5400401E-006  0.1296008E+03  0.7546771E-02  0.1246948E+00
         -1   -1    0    0    0  501 -0.00000000000E+00  0.00000000000E+00  0.32249698584E+02  0.32249698584E+02  0.00000000000E+00 0.  1.
          1   -1    0    0  501    0  0.00000000000E+00 -0.00000000000E+00 -0.38725040861E+03  0.38725040861E+03  0.00000000000E+00 0. -1.
         23    2    1    2    0    0 -0.32552139868E+02 -0.10506353140E+02 -0.16309469139E+03  0.20831764463E+03  0.12500534964E+03 0.  0.
          5    1    3    3  502    0 -0.71048956982E+02 -0.24715766171E+02 -0.57096651175E+02  0.94556549012E+02  0.47000000000E+01 0. -1.
         -5    1    3    3    0  502  0.38496817114E+02  0.14209413031E+02 -0.10599804022E+03  0.11376109562E+03  0.47000000000E+01 0. -1.
        -11    1    1    2    0    0 -0.10713047741E+02  0.34428722561E+02 -0.56413265078E+02  0.66951944004E+02  0.00000000000E+00 0.  1.
         11    1    1    2    0    0  0.43265187609E+02 -0.23922369421E+02 -0.13549275355E+03  0.14423051855E+03  0.00000000000E+00 0. -1.
<mgrwt>
<rscale>  0 0.11769530E+03</rscale>
<asrwt>0</asrwt>
<pdfrwt beam="2">  1        1 0.59576987E-01 0.12960078E+03</pdfrwt>
<pdfrwt beam="1">  1       -1 0.49614920E-02 0.12960078E+03</pdfrwt>
<totfact> 0.10624651E+04</totfact>
</mgrwt>
</event>
<event>
 7    1  0.5400401E-006  0.2410809E+03  0.7546771E-02  0.1121752E+00
         -3   -1    0    0    0  501 -0.00000000000E+00  0.00000000000E+00  0.32832683032E+02  0.32832683032E+02  0.00000000000E+00 0.  1.
          3   -1    0    0  501    0  0.00000000000E+00 -0.00000000000E+00 -0.17354706572E+04  0.17354706572E+04  0.00000000000E+00 0. -1.
         23    2    1    2    0    0  0.10487846579E+03 -0.17747834355E+03 -0.69117847477E+03  0.73201617923E+03  0.12498779002E+03 0.  0.
          5    1    3    3  502    0  0.35995427332E+02  0.10618604036E+02 -0.73641728111E+02  0.82786591062E+02  0.47000000000E+01 0. -1.
         -5    1    3    3    0  502  0.68883038456E+02 -0.18809694759E+03 -0.61753674666E+03  0.64922958817E+03  0.47000000000E+01 0. -1.
        -11    1    1    2    0    0 -0.72492525992E+02  0.37236484191E+02 -0.35529243793E+03  0.36451946249E+03  0.00000000000E+00 0.  1.
         11    1    1    2    0    0 -0.32385939796E+02  0.14024185936E+03 -0.65616706143E+03  0.67176769848E+03  0.00000000000E+00 0. -1.
<mgrwt>
<rscale>  0 0.23708202E+03</rscale>
<asrwt>0</asrwt>
<pdfrwt beam="2">  1        3 0.26699544E+00 0.24108090E+03</pdfrwt>
<pdfrwt beam="1">  1       -3 0.50511829E-02 0.24108090E+03</pdfrwt>
<totfact> 0.37321314E+01</totfact>
</mgrwt>
</event>
<event>
 7    1  0.5400401E-006  0.1331171E+03  0.7546771E-02  0.1234609E+00
         -2   -1    0    0    0  501 -0.00000000000E+00  0.00000000000E+00  0.16262254840E+03  0.16262254840E+03  0.00000000000E+00 0.  1.
          2   -1    0    0  501    0  0.00000000000E+00 -0.00000000000E+00 -0.88589369270E+02  0.88589369270E+02  0.00000000000E+00 0. -1.
         23    2    1    2    0    0 -0.16725333604E+02  0.42623013067E+02  0.59188071956E+02  0.14568251670E+03  0.12499483902E+03 0.  0.
          5    1    3    3  502    0  0.25647947799E+02 -0.10986108156E+02 -0.24577064572E+02  0.37478445828E+02  0.47000000000E+01 0.  1.
         -5    1    3    3    0  502 -0.42373281403E+02  0.53609121223E+02  0.83765136528E+02  0.10820407087E+03  0.47000000000E+01 0.  1.
        -11    1    1    2    0    0  0.41856127398E+02  0.10315709280E+02  0.18288242533E+02  0.46827439324E+02  0.00000000000E+00 0. -1.
         11    1    1    2    0    0 -0.25130793794E+02 -0.52938722347E+02 -0.34431353582E+01  0.58701961650E+02  0.00000000000E+00 0.  1.
<mgrwt>
<rscale>  0 0.12529501E+03</rscale>
<asrwt>0</asrwt>
<pdfrwt beam="2">  1        2 0.13629134E-01 0.13311712E+03</pdfrwt>
<pdfrwt beam="1">  1       -2 0.25018854E-01 0.13311712E+03</pdfrwt>
<totfact> 0.58859700E+03</totfact>
</mgrwt>
</event>
<event>
 7    1  0.5400401E-006  0.1476973E+03  0.7546771E-02  0.1212170E+00
          2   -1    0    0  501    0  0.00000000000E+00  0.00000000000E+00  0.87664810627E+02  0.87664810627E+02  0.00000000000E+00 0. -1.
         -2   -1    0    0    0  501 -0.00000000000E+00 -0.00000000000E+00 -0.21603825195E+03  0.21603825195E+03  0.00000000000E+00 0.  1.
         23    2    1    2    0    0  0.35251765755E+02 -0.70342860088E+02 -0.99640688043E+02  0.17816500639E+03  0.12499479123E+03 0.  0.
          5    1    3    3  502    0 -0.15254992672E+01 -0.94810340154E+02 -0.38173388332E+02  0.10232607353E+03  0.47000000000E+01 0.  1.
         -5    1    3    3    0  502  0.36777265022E+02  0.24467480066E+02 -0.61467299711E+02  0.75838932858E+02  0.47000000000E+01 0.  1.
        -11    1    1    2    0    0 -0.21434381583E+02 -0.20658610543E+02 -0.11390701863E+02  0.31874111633E+02  0.00000000000E+00 0.  1.
         11    1    1    2    0    0 -0.13817384171E+02  0.91001470631E+02 -0.17342051421E+02  0.93663944556E+02  0.00000000000E+00 0. -1.
<mgrwt>
<rscale>  0 0.14086476E+03</rscale>
<asrwt>0</asrwt>
<pdfrwt beam="1">  1        2 0.13486894E-01 0.14769734E+03</pdfrwt>
<pdfrwt beam="2">  1       -2 0.33236654E-01 0.14769734E+03</pdfrwt>
<totfact> 0.36103408E+03</totfact>
</mgrwt>
</event>
<event>
 7    1  0.5400401E-006  0.1311816E+03  0.7546771E-02  0.1238899E+00
          1   -1    0    0  501    0  0.00000000000E+00  0.00000000000E+00  0.14583615797E+03  0.14583615797E+03  0.00000000000E+00 0. -1.
         -1   -1    0    0    0  501 -0.00000000000E+00 -0.00000000000E+00 -0.99955433646E+02  0.99955433646E+02  0.00000000000E+00 0.  1.
         23    2    1    2    0    0  0.31765273495E+02 -0.23976740929E+02 -0.93933898949E+01  0.13151751847E+03  0.12499882073E+03 0.  0.
          5    1    3    3  502    0 -0.69699611037E+01 -0.34239785160E+01  0.53742742563E+02  0.54503911464E+02  0.47000000000E+01 0.  1.
         -5    1    3    3    0  502  0.38735234599E+02 -0.20552762413E+02 -0.63136132458E+02  0.77013607006E+02  0.47000000000E+01 0.  1.
        -11    1    1    2    0    0  0.25240437618E+02  0.22720631950E+01  0.46077391558E+02  0.52586766160E+02  0.00000000000E+00 0. -1.
         11    1    1    2    0    0 -0.57005711114E+02  0.21704677734E+02  0.91967226572E+01  0.61687306983E+02  0.00000000000E+00 0.  1.
<mgrwt>
<rscale>  0 0.12258092E+03</rscale>
<asrwt>0</asrwt>
<pdfrwt beam="1">  1        1 0.22436332E-01 0.13118164E+03</pdfrwt>
<pdfrwt beam="2">  1       -1 0.15377759E-01 0.13118164E+03</pdfrwt>
<totfact> 0.64381732E+03</totfact>
</mgrwt>
</event>
<event>
 7    1  0.5400401E-006  0.1254706E+03  0.7546771E-02  0.1249456E+00
          2   -1    0    0  501    0  0.00000000000E+00  0.00000000000E+00  0.61966014305E+03  0.61966014305E+03  0.00000000000E+00 0. -1.
         -2   -1    0    0    0  501 -0.00000000000E+00 -0.00000000000E+00 -0.19160847875E+02  0.19160847875E+02  0.00000000000E+00 0.  1.
         23    2    1    2    0    0 -0.10088610553E+02 -0.32908994247E+01  0.35417471246E+03  0.37574271744E+03  0.12502100895E+03 0.  0.
          5    1    3    3  502    0  0.11125193743E+02  0.43591183643E+02  0.50887535562E+02  0.68085185634E+02  0.47000000000E+01 0. -1.
         -5    1    3    3    0  502 -0.21213804295E+02 -0.46882083068E+02  0.30328717690E+03  0.30765753180E+03  0.47000000000E+01 0. -1.
        -11    1    1    2    0    0  0.44347806518E+02 -0.51782037414E+01  0.19954991337E+03  0.20448400833E+03  0.00000000000E+00 0.  1.
         11    1    1    2    0    0 -0.34259195965E+02  0.84691031660E+01  0.46774669339E+02  0.58594265149E+02  0.00000000000E+00 0. -1.
<mgrwt>
<rscale>  0 0.11622589E+03</rscale>
<asrwt>0</asrwt>
<pdfrwt beam="1">  1        2 0.95332315E-01 0.12547057E+03</pdfrwt>
<pdfrwt beam="2">  1       -2 0.29478232E-02 0.12547057E+03</pdfrwt>
<totfact> 0.19809202E+04</totfact>
</mgrwt>
</event>
<event>
 6    1  0.5400401E-006  0.1740530E+03  0.7546771E-02  0.1185100E+00
          2   -1    0    0  501    0  0.00000000000E+00  0.00000000000E+00  0.32409601429E+03  0.32409601429E+03  0.00000000000E+00 0. -1.
         -2   -1    0    0    0  501 -0.00000000000E+00 -0.00000000000E+00 -0.76523797185E+02  0.76523797185E+02  0.00000000000E+00 0.  1.
          5    1    1    2  502    0  0.33725474928E+02 -0.53455294423E+02  0.51917984779E+02  0.81929502040E+02  0.47000000000E+01 0. -1.
         -5    1    1    2    0  502  0.46194038939E+02  0.98157067168E+02  0.47544486471E+02  0.11853804141E+03  0.47000000000E+01 0.  1.
        -11    1    1    2    0    0 -0.19431219898E+02 -0.26120872704E+02 -0.64074871060E+01  0.33180237922E+02  0.00000000000E+00 0.  1.
         11    1    1    2    0    0 -0.60488293969E+02 -0.18580900041E+02  0.15451723296E+03  0.16697203010E+03  0.00000000000E+00 0. -1.
<mgrwt>
<rscale>  0 0.16322784E+03</rscale>
<asrwt>0</asrwt>
<pdfrwt beam="1">  1        2 0.49860924E-01 0.17405302E+03</pdfrwt>
<pdfrwt beam="2">  1       -2 0.11772892E-01 0.17405302E+03</pdfrwt>
<totfact> 0.49861408E+03</totfact>
</mgrwt>
</event>
<event>
 7    1  0.5400401E-006  0.1471978E+03  0.7546771E-02  0.1212929E+00
          1   -1    0    0  501    0  0.00000000000E+00  0.00000000000E+00  0.44453398354E+02  0.44453398354E+02  0.00000000000E+00 0. -1.
         -1   -1    0    0    0  501 -0.00000000000E+00 -0.00000000000E+00 -0.44182900383E+03  0.44182900383E+03  0.00000000000E+00 0.  1.
         23    2    1    2    0    0 -0.35660064771E+02 -0.69081458322E+02 -0.28514465290E+03  0.32089667962E+03  0.12499327108E+03 0.  0.
          5    1    3    3  502    0 -0.56640179634E+02  0.15305372767E+02 -0.13599302028E+03  0.14818419602E+03  0.47000000000E+01 0. -1.
         -5    1    3    3    0  502  0.20980114863E+02 -0.84386831089E+02 -0.14915163262E+03  0.17271248360E+03  0.47000000000E+01 0. -1.
        -11    1    1    2    0    0  0.32753201672E+01  0.20076393959E+02 -0.10412108267E+03  0.10608953376E+03  0.00000000000E+00 0.  1.
         11    1    1    2    0    0  0.32384744604E+02  0.49005064363E+02 -0.81098699059E+01  0.59296188800E+02  0.00000000000E+00 0. -1.
<mgrwt>
<rscale>  0 0.14029738E+03</rscale>
<asrwt>0</asrwt>
<pdfrwt beam="1">  1        1 0.68389846E-02 0.14719785E+03</pdfrwt>
<pdfrwt beam="2">  1       -1 0.67973690E-01 0.14719785E+03</pdfrwt>
<totfact> 0.23840447E+03</totfact>
</mgrwt>
</event>
<event>
 7    1  0.5400401E-006  0.1324472E+03  0.7546771E-02  0.1237366E+00
          2   -1    0    0  501    0  0.00000000000E+00  0.00000000000E+00  0.15253490481E+03  0.15253490481E+03  0.00000000000E+00 0. -1.
         -2   -1    0    0    0  501 -0.00000000000E+00 -0.00000000000E+00 -0.94716231964E+02  0.94716231964E+02  0.00000000000E+00 0.  1.
         23    2    1    2    0    0  0.76791566652E+00  0.43786139690E+02  0.19185973373E+01  0.13246108303E+03  0.12499776709E+03 0.  0.
          5    1    3    3  502    0  0.10387802345E+02 -0.42466256094E+02  0.10247529772E+02  0.45148546052E+02  0.47000000000E+01 0.  1.
         -5    1    3    3    0  502 -0.96198866785E+01  0.86252395784E+02 -0.83289324351E+01  0.87312536979E+02  0.47000000000E+01 0.  1.
        -11    1    1    2    0    0 -0.27972552610E+02 -0.44395353328E+02  0.67256059118E+02  0.85304094771E+02  0.00000000000E+00 0. -1.
         11    1    1    2    0    0  0.27204636944E+02  0.60921363706E+00 -0.11355983612E+02  0.29485958969E+02  0.00000000000E+00 0.  1.
<mgrwt>
<rscale>  0 0.12354162E+03</rscale>
<asrwt>0</asrwt>
<pdfrwt beam="1">  1        2 0.23466909E-01 0.13244719E+03</pdfrwt>
<pdfrwt beam="2">  1       -2 0.14571728E-01 0.13244719E+03</pdfrwt>
<totfact> 0.78406265E+03</totfact>
</mgrwt>
</event>
<event>
 7    1  0.5400401E-006  0.1403151E+03  0.7546771E-02  0.1224520E+00
         -2   -1    0    0    0  501 -0.00000000000E+00  0.00000000000E+00  0.18540778792E+03  0.18540778792E+03  0.00000000000E+00 0. -1.
          2   -1    0    0  501    0  0.00000000000E+00 -0.00000000000E+00 -0.84838593511E+02  0.84838593511E+02  0.00000000000E+00 0.  1.
         23    2    1    2    0    0  0.56619463815E+02 -0.29282138226E+02  0.65875642171E+02  0.15500946826E+03  0.12500051086E+03 0.  0.
          5    1    3    3  502    0  0.57582778449E+02 -0.36105739170E+02  0.99375660677E+02  0.12048656651E+03  0.47000000000E+01 0. -1.
         -5    1    3    3    0  502 -0.96331463320E+00  0.68236009441E+01 -0.33500018506E+02  0.34522901744E+02  0.47000000000E+01 0. -1.
        -11    1    1    2    0    0 -0.40696610391E+01  0.33551138588E+02 -0.19998243254E+02  0.39270482233E+02  0.00000000000E+00 0.  1.
         11    1    1    2    0    0 -0.52549802776E+02 -0.42690003620E+01  0.54691795489E+02  0.75966430940E+02  0.00000000000E+00 0. -1.
<mgrwt>
<rscale>  0 0.13199830E+03</rscale>
<asrwt>0</asrwt>
<pdfrwt beam="2">  1        2 0.13052091E-01 0.14031513E+03</pdfrwt>
<pdfrwt beam="1">  1       -2 0.28524275E-01 0.14031513E+03</pdfrwt>
<totfact> 0.49337462E+03</totfact>
</mgrwt>
</event>
<event>
 7    1  0.5400401E-006  0.1374248E+03  0.7546771E-02  0.1230121E+00
         -2   -1    0    0    0  501 -0.00000000000E+00  0.00000000000E+00  0.13583907294E+03  0.13583907294E+03  0.00000000000E+00 0.  1.
          2   -1    0    0  501    0  0.00000000000E+00 -0.00000000000E+00 -0.10760657355E+03  0.10760657355E+03  0.00000000000E+00 0. -1.
         23    2    1    2    0    0  0.50674662564E+02 -0.26306583644E+02  0.10747720707E+02  0.13784445464E+03  0.12500248960E+03 0.  0.
          5    1    3    3  502    0  0.42409239825E+02 -0.70054851150E+02  0.32300665869E+02  0.88156955527E+02  0.47000000000E+01 0. -1.
         -5    1    3    3    0  502  0.82654227387E+01  0.43748267506E+02 -0.21552945162E+02  0.49687499112E+02  0.47000000000E+01 0. -1.
        -11    1    1    2    0    0  0.47093131856E+01 -0.25247586561E+02  0.15319733887E+02  0.29905058171E+02  0.00000000000E+00 0.  1.
         11    1    1    2    0    0 -0.55383975749E+02  0.51554170205E+02  0.21650448033E+01  0.75696133682E+02  0.00000000000E+00 0. -1.
<mgrwt>
<rscale>  0 0.12822038E+03</rscale>
<asrwt>0</asrwt>
<pdfrwt beam="2">  1        2 0.16554857E-01 0.13742482E+03</pdfrwt>
<pdfrwt beam="1">  1       -2 0.20898319E-01 0.13742482E+03</pdfrwt>
<totfact> 0.64070374E+03</totfact>
</mgrwt>
</event>
<event>
 7    1  0.5400401E-006  0.1255904E+03  0.7546771E-02  0.1249520E+00
         -2   -1    0    0    0  501 -0.00000000000E+00  0.00000000000E+00  0.37345969923E+02  0.37345969923E+02  0.00000000000E+00 0.  1.
          2   -1    0    0  501    0  0.00000000000E+00 -0.00000000000E+00 -0.37746354902E+03  0.37746354902E+03  0.00000000000E+00 0. -1.
         23    2    1    2    0    0  0.32322471724E+01 -0.11767071418E+02 -0.10988493559E+03  0.16687613304E+03  0.12499613321E+03 0.  0.
          5    1    3    3  502    0  0.43711252783E+01 -0.67806521136E+02 -0.71691893227E+02  0.98887049705E+02  0.47000000000E+01 0.  1.
         -5    1    3    3    0  502 -0.11388781060E+01  0.56039449719E+02 -0.38193042365E+02  0.67989083339E+02  0.47000000000E+01 0.  1.
        -11    1    1    2    0    0  0.22611889966E+02  0.44549450636E+02 -0.13524942056E+03  0.14418168012E+03  0.00000000000E+00 0. -1.
         11    1    1    2    0    0 -0.25844137139E+02 -0.32782379218E+02 -0.94983222937E+02  0.10375170578E+03  0.00000000000E+00 0.  1.
<mgrwt>
<rscale>  0 0.11618861E+03</rscale>
<asrwt>0</asrwt>
<pdfrwt beam="2">  1        2 0.58071317E-01 0.12559038E+03</pdfrwt>
<pdfrwt beam="1">  1       -2 0.57455337E-02 0.12559038E+03</pdfrwt>
<totfact> 0.12637139E+04</totfact>
</mgrwt>
</event>
<event>
 7    1  0.5400401E-006  0.1149289E+03  0.7546771E-02  0.1260635E+00
         -2   -1    0    0    0  501 -0.00000000000E+00  0.00000000000E+00  0.31710490340E+02  0.31710490340E+02  0.00000000000E+00 0.  1.
          2   -1    0    0  501    0  0.00000000000E+00 -0.00000000000E+00 -0.35670943658E+03  0.35670943658E+03  0.00000000000E+00 0. -1.
         23    2    1    2    0    0  0.13267026661E+02 -0.25765929175E+02 -0.15399013317E+03  0.19214998132E+03  0.11121491405E+03 0.  0.
          5    1    3    3  502    0  0.46589425421E+02 -0.43183514048E+02 -0.13605353656E+03  0.15022664629E+03  0.47000000000E+01 0. -1.
         -5    1    3    3    0  502 -0.33322398760E+02  0.17417584873E+02 -0.17936596608E+02  0.41923335028E+02  0.47000000000E+01 0.  1.
        -11    1    1    2    0    0 -0.25787464738E+02 -0.27091171301E+02 -0.41705844817E+02  0.56020553299E+02  0.00000000000E+00 0.  1.
         11    1    1    2    0    0  0.12520438077E+02  0.52857100476E+02 -0.12930296826E+03  0.14024939230E+03  0.00000000000E+00 0. -1.
<mgrwt>
<rscale>  0 0.10996464E+03</rscale>
<asrwt>0</asrwt>
<pdfrwt beam="2">  1        2 0.54878377E-01 0.11492891E+03</pdfrwt>
<pdfrwt beam="1">  1       -2 0.48785368E-02 0.11492891E+03</pdfrwt>
<totfact> 0.17022326E+04</totfact>
</mgrwt>
</event>
<event>
 7    1  0.5400401E-006  0.1418041E+03  0.7546771E-02  0.1220904E+00
         -1   -1    0    0    0  501 -0.00000000000E+00  0.00000000000E+00  0.77337680480E+02  0.77337680480E+02  0.00000000000E+00 0.  1.
          1   -1    0    0  501    0  0.00000000000E+00 -0.00000000000E+00 -0.21294041786E+03  0.21294041786E+03  0.00000000000E+00 0. -1.
         23    2    1    2    0    0  0.63991786853E+02  0.19637737932E+02 -0.72720186449E+02  0.15936319509E+03  0.12501125107E+03 0.  0.
          5    1    3    3  502    0  0.30128451856E+02  0.72214201308E+02 -0.32491640274E+02  0.84855236547E+02  0.47000000000E+01 0. -1.
         -5    1    3    3    0  502  0.33863334997E+02 -0.52576463376E+02 -0.40228546175E+02  0.74507958539E+02  0.47000000000E+01 0. -1.
        -11    1    1    2    0    0 -0.50764459690E+01 -0.35546369326E+02  0.86037774875E+01  0.36923429729E+02  0.00000000000E+00 0.  1.
         11    1    1    2    0    0 -0.58915340884E+02  0.15908631394E+02 -0.71486328413E+02  0.93991473519E+02  0.00000000000E+00 0. -1.
<mgrwt>
<rscale>  0 0.13451618E+03</rscale>
<asrwt>0</asrwt>
<pdfrwt beam="2">  1        1 0.32760064E-01 0.14180410E+03</pdfrwt>
<pdfrwt beam="1">  1       -1 0.11898105E-01 0.14180410E+03</pdfrwt>
<totfact> 0.60083828E+03</totfact>
</mgrwt>
</event>
<event>
 7    1  0.5400401E-006  0.1331680E+03  0.7546771E-02  0.1230340E+00
          1   -1    0    0  501    0  0.00000000000E+00  0.00000000000E+00  0.53435744325E+02  0.53435744325E+02  0.00000000000E+00 0. -1.
         -1   -1    0    0    0  501 -0.00000000000E+00 -0.00000000000E+00 -0.29525362905E+03  0.29525362905E+03  0.00000000000E+00 0.  1.
         23    2    1    2    0    0 -0.35659831528E+02 -0.59186712673E+02 -0.98702005789E+02  0.16575823642E+03  0.11383767589E+03 0.  0.
          5    1    3    3  502    0  0.20879835025E+02 -0.70380630615E+02 -0.41705613180E+02  0.84562691816E+02  0.47000000000E+01 0. -1.
         -5    1    3    3    0  502 -0.56539666553E+02  0.11193917941E+02 -0.56996392609E+02  0.81195544602E+02  0.47000000000E+01 0.  1.
        -11    1    1    2    0    0  0.17838229059E+02  0.20250458374E+02  0.61211444576E+01  0.27672222350E+02  0.00000000000E+00 0. -1.
         11    1    1    2    0    0  0.17821602469E+02  0.38936254299E+02 -0.14923702339E+03  0.15525891461E+03  0.00000000000E+00 0.  1.
<mgrwt>
<rscale>  0 0.12807550E+03</rscale>
<asrwt>0</asrwt>
<pdfrwt beam="1">  1        1 0.82208836E-02 0.13316797E+03</pdfrwt>
<pdfrwt beam="2">  1       -1 0.45423636E-01 0.13316797E+03</pdfrwt>
<totfact> 0.39344130E+03</totfact>
</mgrwt>
</event>
<event>
 6    1  0.5400401E-006  0.1486257E+03  0.7546771E-02  0.1223532E+00
         -2   -1    0    0    0  501 -0.00000000000E+00  0.00000000000E+00  0.33969714664E+03  0.33969714664E+03  0.00000000000E+00 0.  1.
          2   -1    0    0  501    0  0.00000000000E+00 -0.00000000000E+00 -0.45181826136E+02  0.45181826136E+02  0.00000000000E+00 0. -1.
          5    1    1    2  502    0  0.44737144276E+02 -0.62775343049E+02  0.63291842079E+02  0.99850403338E+02  0.47000000000E+01 0. -1.
         -5    1    1    2    0  502 -0.41854236431E+02  0.35797288663E+02  0.15218779443E+03  0.16191490900E+03  0.47000000000E+01 0.  1.
        -11    1    1    2    0    0 -0.27917294883E+02  0.43754521037E+02  0.77065405956E+02  0.92913455753E+02  0.00000000000E+00 0.  1.
         11    1    1    2    0    0  0.25034387038E+02 -0.16776466651E+02  0.19702780416E+01  0.30200204688E+02  0.00000000000E+00 0. -1.
<mgrwt>
<rscale>  0 0.13268054E+03</rscale>
<asrwt>0</asrwt>
<pdfrwt beam="2">  1        2 0.69510504E-02 0.14862572E+03</pdfrwt>
<pdfrwt beam="1">  1       -2 0.52261098E-01 0.14862572E+03</pdfrwt>
<totfact> 0.34424225E+03</totfact>
</mgrwt>
</event>
<event>
 7    1  0.5400401E-006  0.1562000E+03  0.7546771E-02  0.1200894E+00
          2   -1    0    0  501    0  0.00000000000E+00  0.00000000000E+00  0.94821940412E+03  0.94821940412E+03  0.00000000000E+00 0. -1.
         -2   -1    0    0    0  501 -0.00000000000E+00 -0.00000000000E+00 -0.21936402952E+02  0.21936402952E+02  0.00000000000E+00 0.  1.
         23    2    1    2    0    0 -0.91251096581E+02  0.21147811541E+02  0.47086936182E+03  0.49610119995E+03  0.12499780852E+03 0.  0.
          5    1    3    3  502    0 -0.34339713179E+02  0.61405435934E+01  0.18254643039E+02  0.39651534262E+02  0.47000000000E+01 0. -1.
         -5    1    3    3    0  502 -0.56911383402E+02  0.15007267947E+02  0.45261471878E+03  0.45644966569E+03  0.47000000000E+01 0. -1.
        -11    1    1    2    0    0 -0.14953805436E+02 -0.18340251242E+02  0.56955799140E+02  0.61676123163E+02  0.00000000000E+00 0.  1.
         11    1    1    2    0    0  0.10620490202E+03 -0.28075602985E+01  0.39845784021E+03  0.41237848396E+03  0.00000000000E+00 0. -1.
<mgrwt>
<rscale>  0 0.14965757E+03</rscale>
<asrwt>0</asrwt>
<pdfrwt beam="1">  1        2 0.14587988E+00 0.15620002E+03</pdfrwt>
<pdfrwt beam="2">  1       -2 0.33748320E-02 0.15620002E+03</pdfrwt>
<totfact> 0.97551538E+03</totfact>
</mgrwt>
</event>
<event>
 7    1  0.5400401E-006  0.1326254E+03  0.7546771E-02  0.1236424E+00
         -1   -1    0    0    0  501 -0.00000000000E+00  0.00000000000E+00  0.60375055677E+03  0.60375055677E+03  0.00000000000E+00 0.  1.
          1   -1    0    0  501    0  0.00000000000E+00 -0.00000000000E+00 -0.25737301183E+02  0.25737301183E+02  0.00000000000E+00 0. -1.
         23    2    1    2    0    0  0.16913939357E+02 -0.40973214504E+02  0.42893510547E+03  0.44897084255E+03  0.12499842842E+03 0.  0.
          5    1    3    3  502    0  0.24338282267E+02  0.17275522899E+02  0.20978019825E+02  0.36782645241E+02  0.47000000000E+01 0. -1.
         -5    1    3    3    0  502 -0.74243429101E+01 -0.58248737403E+02  0.40795708564E+03  0.41218819731E+03  0.47000000000E+01 0. -1.
        -11    1    1    2    0    0 -0.47594775829E+02  0.49803971734E+02  0.11297984748E+03  0.13232590156E+03  0.00000000000E+00 0.  1.
         11    1    1    2    0    0  0.30680836471E+02 -0.88307572298E+01  0.36098302635E+02  0.48191113838E+02  0.00000000000E+00 0. -1.
<mgrwt>
<rscale>  0 0.12413692E+03</rscale>
<asrwt>0</asrwt>
<pdfrwt beam="2">  1        1 0.39595853E-02 0.13262539E+03</pdfrwt>
<pdfrwt beam="1">  1       -1 0.92884690E-01 0.13262539E+03</pdfrwt>
<totfact> 0.26399049E+03</totfact>
</mgrwt>
</event>
<event>
 7    1  0.5400401E-006  0.1314526E+03  0.7546771E-02  0.1238973E+00
         -2   -1    0    0    0  501 -0.00000000000E+00  0.00000000000E+00  0.18055585691E+02  0.18055585691E+02  0.00000000000E+00 0.  1.
          2   -1    0    0  501    0  0.00000000000E+00 -0.00000000000E+00 -0.74222692230E+03  0.74222692230E+03  0.00000000000E+00 0. -1.
         23    2    1    2    0    0  0.18626019903E+02  0.36323785389E+02 -0.44404114261E+03  0.46308998026E+03  0.12495378140E+03 0.  0.
          5    1    3    3  502    0  0.28593190132E+02  0.55090324583E+02 -0.43515254897E+03  0.43958201198E+03  0.47000000000E+01 0. -1.
         -5    1    3    3    0  502 -0.99671702292E+01 -0.18766539194E+02 -0.88885936404E+01  0.23507968279E+02  0.47000000000E+01 0. -1.
        -11    1    1    2    0    0 -0.43981191354E+02  0.47783218561E+01 -0.81043667594E+02  0.92332299927E+02  0.00000000000E+00 0.  1.
         11    1    1    2    0    0  0.25355171451E+02 -0.41102107245E+02 -0.19908652641E+03  0.20486022781E+03  0.00000000000E+00 0. -1.
<mgrwt>
<rscale>  0 0.12253470E+03</rscale>
<asrwt>0</asrwt>
<pdfrwt beam="2">  1        2 0.11418877E+00 0.13145263E+03</pdfrwt>
<pdfrwt beam="1">  1       -2 0.27777822E-02 0.13145263E+03</pdfrwt>
<totfact> 0.17551355E+04</totfact>
</mgrwt>
</event>
<event>
 7    1  0.5400401E-006  0.1596935E+03  0.7546771E-02  0.1196967E+00
         -2   -1    0    0    0  501 -0.00000000000E+00  0.00000000000E+00  0.18551575746E+02  0.18551575746E+02  0.00000000000E+00 0.  1.
          2   -1    0    0  501    0  0.00000000000E+00 -0.00000000000E+00 -0.11966668735E+04  0.11966668735E+04  0.00000000000E+00 0. -1.
         23    2    1    2    0    0  0.64974083555E+02  0.75193858309E+02 -0.53833982660E+03  0.56152630513E+03  0.12500509825E+03 0.  0.
          5    1    3    3  502    0  0.53820874817E+02  0.10776403043E+03 -0.46500553119E+03  0.48037694247E+03  0.47000000000E+01 0.  1.
         -5    1    3    3    0  502  0.11153208738E+02 -0.32570172118E+02 -0.73334295413E+02  0.81149362663E+02  0.47000000000E+01 0.  1.
        -11    1    1    2    0    0 -0.11566870898E+02 -0.77733953821E+02 -0.32213310279E+03  0.33158120572E+03  0.00000000000E+00 0.  1.
         11    1    1    2    0    0 -0.53407212657E+02  0.25400955119E+01 -0.31764236838E+03  0.32211093841E+03  0.00000000000E+00 0. -1.
<mgrwt>
<rscale>  0 0.15288922E+03</rscale>
<asrwt>0</asrwt>
<pdfrwt beam="2">  1        2 0.18410264E+00 0.15969353E+03</pdfrwt>
<pdfrwt beam="1">  1       -2 0.28540879E-02 0.15969353E+03</pdfrwt>
<totfact> 0.89553787E+03</totfact>
</mgrwt>
</event>
<event>
 7    1  0.5400401E-006  0.1349588E+03  0.7546771E-02  0.1230548E+00
         -2   -1    0    0    0  501 -0.00000000000E+00  0.00000000000E+00  0.13163481332E+03  0.13163481332E+03  0.00000000000E+00 0.  1.
          2   -1    0    0  501    0  0.00000000000E+00 -0.00000000000E+00 -0.12772866778E+03  0.12772866778E+03  0.00000000000E+00 0. -1.
         23    2    1    2    0    0  0.16584192898E+02  0.48077395000E+02  0.45916018046E+02  0.14255582255E+03  0.12500964149E+03 0.  0.
          5    1    3    3  502    0 -0.25482183388E+02  0.10223510550E+02  0.74098523404E+02  0.79161499536E+02  0.47000000000E+01 0.  1.
         -5    1    3    3    0  502  0.42066376286E+02  0.37853884450E+02 -0.28182505358E+02  0.63394323011E+02  0.47000000000E+01 0.  1.
        -11    1    1    2    0    0  0.37078699492E+02 -0.40111476675E+02 -0.18371120823E+02  0.57630361767E+02  0.00000000000E+00 0.  1.
         11    1    1    2    0    0 -0.53662892390E+02 -0.79659183252E+01 -0.23638751683E+02  0.59177296792E+02  0.00000000000E+00 0. -1.
<mgrwt>
<rscale>  0 0.12793794E+03</rscale>
<asrwt>0</asrwt>
<pdfrwt beam="2">  1        2 0.19650564E-01 0.13495882E+03</pdfrwt>
<pdfrwt beam="1">  1       -2 0.20251510E-01 0.13495882E+03</pdfrwt>
<totfact> 0.55471479E+03</totfact>
</mgrwt>
</event>
<event>
 6    1  0.5400401E-006  0.1501354E+03  0.7546771E-02  0.1221637E+00
         -1   -1    0    0    0  501 -0.00000000000E+00  0.00000000000E+00  0.66341760427E+02  0.66341760427E+02  0.00000000000E+00 0.  1.
          1   -1    0    0  501    0  0.00000000000E+00 -0.00000000000E+00 -0.22759530342E+03  0.22759530342E+03  0.00000000000E+00 0. -1.
          5    1    1    2  502    0 -0.14231664021E+02 -0.62706426081E+02 -0.10553909994E+02  0.65330782552E+02  0.47000000000E+01 0. -1.
         -5    1    1    2    0  502 -0.11372204948E+02  0.74346539949E+02 -0.80452270067E+02  0.11023335614E+03  0.47000000000E+01 0.  1.
        -11    1    1    2    0    0  0.13274195007E+02 -0.51521373307E+02 -0.44205939006E+02  0.69172402040E+02  0.00000000000E+00 0. -1.
         11    1    1    2    0    0  0.12329673962E+02  0.39881259440E+02 -0.26041423929E+02  0.49200523115E+02  0.00000000000E+00 0.  1.
<mgrwt>
<rscale>  0 0.13400095E+03</rscale>
<asrwt>0</asrwt>
<pdfrwt beam="2">  1        1 0.35014662E-01 0.15013541E+03</pdfrwt>
<pdfrwt beam="1">  1       -1 0.10206425E-01 0.15013541E+03</pdfrwt>
<totfact> 0.70287149E+03</totfact>
</mgrwt>
</event>
<event>
 7    1  0.5400401E-006  0.1760592E+03  0.7546771E-02  0.1177959E+00
          1   -1    0    0  501    0  0.00000000000E+00  0.00000000000E+00  0.17746652647E+03  0.17746652647E+03  0.00000000000E+00 0. -1.
         -1   -1    0    0    0  501 -0.00000000000E+00 -0.00000000000E+00 -0.15508978899E+03  0.15508978899E+03  0.00000000000E+00 0.  1.
         23    2    1    2    0    0 -0.51677958616E+02 -0.11270091616E+03 -0.10580686567E+02  0.17637682866E+03  0.12499890739E+03 0.  0.
          5    1    3    3  502    0 -0.44072236638E+02 -0.40183110118E+02  0.52691894944E+02  0.79721829970E+02  0.47000000000E+01 0. -1.
         -5    1    3    3    0  502 -0.76057219776E+01 -0.72517806046E+02 -0.63272581511E+02  0.96654998689E+02  0.47000000000E+01 0. -1.
        -11    1    1    2    0    0  0.23280557572E+02  0.92663426446E+02 -0.15247314369E+02  0.96752134638E+02  0.00000000000E+00 0.  1.
         11    1    1    2    0    0  0.28397401044E+02  0.20037489718E+02  0.48204738413E+02  0.59427352168E+02  0.00000000000E+00 0. -1.
<mgrwt>
<rscale>  0 0.16989363E+03</rscale>
<asrwt>0</asrwt>
<pdfrwt beam="1">  1        1 0.27302542E-01 0.17605918E+03</pdfrwt>
<pdfrwt beam="2">  1       -1 0.23859968E-01 0.17605918E+03</pdfrwt>
<totfact> 0.25236524E+03</totfact>
</mgrwt>
</event>
<event>
 7    1  0.5400401E-006  0.1772987E+03  0.7546771E-02  0.1177720E+00
          2   -1    0    0  501    0  0.00000000000E+00  0.00000000000E+00  0.39855158728E+02  0.39855158728E+02  0.00000000000E+00 0. -1.
         -2   -1    0    0    0  501 -0.00000000000E+00 -0.00000000000E+00 -0.83035500818E+03  0.83035500818E+03  0.00000000000E+00 0.  1.
         23    2    1    2    0    0  0.93828298209E+02 -0.83703382940E+02 -0.61046029308E+03  0.63568592446E+03  0.12499927707E+03 0.  0.
          5    1    3    3  502    0  0.41500919590E+02 -0.93630420658E+01 -0.44316640210E+03  0.44522864108E+03  0.47000000000E+01 0. -1.
         -5    1    3    3    0  502  0.52327378618E+02 -0.74340340875E+02 -0.16729389098E+03  0.19045728338E+03  0.47000000000E+01 0. -1.
        -11    1    1    2    0    0 -0.49492675772E+02  0.92561314859E+02 -0.13001947545E+03  0.16709932962E+03  0.00000000000E+00 0. -1.
         11    1    1    2    0    0 -0.44335622437E+02 -0.88579319188E+01 -0.50020080927E+02  0.67424912834E+02  0.00000000000E+00 0.  1.
<mgrwt>
<rscale>  0 0.17012274E+03</rscale>
<asrwt>0</asrwt>
<pdfrwt beam="1">  1        2 0.61315632E-02 0.17729869E+03</pdfrwt>
<pdfrwt beam="2">  1       -2 0.12774692E+00 0.17729869E+03</pdfrwt>
<totfact> 0.56502915E+02</totfact>
</mgrwt>
</event>
<event>
 7    1  0.5400401E-006  0.1975935E+03  0.7546771E-02  0.1156377E+00
          1   -1    0    0  501    0  0.00000000000E+00  0.00000000000E+00  0.78114555633E+03  0.78114555633E+03  0.00000000000E+00 0. -1.
         -1   -1    0    0    0  501 -0.00000000000E+00 -0.00000000000E+00 -0.45070747968E+02  0.45070747968E+02  0.00000000000E+00 0.  1.
         23    2    1    2    0    0  0.81435526105E+02  0.12952145109E+03  0.37098194249E+03  0.42032223702E+03  0.12504251309E+03 0.  0.
          5    1    3    3  502    0 -0.22316927793E+02  0.16952147686E+02  0.14215490997E+03  0.14496733772E+03  0.47000000000E+01 0.  1.
         -5    1    3    3    0  502  0.10375245390E+03  0.11256930340E+03  0.22882703252E+03  0.27535489930E+03  0.47000000000E+01 0.  1.
        -11    1    1    2    0    0 -0.56031564626E+02 -0.42690691894E+02  0.79034221385E+02  0.10586991810E+03  0.00000000000E+00 0.  1.
         11    1    1    2    0    0 -0.25403961479E+02 -0.86830759194E+02  0.28605864449E+03  0.30002414918E+03  0.00000000000E+00 0. -1.
<mgrwt>
<rscale>  0 0.19232885E+03</rscale>
<asrwt>0</asrwt>
<pdfrwt beam="1">  1        1 0.12017623E+00 0.19759347E+03</pdfrwt>
<pdfrwt beam="2">  1       -1 0.69339618E-02 0.19759347E+03</pdfrwt>
<totfact> 0.25435064E+03</totfact>
</mgrwt>
</event>
<event>
 7    1  0.5400401E-006  0.1276972E+03  0.7546771E-02  0.1244584E+00
          1   -1    0    0  501    0  0.00000000000E+00  0.00000000000E+00  0.49459312108E+02  0.49459312108E+02  0.00000000000E+00 0. -1.
         -1   -1    0    0    0  501 -0.00000000000E+00 -0.00000000000E+00 -0.25489298811E+03  0.25489298811E+03  0.00000000000E+00 0.  1.
         23    2    1    2    0    0  0.22957910521E+02  0.12293951229E+02 -0.11016049261E+03  0.16864731167E+03  0.12501349810E+03 0.  0.
          5    1    3    3  502    0  0.73381801045E+01  0.40480994163E+01  0.27834944805E+02  0.29446734088E+02  0.47000000000E+01 0.  1.
         -5    1    3    3    0  502  0.15619730416E+02  0.82458518125E+01 -0.13799543742E+03  0.13920057758E+03  0.47000000000E+01 0.  1.
        -11    1    1    2    0    0 -0.37588242117E+01 -0.33950156805E+02  0.20015741385E+01  0.34216198000E+02  0.00000000000E+00 0. -1.
         11    1    1    2    0    0 -0.19199086309E+02  0.21656205576E+02 -0.97274757524E+02  0.10148879055E+03  0.00000000000E+00 0.  1.
<mgrwt>
<rscale>  0 0.11910304E+03</rscale>
<asrwt>0</asrwt>
<pdfrwt beam="1">  1        1 0.76091248E-02 0.12769723E+03</pdfrwt>
<pdfrwt beam="2">  1       -1 0.39214306E-01 0.12769723E+03</pdfrwt>
<totfact> 0.56427804E+03</totfact>
</mgrwt>
</event>
<event>
 7    1  0.5400401E-006  0.1756461E+03  0.7546771E-02  0.1178221E+00
         -2   -1    0    0    0  501 -0.00000000000E+00  0.00000000000E+00  0.44705186514E+03  0.44705186514E+03  0.00000000000E+00 0.  1.
          2   -1    0    0  501    0  0.00000000000E+00 -0.00000000000E+00 -0.60340833543E+02  0.60340833543E+02  0.00000000000E+00 0. -1.
         23    2    1    2    0    0 -0.12300311748E+03 -0.98246160540E+01  0.20551293338E+03  0.27034632061E+03  0.12500110915E+03 0.  0.
          5    1    3    3  502    0 -0.11208952622E+03  0.34322406398E+02  0.95719737685E+02  0.15141481979E+03  0.47000000000E+01 0. -1.
         -5    1    3    3    0  502 -0.10913591262E+02 -0.44147022452E+02  0.10979319570E+03  0.11893150082E+03  0.47000000000E+01 0. -1.
        -11    1    1    2    0    0  0.75661283756E+02 -0.33039448260E+02  0.67507942336E+02  0.10664688124E+03  0.00000000000E+00 0. -1.
         11    1    1    2    0    0  0.47341833725E+02  0.42864064314E+02  0.11369015588E+03  0.13039949683E+03  0.00000000000E+00 0.  1.
<mgrwt>
<rscale>  0 0.16964223E+03</rscale>
<asrwt>0</asrwt>
<pdfrwt beam="2">  1        2 0.92832055E-02 0.17564614E+03</pdfrwt>
<pdfrwt beam="1">  1       -2 0.68777208E-01 0.17564614E+03</pdfrwt>
<totfact> 0.13692542E+03</totfact>
</mgrwt>
</event>
<event>
 7    1  0.5400401E-006  0.3349159E+03  0.7546771E-02  0.1070151E+00
          3   -1    0    0  501    0  0.00000000000E+00  0.00000000000E+00  0.12953574977E+04  0.12953574977E+04  0.00000000000E+00 0. -1.
         -3   -1    0    0    0  501 -0.00000000000E+00 -0.00000000000E+00 -0.11504836321E+03  0.11504836321E+03  0.00000000000E+00 0.  1.
         23    2    1    2    0    0 -0.27965388439E+03 -0.13542485361E+03  0.23003089570E+03  0.40630394923E+03  0.12499000022E+03 0.  0.
          5    1    3    3  502    0 -0.27541450987E+03 -0.13684428797E+03  0.24288118339E+03  0.39190926327E+03  0.47000000000E+01 0.  1.
         -5    1    3    3    0  502 -0.42393745230E+01  0.14194343587E+01 -0.12850287686E+02  0.14394685959E+02  0.47000000000E+01 0.  1.
        -11    1    1    2    0    0  0.11186818340E+03  0.95870315800E+02  0.35477131582E+03  0.38414618889E+03  0.00000000000E+00 0.  1.
         11    1    1    2    0    0  0.16778570099E+03  0.39554537806E+02  0.59550692296E+03  0.61995572278E+03  0.00000000000E+00 0. -1.
<mgrwt>
<rscale>  0 0.33223827E+03</rscale>
<asrwt>0</asrwt>
<pdfrwt beam="1">  1        3 0.19928576E+00 0.33491594E+03</pdfrwt>
<pdfrwt beam="2">  1       -3 0.17699749E-01 0.33491594E+03</pdfrwt>
<totfact> 0.11214477E+01</totfact>
</mgrwt>
</event>
<event>
 7    1  0.5400401E-006  0.1882321E+03  0.7546771E-02  0.1165223E+00
          3   -1    0    0  501    0  0.00000000000E+00  0.00000000000E+00  0.31178375452E+03  0.31178375452E+03  0.00000000000E+00 0. -1.
         -3   -1    0    0    0  501 -0.00000000000E+00 -0.00000000000E+00 -0.14088319674E+03  0.14088319674E+03  0.00000000000E+00 0.  1.
         23    2    1    2    0    0 -0.52895546339E+02 -0.13041080920E+03 -0.30853590058E+02  0.19074402873E+03  0.12500568987E+03 0.  0.
          5    1    3    3  502    0  0.98572940742E+01 -0.10067196410E+01  0.31921748052E+02  0.33753040302E+02  0.47000000000E+01 0.  1.
         -5    1    3    3    0  502 -0.62752840413E+02 -0.12940408955E+03 -0.62775338110E+02  0.15699098843E+03  0.47000000000E+01 0.  1.
        -11    1    1    2    0    0  0.46647233867E+02  0.15968966572E+02  0.39009161361E+02  0.62870398367E+02  0.00000000000E+00 0.  1.
         11    1    1    2    0    0  0.62483124718E+01  0.11444184262E+03  0.16274498648E+03  0.19905252416E+03  0.00000000000E+00 0. -1.
<mgrwt>
<rscale>  0 0.18269165E+03</rscale>
<asrwt>0</asrwt>
<pdfrwt beam="1">  1        3 0.47966731E-01 0.18823215E+03</pdfrwt>
<pdfrwt beam="2">  1       -3 0.21674338E-01 0.18823215E+03</pdfrwt>
<totfact> 0.20495588E+02</totfact>
</mgrwt>
</event>
<event>
 7    1  0.5400401E-006  0.1757166E+03  0.7546771E-02  0.1178054E+00
          2   -1    0    0  501    0  0.00000000000E+00  0.00000000000E+00  0.89822230206E+03  0.89822230206E+03  0.00000000000E+00 0. -1.
         -2   -1    0    0    0  501 -0.00000000000E+00 -0.00000000000E+00 -0.39903069867E+02  0.39903069867E+02  0.00000000000E+00 0.  1.
         23    2    1    2    0    0 -0.12350074497E+03 -0.87916057337E+00  0.21941501153E+03  0.28110363466E+03  0.12499239658E+03 0.  0.
          5    1    3    3  502    0  0.60519243690E+01  0.14881645656E+02 -0.82358395921E+01  0.18654978419E+02  0.47000000000E+01 0.  1.
         -5    1    3    3    0  502 -0.12955266934E+03 -0.15760806230E+02  0.22765085112E+03  0.26244865624E+03  0.47000000000E+01 0.  1.
        -11    1    1    2    0    0  0.92372600342E+02  0.38300207028E+02  0.49818091508E+03  0.50811792657E+03  0.00000000000E+00 0.  1.
         11    1    1    2    0    0  0.31128144630E+02 -0.37421046455E+02  0.14072330559E+03  0.14890381070E+03  0.00000000000E+00 0. -1.
<mgrwt>
<rscale>  0 0.16980261E+03</rscale>
<asrwt>0</asrwt>
<pdfrwt beam="1">  1        2 0.13818803E+00 0.17571655E+03</pdfrwt>
<pdfrwt beam="2">  1       -2 0.61389345E-02 0.17571655E+03</pdfrwt>
<totfact> 0.42878440E+03</totfact>
</mgrwt>
</event>
<event>
 7    1  0.5400401E-006  0.1344755E+03  0.7546771E-02  0.1230722E+00
          1   -1    0    0  501    0  0.00000000000E+00  0.00000000000E+00  0.13148425688E+03  0.13148425688E+03  0.00000000000E+00 0. -1.
         -1   -1    0    0    0  501 -0.00000000000E+00 -0.00000000000E+00 -0.11635980668E+03  0.11635980668E+03  0.00000000000E+00 0.  1.
         23    2    1    2    0    0 -0.29890584664E+01  0.49509510456E+02 -0.11244835814E+02  0.13494485255E+03  0.12499416306E+03 0.  0.
          5    1    3    3  502    0  0.72894122929E+01  0.90682873630E+02 -0.13019088788E+01  0.91106004566E+02  0.47000000000E+01 0.  1.
         -5    1    3    3    0  502 -0.10278470759E+02 -0.41173363174E+02 -0.99429269350E+01  0.43838847980E+02  0.47000000000E+01 0.  1.
        -11    1    1    2    0    0 -0.21090128206E+02  0.23205345670E+02 -0.14886418969E+01  0.31392636559E+02  0.00000000000E+00 0.  1.
         11    1    1    2    0    0  0.24079186672E+02 -0.72714856126E+02  0.27857927904E+02  0.81506574455E+02  0.00000000000E+00 0. -1.
<mgrwt>
<rscale>  0 0.12782325E+03</rscale>
<asrwt>0</asrwt>
<pdfrwt beam="1">  1        1 0.20228347E-01 0.13447553E+03</pdfrwt>
<pdfrwt beam="2">  1       -1 0.17901509E-01 0.13447553E+03</pdfrwt>
<totfact> 0.57842236E+03</totfact>
</mgrwt>
</event>
<event>
 7    1  0.5400401E-006  0.1258615E+03  0.7546771E-02  0.1249426E+00
         -1   -1    0    0    0  501 -0.00000000000E+00  0.00000000000E+00  0.12368412636E+03  0.12368412636E+03  0.00000000000E+00 0.  1.
          1   -1    0    0  501    0  0.00000000000E+00 -0.00000000000E+00 -0.95653403927E+02  0.95653403927E+02  0.00000000000E+00 0. -1.
         23    2    1    2    0    0  0.90443494147E+01  0.11624399692E+02  0.12970754994E+02  0.12652812809E+03  0.12499679911E+03 0.  0.
          5    1    3    3  502    0  0.30973047340E+00 -0.54276523308E+02 -0.11231757385E+02  0.55626246407E+02  0.47000000000E+01 0.  1.
         -5    1    3    3    0  502  0.87346189413E+01  0.65900923000E+02  0.24202512379E+02  0.70901881680E+02  0.47000000000E+01 0.  1.
        -11    1    1    2    0    0  0.82036602438E+01 -0.48004743911E+02  0.19170941472E+02  0.52338135965E+02  0.00000000000E+00 0.  1.
         11    1    1    2    0    0 -0.17248009659E+02  0.36380344220E+02 -0.41109740376E+01  0.40471266230E+02  0.00000000000E+00 0. -1.
<mgrwt>
<rscale>  0 0.11624364E+03</rscale>
<asrwt>0</asrwt>
<pdfrwt beam="2">  1        1 0.14715908E-01 0.12586154E+03</pdfrwt>
<pdfrwt beam="1">  1       -1 0.19028327E-01 0.12586154E+03</pdfrwt>
<totfact> 0.78525639E+03</totfact>
</mgrwt>
</event>
<event>
 7    1  0.5400401E-006  0.1999934E+03  0.7546771E-02  0.1157172E+00
         -2   -1    0    0    0  501 -0.00000000000E+00  0.00000000000E+00  0.30283625149E+03  0.30283625149E+03  0.00000000000E+00 0.  1.
          2   -1    0    0  501    0  0.00000000000E+00 -0.00000000000E+00 -0.12898188509E+03  0.12898188509E+03  0.00000000000E+00 0. -1.
         23    2    1    2    0    0 -0.13722248305E+03 -0.74455043931E+02  0.17219111798E+03  0.26390741971E+03  0.12499512648E+03 0.  0.
          5    1    3    3  502    0 -0.14324772740E+03 -0.20437574783E+02  0.13438966056E+03  0.19753550753E+03  0.47000000000E+01 0. -1.
         -5    1    3    3    0  502  0.60252443543E+01 -0.54017469148E+02  0.37801457417E+02  0.66371912173E+02  0.47000000000E+01 0. -1.
        -11    1    1    2    0    0  0.86328598671E+02  0.38096372836E+02 -0.28360851468E+02  0.98530698098E+02  0.00000000000E+00 0. -1.
         11    1    1    2    0    0  0.50893884380E+02  0.36358671095E+02  0.30024099890E+02  0.69380018775E+02  0.00000000000E+00 0.  1.
<mgrwt>
<rscale>  0 0.19143704E+03</rscale>
<asrwt>0</asrwt>
<pdfrwt beam="2">  1        2 0.19843367E-01 0.19999336E+03</pdfrwt>
<pdfrwt beam="1">  1       -2 0.46590192E-01 0.19999336E+03</pdfrwt>
<totfact> 0.12287609E+03</totfact>
</mgrwt>
</event>
<event>
 7    1  0.5400401E-006  0.1841547E+03  0.7546771E-02  0.1169411E+00
          1   -1    0    0  501    0  0.00000000000E+00  0.00000000000E+00  0.83953714116E+03  0.83953714116E+03  0.00000000000E+00 0. -1.
         -1   -1    0    0    0  501 -0.00000000000E+00 -0.00000000000E+00 -0.36219945590E+02  0.36219945590E+02  0.00000000000E+00 0.  1.
         23    2    1    2    0    0  0.31161358652E+02 -0.13161818979E+03  0.37374104572E+03  0.41664770530E+03  0.12497424903E+03 0.  0.
          5    1    3    3  502    0 -0.85724601627E+01 -0.70399424657E+02  0.55683249062E+02  0.90289978909E+02  0.47000000000E+01 0.  1.
         -5    1    3    3    0  502  0.39733818815E+02 -0.61218765137E+02  0.31805779665E+03  0.32635772639E+03  0.47000000000E+01 0.  1.
        -11    1    1    2    0    0 -0.61836073054E+02  0.96468428277E+02  0.32468854570E+03  0.34431454993E+03  0.00000000000E+00 0. -1.
         11    1    1    2    0    0  0.30674714402E+02  0.35149761517E+02  0.10488760415E+03  0.11479483152E+03  0.00000000000E+00 0.  1.
<mgrwt>
<rscale>  0 0.17834849E+03</rscale>
<asrwt>0</asrwt>
<pdfrwt beam="1">  1        1 0.12915955E+00 0.18415467E+03</pdfrwt>
<pdfrwt beam="2">  1       -1 0.55723000E-02 0.18415467E+03</pdfrwt>
<totfact> 0.31586980E+03</totfact>
</mgrwt>
</event>
<event>
 7    1  0.5400401E-006  0.1371399E+03  0.7546771E-02  0.1224646E+00
         -1   -1    0    0    0  501 -0.00000000000E+00  0.00000000000E+00  0.32214650786E+02  0.32214650786E+02  0.00000000000E+00 0.  1.
          1   -1    0    0  501    0  0.00000000000E+00 -0.00000000000E+00 -0.50404220620E+03  0.50404220620E+03  0.00000000000E+00 0. -1.
         23    2    1    2    0    0  0.30465853189E+02  0.66620626403E+02 -0.26756160943E+03  0.30066021734E+03  0.11593478932E+03 0.  0.
          5    1    3    3  502    0 -0.12202622504E+02  0.82595204809E+02 -0.21637882274E+03  0.23197576766E+03  0.47000000000E+01 0.  1.
         -5    1    3    3    0  502  0.42668475693E+02 -0.15974578407E+02 -0.51182786693E+02  0.68684449673E+02  0.47000000000E+01 0. -1.
        -11    1    1    2    0    0 -0.30126810413E+02  0.89986074375E+01 -0.11184954154E+03  0.11618485092E+03  0.00000000000E+00 0.  1.
         11    1    1    2    0    0 -0.33904277597E+00 -0.75619233840E+02 -0.92416404440E+02  0.11941178872E+03  0.00000000000E+00 0. -1.
<mgrwt>
<rscale>  0 0.13191183E+03</rscale>
<asrwt>0</asrwt>
<pdfrwt beam="2">  1        1 0.77544952E-01 0.13713990E+03</pdfrwt>
<pdfrwt beam="1">  1       -1 0.49561003E-02 0.13713990E+03</pdfrwt>
<totfact> 0.76289298E+03</totfact>
</mgrwt>
</event>
<event>
 6    1  0.5400401E-006  0.1304527E+03  0.7546771E-02  0.1242771E+00
         -1   -1    0    0    0  501 -0.00000000000E+00  0.00000000000E+00  0.62611180520E+02  0.62611180520E+02  0.00000000000E+00 0.  1.
          1   -1    0    0  501    0  0.00000000000E+00 -0.00000000000E+00 -0.22324539597E+03  0.22324539597E+03  0.00000000000E+00 0. -1.
          5    1    1    2  502    0  0.10789280796E+02  0.59799107174E+02  0.13602078626E+02  0.62445563028E+02  0.47000000000E+01 0. -1.
         -5    1    1    2    0  502 -0.24815718854E+02 -0.38085455412E+02 -0.61286612545E+02  0.76449072547E+02  0.47000000000E+01 0.  1.
        -11    1    1    2    0    0 -0.23404972773E+02 -0.42487446143E+02 -0.77266146959E+02  0.91230659847E+02  0.00000000000E+00 0.  1.
         11    1    1    2    0    0  0.37431410832E+02  0.20773794381E+02 -0.35683534574E+02  0.55731281069E+02  0.00000000000E+00 0. -1.
<mgrwt>
<rscale>  0 0.12019805E+03</rscale>
<asrwt>0</asrwt>
<pdfrwt beam="2">  1        1 0.34345447E-01 0.13045269E+03</pdfrwt>
<pdfrwt beam="1">  1       -1 0.96324890E-02 0.13045269E+03</pdfrwt>
<totfact> 0.77886501E+03</totfact>
</mgrwt>
</event>
<event>
 7    1  0.5400401E-006  0.1381405E+03  0.7546771E-02  0.1227019E+00
         -2   -1    0    0    0  501 -0.00000000000E+00  0.00000000000E+00  0.11962522849E+03  0.11962522849E+03  0.00000000000E+00 0.  1.
          2   -1    0    0  501    0  0.00000000000E+00 -0.00000000000E+00 -0.13594320685E+03  0.13594320685E+03  0.00000000000E+00 0. -1.
         23    2    1    2    0    0  0.56115439778E+02  0.17551471350E+02  0.21659849284E+02  0.13982827417E+03  0.12500320179E+03 0.  0.
          5    1    3    3  502    0  0.86649620221E+02 -0.13604943233E+02 -0.58654158335E+01  0.88032631834E+02  0.47000000000E+01 0.  1.
         -5    1    3    3    0  502 -0.30534180443E+02  0.31156414583E+02  0.27525265118E+02  0.51795642334E+02  0.47000000000E+01 0.  1.
        -11    1    1    2    0    0 -0.35417400628E+02  0.18731070025E+02  0.19602777374E+02  0.44603969916E+02  0.00000000000E+00 0.  1.
         11    1    1    2    0    0 -0.20698039150E+02 -0.36282541375E+02 -0.57580605014E+02  0.71136191261E+02  0.00000000000E+00 0. -1.
<mgrwt>
<rscale>  0 0.13029493E+03</rscale>
<asrwt>0</asrwt>
<pdfrwt beam="2">  1        2 0.20914340E-01 0.13814050E+03</pdfrwt>
<pdfrwt beam="1">  1       -2 0.18403881E-01 0.13814050E+03</pdfrwt>
<totfact> 0.60837532E+03</totfact>
</mgrwt>
</event>
<event>
 7    1  0.5400401E-006  0.1448501E+03  0.7546771E-02  0.1213301E+00
          3   -1    0    0  501    0  0.00000000000E+00  0.00000000000E+00  0.80731587875E+03  0.80731587875E+03  0.00000000000E+00 0. -1.
         -3   -1    0    0    0  501 -0.00000000000E+00 -0.00000000000E+00 -0.23227848990E+02  0.23227848990E+02  0.00000000000E+00 0.  1.
         23    2    1    2    0    0  0.28719553723E+01  0.73131934391E+02  0.47451489582E+03  0.49613096620E+03  0.12500008527E+03 0.  0.
          5    1    3    3  502    0 -0.31020483769E+02  0.76380686633E+02  0.43903593181E+03  0.44673361092E+03  0.47000000000E+01 0.  1.
         -5    1    3    3    0  502  0.33892439141E+02 -0.32487522416E+01  0.35478964010E+02  0.49397355286E+02  0.47000000000E+01 0.  1.
        -11    1    1    2    0    0 -0.37212605854E+02 -0.66274298890E+02  0.27458494843E+03  0.28491043265E+03  0.00000000000E+00 0. -1.
         11    1    1    2    0    0  0.34340650482E+02 -0.68576355013E+01  0.34988185517E+02  0.49502328895E+02  0.00000000000E+00 0.  1.
<mgrwt>
<rscale>  0 0.14002054E+03</rscale>
<asrwt>0</asrwt>
<pdfrwt beam="1">  1        3 0.12420242E+00 0.14485009E+03</pdfrwt>
<pdfrwt beam="2">  1       -3 0.35735158E-02 0.14485009E+03</pdfrwt>
<totfact> 0.49628159E+02</totfact>
</mgrwt>
</event>
<event>
 7    1  0.5400401E-006  0.1712737E+03  0.7546771E-02  0.1182924E+00
         -3   -1    0    0    0  501 -0.00000000000E+00  0.00000000000E+00  0.60945876713E+03  0.60945876713E+03  0.00000000000E+00 0.  1.
          3   -1    0    0  501    0  0.00000000000E+00 -0.00000000000E+00 -0.59074196874E+02  0.59074196874E+02  0.00000000000E+00 0. -1.
         23    2    1    2    0    0 -0.10945314763E+03 -0.41606080881E+02  0.46912224354E+03  0.49940999817E+03  0.12499443743E+03 0.  0.
          5    1    3    3  502    0 -0.13407349567E+03 -0.49642970693E+02  0.36545501143E+03  0.39245328660E+03  0.47000000000E+01 0.  1.
         -5    1    3    3    0  502  0.24620348043E+02  0.80368898122E+01  0.10366723211E+03  0.10695671157E+03  0.47000000000E+01 0.  1.
        -11    1    1    2    0    0  0.70168174656E+02  0.11505459424E+02 -0.32570057265E+01  0.71179747241E+02  0.00000000000E+00 0. -1.
         11    1    1    2    0    0  0.39284972971E+02  0.30100621457E+02  0.84519332439E+02  0.97943218598E+02  0.00000000000E+00 0.  1.
<mgrwt>
<rscale>  0 0.16522217E+03</rscale>
<asrwt>0</asrwt>
<pdfrwt beam="2">  1        3 0.90883384E-02 0.17127366E+03</pdfrwt>
<pdfrwt beam="1">  1       -3 0.93762883E-01 0.17127366E+03</pdfrwt>
<totfact> 0.21752833E+02</totfact>
</mgrwt>
</event>
<event>
 7    1  0.5400401E-006  0.1988204E+03  0.7546771E-02  0.1155082E+00
         -1   -1    0    0    0  501 -0.00000000000E+00  0.00000000000E+00  0.62910288883E+02  0.62910288883E+02  0.00000000000E+00 0.  1.
          1   -1    0    0  501    0  0.00000000000E+00 -0.00000000000E+00 -0.79029778351E+03  0.79029778351E+03  0.00000000000E+00 0. -1.
         23    2    1    2    0    0  0.96071732245E+02 -0.12114021904E+03 -0.15138692575E+03  0.24989504423E+03  0.12499920574E+03 0.  0.
          5    1    3    3  502    0  0.11232982575E+03 -0.13520632403E+03 -0.12616191703E+03  0.21642009869E+03  0.47000000000E+01 0. -1.
         -5    1    3    3    0  502 -0.16258093500E+02  0.14066104987E+02 -0.25225008716E+02  0.33474945533E+02  0.47000000000E+01 0. -1.
        -11    1    1    2    0    0 -0.55978120899E+02  0.12517290194E+03 -0.40326206325E+03  0.42593672893E+03  0.00000000000E+00 0.  1.
         11    1    1    2    0    0 -0.40093611346E+02 -0.40326828975E+01 -0.17273850564E+03  0.17737629924E+03  0.00000000000E+00 0. -1.
<mgrwt>
<rscale>  0 0.19379581E+03</rscale>
<asrwt>0</asrwt>
<pdfrwt beam="2">  1        1 0.12158427E+00 0.19882035E+03</pdfrwt>
<pdfrwt beam="1">  1       -1 0.96785063E-02 0.19882035E+03</pdfrwt>
<totfact> 0.15030282E+03</totfact>
</mgrwt>
</event>
<event>
 6    1  0.5400401E-006  0.1564406E+03  0.7546771E-02  0.1205255E+00
          2   -1    0    0  501    0  0.00000000000E+00  0.00000000000E+00  0.30224492056E+03  0.30224492056E+03  0.00000000000E+00 0. -1.
         -2   -1    0    0    0  501 -0.00000000000E+00 -0.00000000000E+00 -0.22605080652E+03  0.22605080652E+03  0.00000000000E+00 0.  1.
          5    1    1    2  502    0  0.26179796378E+02  0.66027610252E+01  0.48041775341E+01  0.27823520865E+02  0.47000000000E+01 0. -1.
         -5    1    1    2    0  502 -0.91418729443E+02 -0.40250961524E+02 -0.18914154871E+03  0.21394891784E+03  0.47000000000E+01 0.  1.
        -11    1    1    2    0    0  0.12853587750E+02 -0.31773345760E+02  0.58560094593E+02  0.67853112659E+02  0.00000000000E+00 0.  1.
         11    1    1    2    0    0  0.52385345315E+02  0.65421546259E+02  0.20197139062E+03  0.21867017572E+03  0.00000000000E+00 0. -1.
<mgrwt>
<rscale>  0 0.14617409E+03</rscale>
<asrwt>0</asrwt>
<pdfrwt beam="1">  1        2 0.46499218E-01 0.15644055E+03</pdfrwt>
<pdfrwt beam="2">  1       -2 0.34777047E-01 0.15644055E+03</pdfrwt>
<totfact> 0.83956370E+02</totfact>
</mgrwt>
</event>
<event>
 7    1  0.5400401E-006  0.2372129E+03  0.7546771E-02  0.1124432E+00
          1   -1    0    0  501    0  0.00000000000E+00  0.00000000000E+00  0.13705504871E+03  0.13705504871E+03  0.00000000000E+00 0. -1.
         -1   -1    0    0    0  501 -0.00000000000E+00 -0.00000000000E+00 -0.40180341982E+03  0.40180341982E+03  0.00000000000E+00 0.  1.
         23    2    1    2    0    0 -0.19285196186E+03 -0.58759385073E+02 -0.19387699630E+03  0.30636294347E+03  0.12500167563E+03 0.  0.
          5    1    3    3  502    0 -0.16534231703E+03 -0.13946393979E+02 -0.19162135457E+03  0.25352202514E+03  0.47000000000E+01 0.  1.
         -5    1    3    3    0  502 -0.27509644836E+02 -0.44812991094E+02 -0.22556417230E+01  0.52840918325E+02  0.47000000000E+01 0.  1.
        -11    1    1    2    0    0  0.13741416861E+03  0.16083392413E+01 -0.22280111706E+02  0.13921797250E+03  0.00000000000E+00 0.  1.
         11    1    1    2    0    0  0.55437793254E+02  0.57151045832E+02 -0.48591263115E+02  0.93277552561E+02  0.00000000000E+00 0. -1.
<mgrwt>
<rscale>  0 0.23316483E+03</rscale>
<asrwt>0</asrwt>
<pdfrwt beam="1">  1        1 0.21085392E-01 0.23721291E+03</pdfrwt>
<pdfrwt beam="2">  1       -1 0.61815910E-01 0.23721291E+03</pdfrwt>
<totfact> 0.65485822E+02</totfact>
</mgrwt>
</event>
<event>
 7    1  0.5400401E-006  0.1259836E+03  0.7546771E-02  0.1249230E+00
          1   -1    0    0  501    0  0.00000000000E+00  0.00000000000E+00  0.11972530229E+03  0.11972530229E+03  0.00000000000E+00 0. -1.
         -1   -1    0    0    0  501 -0.00000000000E+00 -0.00000000000E+00 -0.99004689383E+02  0.99004689383E+02  0.00000000000E+00 0.  1.
         23    2    1    2    0    0  0.34567277052E+00 -0.15696007256E+02  0.15107129063E+02  0.12688609242E+03  0.12500148387E+03 0.  0.
          5    1    3    3  502    0  0.13236284996E+01  0.12289119330E+02  0.66698840904E+02  0.67997057468E+02  0.47000000000E+01 0. -1.
         -5    1    3    3    0  502 -0.97795572907E+00 -0.27985126585E+02 -0.51591711842E+02  0.58889034957E+02  0.47000000000E+01 0. -1.
        -11    1    1    2    0    0 -0.36985027912E+02 -0.15713262810E+01 -0.21775939816E+02  0.42948258530E+02  0.00000000000E+00 0.  1.
         11    1    1    2    0    0  0.36639355141E+02  0.17267333537E+02  0.27389423656E+02  0.48895640714E+02  0.00000000000E+00 0. -1.
<mgrwt>
<rscale>  0 0.11635761E+03</rscale>
<asrwt>0</asrwt>
<pdfrwt beam="1">  1        1 0.18419277E-01 0.12598355E+03</pdfrwt>
<pdfrwt beam="2">  1       -1 0.15231491E-01 0.12598355E+03</pdfrwt>
<totfact> 0.83670911E+03</totfact>
</mgrwt>
</event>
<event>
 7    1  0.5400401E-006  0.1416831E+03  0.7546771E-02  0.1221520E+00
         -2   -1    0    0    0  501 -0.00000000000E+00  0.00000000000E+00  0.40835564771E+03  0.40835564771E+03  0.00000000000E+00 0.  1.
          2   -1    0    0  501    0  0.00000000000E+00 -0.00000000000E+00 -0.39966235557E+02  0.39966235557E+02  0.00000000000E+00 0. -1.
         23    2    1    2    0    0  0.51023572724E+02 -0.42964582227E+02  0.21270169422E+03  0.25557018134E+03  0.12499898627E+03 0.  0.
          5    1    3    3  502    0 -0.22970675622E+02  0.26113170651E+02  0.28000256583E+02  0.44896035334E+02  0.47000000000E+01 0. -1.
         -5    1    3    3    0  502  0.73994248346E+02 -0.69077752877E+02  0.18470143763E+03  0.21067414600E+03  0.47000000000E+01 0. -1.
        -11    1    1    2    0    0 -0.54169904422E+02 -0.98963286861E+01  0.49288223414E+02  0.73902941984E+02  0.00000000000E+00 0. -1.
         11    1    1    2    0    0  0.31463316981E+01  0.52860910913E+02  0.10639949452E+03  0.11884875994E+03  0.00000000000E+00 0.  1.
<mgrwt>
<rscale>  0 0.13408294E+03</rscale>
<asrwt>0</asrwt>
<pdfrwt beam="2">  1        2 0.61486519E-02 0.14168312E+03</pdfrwt>
<pdfrwt beam="1">  1       -2 0.62823943E-01 0.14168312E+03</pdfrwt>
<totfact> 0.27601469E+03</totfact>
</mgrwt>
</event>
<event>
 7    1  0.5400401E-006  0.1668868E+03  0.7546771E-02  0.1187079E+00
          2   -1    0    0  501    0  0.00000000000E+00  0.00000000000E+00  0.21088224549E+04  0.21088224549E+04  0.00000000000E+00 0. -1.
         -2   -1    0    0    0  501 -0.00000000000E+00 -0.00000000000E+00 -0.12195896216E+02  0.12195896216E+02  0.00000000000E+00 0.  1.
         23    2    1    2    0    0  0.96201932612E+02  0.54489358164E+02  0.13450703104E+04  0.13553838324E+04  0.12500916428E+03 0.  0.
          5    1    3    3  502    0  0.70370119321E+02 -0.29303704483E+02  0.74840246953E+03  0.75228917790E+03  0.47000000000E+01 0. -1.
         -5    1    3    3    0  502  0.25831813290E+02  0.83793062648E+02  0.59666784089E+03  0.60309465449E+03  0.47000000000E+01 0. -1.
        -11    1    1    2    0    0 -0.71166326924E+00 -0.50472576254E+02  0.27311879330E+03  0.27774423968E+03  0.00000000000E+00 0.  1.
         11    1    1    2    0    0 -0.95490269342E+02 -0.40167819098E+01  0.47843745493E+03  0.48789027901E+03  0.00000000000E+00 0. -1.
<mgrwt>
<rscale>  0 0.16144147E+03</rscale>
<asrwt>0</asrwt>
<pdfrwt beam="1">  1        2 0.32443393E+00 0.16688677E+03</pdfrwt>
<pdfrwt beam="2">  1       -2 0.18762934E-02 0.16688677E+03</pdfrwt>
<totfact> 0.55077688E+03</totfact>
</mgrwt>
</event>
<event>
 7    1  0.5400401E-006  0.1597413E+03  0.7546771E-02  0.1196360E+00
         -1   -1    0    0    0  501 -0.00000000000E+00  0.00000000000E+00  0.29683496076E+03  0.29683496076E+03  0.00000000000E+00 0.  1.
          1   -1    0    0  501    0  0.00000000000E+00 -0.00000000000E+00 -0.73629243717E+02  0.73629243717E+02  0.00000000000E+00 0. -1.
         23    2    1    2    0    0 -0.46126735205E+02  0.88109083465E+02  0.12535475584E+03  0.20305443625E+03  0.12500561179E+03 0.  0.
          5    1    3    3  502    0 -0.42914731067E+02  0.10488784580E+02 -0.11254308448E+02  0.45830537889E+02  0.47000000000E+01 0.  1.
         -5    1    3    3    0  502 -0.32120041375E+01  0.77620298886E+02  0.13660906429E+03  0.15722389836E+03  0.47000000000E+01 0.  1.
        -11    1    1    2    0    0  0.67392814084E+02 -0.33626975987E+02  0.40579044731E+02  0.85552462124E+02  0.00000000000E+00 0.  1.
         11    1    1    2    0    0 -0.21266078879E+02 -0.54482107478E+02  0.57271916470E+02  0.81857306102E+02  0.00000000000E+00 0. -1.
<mgrwt>
<rscale>  0 0.15339672E+03</rscale>
<asrwt>0</asrwt>
<pdfrwt beam="2">  1        1 0.11327576E-01 0.15974132E+03</pdfrwt>
<pdfrwt beam="1">  1       -1 0.45666916E-01 0.15974132E+03</pdfrwt>
<totfact> 0.25680592E+03</totfact>
</mgrwt>
</event>
<event>
 7    1  0.5400401E-006  0.1324055E+03  0.7546771E-02  0.1237001E+00
          3   -1    0    0  501    0  0.00000000000E+00  0.00000000000E+00  0.13938940261E+02  0.13938940261E+02  0.00000000000E+00 0. -1.
         -3   -1    0    0    0  501 -0.00000000000E+00 -0.00000000000E+00 -0.10087374819E+04  0.10087374819E+04  0.00000000000E+00 0.  1.
         23    2    1    2    0    0 -0.19590141418E+02  0.39027237576E+02 -0.65058169030E+03  0.66391848838E+03  0.12499729816E+03 0.  0.
          5    1    3    3  502    0 -0.17735549188E+02  0.33981038861E+02 -0.49442301433E+02  0.62736686859E+02  0.47000000000E+01 0. -1.
         -5    1    3    3    0  502 -0.18545922298E+01  0.50461987158E+01 -0.60113938886E+03  0.60118180152E+03  0.47000000000E+01 0. -1.
        -11    1    1    2    0    0 -0.30512299660E+02 -0.40824151207E+02 -0.17225020388E+03  0.17963224791E+03  0.00000000000E+00 0.  1.
         11    1    1    2    0    0  0.50102441078E+02  0.17969136306E+01 -0.17196664748E+03  0.17912568589E+03  0.00000000000E+00 0. -1.
<mgrwt>
<rscale>  0 0.12377178E+03</rscale>
<asrwt>0</asrwt>
<pdfrwt beam="1">  1        3 0.21444515E-02 0.13240553E+03</pdfrwt>
<pdfrwt beam="2">  1       -3 0.15519044E+00 0.13240553E+03</pdfrwt>
<totfact> 0.62308662E+02</totfact>
</mgrwt>
</event>
<event>
 7    1  0.5400401E-006  0.1422652E+03  0.7546771E-02  0.1215434E+00
         -1   -1    0    0    0  501 -0.00000000000E+00  0.00000000000E+00  0.85716329890E+02  0.85716329890E+02  0.00000000000E+00 0.  1.
          1   -1    0    0  501    0  0.00000000000E+00 -0.00000000000E+00 -0.30348871851E+03  0.30348871851E+03  0.00000000000E+00 0. -1.
         23    2    1    2    0    0  0.53292789056E+01  0.67713899903E+02 -0.65265749194E+01  0.14241487146E+03  0.12500330387E+03 0.  0.
          5    1    3    3  502    0 -0.52181810198E+02 -0.52261506490E+00  0.33763829528E+01  0.52504327477E+02  0.47000000000E+01 0.  1.
         -5    1    3    3    0  502  0.57511089103E+02  0.68236514968E+02 -0.99029578722E+01  0.89910543984E+02  0.47000000000E+01 0.  1.
        -11    1    1    2    0    0 -0.31035922000E+02  0.14548024184E+02 -0.27892148128E+02  0.44191010277E+02  0.00000000000E+00 0.  1.
         11    1    1    2    0    0  0.25706643095E+02 -0.82261924087E+02 -0.18335366558E+03  0.20259916667E+03  0.00000000000E+00 0. -1.
<mgrwt>
<rscale>  0 0.13844679E+03</rscale>
<asrwt>0</asrwt>
<pdfrwt beam="2">  1        1 0.46690572E-01 0.14226524E+03</pdfrwt>
<pdfrwt beam="1">  1       -1 0.13187128E-01 0.14226524E+03</pdfrwt>
<totfact> 0.33036858E+03</totfact>
</mgrwt>
</event>
<event>
 6    1  0.5400401E-006  0.2373021E+03  0.7546771E-02  0.1136707E+00
          2   -1    0    0  501    0  0.00000000000E+00  0.00000000000E+00  0.11642309991E+04  0.11642309991E+04  0.00000000000E+00 0. -1.
         -2   -1    0    0    0  501 -0.00000000000E+00 -0.00000000000E+00 -0.36758681490E+02  0.36758681490E+02  0.00000000000E+00 0.  1.
          5    1    1    2  502    0  0.91214025124E+02  0.35844336869E+02  0.29929888665E+03  0.31497099615E+03  0.47000000000E+01 0. -1.
         -5    1    1    2    0  502  0.59314596182E+01 -0.13024084287E+03  0.21595958645E+03  0.25230634622E+03  0.47000000000E+01 0.  1.
        -11    1    1    2    0    0 -0.72921659133E+02  0.10324052034E+02  0.33581792518E+03  0.34379911765E+03  0.00000000000E+00 0.  1.
         11    1    1    2    0    0 -0.24223825609E+02  0.84072453964E+02  0.27639591935E+03  0.28991322060E+03  0.00000000000E+00 0. -1.
<mgrwt>
<rscale>  0 0.21625379E+03</rscale>
<asrwt>0</asrwt>
<pdfrwt beam="1">  1        2 0.17911243E+00 0.23730211E+03</pdfrwt>
<pdfrwt beam="2">  1       -2 0.56551826E-02 0.23730211E+03</pdfrwt>
<totfact> 0.33866444E+03</totfact>
</mgrwt>
</event>
<event>
 7    1  0.5400401E-006  0.1807474E+03  0.7546771E-02  0.1172621E+00
         -1   -1    0    0    0  501 -0.00000000000E+00  0.00000000000E+00  0.10583691069E+03  0.10583691069E+03  0.00000000000E+00 0.  1.
          1   -1    0    0  501    0  0.00000000000E+00 -0.00000000000E+00 -0.28875395130E+03  0.28875395130E+03  0.00000000000E+00 0. -1.
         23    2    1    2    0    0  0.10680208903E+03  0.75092721416E+02 -0.50980417609E+02  0.18779940855E+03  0.12499604731E+03 0.  0.
          5    1    3    3  502    0 -0.15513099630E+02  0.49925298225E+02  0.88399264241E+00  0.52498220027E+02  0.47000000000E+01 0.  1.
         -5    1    3    3    0  502  0.12231518866E+03  0.25167423191E+02 -0.51864410252E+02  0.13530118853E+03  0.47000000000E+01 0.  1.
        -11    1    1    2    0    0 -0.10276008863E+03 -0.21253871014E+02 -0.93127859290E+02  0.14030025312E+03  0.00000000000E+00 0.  1.
         11    1    1    2    0    0 -0.40420003932E+01 -0.53838850402E+02 -0.38808763702E+02  0.66491200319E+02  0.00000000000E+00 0. -1.
<mgrwt>
<rscale>  0 0.17511078E+03</rscale>
<asrwt>0</asrwt>
<pdfrwt beam="2">  1        1 0.44423684E-01 0.18074738E+03</pdfrwt>
<pdfrwt beam="1">  1       -1 0.16282602E-01 0.18074738E+03</pdfrwt>
<totfact> 0.25480723E+03</totfact>
</mgrwt>
</event>
<event>
 7    1  0.5400401E-006  0.4009837E+03  0.7546771E-02  0.1044233E+00
         -2   -1    0    0    0  501 -0.00000000000E+00  0.00000000000E+00  0.59077981476E+03  0.59077981476E+03  0.00000000000E+00 0.  1.
          2   -1    0    0  501    0  0.00000000000E+00 -0.00000000000E+00 -0.26607857720E+03  0.26607857720E+03  0.00000000000E+00 0. -1.
         23    2    1    2    0    0  0.37419972830E+03  0.71687275141E+02  0.15852321008E+03  0.43118156399E+03  0.12499372351E+03 0.  0.
          5    1    3    3  502    0  0.13957528895E+03 -0.25719892978E+02  0.89626539713E+02  0.16792194854E+03  0.47000000000E+01 0. -1.
         -5    1    3    3    0  502  0.23462443934E+03  0.97407168119E+02  0.68896670365E+02  0.26325961545E+03  0.47000000000E+01 0. -1.
        -11    1    1    2    0    0 -0.16235248459E+03  0.69376700674E+01  0.42014996324E+02  0.16784433393E+03  0.00000000000E+00 0.  1.
         11    1    1    2    0    0 -0.21184724371E+03 -0.78624945208E+02  0.12416303116E+03  0.25783249404E+03  0.00000000000E+00 0. -1.
<mgrwt>
<rscale>  0 0.39869323E+03</rscale>
<asrwt>0</asrwt>
<pdfrwt beam="2">  1        2 0.40935166E-01 0.40098371E+03</pdfrwt>
<pdfrwt beam="1">  1       -2 0.90889202E-01 0.40098371E+03</pdfrwt>
<totfact> 0.13302945E+02</totfact>
</mgrwt>
</event>
<event>
 7    1  0.5400401E-006  0.2332626E+03  0.7546771E-02  0.1127190E+00
          2   -1    0    0  501    0  0.00000000000E+00  0.00000000000E+00  0.38418728505E+03  0.38418728505E+03  0.00000000000E+00 0. -1.
         -2   -1    0    0    0  501 -0.00000000000E+00 -0.00000000000E+00 -0.14345138967E+03  0.14345138967E+03  0.00000000000E+00 0.  1.
         23    2    1    2    0    0  0.10134318240E+02 -0.19668777233E+03  0.50477189415E+02  0.23866170581E+03  0.12499071558E+03 0.  0.
          5    1    3    3  502    0  0.42657470948E+02 -0.87758184266E+02 -0.26585004670E+02  0.10124233900E+03  0.47000000000E+01 0. -1.
         -5    1    3    3    0  502 -0.32523152708E+02 -0.10892958806E+03  0.77062194085E+02  0.13741936681E+03  0.47000000000E+01 0. -1.
        -11    1    1    2    0    0  0.33953813759E+02  0.43297550177E+02  0.29436724991E+02  0.62402404588E+02  0.00000000000E+00 0.  1.
         11    1    1    2    0    0 -0.44088131999E+02  0.15339022215E+03  0.16082198097E+03  0.22657456432E+03  0.00000000000E+00 0. -1.
<mgrwt>
<rscale>  0 0.22921985E+03</rscale>
<asrwt>0</asrwt>
<pdfrwt beam="1">  1        2 0.59105736E-01 0.23326265E+03</pdfrwt>
<pdfrwt beam="2">  1       -2 0.22069445E-01 0.23326265E+03</pdfrwt>
<totfact> 0.14736635E+03</totfact>
</mgrwt>
</event>
<event>
 7    1  0.5400401E-006  0.1908365E+03  0.7546771E-02  0.1162335E+00
         -4   -1    0    0    0  501 -0.00000000000E+00  0.00000000000E+00  0.57036071504E+03  0.57036071504E+03  0.00000000000E+00 0.  1.
          4   -1    0    0  501    0  0.00000000000E+00 -0.00000000000E+00 -0.59087630040E+02  0.59087630040E+02  0.00000000000E+00 0. -1.
         23    2    1    2    0    0 -0.14319757047E+03 -0.16852651216E+02  0.32053660235E+03  0.37304459214E+03  0.12501599192E+03 0.  0.
          5    1    3    3  502    0 -0.14136760629E+03 -0.37061940205E+02  0.18446810430E+03  0.23539107677E+03  0.47000000000E+01 0. -1.
         -5    1    3    3    0  502 -0.18299641791E+01  0.20209288990E+02  0.13606849805E+03  0.13765351537E+03  0.47000000000E+01 0. -1.
        -11    1    1    2    0    0  0.10147498782E+03 -0.32594581111E+02  0.11497309215E+03  0.15677497182E+03  0.00000000000E+00 0. -1.
         11    1    1    2    0    0  0.41722582656E+02  0.49447232326E+02  0.75763390494E+02  0.99628781119E+02  0.00000000000E+00 0.  1.
<mgrwt>
<rscale>  0 0.18576766E+03</rscale>
<asrwt>0</asrwt>
<pdfrwt beam="2">  1        4 0.90904050E-02 0.19083646E+03</pdfrwt>
<pdfrwt beam="1">  1       -4 0.87747799E-01 0.19083646E+03</pdfrwt>
<totfact> 0.18182706E+02</totfact>
</mgrwt>
</event>
<event>
 7    1  0.5400401E-006  0.1912422E+03  0.7546771E-02  0.1162116E+00
         -2   -1    0    0    0  501 -0.00000000000E+00  0.00000000000E+00  0.48071924249E+02  0.48071924249E+02  0.00000000000E+00 0. -1.
          2   -1    0    0  501    0  0.00000000000E+00 -0.00000000000E+00 -0.68416741871E+03  0.68416741871E+03  0.00000000000E+00 0.  1.
         23    2    1    2    0    0  0.24327490770E+02  0.14267496530E+03 -0.32002392945E+03  0.37281215463E+03  0.12500245872E+03 0.  0.
          5    1    3    3  502    0  0.61210546588E+02  0.32065108185E+02 -0.16360346726E+03  0.17766003118E+03  0.47000000000E+01 0. -1.
         -5    1    3    3    0  502 -0.36883055818E+02  0.11060985712E+03 -0.15642046219E+03  0.19515212345E+03  0.47000000000E+01 0. -1.
        -11    1    1    2    0    0 -0.17299418535E+02 -0.10673027047E+03 -0.12677894301E+03  0.16662389056E+03  0.00000000000E+00 0. -1.
         11    1    1    2    0    0 -0.70280722357E+01 -0.35944694833E+02 -0.18929262200E+03  0.19280329777E+03  0.00000000000E+00 0.  1.
<mgrwt>
<rscale>  0 0.18600370E+03</rscale>
<asrwt>0</asrwt>
<pdfrwt beam="2">  1        2 0.10525652E+00 0.19124222E+03</pdfrwt>
<pdfrwt beam="1">  1       -2 0.73956814E-02 0.19124222E+03</pdfrwt>
<totfact> 0.45410339E+03</totfact>
</mgrwt>
</event>
<event>
 7    1  0.5400401E-006  0.1446470E+03  0.7546771E-02  0.1216338E+00
         -2   -1    0    0    0  501 -0.00000000000E+00  0.00000000000E+00  0.42134954737E+02  0.42134954737E+02  0.00000000000E+00 0. -1.
          2   -1    0    0  501    0  0.00000000000E+00 -0.00000000000E+00 -0.47307167771E+03  0.47307167771E+03  0.00000000000E+00 0.  1.
         23    2    1    2    0    0 -0.32017123621E+02  0.65368532455E+02 -0.14205477670E+03  0.20273706494E+03  0.12499846669E+03 0.  0.
          5    1    3    3  502    0 -0.47418356638E+02  0.97179811802E+02 -0.97509307872E+02  0.14567968798E+03  0.47000000000E+01 0. -1.
         -5    1    3    3    0  502  0.15401233017E+02 -0.31811279347E+02 -0.44545468829E+02  0.57057376958E+02  0.47000000000E+01 0. -1.
        -11    1    1    2    0    0  0.35486394040E+01 -0.73806405149E+02 -0.11946405231E+03  0.14046934924E+03  0.00000000000E+00 0. -1.
         11    1    1    2    0    0  0.28468484217E+02  0.84378726941E+01 -0.16941789396E+03  0.17200021827E+03  0.00000000000E+00 0.  1.
<mgrwt>
<rscale>  0 0.13778713E+03</rscale>
<asrwt>0</asrwt>
<pdfrwt beam="2">  1        2 0.72780259E-01 0.14464701E+03</pdfrwt>
<pdfrwt beam="1">  1       -2 0.64823006E-02 0.14464701E+03</pdfrwt>
<totfact> 0.83399548E+03</totfact>
</mgrwt>
</event>
<event>
 7    1  0.5400401E-006  0.1387640E+03  0.7546771E-02  0.1225873E+00
         -1   -1    0    0    0  501 -0.00000000000E+00  0.00000000000E+00  0.58848147064E+02  0.58848147064E+02  0.00000000000E+00 0.  1.
          1   -1    0    0  501    0  0.00000000000E+00 -0.00000000000E+00 -0.50859641055E+03  0.50859641055E+03  0.00000000000E+00 0. -1.
         23    2    1    2    0    0 -0.22952967788E+02 -0.55705033607E+02 -0.41974151843E+02  0.14497332784E+03  0.12500218743E+03 0.  0.
          5    1    3    3  502    0 -0.24960660436E+01 -0.61346940049E+02 -0.80132329648E+02  0.10105917897E+03  0.47000000000E+01 0. -1.
         -5    1    3    3    0  502 -0.20456901744E+02  0.56419064418E+01  0.38158177805E+02  0.43914148867E+02  0.47000000000E+01 0. -1.
        -11    1    1    2    0    0 -0.33454023285E+02  0.45840424958E+01 -0.10629030252E+03  0.11152494577E+03  0.00000000000E+00 0. -1.
         11    1    1    2    0    0  0.56406991073E+02  0.51120991111E+02 -0.30148380913E+03  0.31094628402E+03  0.00000000000E+00 0.  1.
<mgrwt>
<rscale>  0 0.13107273E+03</rscale>
<asrwt>0</asrwt>
<pdfrwt beam="2">  1        1 0.78245599E-01 0.13876396E+03</pdfrwt>
<pdfrwt beam="1">  1       -1 0.90535614E-02 0.13876396E+03</pdfrwt>
<totfact> 0.30598459E+03</totfact>
</mgrwt>
</event>
<event>
 7    1  0.7583342E-006  0.2021690E+03  0.7546771E-02  0.1152198E+00
         -1   -1    0    0    0  501 -0.00000000000E+00  0.00000000000E+00  0.81601425138E+02  0.81601425138E+02  0.00000000000E+00 0.  1.
          1   -1    0    0  501    0  0.00000000000E+00 -0.00000000000E+00 -0.52121096952E+03  0.52121096952E+03  0.00000000000E+00 0. -1.
         23    2    1    2    0    0  0.10121101354E+03  0.12248319839E+03 -0.12119874236E+03  0.23571470913E+03  0.12500594306E+03 0.  0.
          5    1    3    3  502    0  0.24445640909E+02  0.82374449611E+02  0.75907321619E+00  0.86056989840E+02  0.47000000000E+01 0. -1.
         -5    1    3    3    0  502  0.76765372633E+02  0.40108748784E+02 -0.12195781557E+03  0.14965771929E+03  0.47000000000E+01 0. -1.
        -11    1    1    2    0    0 -0.10771310277E+03 -0.67194255556E+02 -0.21677547325E+03  0.25121462197E+03  0.00000000000E+00 0. -1.
         11    1    1    2    0    0  0.65020892260E+01 -0.55288942838E+02 -0.10163532878E+03  0.11588306356E+03  0.00000000000E+00 0.  1.
<mgrwt>
<rscale>  0 0.19711241E+03</rscale>
<asrwt>0</asrwt>
<pdfrwt beam="2">  1        1 0.80186302E-01 0.20216896E+03</pdfrwt>
<pdfrwt beam="1">  1       -1 0.12554066E-01 0.20216896E+03</pdfrwt>
<totfact> 0.18099909E+03</totfact>
</mgrwt>
</event>
<event>
 7    1  0.5400401E-006  0.1679102E+03  0.7546771E-02  0.1186708E+00
          2   -1    0    0  501    0  0.00000000000E+00  0.00000000000E+00  0.33329672699E+03  0.33329672699E+03  0.00000000000E+00 0. -1.
         -2   -1    0    0    0  501 -0.00000000000E+00 -0.00000000000E+00 -0.81920289530E+02  0.81920289530E+02  0.00000000000E+00 0.  1.
         23    2    1    2    0    0 -0.91069469012E+01  0.11173426211E+03  0.66834376481E+02  0.18072260881E+03  0.12500538247E+03 0.  0.
          5    1    3    3  502    0  0.57618784468E+02  0.44213586076E+02  0.31857619658E+02  0.79446607527E+02  0.47000000000E+01 0. -1.
         -5    1    3    3    0  502 -0.66725731369E+02  0.67520676034E+02  0.34976756823E+02  0.10127600129E+03  0.47000000000E+01 0. -1.
        -11    1    1    2    0    0 -0.17286017470E+02 -0.90502872978E+02  0.71908520963E+02  0.11687776437E+03  0.00000000000E+00 0.  1.
         11    1    1    2    0    0  0.26392964372E+02 -0.21231389132E+02  0.11263354002E+03  0.11761664334E+03  0.00000000000E+00 0. -1.
<mgrwt>
<rscale>  0 0.16177400E+03</rscale>
<asrwt>0</asrwt>
<pdfrwt beam="1">  1        2 0.51276419E-01 0.16791018E+03</pdfrwt>
<pdfrwt beam="2">  1       -2 0.12603122E-01 0.16791018E+03</pdfrwt>
<totfact> 0.43293604E+03</totfact>
</mgrwt>
</event>
<event>
 7    1  0.5400401E-006  0.1854747E+03  0.7546771E-02  0.1167392E+00
          2   -1    0    0  501    0  0.00000000000E+00  0.00000000000E+00  0.37512081437E+03  0.37512081437E+03  0.00000000000E+00 0. -1.
         -2   -1    0    0    0  501 -0.00000000000E+00 -0.00000000000E+00 -0.10688334020E+03  0.10688334020E+03  0.00000000000E+00 0.  1.
         23    2    1    2    0    0 -0.10932858351E+03 -0.82602582222E+02  0.24540318697E+02  0.18709117352E+03  0.12499981683E+03 0.  0.
          5    1    3    3  502    0  0.20851437480E+01 -0.42717639132E+02 -0.34134872446E+02  0.54921981340E+02  0.47000000000E+01 0.  1.
         -5    1    3    3    0  502 -0.11141372725E+03 -0.39884943091E+02  0.58675191143E+02  0.13216919218E+03  0.47000000000E+01 0.  1.
        -11    1    1    2    0    0 -0.11288335998E+02  0.13838808748E+02  0.46235973722E+01  0.18447677627E+02  0.00000000000E+00 0.  1.
         11    1    1    2    0    0  0.12061691950E+03  0.68763773475E+02  0.23907355810E+03  0.27646530343E+03  0.00000000000E+00 0. -1.
<mgrwt>
<rscale>  0 0.18042571E+03</rscale>
<asrwt>0</asrwt>
<pdfrwt beam="1">  1        2 0.57710894E-01 0.18547474E+03</pdfrwt>
<pdfrwt beam="2">  1       -2 0.16443591E-01 0.18547474E+03</pdfrwt>
<totfact> 0.24776130E+03</totfact>
</mgrwt>
</event>
<event>
 7    1  0.5400401E-006  0.1310383E+03  0.7546771E-02  0.1240394E+00
          1   -1    0    0  501    0  0.00000000000E+00  0.00000000000E+00  0.29643532340E+02  0.29643532340E+02  0.00000000000E+00 0. -1.
         -1   -1    0    0    0  501 -0.00000000000E+00 -0.00000000000E+00 -0.49109662411E+03  0.49109662411E+03  0.00000000000E+00 0.  1.
         23    2    1    2    0    0  0.12602222114E+02  0.37263393444E+02 -0.34447899684E+03  0.36856045475E+03  0.12499461209E+03 0.  0.
          5    1    3    3  502    0  0.60740878482E+02  0.51670507899E+02 -0.19233689038E+03  0.20826633214E+03  0.47000000000E+01 0.  1.
         -5    1    3    3    0  502 -0.48138656368E+02 -0.14407114455E+02 -0.15214210646E+03  0.16029412261E+03  0.47000000000E+01 0.  1.
        -11    1    1    2    0    0  0.14387719545E+02  0.23078349169E+02 -0.55978093222E+02  0.62234745881E+02  0.00000000000E+00 0. -1.
         11    1    1    2    0    0 -0.26989941659E+02 -0.60341742613E+02 -0.60996001711E+02  0.89944955818E+02  0.00000000000E+00 0.  1.
<mgrwt>
<rscale>  0 0.12165366E+03</rscale>
<asrwt>0</asrwt>
<pdfrwt beam="1">  1        1 0.45605434E-02 0.13103828E+03</pdfrwt>
<pdfrwt beam="2">  1       -1 0.75553327E-01 0.13103828E+03</pdfrwt>
<totfact> 0.33351736E+03</totfact>
</mgrwt>
</event>
<event>
 7    1  0.5400401E-006  0.1571826E+03  0.7546771E-02  0.1199859E+00
         -2   -1    0    0    0  501 -0.00000000000E+00  0.00000000000E+00  0.48466598214E+02  0.48466598214E+02  0.00000000000E+00 0.  1.
          2   -1    0    0  501    0  0.00000000000E+00 -0.00000000000E+00 -0.44064811402E+03  0.44064811402E+03  0.00000000000E+00 0. -1.
         23    2    1    2    0    0  0.73256064684E+02  0.60955636066E+02 -0.17801276700E+03  0.23747616538E+03  0.12499737327E+03 0.  0.
          5    1    3    3  502    0  0.90493752558E+02  0.75784990915E+02 -0.17873608376E+03  0.21424556410E+03  0.47000000000E+01 0.  1.
         -5    1    3    3    0  502 -0.17237687874E+02 -0.14829354849E+02  0.72331675631E+00  0.23230601275E+02  0.47000000000E+01 0.  1.
        -11    1    1    2    0    0 -0.61718635619E+02  0.32449719603E+01 -0.69873351098E+02  0.93284537943E+02  0.00000000000E+00 0.  1.
         11    1    1    2    0    0 -0.11537429066E+02 -0.64200608026E+02 -0.14429539771E+03  0.15835400892E+03  0.00000000000E+00 0. -1.
<mgrwt>
<rscale>  0 0.15050100E+03</rscale>
<asrwt>0</asrwt>
<pdfrwt beam="2">  1        2 0.67792018E-01 0.15718265E+03</pdfrwt>
<pdfrwt beam="1">  1       -2 0.74563997E-02 0.15718265E+03</pdfrwt>
<totfact> 0.73060297E+03</totfact>
</mgrwt>
</event>
<event>
 7    1  0.5400401E-006  0.1282515E+03  0.7546771E-02  0.1243985E+00
          1   -1    0    0  501    0  0.00000000000E+00  0.00000000000E+00  0.18655600806E+03  0.18655600806E+03  0.00000000000E+00 0. -1.
         -1   -1    0    0    0  501 -0.00000000000E+00 -0.00000000000E+00 -0.67845316168E+02  0.67845316168E+02  0.00000000000E+00 0.  1.
         23    2    1    2    0    0  0.22865890877E+02  0.17351836291E+02  0.62334951563E+02  0.14259766246E+03  0.12499804785E+03 0.  0.
          5    1    3    3  502    0  0.86445635495E+01  0.52144011258E+02  0.83703821953E+02  0.99106741438E+02  0.47000000000E+01 0.  1.
         -5    1    3    3    0  502  0.14221327328E+02 -0.34792174968E+02 -0.21368870390E+02  0.43490921026E+02  0.47000000000E+01 0.  1.
        -11    1    1    2    0    0 -0.34067667419E+02 -0.43803717638E+02  0.87390371894E+01  0.56175994992E+02  0.00000000000E+00 0.  1.
         11    1    1    2    0    0  0.11201776542E+02  0.26451881348E+02  0.47636703140E+02  0.55627666773E+02  0.00000000000E+00 0. -1.
<mgrwt>
<rscale>  0 0.11946330E+03</rscale>
<asrwt>0</asrwt>
<pdfrwt beam="1">  1        1 0.28700924E-01 0.12825150E+03</pdfrwt>
<pdfrwt beam="2">  1       -1 0.10437741E-01 0.12825150E+03</pdfrwt>
<totfact> 0.85989492E+03</totfact>
</mgrwt>
</event>
<event>
 7    1  0.5400401E-006  0.1474638E+03  0.7546771E-02  0.1212639E+00
         -2   -1    0    0    0  501 -0.00000000000E+00  0.00000000000E+00  0.12797290828E+03  0.12797290828E+03  0.00000000000E+00 0.  1.
          2   -1    0    0  501    0  0.00000000000E+00 -0.00000000000E+00 -0.17848616670E+03  0.17848616670E+03  0.00000000000E+00 0. -1.
         23    2    1    2    0    0  0.58494275547E+02  0.51931570516E+02  0.42412479422E+02  0.15344182275E+03  0.12500842480E+03 0.  0.
          5    1    3    3  502    0  0.61893523947E+02 -0.27446105471E+02  0.18854994686E+02  0.70439320246E+02  0.47000000000E+01 0.  1.
         -5    1    3    3    0  502 -0.33992483999E+01  0.79377675987E+02  0.23557484736E+02  0.83002502503E+02  0.47000000000E+01 0.  1.
        -11    1    1    2    0    0 -0.92816799635E+01 -0.68470048797E+02 -0.45764733700E+02  0.82877668982E+02  0.00000000000E+00 0.  1.
         11    1    1    2    0    0 -0.49212595584E+02  0.16538478282E+02 -0.47161004142E+02  0.70139583258E+02  0.00000000000E+00 0. -1.
<mgrwt>
<rscale>  0 0.14051414E+03</rscale>
<asrwt>0</asrwt>
<pdfrwt beam="2">  1        2 0.27459410E-01 0.14746381E+03</pdfrwt>
<pdfrwt beam="1">  1       -2 0.19688140E-01 0.14746381E+03</pdfrwt>
<totfact> 0.40304668E+03</totfact>
</mgrwt>
</event>
<event>
 7    1  0.5400401E-006  0.1521239E+03  0.7546771E-02  0.1206128E+00
         -2   -1    0    0    0  501 -0.00000000000E+00  0.00000000000E+00  0.41328353431E+02  0.41328353431E+02  0.00000000000E+00 0.  1.
          2   -1    0    0  501    0  0.00000000000E+00 -0.00000000000E+00 -0.47240875002E+03  0.47240875002E+03  0.00000000000E+00 0. -1.
         23    2    1    2    0    0 -0.26675702533E+02  0.82502330932E+02 -0.22937367831E+03  0.27523437375E+03  0.12499379375E+03 0.  0.
          5    1    3    3  502    0  0.35652671992E+02 -0.10164867172E+02 -0.36060047313E+02  0.51931248368E+02  0.47000000000E+01 0.  1.
         -5    1    3    3    0  502 -0.62328374525E+02  0.92667198104E+02 -0.19331363099E+03  0.22330312538E+03  0.47000000000E+01 0.  1.
        -11    1    1    2    0    0  0.17362534120E+01 -0.46343471405E+02 -0.18625037095E+03  0.19193731424E+03  0.00000000000E+00 0. -1.
         11    1    1    2    0    0  0.24939449121E+02 -0.36158859527E+02 -0.15456347331E+02  0.46565415466E+02  0.00000000000E+00 0.  1.
<mgrwt>
<rscale>  0 0.14548914E+03</rscale>
<asrwt>0</asrwt>
<pdfrwt beam="2">  1        2 0.72678275E-01 0.15212388E+03</pdfrwt>
<pdfrwt beam="1">  1       -2 0.63582077E-02 0.15212388E+03</pdfrwt>
<totfact> 0.86303619E+03</totfact>
</mgrwt>
</event>
<event>
 7    1  0.5400401E-006  0.1484870E+03  0.7546771E-02  0.1211940E+00
          1   -1    0    0  501    0  0.00000000000E+00  0.00000000000E+00  0.27094521216E+03  0.27094521216E+03  0.00000000000E+00 0. -1.
         -1   -1    0    0    0  501 -0.00000000000E+00 -0.00000000000E+00 -0.21378022177E+03  0.21378022177E+03  0.00000000000E+00 0.  1.
         23    2    1    2    0    0  0.22008165316E+02 -0.77069809251E+02 -0.17103449091E+03  0.22649767552E+03  0.12499714034E+03 0.  0.
          5    1    3    3  502    0  0.17747254887E+02 -0.41408706729E+02  0.60935599916E+01  0.45704130255E+02  0.47000000000E+01 0. -1.
         -5    1    3    3    0  502  0.42609104287E+01 -0.35661102522E+02 -0.17712805091E+03  0.18079354526E+03  0.47000000000E+01 0. -1.
        -11    1    1    2    0    0 -0.54292144682E+02  0.57433390553E+02  0.12063079454E+03  0.14421518615E+03  0.00000000000E+00 0. -1.
         11    1    1    2    0    0  0.32283979366E+02  0.19636418698E+02  0.10756868677E+03  0.11401257227E+03  0.00000000000E+00 0.  1.
<mgrwt>
<rscale>  0 0.14103761E+03</rscale>
<asrwt>0</asrwt>
<pdfrwt beam="1">  1        1 0.41683879E-01 0.14848704E+03</pdfrwt>
<pdfrwt beam="2">  1       -1 0.32889265E-01 0.14848704E+03</pdfrwt>
<totfact> 0.86657818E+02</totfact>
</mgrwt>
</event>
<event>
 7    1  0.5400401E-006  0.1305116E+03  0.7546771E-02  0.1239689E+00
          1   -1    0    0  501    0  0.00000000000E+00  0.00000000000E+00  0.19854687004E+03  0.19854687004E+03  0.00000000000E+00 0. -1.
         -1   -1    0    0    0  501 -0.00000000000E+00 -0.00000000000E+00 -0.14392816638E+03  0.14392816638E+03  0.00000000000E+00 0.  1.
         23    2    1    2    0    0  0.36749473135E+02 -0.77993353629E+01 -0.95786653062E+02  0.16188996241E+03  0.12498769386E+03 0.  0.
          5    1    3    3  502    0  0.38196435677E+02 -0.49502323667E+02 -0.10170814428E+03  0.11948256928E+03  0.47000000000E+01 0.  1.
         -5    1    3    3    0  502 -0.14469625415E+01  0.41702988304E+02  0.59214912231E+01  0.42407393133E+02  0.47000000000E+01 0.  1.
        -11    1    1    2    0    0  0.25301857002E+02 -0.18748523381E+01  0.10934290688E+02  0.27627119862E+02  0.00000000000E+00 0.  1.
         11    1    1    2    0    0 -0.62051330137E+02  0.96741877011E+01  0.13947106603E+03  0.15295795416E+03  0.00000000000E+00 0. -1.
<mgrwt>
<rscale>  0 0.12208945E+03</rscale>
<asrwt>0</asrwt>
<pdfrwt beam="1">  1        1 0.30545672E-01 0.13051160E+03</pdfrwt>
<pdfrwt beam="2">  1       -1 0.22142795E-01 0.13051160E+03</pdfrwt>
<totfact> 0.24479759E+03</totfact>
</mgrwt>
</event>
<event>
 7    1  0.5400401E-006  0.1768947E+03  0.7546771E-02  0.1175856E+00
         -1   -1    0    0    0  501 -0.00000000000E+00  0.00000000000E+00  0.55123843015E+02  0.55123843015E+02  0.00000000000E+00 0.  1.
          1   -1    0    0  501    0  0.00000000000E+00 -0.00000000000E+00 -0.72984520047E+03  0.72984520047E+03  0.00000000000E+00 0. -1.
         23    2    1    2    0    0 -0.96191086836E+02 -0.80090868335E+02 -0.13466446600E+03  0.22232017461E+03  0.12499787701E+03 0.  0.
          5    1    3    3  502    0 -0.12453607867E+03 -0.47484104302E+02 -0.10424761283E+03  0.16927383091E+03  0.47000000000E+01 0.  1.
         -5    1    3    3    0  502  0.28344991833E+02 -0.32606764034E+02 -0.30416853179E+02  0.53046343701E+02  0.47000000000E+01 0.  1.
        -11    1    1    2    0    0  0.93874304375E+02  0.99934198480E+02 -0.45113493155E+03  0.47151029205E+03  0.00000000000E+00 0.  1.
         11    1    1    2    0    0  0.23167824612E+01 -0.19843330145E+02 -0.88921959902E+02  0.91138576821E+02  0.00000000000E+00 0. -1.
<mgrwt>
<rscale>  0 0.17192455E+03</rscale>
<asrwt>0</asrwt>
<pdfrwt beam="2">  1        1 0.11228388E+00 0.17689472E+03</pdfrwt>
<pdfrwt beam="1">  1       -1 0.84805910E-02 0.17689472E+03</pdfrwt>
<totfact> 0.20684852E+03</totfact>
</mgrwt>
</event>
<event>
 7    1  0.5400401E-006  0.1836110E+03  0.7546771E-02  0.1169402E+00
         -2   -1    0    0    0  501 -0.00000000000E+00  0.00000000000E+00  0.33347921094E+02  0.33347921094E+02  0.00000000000E+00 0. -1.
          2   -1    0    0  501    0  0.00000000000E+00 -0.00000000000E+00 -0.90423418814E+03  0.90423418814E+03  0.00000000000E+00 0.  1.
         23    2    1    2    0    0 -0.10209053084E+03  0.87523511565E+02 -0.44449604978E+03  0.48092590705E+03  0.12502059124E+03 0.  0.
          5    1    3    3  502    0 -0.52726366677E+02  0.10827475924E+03 -0.36947036815E+03  0.38863084820E+03  0.47000000000E+01 0. -1.
         -5    1    3    3    0  502 -0.49364164165E+02 -0.20751247675E+02 -0.75025681635E+02  0.92295058853E+02  0.47000000000E+01 0. -1.
        -11    1    1    2    0    0  0.97043066111E+02 -0.52399013500E+02 -0.39208252393E+03  0.40729807128E+03  0.00000000000E+00 0.  1.
         11    1    1    2    0    0  0.50474647315E+01 -0.35124498065E+02 -0.34307693329E+02  0.49358130902E+02  0.00000000000E+00 0. -1.
<mgrwt>
<rscale>  0 0.17835746E+03</rscale>
<asrwt>0</asrwt>
<pdfrwt beam="2">  1        2 0.13911296E+00 0.18361097E+03</pdfrwt>
<pdfrwt beam="1">  1       -2 0.51304492E-02 0.18361097E+03</pdfrwt>
<totfact> 0.55924721E+03</totfact>
</mgrwt>
</event>
<event>
 7    1  0.5400401E-006  0.1977960E+03  0.7546771E-02  0.1156667E+00
         -2   -1    0    0    0  501 -0.00000000000E+00  0.00000000000E+00  0.92478700132E+02  0.92478700132E+02  0.00000000000E+00 0. -1.
          2   -1    0    0  501    0  0.00000000000E+00 -0.00000000000E+00 -0.37748534193E+03  0.37748534193E+03  0.00000000000E+00 0.  1.
         23    2    1    2    0    0  0.44946273269E+02 -0.14655312374E+03 -0.15975534799E+03  0.25425388559E+03  0.12500112627E+03 0.  0.
          5    1    3    3  502    0 -0.22418031292E+02 -0.99038506013E+02 -0.40988921813E+02  0.10960554508E+03  0.47000000000E+01 0.  1.
         -5    1    3    3    0  502  0.67364304561E+02 -0.47514617726E+02 -0.11876642618E+03  0.14464834052E+03  0.47000000000E+01 0.  1.
        -11    1    1    2    0    0 -0.91128571886E+01  0.92243362507E+02 -0.24672184824E+02  0.95919751859E+02  0.00000000000E+00 0.  1.
         11    1    1    2    0    0 -0.35833416080E+02  0.54309761232E+02 -0.10057910898E+03  0.11979040461E+03  0.00000000000E+00 0. -1.
<mgrwt>
<rscale>  0 0.19200287E+03</rscale>
<asrwt>0</asrwt>
<pdfrwt beam="2">  1        2 0.58074667E-01 0.19779602E+03</pdfrwt>
<pdfrwt beam="1">  1       -2 0.14227492E-01 0.19779602E+03</pdfrwt>
<totfact> 0.31321021E+03</totfact>
</mgrwt>
</event>
<event>
 7    1  0.5400401E-006  0.1264225E+03  0.7546771E-02  0.1249273E+00
          1   -1    0    0  501    0  0.00000000000E+00  0.00000000000E+00  0.11459544972E+02  0.11459544972E+02  0.00000000000E+00 0. -1.
         -1   -1    0    0    0  501 -0.00000000000E+00 -0.00000000000E+00 -0.12762854575E+04  0.12762854575E+04  0.00000000000E+00 0.  1.
         23    2    1    2    0    0  0.18894389769E+02  0.32216536798E+00 -0.99729151929E+03  0.10052726138E+04  0.12500220735E+03 0.  0.
          5    1    3    3  502    0 -0.50327620009E+02 -0.19613241504E+02 -0.41999317333E+03  0.42347833973E+03  0.47000000000E+01 0. -1.
         -5    1    3    3    0  502  0.69222009778E+02  0.19935406872E+02 -0.57729834596E+03  0.58179427406E+03  0.47000000000E+01 0. -1.
        -11    1    1    2    0    0 -0.34068567003E+02 -0.26076405251E+02 -0.23247044518E+03  0.23639618028E+03  0.00000000000E+00 0.  1.
         11    1    1    2    0    0  0.15174177234E+02  0.25754239883E+02 -0.35063948050E+02  0.46076208389E+02  0.00000000000E+00 0. -1.
<mgrwt>
<rscale>  0 0.11633245E+03</rscale>
<asrwt>0</asrwt>
<pdfrwt beam="1">  1        1 0.17630066E-02 0.12642252E+03</pdfrwt>
<pdfrwt beam="2">  1       -1 0.19635165E+00 0.12642252E+03</pdfrwt>
<totfact> 0.12454747E+03</totfact>
</mgrwt>
</event>
<event>
 7    1  0.5400401E-006  0.1221264E+03  0.7546771E-02  0.1314022E+00
         -3   -1    0    0    0  501 -0.00000000000E+00  0.00000000000E+00  0.99764610796E+02  0.99764610796E+02  0.00000000000E+00 0. -1.
          3   -1    0    0  501    0  0.00000000000E+00 -0.00000000000E+00 -0.57895226213E+02  0.57895226213E+02  0.00000000000E+00 0.  1.
         23    2    1    2    0    0 -0.39047690141E+01 -0.16261702865E+02  0.38607954492E+02  0.12808370789E+03  0.12097591444E+03 0.  0.
          5    1    3    3  502    0  0.17558861740E+02 -0.19415340118E+02  0.78252041634E+02  0.82648297486E+02  0.47000000000E+01 0. -1.
         -5    1    3    3    0  502 -0.21463630754E+02  0.31536372529E+01 -0.39644087142E+02  0.45435410402E+02  0.47000000000E+01 0.  1.
        -11    1    1    2    0    0  0.11041729062E+02 -0.43069553325E+00  0.28744833064E+01  0.11417877806E+02  0.00000000000E+00 0.  1.
         11    1    1    2    0    0 -0.71369600478E+01  0.16692398398E+02  0.38694678430E+00  0.18158251315E+02  0.00000000000E+00 0. -1.
<mgrwt>
<rscale>  0 0.85541798E+02</rscale>
<asrwt>0</asrwt>
<pdfrwt beam="2">  1        3 0.89069579E-02 0.12212642E+03</pdfrwt>
<pdfrwt beam="1">  1       -3 0.15348402E-01 0.12212642E+03</pdfrwt>
<totfact> 0.70773279E+03</totfact>
</mgrwt>
</event>
<event>
 7    1  0.5400401E-006  0.1481232E+03  0.7546771E-02  0.1215423E+00
          2   -1    0    0  501    0  0.00000000000E+00  0.00000000000E+00  0.26765146492E+03  0.26765146492E+03  0.00000000000E+00 0. -1.
         -2   -1    0    0    0  501 -0.00000000000E+00 -0.00000000000E+00 -0.63937509162E+02  0.63937509162E+02  0.00000000000E+00 0.  1.
         23    2    1    2    0    0  0.20195917297E+02 -0.76851484527E+02  0.10601434943E+03  0.18215249950E+03  0.12500586001E+03 0.  0.
          5    1    3    3  502    0 -0.12172441630E+02  0.11238906637E+01  0.96131460594E+02  0.97019478360E+02  0.47000000000E+01 0.  1.
         -5    1    3    3    0  502  0.32368358927E+02 -0.77975375190E+02  0.98828888376E+01  0.85133021135E+02  0.47000000000E+01 0.  1.
        -11    1    1    2    0    0 -0.80085114254E+01  0.32634948038E+02 -0.77138331216E+01  0.34477228863E+02  0.00000000000E+00 0.  1.
         11    1    1    2    0    0 -0.12187405871E+02  0.44216536489E+02  0.10541343945E+03  0.11495924573E+03  0.00000000000E+00 0. -1.
<mgrwt>
<rscale>  0 0.13845525E+03</rscale>
<asrwt>0</asrwt>
<pdfrwt beam="1">  1        2 0.41177148E-01 0.14812323E+03</pdfrwt>
<pdfrwt beam="2">  1       -2 0.98365401E-02 0.14812323E+03</pdfrwt>
<totfact> 0.80545082E+03</totfact>
</mgrwt>
</event>
<event>
 7    1  0.5400401E-006  0.1300146E+03  0.7546771E-02  0.1242619E+00
         -4   -1    0    0    0  501 -0.00000000000E+00  0.00000000000E+00  0.34378405274E+03  0.34378405274E+03  0.00000000000E+00 0.  1.
          4   -1    0    0  501    0  0.00000000000E+00 -0.00000000000E+00 -0.41239868214E+02  0.41239868214E+02  0.00000000000E+00 0. -1.
         23    2    1    2    0    0 -0.35700462368E+02 -0.21749636005E+01  0.23388453996E+03  0.26759255593E+03  0.12499817790E+03 0.  0.
          5    1    3    3  502    0  0.76209062265E+00 -0.59611468358E+02  0.86075315389E+02  0.10481010381E+03  0.47000000000E+01 0.  1.
         -5    1    3    3    0  502 -0.36462552991E+02  0.57436504757E+02  0.14780922457E+03  0.16278245212E+03  0.47000000000E+01 0.  1.
        -11    1    1    2    0    0  0.13021356207E+02 -0.36050226538E+02  0.61420153603E+02  0.72398962834E+02  0.00000000000E+00 0.  1.
         11    1    1    2    0    0  0.22679106161E+02  0.38225190138E+02  0.72394909616E+01  0.45032402187E+02  0.00000000000E+00 0. -1.
<mgrwt>
<rscale>  0 0.12029035E+03</rscale>
<asrwt>0</asrwt>
<pdfrwt beam="2">  1        4 0.63445953E-02 0.13001461E+03</pdfrwt>
<pdfrwt beam="1">  1       -4 0.52889853E-01 0.13001461E+03</pdfrwt>
<totfact> 0.91707423E+02</totfact>
</mgrwt>
</event>
<event>
 7    1  0.5400401E-006  0.1437415E+03  0.7546771E-02  0.1218001E+00
         -3   -1    0    0    0  501 -0.00000000000E+00  0.00000000000E+00  0.31872467885E+03  0.31872467885E+03  0.00000000000E+00 0.  1.
          3   -1    0    0  501    0  0.00000000000E+00 -0.00000000000E+00 -0.54960770662E+02  0.54960770662E+02  0.00000000000E+00 0. -1.
         23    2    1    2    0    0  0.28712403685E+00 -0.70971453011E+02  0.17625244518E+03  0.22743470253E+03  0.12499835959E+03 0.  0.
          5    1    3    3  502    0 -0.10169278815E+02 -0.98518040731E+02  0.17022195211E+03  0.19699447089E+03  0.47000000000E+01 0.  1.
         -5    1    3    3    0  502  0.10456402852E+02  0.27546587719E+02  0.60304930711E+01  0.30440231639E+02  0.47000000000E+01 0.  1.
        -11    1    1    2    0    0  0.27206225813E+02  0.67175509104E+02  0.93054390106E+02  0.11794849412E+03  0.00000000000E+00 0.  1.
         11    1    1    2    0    0 -0.27493349850E+02  0.37959439070E+01 -0.55429271047E+01  0.28302252861E+02  0.00000000000E+00 0. -1.
<mgrwt>
<rscale>  0 0.13658390E+03</rscale>
<asrwt>0</asrwt>
<pdfrwt beam="2">  1        3 0.84555034E-02 0.14374150E+03</pdfrwt>
<pdfrwt beam="1">  1       -3 0.49034565E-01 0.14374150E+03</pdfrwt>
<totfact> 0.94212575E+02</totfact>
</mgrwt>
</event>
<event>
 7    1  0.5400401E-006  0.1454565E+03  0.7546771E-02  0.1217567E+00
          2   -1    0    0  501    0  0.00000000000E+00  0.00000000000E+00  0.92766620770E+02  0.92766620770E+02  0.00000000000E+00 0. -1.
         -2   -1    0    0    0  501 -0.00000000000E+00 -0.00000000000E+00 -0.18159654305E+03  0.18159654305E+03  0.00000000000E+00 0.  1.
         23    2    1    2    0    0  0.35606852607E+02 -0.65296644191E+02 -0.48746970027E+02  0.15340747797E+03  0.12500434999E+03 0.  0.
          5    1    3    3  502    0 -0.24199208292E+02 -0.79948300306E+02 -0.29825730801E+02  0.88820023765E+02  0.47000000000E+01 0.  1.
         -5    1    3    3    0  502  0.59806060900E+02  0.14651656116E+02 -0.18921239226E+02  0.64587454208E+02  0.47000000000E+01 0.  1.
        -11    1    1    2    0    0 -0.56196439018E+02  0.53606943744E+02 -0.52961166098E+02  0.94003347230E+02  0.00000000000E+00 0.  1.
         11    1    1    2    0    0  0.20589586411E+02  0.11689700447E+02  0.12878213845E+02  0.26952338617E+02  0.00000000000E+00 0. -1.
<mgrwt>
<rscale>  0 0.13689618E+03</rscale>
<asrwt>0</asrwt>
<pdfrwt beam="1">  1        2 0.14271788E-01 0.14545648E+03</pdfrwt>
<pdfrwt beam="2">  1       -2 0.27937930E-01 0.14545648E+03</pdfrwt>
<totfact> 0.46160155E+03</totfact>
</mgrwt>
</event>
<event>
 7    1  0.5400401E-006  0.1334286E+03  0.7546771E-02  0.1234971E+00
          3   -1    0    0  501    0  0.00000000000E+00  0.00000000000E+00  0.15590622718E+03  0.15590622718E+03  0.00000000000E+00 0. -1.
         -3   -1    0    0    0  501 -0.00000000000E+00 -0.00000000000E+00 -0.97294289036E+02  0.97294289036E+02  0.00000000000E+00 0.  1.
         23    2    1    2    0    0  0.42917090999E+02  0.18348786653E+02 -0.24952447460E+01  0.13345191648E+03  0.12499853237E+03 0.  0.
          5    1    3    3  502    0 -0.17193881388E+02 -0.20417385602E+02  0.41337707705E+02  0.49430711813E+02  0.47000000000E+01 0. -1.
         -5    1    3    3    0  502  0.60110972387E+02  0.38766172255E+02 -0.43832952451E+02  0.84021204664E+02  0.47000000000E+01 0. -1.
        -11    1    1    2    0    0 -0.30817912815E+02  0.32909431433E+02  0.47206759258E+02  0.65278270099E+02  0.00000000000E+00 0.  1.
         11    1    1    2    0    0 -0.12099178185E+02 -0.51258218086E+02  0.13900423633E+02  0.54470329642E+02  0.00000000000E+00 0. -1.
<mgrwt>
<rscale>  0 0.12506298E+03</rscale>
<asrwt>0</asrwt>
<pdfrwt beam="1">  1        3 0.23985573E-01 0.13342859E+03</pdfrwt>
<pdfrwt beam="2">  1       -3 0.14968352E-01 0.13342859E+03</pdfrwt>
<totfact> 0.13839226E+03</totfact>
</mgrwt>
</event>
<event>
 7    1  0.5400401E-006  0.1643761E+03  0.7546771E-02  0.1190443E+00
          2   -1    0    0  501    0  0.00000000000E+00  0.00000000000E+00  0.53641488302E+03  0.53641488302E+03  0.00000000000E+00 0. -1.
         -2   -1    0    0    0  501 -0.00000000000E+00 -0.00000000000E+00 -0.45819076778E+02  0.45819076778E+02  0.00000000000E+00 0.  1.
         23    2    1    2    0    0  0.10256778739E+03 -0.29571507340E+02  0.20054831581E+03  0.25930508332E+03  0.12499949682E+03 0.  0.
          5    1    3    3  502    0  0.88548725006E+02  0.19202131262E+02  0.57416306447E+02  0.10737001812E+03  0.47000000000E+01 0.  1.
         -5    1    3    3    0  502  0.14019062385E+02 -0.48773638602E+02  0.14313200937E+03  0.15193506520E+03  0.47000000000E+01 0.  1.
        -11    1    1    2    0    0  0.14551175432E+02  0.48155958674E+00  0.74404840828E+02  0.75815888471E+02  0.00000000000E+00 0. -1.
         11    1    1    2    0    0 -0.11711896282E+03  0.29089947754E+02  0.21564264960E+03  0.24711298800E+03  0.00000000000E+00 0.  1.
<mgrwt>
<rscale>  0 0.15846313E+03</rscale>
<asrwt>0</asrwt>
<pdfrwt beam="1">  1        2 0.82525362E-01 0.16437609E+03</pdfrwt>
<pdfrwt beam="2">  1       -2 0.70490891E-02 0.16437609E+03</pdfrwt>
<totfact> 0.64316056E+03</totfact>
</mgrwt>
</event>
<event>
 7    1  0.5400401E-006  0.1325983E+03  0.7546771E-02  0.1236716E+00
          1   -1    0    0  501    0  0.00000000000E+00  0.00000000000E+00  0.26828274505E+03  0.26828274505E+03  0.00000000000E+00 0. -1.
         -1   -1    0    0    0  501 -0.00000000000E+00 -0.00000000000E+00 -0.51869226652E+02  0.51869226652E+02  0.00000000000E+00 0.  1.
         23    2    1    2    0    0  0.15164644329E+02 -0.41240758091E+02  0.10144481672E+03  0.16695316538E+03  0.12510612305E+03 0.  0.
          5    1    3    3  502    0  0.43931940413E+02 -0.34575817472E+02 -0.50595280722E+01  0.56331087036E+02  0.47000000000E+01 0. -1.
         -5    1    3    3    0  502 -0.28767296084E+02 -0.66649406192E+01  0.10650434479E+03  0.11062207834E+03  0.47000000000E+01 0. -1.
        -11    1    1    2    0    0 -0.10127568739E+02 -0.41474054575E+01 -0.13194649067E+02  0.17142560619E+02  0.00000000000E+00 0.  1.
         11    1    1    2    0    0 -0.50370755908E+01  0.45388163548E+02  0.12816335075E+03  0.13605624571E+03  0.00000000000E+00 0. -1.
<mgrwt>
<rscale>  0 0.12395239E+03</rscale>
<asrwt>0</asrwt>
<pdfrwt beam="1">  1        1 0.41274268E-01 0.13259830E+03</pdfrwt>
<pdfrwt beam="2">  1       -1 0.79798812E-02 0.13259830E+03</pdfrwt>
<totfact> 0.82630526E+03</totfact>
</mgrwt>
</event>
<event>
 6    1  0.5400401E-006  0.1469546E+03  0.7546771E-02  0.1215811E+00
          1   -1    0    0  501    0  0.00000000000E+00  0.00000000000E+00  0.39156294100E+02  0.39156294100E+02  0.00000000000E+00 0. -1.
         -1   -1    0    0    0  501 -0.00000000000E+00 -0.00000000000E+00 -0.62498298002E+03  0.62498298002E+03  0.00000000000E+00 0.  1.
          5    1    1    2  502    0 -0.93080503425E+02  0.45114448693E+02 -0.40108468373E+03  0.41423460396E+03  0.47000000000E+01 0. -1.
         -5    1    1    2    0  502  0.40125630876E+02  0.24998067844E+01 -0.97843629279E+02  0.10588569817E+03  0.47000000000E+01 0.  1.
        -11    1    1    2    0    0  0.12187041150E+02  0.27088133416E+02 -0.24209741763E+02  0.38319740868E+02  0.00000000000E+00 0. -1.
         11    1    1    2    0    0  0.40767831399E+02 -0.74702388893E+02 -0.62688631153E+02  0.10569923112E+03  0.00000000000E+00 0.  1.
<mgrwt>
<rscale>  0 0.13817156E+03</rscale>
<asrwt>0</asrwt>
<pdfrwt beam="1">  1        1 0.60240450E-02 0.14695464E+03</pdfrwt>
<pdfrwt beam="2">  1       -1 0.96151231E-01 0.14695464E+03</pdfrwt>
<totfact> 0.13860236E+03</totfact>
</mgrwt>
</event>
<event>
 7    1  0.5400401E-006  0.2262597E+03  0.7546771E-02  0.1132554E+00
          2   -1    0    0  501    0  0.00000000000E+00  0.00000000000E+00  0.39745127319E+03  0.39745127319E+03  0.00000000000E+00 0. -1.
         -2   -1    0    0    0  501 -0.00000000000E+00 -0.00000000000E+00 -0.12182385202E+03  0.12182385202E+03  0.00000000000E+00 0.  1.
         23    2    1    2    0    0 -0.16068127705E+03  0.98740396205E+02  0.10451837116E+03  0.24923394563E+03  0.12500132442E+03 0.  0.
          5    1    3    3  502    0 -0.43724506290E+02  0.30558872975E+02 -0.27397704862E+02  0.60153149540E+02  0.47000000000E+01 0. -1.
         -5    1    3    3    0  502 -0.11695677076E+03  0.68181523231E+02  0.13191607602E+03  0.18908079609E+03  0.47000000000E+01 0. -1.
        -11    1    1    2    0    0  0.48920989406E+02 -0.23177746109E+01  0.72624778171E+01  0.49511401390E+02  0.00000000000E+00 0.  1.
         11    1    1    2    0    0  0.11176028764E+03 -0.96422621595E+02  0.16384657219E+03  0.22052977819E+03  0.00000000000E+00 0. -1.
<mgrwt>
<rscale>  0 0.22179203E+03</rscale>
<asrwt>0</asrwt>
<pdfrwt beam="1">  1        2 0.61146349E-01 0.22625974E+03</pdfrwt>
<pdfrwt beam="2">  1       -2 0.18742131E-01 0.22625974E+03</pdfrwt>
<totfact> 0.18787779E+03</totfact>
</mgrwt>
</event>
<event>
 6    1  0.5400401E-006  0.2758460E+03  0.7546771E-02  0.1124990E+00
         -2   -1    0    0    0  501 -0.00000000000E+00  0.00000000000E+00  0.69834433671E+03  0.69834433671E+03  0.00000000000E+00 0.  1.
          2   -1    0    0  501    0  0.00000000000E+00 -0.00000000000E+00 -0.80128090080E+02  0.80128090080E+02  0.00000000000E+00 0. -1.
          5    1    1    2  502    0  0.67636333495E+02  0.10321159285E+03  0.89871520309E+02  0.15272945581E+03  0.47000000000E+01 0. -1.
         -5    1    1    2    0  502  0.90761020047E+01 -0.23703398913E+02  0.47696526819E+03  0.47766325356E+03  0.47000000000E+01 0.  1.
        -11    1    1    2    0    0 -0.52991375431E+02 -0.30865993299E+02 -0.14306076729E+02  0.62971892490E+02  0.00000000000E+00 0. -1.
         11    1    1    2    0    0 -0.23721060069E+02 -0.48642200642E+02  0.65685534857E+02  0.85107824925E+02  0.00000000000E+00 0.  1.
<mgrwt>
<rscale>  0 0.23235940E+03</rscale>
<asrwt>0</asrwt>
<pdfrwt beam="2">  1        2 0.12327399E-01 0.27584601E+03</pdfrwt>
<pdfrwt beam="1">  1       -2 0.10743759E+00 0.27584601E+03</pdfrwt>
<totfact> 0.35849619E+02</totfact>
</mgrwt>
</event>
<event>
 7    1  0.5400401E-006  0.1342826E+03  0.7546771E-02  0.1232344E+00
          1   -1    0    0  501    0  0.00000000000E+00  0.00000000000E+00  0.28210582919E+03  0.28210582919E+03  0.00000000000E+00 0. -1.
         -1   -1    0    0    0  501 -0.00000000000E+00 -0.00000000000E+00 -0.97518857372E+02  0.97518857372E+02  0.00000000000E+00 0.  1.
         23    2    1    2    0    0 -0.15493828265E+02 -0.46560069478E+02 -0.32151044647E+02  0.13807792644E+03  0.12499570118E+03 0.  0.
          5    1    3    3  502    0  0.17807795812E+02  0.27327815873E+02 -0.45113008250E+02  0.55867706462E+02  0.47000000000E+01 0. -1.
         -5    1    3    3    0  502 -0.33301624077E+02 -0.73887885351E+02  0.12961963603E+02  0.82210219974E+02  0.47000000000E+01 0. -1.
        -11    1    1    2    0    0 -0.16837393492E+02 -0.18231356615E+01 -0.20273948482E+00  0.16937022954E+02  0.00000000000E+00 0.  1.
         11    1    1    2    0    0  0.32331221757E+02  0.48383205140E+02  0.21694075595E+03  0.22460973717E+03  0.00000000000E+00 0. -1.
<mgrwt>
<rscale>  0 0.12676005E+03</rscale>
<asrwt>0</asrwt>
<pdfrwt beam="1">  1        1 0.43400897E-01 0.13428263E+03</pdfrwt>
<pdfrwt beam="2">  1       -1 0.15002901E-01 0.13428263E+03</pdfrwt>
<totfact> 0.29494292E+03</totfact>
</mgrwt>
</event>
<event>
 7    1  0.5400401E-006  0.1423649E+03  0.7546771E-02  0.1221557E+00
         -2   -1    0    0    0  501 -0.00000000000E+00  0.00000000000E+00  0.73785562032E+02  0.73785562032E+02  0.00000000000E+00 0.  1.
          2   -1    0    0  501    0  0.00000000000E+00 -0.00000000000E+00 -0.31551948649E+03  0.31551948649E+03  0.00000000000E+00 0. -1.
         23    2    1    2    0    0 -0.61574836697E+02 -0.29198118881E+02 -0.23845849673E+02  0.14434815826E+03  0.12499510225E+03 0.  0.
          5    1    3    3  502    0 -0.75471143405E+02  0.25541456417E+02 -0.34035116128E+02  0.86768304194E+02  0.47000000000E+01 0. -1.
         -5    1    3    3    0  502  0.13896306709E+02 -0.54739575298E+02  0.10189266455E+02  0.57579854071E+02  0.47000000000E+01 0. -1.
        -11    1    1    2    0    0  0.49096528915E+02 -0.18275282477E+02 -0.60186476026E+02  0.79792650022E+02  0.00000000000E+00 0.  1.
         11    1    1    2    0    0  0.12478307782E+02  0.47473401358E+02 -0.15770159876E+03  0.16516424024E+03  0.00000000000E+00 0. -1.
<mgrwt>
<rscale>  0 0.13405725E+03</rscale>
<asrwt>0</asrwt>
<pdfrwt beam="2">  1        2 0.48541459E-01 0.14236491E+03</pdfrwt>
<pdfrwt beam="1">  1       -2 0.11351625E-01 0.14236491E+03</pdfrwt>
<totfact> 0.53787696E+03</totfact>
</mgrwt>
</event>
<event>
 7    1  0.5400401E-006  0.1686797E+03  0.7546771E-02  0.1185579E+00
         -1   -1    0    0    0  501 -0.00000000000E+00  0.00000000000E+00  0.31853710293E+03  0.31853710293E+03  0.00000000000E+00 0.  1.
          1   -1    0    0  501    0  0.00000000000E+00 -0.00000000000E+00 -0.78131371223E+02  0.78131371223E+02  0.00000000000E+00 0. -1.
         23    2    1    2    0    0  0.82066146291E+02 -0.78041011657E+02  0.13983078981E+03  0.21910157290E+03  0.12501038998E+03 0.  0.
          5    1    3    3  502    0 -0.26274170806E+02 -0.41712790710E+02  0.19865578307E+02  0.53357475219E+02  0.47000000000E+01 0.  1.
         -5    1    3    3    0  502  0.10834031710E+03 -0.36328220948E+02  0.11996521150E+03  0.16574409768E+03  0.47000000000E+01 0.  1.
        -11    1    1    2    0    0 -0.15483635383E+02  0.76675595585E+02  0.41528059630E+02  0.88563365223E+02  0.00000000000E+00 0. -1.
         11    1    1    2    0    0 -0.66582510908E+02  0.13654160728E+01  0.59046882270E+02  0.89003536029E+02  0.00000000000E+00 0.  1.
<mgrwt>
<rscale>  0 0.16279315E+03</rscale>
<asrwt>0</asrwt>
<pdfrwt beam="2">  1        1 0.12020211E-01 0.16867972E+03</pdfrwt>
<pdfrwt beam="1">  1       -1 0.49005707E-01 0.16867972E+03</pdfrwt>
<totfact> 0.20936414E+03</totfact>
</mgrwt>
</event>
<event>
 7    1  0.5400401E-006  0.1495735E+03  0.7546771E-02  0.1210203E+00
          1   -1    0    0  501    0  0.00000000000E+00  0.00000000000E+00  0.22011823776E+03  0.22011823776E+03  0.00000000000E+00 0. -1.
         -1   -1    0    0    0  501 -0.00000000000E+00 -0.00000000000E+00 -0.11437354111E+03  0.11437354111E+03  0.00000000000E+00 0.  1.
         23    2    1    2    0    0  0.63758935022E+02  0.51890412339E+02 -0.28883381777E+02  0.15233673092E+03  0.12495764544E+03 0.  0.
          5    1    3    3  502    0 -0.89386894723E+01  0.59592124459E+02 -0.47360666485E+02  0.76787005390E+02  0.47000000000E+01 0.  1.
         -5    1    3    3    0  502  0.72697624494E+02 -0.77017121192E+01  0.18477284707E+02  0.75549725525E+02  0.47000000000E+01 0.  1.
        -11    1    1    2    0    0 -0.15787253916E+01 -0.49686068123E+02  0.23933250533E+02  0.55172440770E+02  0.00000000000E+00 0.  1.
         11    1    1    2    0    0 -0.62180209630E+02 -0.22043442162E+01  0.11069482790E+03  0.12698260718E+03  0.00000000000E+00 0. -1.
<mgrwt>
<rscale>  0 0.14234878E+03</rscale>
<asrwt>0</asrwt>
<pdfrwt beam="1">  1        1 0.33864344E-01 0.14957349E+03</pdfrwt>
<pdfrwt beam="2">  1       -1 0.17595929E-01 0.14957349E+03</pdfrwt>
<totfact> 0.31331566E+03</totfact>
</mgrwt>
</event>
<event>
 7    1  0.5400401E-006  0.1669297E+03  0.7546771E-02  0.1187285E+00
         -1   -1    0    0    0  501 -0.00000000000E+00  0.00000000000E+00  0.19544093484E+03  0.19544093484E+03  0.00000000000E+00 0.  1.
          1   -1    0    0  501    0  0.00000000000E+00 -0.00000000000E+00 -0.19526384987E+03  0.19526384987E+03  0.00000000000E+00 0. -1.
         23    2    1    2    0    0 -0.32735629565E+02 -0.10560666259E+03  0.11730196802E+03  0.20402271987E+03  0.12506450294E+03 0.  0.
          5    1    3    3  502    0 -0.80746510295E+01  0.28756605555E+02  0.21853348633E+02  0.37306851901E+02  0.47000000000E+01 0.  1.
         -5    1    3    3    0  502 -0.24660978536E+02 -0.13436326815E+03  0.95448619392E+02  0.16671586797E+03  0.47000000000E+01 0.  1.
        -11    1    1    2    0    0  0.62647969515E+02  0.94130414517E+02 -0.86535135536E+02  0.14238550735E+03  0.00000000000E+00 0.  1.
         11    1    1    2    0    0 -0.29912339950E+02  0.11476248077E+02 -0.30589747525E+02  0.44296557483E+02  0.00000000000E+00 0. -1.
<mgrwt>
<rscale>  0 0.16125665E+03</rscale>
<asrwt>0</asrwt>
<pdfrwt beam="2">  1        1 0.30040592E-01 0.16692968E+03</pdfrwt>
<pdfrwt beam="1">  1       -1 0.30067836E-01 0.16692968E+03</pdfrwt>
<totfact> 0.15201353E+03</totfact>
</mgrwt>
</event>
<event>
 7    1  0.5400401E-006  0.1781103E+03  0.7546771E-02  0.1175399E+00
          2   -1    0    0  501    0  0.00000000000E+00  0.00000000000E+00  0.14755520234E+03  0.14755520234E+03  0.00000000000E+00 0. -1.
         -2   -1    0    0    0  501 -0.00000000000E+00 -0.00000000000E+00 -0.23405549151E+03  0.23405549151E+03  0.00000000000E+00 0.  1.
         23    2    1    2    0    0 -0.37475472818E+02  0.12122389874E+03 -0.12874157091E+03  0.21976732422E+03  0.12499455998E+03 0.  0.
          5    1    3    3  502    0  0.13749737425E+02 -0.19863021878E+02 -0.34833928544E+02  0.42650761953E+02  0.47000000000E+01 0. -1.
         -5    1    3    3    0  502 -0.51225210243E+02  0.14108692062E+03 -0.93907642370E+02  0.17711656227E+03  0.47000000000E+01 0. -1.
        -11    1    1    2    0    0  0.35086863781E+02 -0.93951503998E+02  0.70429235970E+02  0.12254897141E+03  0.00000000000E+00 0. -1.
         11    1    1    2    0    0  0.23886090373E+01 -0.27272394743E+02 -0.28187954225E+02  0.39294398221E+02  0.00000000000E+00 0.  1.
<mgrwt>
<rscale>  0 0.17236951E+03</rscale>
<asrwt>0</asrwt>
<pdfrwt beam="1">  1        2 0.22700800E-01 0.17811032E+03</pdfrwt>
<pdfrwt beam="2">  1       -2 0.36008537E-01 0.17811032E+03</pdfrwt>
<totfact> 0.17209727E+03</totfact>
</mgrwt>
</event>
<event>
 7    1  0.5400401E-006  0.1308659E+03  0.7546771E-02  0.1240041E+00
          2   -1    0    0  501    0  0.00000000000E+00  0.00000000000E+00  0.10750402943E+03  0.10750402943E+03  0.00000000000E+00 0. -1.
         -2   -1    0    0    0  501 -0.00000000000E+00 -0.00000000000E+00 -0.13438002662E+03  0.13438002662E+03  0.00000000000E+00 0.  1.
         23    2    1    2    0    0  0.13002800819E+02  0.36586164852E+02 -0.51146704485E+02  0.14050575838E+03  0.12497304698E+03 0.  0.
          5    1    3    3  502    0  0.65004276246E+02  0.40513539230E+02 -0.41571651164E+02  0.87276543078E+02  0.47000000000E+01 0.  1.
         -5    1    3    3    0  502 -0.52001475427E+02 -0.39273743779E+01 -0.95750533209E+01  0.53229215306E+02  0.47000000000E+01 0.  1.
        -11    1    1    2    0    0 -0.36985301561E+02  0.72133277147E+01 -0.12127050797E+02  0.39585477000E+02  0.00000000000E+00 0.  1.
         11    1    1    2    0    0  0.23982500742E+02 -0.43799492567E+02  0.36397758101E+02  0.61792820665E+02  0.00000000000E+00 0. -1.
<mgrwt>
<rscale>  0 0.12187142E+03</rscale>
<asrwt>0</asrwt>
<pdfrwt beam="1">  1        2 0.16539082E-01 0.13086590E+03</pdfrwt>
<pdfrwt beam="2">  1       -2 0.20673850E-01 0.13086590E+03</pdfrwt>
<totfact> 0.65102907E+03</totfact>
</mgrwt>
</event>
<event>
 7    1  0.5400401E-006  0.2435363E+03  0.7546771E-02  0.1120248E+00
          1   -1    0    0  501    0  0.00000000000E+00  0.00000000000E+00  0.17502561662E+03  0.17502561662E+03  0.00000000000E+00 0. -1.
         -1   -1    0    0    0  501 -0.00000000000E+00 -0.00000000000E+00 -0.43495974336E+03  0.43495974336E+03  0.00000000000E+00 0.  1.
         23    2    1    2    0    0 -0.11320127376E+03  0.17404217913E+03 -0.29245029666E+03  0.38057467746E+03  0.12729768503E+03 0.  0.
          5    1    3    3  502    0 -0.10179621446E+03  0.48036749934E+02 -0.17341257297E+03  0.20679460604E+03  0.47000000000E+01 0. -1.
         -5    1    3    3    0  502 -0.11405059303E+02  0.12600542920E+03 -0.11903772369E+03  0.17378007143E+03  0.47000000000E+01 0.  1.
        -11    1    1    2    0    0  0.32709668883E+02 -0.66703778498E+02  0.56220769633E+02  0.93167008337E+02  0.00000000000E+00 0. -1.
         11    1    1    2    0    0  0.80491604876E+02 -0.10733840063E+03 -0.23704599724E+02  0.13624367418E+03  0.00000000000E+00 0.  1.
<mgrwt>
<rscale>  0 0.23931748E+03</rscale>
<asrwt>0</asrwt>
<pdfrwt beam="1">  1        1 0.26927018E-01 0.24353626E+03</pdfrwt>
<pdfrwt beam="2">  1       -1 0.66916882E-01 0.24353626E+03</pdfrwt>
<totfact> 0.41009950E+02</totfact>
</mgrwt>
</event>
<event>
 7    1  0.5400401E-006  0.1484564E+03  0.7546771E-02  0.1212350E+00
         -2   -1    0    0    0  501 -0.00000000000E+00  0.00000000000E+00  0.12317904852E+03  0.12317904852E+03  0.00000000000E+00 0.  1.
          2   -1    0    0  501    0  0.00000000000E+00 -0.00000000000E+00 -0.16429416131E+03  0.16429416131E+03  0.00000000000E+00 0. -1.
         23    2    1    2    0    0  0.43800135744E+02  0.67056011221E+02  0.25034124898E+02  0.15055239541E+03  0.12499742326E+03 0.  0.
          5    1    3    3  502    0  0.22442210721E+01 -0.10012630180E+02 -0.39885127852E+02  0.41451208849E+02  0.47000000000E+01 0. -1.
         -5    1    3    3    0  502  0.41555914672E+02  0.77068641401E+02  0.64919252750E+02  0.10910118656E+03  0.47000000000E+01 0. -1.
        -11    1    1    2    0    0 -0.69940137591E+02 -0.58290847407E+02 -0.58816268062E+02  0.10839187758E+03  0.00000000000E+00 0. -1.
         11    1    1    2    0    0  0.26140001847E+02 -0.87651638143E+01 -0.73329696247E+01  0.28528936832E+02  0.00000000000E+00 0.  1.
<mgrwt>
<rscale>  0 0.14073023E+03</rscale>
<asrwt>0</asrwt>
<pdfrwt beam="2">  1        2 0.25276025E-01 0.14845645E+03</pdfrwt>
<pdfrwt beam="1">  1       -2 0.18950623E-01 0.14845645E+03</pdfrwt>
<totfact> 0.47107691E+03</totfact>
</mgrwt>
</event>
<event>
 7    1  0.5400401E-006  0.1501705E+03  0.7546771E-02  0.1208879E+00
         -2   -1    0    0    0  501 -0.00000000000E+00  0.00000000000E+00  0.58830805173E+02  0.58830805173E+02  0.00000000000E+00 0.  1.
          2   -1    0    0  501    0  0.00000000000E+00 -0.00000000000E+00 -0.32809106158E+03  0.32809106158E+03  0.00000000000E+00 0. -1.
         23    2    1    2    0    0  0.65232724740E+02  0.51697171170E+02 -0.11874729696E+03  0.19144735788E+03  0.12499305750E+03 0.  0.
          5    1    3    3  502    0 -0.21330457714E+02 -0.24260420667E+01  0.12359738698E+02  0.25213632167E+02  0.47000000000E+01 0. -1.
         -5    1    3    3    0  502  0.86563182454E+02  0.54123213237E+02 -0.13110703565E+03  0.16623372572E+03  0.47000000000E+01 0. -1.
        -11    1    1    2    0    0 -0.82401461615E+02 -0.33099189204E+02 -0.14426337774E+03  0.16940330386E+03  0.00000000000E+00 0. -1.
         11    1    1    2    0    0  0.17168736874E+02 -0.18597981966E+02 -0.62495817132E+01  0.26071205010E+02  0.00000000000E+00 0.  1.
<mgrwt>
<rscale>  0 0.14335938E+03</rscale>
<asrwt>0</asrwt>
<pdfrwt beam="2">  1        2 0.50475548E-01 0.15017047E+03</pdfrwt>
<pdfrwt beam="1">  1       -2 0.90508931E-02 0.15017047E+03</pdfrwt>
<totfact> 0.73976775E+03</totfact>
</mgrwt>
</event>
<event>
 7    1  0.5400401E-006  0.1483143E+03  0.7546771E-02  0.1212468E+00
         -1   -1    0    0    0  501 -0.00000000000E+00  0.00000000000E+00  0.10737368325E+03  0.10737368325E+03  0.00000000000E+00 0. -1.
          1   -1    0    0  501    0  0.00000000000E+00 -0.00000000000E+00 -0.16920036315E+03  0.16920036315E+03  0.00000000000E+00 0.  1.
         23    2    1    2    0    0  0.20780751827E+02  0.77074567436E+02 -0.20479927088E+02  0.14972156093E+03  0.12499915921E+03 0.  0.
          5    1    3    3  502    0  0.22414690869E+01  0.40785058376E+02 -0.72576161597E+02  0.83413634392E+02  0.47000000000E+01 0.  1.
         -5    1    3    3    0  502  0.18539282741E+02  0.36289509059E+02  0.52096234508E+02  0.66307926542E+02  0.47000000000E+01 0.  1.
        -11    1    1    2    0    0 -0.35438584255E+02 -0.44167405513E+02 -0.63089181469E+02  0.84775573028E+02  0.00000000000E+00 0.  1.
         11    1    1    2    0    0  0.14657832427E+02 -0.32907161922E+02  0.21742428657E+02  0.42076912448E+02  0.00000000000E+00 0. -1.
<mgrwt>
<rscale>  0 0.14064185E+03</rscale>
<asrwt>0</asrwt>
<pdfrwt beam="2">  1        1 0.26030825E-01 0.14831426E+03</pdfrwt>
<pdfrwt beam="1">  1       -1 0.16519028E-01 0.14831426E+03</pdfrwt>
<totfact> 0.48076029E+03</totfact>
</mgrwt>
</event>
<event>
 7    1  0.5400401E-006  0.2300031E+03  0.7546771E-02  0.1129799E+00
         -2   -1    0    0    0  501 -0.00000000000E+00  0.00000000000E+00  0.56318671209E+02  0.56318671209E+02  0.00000000000E+00 0.  1.
          2   -1    0    0  501    0  0.00000000000E+00 -0.00000000000E+00 -0.93557800850E+03  0.93557800850E+03  0.00000000000E+00 0. -1.
         23    2    1    2    0    0  0.18025963638E+03  0.69162322407E+02 -0.32458897793E+03  0.39781834999E+03  0.12499788656E+03 0.  0.
          5    1    3    3  502    0  0.18998636345E+03  0.35812221589E+02 -0.29002372443E+03  0.34858741263E+03  0.47000000000E+01 0. -1.
         -5    1    3    3    0  502 -0.97267270625E+01  0.33350100819E+02 -0.34565253500E+02  0.49230937362E+02  0.47000000000E+01 0. -1.
        -11    1    1    2    0    0 -0.14755687648E+03 -0.78745133814E+02 -0.51651949839E+03  0.54292377007E+03  0.00000000000E+00 0. -1.
         11    1    1    2    0    0 -0.32702759900E+02  0.95828114063E+01 -0.38150860971E+02  0.51154559644E+02  0.00000000000E+00 0.  1.
<mgrwt>
<rscale>  0 0.22556745E+03</rscale>
<asrwt>0</asrwt>
<pdfrwt beam="2">  1        2 0.14393507E+00 0.23000312E+03</pdfrwt>
<pdfrwt beam="1">  1       -2 0.86644113E-02 0.23000312E+03</pdfrwt>
<totfact> 0.23946427E+03</totfact>
</mgrwt>
</event>
<event>
 7    1  0.5400401E-006  0.2004387E+03  0.7546771E-02  0.1153596E+00
          2   -1    0    0  501    0  0.00000000000E+00  0.00000000000E+00  0.18288676039E+03  0.18288676039E+03  0.00000000000E+00 0. -1.
         -2   -1    0    0    0  501 -0.00000000000E+00 -0.00000000000E+00 -0.25272609872E+03  0.25272609872E+03  0.00000000000E+00 0.  1.
         23    2    1    2    0    0  0.64925614284E+01  0.15652704907E+03 -0.13634723343E+03  0.24241748759E+03  0.12503119524E+03 0.  0.
          5    1    3    3  502    0 -0.21092658509E+02  0.16614847047E+03 -0.13021379457E+03  0.21219787176E+03  0.47000000000E+01 0.  1.
         -5    1    3    3    0  502  0.27585219937E+02 -0.96214214021E+01 -0.61334388574E+01  0.30219615831E+02  0.47000000000E+01 0.  1.
        -11    1    1    2    0    0 -0.33005077350E+02 -0.87679362329E+02 -0.26923591652E+00  0.93686061916E+02  0.00000000000E+00 0. -1.
         11    1    1    2    0    0  0.26512515921E+02 -0.68847686740E+02  0.66777131014E+02  0.99509309597E+02  0.00000000000E+00 0.  1.
<mgrwt>
<rscale>  0 0.19549586E+03</rscale>
<asrwt>0</asrwt>
<pdfrwt beam="1">  1        2 0.28136425E-01 0.20043869E+03</pdfrwt>
<pdfrwt beam="2">  1       -2 0.38880938E-01 0.20043869E+03</pdfrwt>
<totfact> 0.11772521E+03</totfact>
</mgrwt>
</event>
<event>
 7    1  0.5400401E-006  0.1413363E+03  0.7546771E-02  0.1220832E+00
         -1   -1    0    0    0  501 -0.00000000000E+00  0.00000000000E+00  0.33961942607E+02  0.33961942607E+02  0.00000000000E+00 0.  1.
          1   -1    0    0  501    0  0.00000000000E+00 -0.00000000000E+00 -0.51838209322E+03  0.51838209322E+03  0.00000000000E+00 0. -1.
         23    2    1    2    0    0  0.60643993934E+02 -0.26009258968E+02 -0.19798469861E+03  0.24325681289E+03  0.12498704165E+03 0.  0.
          5    1    3    3  502    0  0.24873919397E+02  0.49862222291E+02 -0.96271555996E+02  0.11133398211E+03  0.47000000000E+01 0. -1.
         -5    1    3    3    0  502  0.35770074536E+02 -0.75871481258E+02 -0.10171314262E+03  0.13192283078E+03  0.47000000000E+01 0. -1.
        -11    1    1    2    0    0 -0.29175888522E+02  0.41814034371E+02 -0.26026771365E+03  0.26521487271E+03  0.00000000000E+00 0. -1.
         11    1    1    2    0    0 -0.31468105412E+02 -0.15804775403E+02 -0.26167738355E+02  0.43872350226E+02  0.00000000000E+00 0.  1.
<mgrwt>
<rscale>  0 0.13456752E+03</rscale>
<asrwt>0</asrwt>
<pdfrwt beam="2">  1        1 0.79751091E-01 0.14133625E+03</pdfrwt>
<pdfrwt beam="1">  1       -1 0.52249143E-02 0.14133625E+03</pdfrwt>
<totfact> 0.68123667E+03</totfact>
</mgrwt>
</event>
<event>
 7    1  0.5400401E-006  0.2192398E+03  0.7546771E-02  0.1137835E+00
          2   -1    0    0  501    0  0.00000000000E+00  0.00000000000E+00  0.95346451665E+03  0.95346451665E+03  0.00000000000E+00 0. -1.
         -2   -1    0    0    0  501 -0.00000000000E+00 -0.00000000000E+00 -0.47908430734E+02  0.47908430734E+02  0.00000000000E+00 0.  1.
         23    2    1    2    0    0 -0.16055652174E+03 -0.81614282379E+02  0.38545445619E+03  0.44344246455E+03  0.12500717503E+03 0.  0.
          5    1    3    3  502    0 -0.58898130179E+01 -0.53463659481E+02  0.52979552036E+02  0.75643742084E+02  0.47000000000E+01 0. -1.
         -5    1    3    3    0  502 -0.15466670872E+03 -0.28150622898E+02  0.33247490415E+03  0.36779872246E+03  0.47000000000E+01 0. -1.
        -11    1    1    2    0    0  0.11665509191E+03  0.10064123244E+03  0.39295963561E+03  0.42208333698E+03  0.00000000000E+00 0. -1.
         11    1    1    2    0    0  0.43901429827E+02 -0.19026950058E+02  0.12714199412E+03  0.13584714586E+03  0.00000000000E+00 0.  1.
<mgrwt>
<rscale>  0 0.21478126E+03</rscale>
<asrwt>0</asrwt>
<pdfrwt beam="1">  1        2 0.14668683E+00 0.21923978E+03</pdfrwt>
<pdfrwt beam="2">  1       -2 0.73705285E-02 0.21923978E+03</pdfrwt>
<totfact> 0.30022349E+03</totfact>
</mgrwt>
</event>
<event>
 7    1  0.5400401E-006  0.1730951E+03  0.7546771E-02  0.1181766E+00
          2   -1    0    0  501    0  0.00000000000E+00  0.00000000000E+00  0.35340419183E+03  0.35340419183E+03  0.00000000000E+00 0. -1.
         -2   -1    0    0    0  501 -0.00000000000E+00 -0.00000000000E+00 -0.77428974415E+02  0.77428974415E+02  0.00000000000E+00 0.  1.
         23    2    1    2    0    0  0.51184014180E+02 -0.11248185933E+03  0.95216626707E+02  0.19755537791E+03  0.12120210128E+03 0.  0.
          5    1    3    3  502    0  0.44015886880E+02 -0.72060179117E+02  0.12190328636E+03  0.14836633357E+03  0.47000000000E+01 0. -1.
         -5    1    3    3    0  502  0.71681272992E+01 -0.40421680211E+02 -0.26686659649E+02  0.49189044342E+02  0.47000000000E+01 0.  1.
        -11    1    1    2    0    0 -0.69438050915E+02  0.70119021757E+02  0.10144296520E+03  0.14152383303E+03  0.00000000000E+00 0.  1.
         11    1    1    2    0    0  0.18254036735E+02  0.42362837570E+02  0.79315625511E+02  0.91753955306E+02  0.00000000000E+00 0. -1.
<mgrwt>
<rscale>  0 0.16629653E+03</rscale>
<asrwt>0</asrwt>
<pdfrwt beam="1">  1        2 0.54369875E-01 0.17309512E+03</pdfrwt>
<pdfrwt beam="2">  1       -2 0.11912150E-01 0.17309512E+03</pdfrwt>
<totfact> 0.44588573E+03</totfact>
</mgrwt>
</event>
<event>
 7    1  0.5400401E-006  0.1342482E+03  0.7546771E-02  0.1237633E+00
         -2   -1    0    0    0  501 -0.00000000000E+00  0.00000000000E+00  0.34943267334E+02  0.34943267334E+02  0.00000000000E+00 0.  1.
          2   -1    0    0  501    0  0.00000000000E+00 -0.00000000000E+00 -0.40312581360E+03  0.40312581360E+03  0.00000000000E+00 0. -1.
         23    2    1    2    0    0 -0.20421375046E+02 -0.44499240418E+02 -0.26645138725E+03  0.29836040347E+03  0.12500149454E+03 0.  0.
          5    1    3    3  502    0 -0.42331404504E+02  0.92941851854E+01 -0.21875254273E+03  0.22305401731E+03  0.47000000000E+01 0. -1.
         -5    1    3    3    0  502  0.21910029458E+02 -0.53793425604E+02 -0.47698844515E+02  0.75306386164E+02  0.47000000000E+01 0. -1.
        -11    1    1    2    0    0 -0.19346062741E+02  0.23599239899E+02 -0.23030369787E+01  0.30602258850E+02  0.00000000000E+00 0.  1.
         11    1    1    2    0    0  0.39767437787E+02  0.20900000519E+02 -0.99428122034E+02  0.10910641861E+03  0.00000000000E+00 0. -1.
<mgrwt>
<rscale>  0 0.12337392E+03</rscale>
<asrwt>0</asrwt>
<pdfrwt beam="2">  1        2 0.62019355E-01 0.13424823E+03</pdfrwt>
<pdfrwt beam="1">  1       -2 0.53758873E-02 0.13424823E+03</pdfrwt>
<totfact> 0.13094763E+04</totfact>
</mgrwt>
</event>
<event>
 7    1  0.5400401E-006  0.1256209E+03  0.7546771E-02  0.1243413E+00
          2   -1    0    0  501    0  0.00000000000E+00  0.00000000000E+00  0.16662388002E+03  0.16662388002E+03  0.00000000000E+00 0. -1.
         -2   -1    0    0    0  501 -0.00000000000E+00 -0.00000000000E+00 -0.13563455251E+03  0.13563455251E+03  0.00000000000E+00 0.  1.
         23    2    1    2    0    0  0.44717154779E+02  0.16437622616E+02 -0.80998576744E+02  0.14947032555E+03  0.11623592138E+03 0.  0.
          5    1    3    3  502    0 -0.15207965008E+02 -0.23690206348E+02  0.12614619690E+02  0.31204594316E+02  0.47000000000E+01 0. -1.
         -5    1    3    3    0  502  0.59925119787E+02  0.40127828964E+02 -0.93613196434E+02  0.11826573124E+03  0.47000000000E+01 0.  1.
        -11    1    1    2    0    0 -0.65266985985E+02 -0.29242822240E+02  0.10595744343E+03  0.12783544864E+03  0.00000000000E+00 0. -1.
         11    1    1    2    0    0  0.20549831206E+02  0.12805199624E+02  0.60304608298E+01  0.24952658332E+02  0.00000000000E+00 0.  1.
<mgrwt>
<rscale>  0 0.11980889E+03</rscale>
<asrwt>0</asrwt>
<pdfrwt beam="1">  1        2 0.25634443E-01 0.12562089E+03</pdfrwt>
<pdfrwt beam="2">  1       -2 0.20866854E-01 0.12562089E+03</pdfrwt>
<totfact> 0.39025193E+03</totfact>
</mgrwt>
</event>
<event>
 7    1  0.5400401E-006  0.1279925E+03  0.7546771E-02  0.1245709E+00
          3   -1    0    0  501    0  0.00000000000E+00  0.00000000000E+00  0.10533217293E+02  0.10533217293E+02  0.00000000000E+00 0. -1.
         -3   -1    0    0    0  501 -0.00000000000E+00 -0.00000000000E+00 -0.11713796799E+04  0.11713796799E+04  0.00000000000E+00 0.  1.
         23    2    1    2    0    0 -0.27442469372E+02  0.16032739190E+01 -0.70204041876E+03  0.71361252802E+03  0.12500572372E+03 0.  0.
          5    1    3    3  502    0 -0.13039035980E+00 -0.36851279757E+02 -0.65438686003E+02  0.75248557775E+02  0.47000000000E+01 0. -1.
         -5    1    3    3    0  502 -0.27312079012E+02  0.38454553676E+02 -0.63660173275E+03  0.63836397024E+03  0.47000000000E+01 0. -1.
        -11    1    1    2    0    0  0.40035737000E+02 -0.37452183818E+02 -0.23654463194E+03  0.24281451606E+03  0.00000000000E+00 0. -1.
         11    1    1    2    0    0 -0.12593267628E+02  0.35848909899E+02 -0.22226141186E+03  0.22548585307E+03  0.00000000000E+00 0.  1.
<mgrwt>
<rscale>  0 0.11843027E+03</rscale>
<asrwt>0</asrwt>
<pdfrwt beam="1">  1        3 0.16204948E-02 0.12799254E+03</pdfrwt>
<pdfrwt beam="2">  1       -3 0.18021228E+00 0.12799254E+03</pdfrwt>
<totfact> 0.64549474E+02</totfact>
</mgrwt>
</event>
<event>
 6    1  0.5400401E-006  0.2081790E+03  0.7546771E-02  0.1168940E+00
          4   -1    0    0  501    0  0.00000000000E+00  0.00000000000E+00  0.35470699840E+03  0.35470699840E+03  0.00000000000E+00 0. -1.
         -4   -1    0    0    0  501 -0.00000000000E+00 -0.00000000000E+00 -0.83453709960E+02  0.83453709960E+02  0.00000000000E+00 0.  1.
          5    1    1    2  502    0 -0.11983095865E+02  0.58540301465E+01  0.14420307130E+03  0.14489472050E+03  0.47000000000E+01 0. -1.
         -5    1    1    2    0  502  0.38988504094E+02 -0.56330686176E+02 -0.48660616298E+02  0.84161720723E+02  0.47000000000E+01 0.  1.
        -11    1    1    2    0    0 -0.85458141043E+01  0.21130606606E+02 -0.64383085030E+01  0.23685128047E+02  0.00000000000E+00 0.  1.
         11    1    1    2    0    0 -0.18459594125E+02  0.29346049424E+02  0.18214914194E+03  0.18541913909E+03  0.00000000000E+00 0. -1.
<mgrwt>
<rscale>  0 0.17883060E+03</rscale>
<asrwt>0</asrwt>
<pdfrwt beam="1">  1        4 0.54570307E-01 0.20817899E+03</pdfrwt>
<pdfrwt beam="2">  1       -4 0.12839032E-01 0.20817899E+03</pdfrwt>
<totfact> 0.28650040E+02</totfact>
</mgrwt>
</event>
<event>
 7    1  0.5400401E-006  0.1679370E+03  0.7546771E-02  0.1188862E+00
         -1   -1    0    0    0  501 -0.00000000000E+00  0.00000000000E+00  0.10380666387E+03  0.10380666387E+03  0.00000000000E+00 0.  1.
          1   -1    0    0  501    0  0.00000000000E+00 -0.00000000000E+00 -0.22636123053E+03  0.22636123053E+03  0.00000000000E+00 0. -1.
         23    2    1    2    0    0  0.35895819089E+02 -0.10624910467E+03 -0.55567085816E+02  0.17689129561E+03  0.12500178945E+03 0.  0.
          5    1    3    3  502    0 -0.46675238221E+02 -0.33253312814E+02 -0.15820787398E+02  0.59638477429E+02  0.47000000000E+01 0.  1.
         -5    1    3    3    0  502  0.82571057311E+02 -0.72995791859E+02 -0.39746298418E+02  0.11725281819E+03  0.47000000000E+01 0.  1.
        -11    1    1    2    0    0 -0.40417941507E+02  0.49985061788E+02  0.17847509031E+01  0.64306311769E+02  0.00000000000E+00 0.  1.
         11    1    1    2    0    0  0.45221224174E+01  0.56264042884E+02 -0.68772231747E+02  0.88970287019E+02  0.00000000000E+00 0. -1.
<mgrwt>
<rscale>  0 0.15985353E+03</rscale>
<asrwt>0</asrwt>
<pdfrwt beam="2">  1        1 0.34824805E-01 0.16793698E+03</pdfrwt>
<pdfrwt beam="1">  1       -1 0.15970256E-01 0.16793698E+03</pdfrwt>
<totfact> 0.35480506E+03</totfact>
</mgrwt>
</event>
<event>
 7    1  0.5400401E-006  0.1280895E+03  0.7546771E-02  0.1241156E+00
          2   -1    0    0  501    0  0.00000000000E+00  0.00000000000E+00  0.24495753212E+03  0.24495753212E+03  0.00000000000E+00 0. -1.
         -2   -1    0    0    0  501 -0.00000000000E+00 -0.00000000000E+00 -0.56201018925E+02  0.56201018925E+02  0.00000000000E+00 0.  1.
         23    2    1    2    0    0 -0.26528662494E+02 -0.87990936598E+01  0.77089036788E+02  0.14949798323E+03  0.12500293362E+03 0.  0.
          5    1    3    3  502    0 -0.35480452738E+02  0.14878108646E+02  0.10476114382E+03  0.11170142299E+03  0.47000000000E+01 0. -1.
         -5    1    3    3    0  502  0.89517902439E+01 -0.23677202306E+02 -0.27672107037E+02  0.37796560233E+02  0.47000000000E+01 0. -1.
        -11    1    1    2    0    0 -0.55914746466E+01  0.41128859428E+02  0.13865585216E+02  0.43761879758E+02  0.00000000000E+00 0.  1.
         11    1    1    2    0    0  0.32120137141E+02 -0.32329765768E+02  0.97801891188E+02  0.10789868806E+03  0.00000000000E+00 0. -1.
<mgrwt>
<rscale>  0 0.12118406E+03</rscale>
<asrwt>0</asrwt>
<pdfrwt beam="1">  1        2 0.37685774E-01 0.12808953E+03</pdfrwt>
<pdfrwt beam="2">  1       -2 0.86463107E-02 0.12808953E+03</pdfrwt>
<totfact> 0.10710882E+04</totfact>
</mgrwt>
</event>
<event>
 7    1  0.5400401E-006  0.1381950E+03  0.7546771E-02  0.1227665E+00
         -1   -1    0    0    0  501 -0.00000000000E+00  0.00000000000E+00  0.24758612946E+02  0.24758612946E+02  0.00000000000E+00 0.  1.
          1   -1    0    0  501    0  0.00000000000E+00 -0.00000000000E+00 -0.66458875096E+03  0.66458875096E+03  0.00000000000E+00 0. -1.
         23    2    1    2    0    0 -0.57397288368E+02  0.13329399574E+02 -0.25893173530E+03  0.29350211913E+03  0.12500291509E+03 0.  0.
          5    1    3    3  502    0 -0.47714394308E+02 -0.47549574510E+02 -0.18608343819E+03  0.19795646347E+03  0.47000000000E+01 0. -1.
         -5    1    3    3    0  502 -0.96828940600E+01  0.60878974084E+02 -0.72848297114E+02  0.95545655659E+02  0.47000000000E+01 0. -1.
        -11    1    1    2    0    0  0.52996688769E+02  0.31932349308E+02 -0.20247621677E+03  0.21171901736E+03  0.00000000000E+00 0.  1.
         11    1    1    2    0    0  0.44005995992E+01 -0.45261748882E+02 -0.17842218594E+03  0.18412622742E+03  0.00000000000E+00 0. -1.
<mgrwt>
<rscale>  0 0.12985916E+03</rscale>
<asrwt>0</asrwt>
<pdfrwt beam="2">  1        1 0.10224443E+00 0.13819497E+03</pdfrwt>
<pdfrwt beam="1">  1       -1 0.38090172E-02 0.13819497E+03</pdfrwt>
<totfact> 0.77408295E+03</totfact>
</mgrwt>
</event>
<event>
 7    1  0.5400401E-006  0.1309133E+03  0.7546771E-02  0.1241995E+00
          1   -1    0    0  501    0  0.00000000000E+00  0.00000000000E+00  0.29662434608E+03  0.29662434608E+03  0.00000000000E+00 0. -1.
         -1   -1    0    0    0  501 -0.00000000000E+00 -0.00000000000E+00 -0.43997211677E+02  0.43997211677E+02  0.00000000000E+00 0.  1.
         23    2    1    2    0    0 -0.36934606706E+02 -0.12241877511E+02  0.17360175147E+03  0.21743014795E+03  0.12499708950E+03 0.  0.
          5    1    3    3  502    0  0.23033179144E+01  0.50471707018E+02  0.10414064414E+03  0.11584499231E+03  0.47000000000E+01 0.  1.
         -5    1    3    3    0  502 -0.39237924621E+02 -0.62713584529E+02  0.69461107338E+02  0.10158515564E+03  0.47000000000E+01 0.  1.
        -11    1    1    2    0    0 -0.24510085080E+02 -0.84020659735E+01  0.81887051061E+01  0.27173403809E+02  0.00000000000E+00 0. -1.
         11    1    1    2    0    0  0.61444691786E+02  0.20643943485E+02  0.70836677822E+02  0.96018006000E+02  0.00000000000E+00 0.  1.
<mgrwt>
<rscale>  0 0.12067050E+03</rscale>
<asrwt>0</asrwt>
<pdfrwt beam="1">  1        1 0.45634514E-01 0.13091333E+03</pdfrwt>
<pdfrwt beam="2">  1       -1 0.67688020E-02 0.13091333E+03</pdfrwt>
<totfact> 0.93367490E+03</totfact>
</mgrwt>
</event>
<event>
 7    1  0.5400401E-006  0.1872595E+03  0.7546771E-02  0.1166218E+00
         -2   -1    0    0    0  501 -0.00000000000E+00  0.00000000000E+00  0.16349902121E+03  0.16349902121E+03  0.00000000000E+00 0.  1.
          2   -1    0    0  501    0  0.00000000000E+00 -0.00000000000E+00 -0.21361056900E+03  0.21361056900E+03  0.00000000000E+00 0. -1.
         23    2    1    2    0    0  0.12585781157E+03  0.60007371124E+02  0.35370254101E+02  0.19057061227E+03  0.12500012026E+03 0.  0.
          5    1    3    3  502    0  0.29794334785E+02  0.23308471704E+02 -0.45719609643E+02  0.59526128250E+02  0.47000000000E+01 0.  1.
         -5    1    3    3    0  502  0.96063476782E+02  0.36698899421E+02  0.81089863744E+02  0.13104448402E+03  0.47000000000E+01 0.  1.
        -11    1    1    2    0    0 -0.88281019462E+01 -0.19868189424E+02 -0.54965616486E+02  0.59109215277E+02  0.00000000000E+00 0. -1.
         11    1    1    2    0    0 -0.11702970962E+03 -0.40139181700E+02 -0.30516185397E+02  0.12742976266E+03  0.00000000000E+00 0.  1.
<mgrwt>
<rscale>  0 0.18164731E+03</rscale>
<asrwt>0</asrwt>
<pdfrwt beam="2">  1        2 0.32863164E-01 0.18725945E+03</pdfrwt>
<pdfrwt beam="1">  1       -2 0.25153696E-01 0.18725945E+03</pdfrwt>
<totfact> 0.21953329E+03</totfact>
</mgrwt>
</event>
<event>
 7    1  0.5400401E-006  0.1295228E+03  0.7546771E-02  0.1241724E+00
         -2   -1    0    0    0  501 -0.00000000000E+00  0.00000000000E+00  0.51531638079E+02  0.51531638079E+02  0.00000000000E+00 0.  1.
          2   -1    0    0  501    0  0.00000000000E+00 -0.00000000000E+00 -0.30733840123E+03  0.30733840123E+03  0.00000000000E+00 0. -1.
         23    2    1    2    0    0  0.13151105855E+02 -0.31284833910E+02 -0.66383888467E+02  0.14554369746E+03  0.12499781920E+03 0.  0.
          5    1    3    3  502    0  0.64832547716E+02 -0.25601970261E+02 -0.13351107418E+02  0.71127084812E+02  0.47000000000E+01 0. -1.
         -5    1    3    3    0  502 -0.51681441861E+02 -0.56828636490E+01 -0.53032781049E+02  0.74416612647E+02  0.47000000000E+01 0. -1.
        -11    1    1    2    0    0  0.73715601692E+01  0.57601729654E+02 -0.15435041960E+03  0.16491316257E+03  0.00000000000E+00 0. -1.
         11    1    1    2    0    0 -0.20522666024E+02 -0.26316895743E+02 -0.35072455087E+02  0.48413179282E+02  0.00000000000E+00 0.  1.
<mgrwt>
<rscale>  0 0.12083605E+03</rscale>
<asrwt>0</asrwt>
<pdfrwt beam="2">  1        2 0.47282830E-01 0.12952277E+03</pdfrwt>
<pdfrwt beam="1">  1       -2 0.79279444E-02 0.12952277E+03</pdfrwt>
<totfact> 0.96392316E+03</totfact>
</mgrwt>
</event>
<event>
 6    1  0.5400401E-006  0.1369811E+03  0.7546771E-02  0.1234277E+00
         -2   -1    0    0    0  501 -0.00000000000E+00  0.00000000000E+00  0.18742171337E+03  0.18742171337E+03  0.00000000000E+00 0.  1.
          2   -1    0    0  501    0  0.00000000000E+00 -0.00000000000E+00 -0.95082002037E+02  0.95082002037E+02  0.00000000000E+00 0. -1.
          5    1    1    2  502    0  0.13415182350E+02 -0.49328452724E+02  0.20769999175E+02  0.55378210800E+02  0.47000000000E+01 0. -1.
         -5    1    1    2    0  502 -0.27545079402E+02  0.73718340580E+02  0.99197605421E+02  0.12670982621E+03  0.47000000000E+01 0.  1.
        -11    1    1    2    0    0  0.52516921445E+02 -0.22504040203E+02 -0.23433156431E+02  0.61754122809E+02  0.00000000000E+00 0.  1.
         11    1    1    2    0    0 -0.38387024394E+02 -0.18858476526E+01 -0.41947368348E+01  0.38661555585E+02  0.00000000000E+00 0. -1.
<mgrwt>
<rscale>  0 0.12550834E+03</rscale>
<asrwt>0</asrwt>
<pdfrwt beam="2">  1        2 0.14628000E-01 0.13698112E+03</pdfrwt>
<pdfrwt beam="1">  1       -2 0.28834110E-01 0.13698112E+03</pdfrwt>
<totfact> 0.42225702E+03</totfact>
</mgrwt>
</event>
<event>
 7    1  0.5400401E-006  0.1352725E+03  0.7546771E-02  0.1230355E+00
          4   -1    0    0  501    0  0.00000000000E+00  0.00000000000E+00  0.36271859281E+02  0.36271859281E+02  0.00000000000E+00 0. -1.
         -4   -1    0    0    0  501 -0.00000000000E+00 -0.00000000000E+00 -0.43612262772E+03  0.43612262772E+03  0.00000000000E+00 0.  1.
         23    2    1    2    0    0 -0.24504873690E+02  0.45540342448E+02 -0.27775245827E+03  0.30894185976E+03  0.12499693201E+03 0.  0.
          5    1    3    3  502    0  0.16621472490E+02 -0.30286328112E+02 -0.28147340551E+02  0.44809572620E+02  0.47000000000E+01 0. -1.
         -5    1    3    3    0  502 -0.41126346180E+02  0.75826670560E+02 -0.24960511772E+03  0.26413228714E+03  0.47000000000E+01 0. -1.
        -11    1    1    2    0    0  0.47598997659E+02 -0.15618229463E+02 -0.11438757121E+03  0.12487637934E+03  0.00000000000E+00 0.  1.
         11    1    1    2    0    0 -0.23094123969E+02 -0.29922112985E+02 -0.77107389671E+01  0.38576247910E+02  0.00000000000E+00 0. -1.
<mgrwt>
<rscale>  0 0.12806565E+03</rscale>
<asrwt>0</asrwt>
<pdfrwt beam="1">  1        4 0.55802864E-02 0.13527248E+03</pdfrwt>
<pdfrwt beam="2">  1       -4 0.67095785E-01 0.13527248E+03</pdfrwt>
<totfact> 0.69157110E+02</totfact>
</mgrwt>
</event>
<event>
 7    1  0.5400401E-006  0.1366430E+03  0.7546771E-02  0.1229917E+00
          1   -1    0    0  501    0  0.00000000000E+00  0.00000000000E+00  0.32794632786E+03  0.32794632786E+03  0.00000000000E+00 0. -1.
         -1   -1    0    0    0  501 -0.00000000000E+00 -0.00000000000E+00 -0.48546738812E+02  0.48546738812E+02  0.00000000000E+00 0.  1.
         23    2    1    2    0    0  0.54006050559E+02  0.11301235261E+02  0.10549716544E+03  0.17262954778E+03  0.12500774950E+03 0.  0.
          5    1    3    3  502    0  0.58300182897E+02 -0.42852349850E+02  0.90721323339E+02  0.11613648747E+03  0.47000000000E+01 0.  1.
         -5    1    3    3    0  502 -0.42941323381E+01  0.54153585111E+02  0.14775842097E+02  0.56493060305E+02  0.47000000000E+01 0.  1.
        -11    1    1    2    0    0  0.19229263753E+02  0.38627533272E+01  0.87122756551E+02  0.89303192310E+02  0.00000000000E+00 0. -1.
         11    1    1    2    0    0 -0.73235314312E+02 -0.15163988588E+02  0.86779667056E+02  0.11456032658E+03  0.00000000000E+00 0.  1.
<mgrwt>
<rscale>  0 0.12835509E+03</rscale>
<asrwt>0</asrwt>
<pdfrwt beam="1">  1        1 0.50453280E-01 0.13664300E+03</pdfrwt>
<pdfrwt beam="2">  1       -1 0.74687292E-02 0.13664300E+03</pdfrwt>
<totfact> 0.71347245E+03</totfact>
</mgrwt>
</event>
<event>
 7    1  0.5400401E-006  0.1304011E+03  0.7546771E-02  0.1238942E+00
         -2   -1    0    0    0  501 -0.00000000000E+00  0.00000000000E+00  0.67196505382E+02  0.67196505382E+02  0.00000000000E+00 0.  1.
          2   -1    0    0  501    0  0.00000000000E+00 -0.00000000000E+00 -0.37438436902E+03  0.37438436902E+03  0.00000000000E+00 0. -1.
         23    2    1    2    0    0 -0.31023423158E+02  0.20397797476E+02 -0.13888215888E+02  0.13113857766E+03  0.12500368428E+03 0.  0.
          5    1    3    3  502    0 -0.79011225195E+02  0.20942245751E+02 -0.13069660094E+02  0.82911141465E+02  0.47000000000E+01 0. -1.
         -5    1    3    3    0  502  0.47987802037E+02 -0.54444827545E+00 -0.81855579434E+00  0.48227436194E+02  0.47000000000E+01 0. -1.
        -11    1    1    2    0    0 -0.29789599276E+02 -0.14729530499E+02 -0.53453090116E+02  0.62941338853E+02  0.00000000000E+00 0.  1.
         11    1    1    2    0    0  0.60813022434E+02 -0.56682669771E+01 -0.23984655764E+03  0.24750095789E+03  0.00000000000E+00 0. -1.
<mgrwt>
<rscale>  0 0.12255388E+03</rscale>
<asrwt>0</asrwt>
<pdfrwt beam="2">  1        2 0.57597595E-01 0.13040109E+03</pdfrwt>
<pdfrwt beam="1">  1       -2 0.10337924E-01 0.13040109E+03</pdfrwt>
<totfact> 0.51746659E+03</totfact>
</mgrwt>
</event>
<event>
 7    1  0.5400401E-006  0.1299945E+03  0.7546771E-02  0.1241058E+00
         -3   -1    0    0    0  501 -0.00000000000E+00  0.00000000000E+00  0.31370292107E+03  0.31370292107E+03  0.00000000000E+00 0.  1.
          3   -1    0    0  501    0  0.00000000000E+00 -0.00000000000E+00 -0.47380303360E+02  0.47380303360E+02  0.00000000000E+00 0. -1.
         23    2    1    2    0    0  0.43331241849E+01 -0.35452539150E+02  0.21207342347E+03  0.24874427379E+03  0.12499167293E+03 0.  0.
          5    1    3    3  502    0  0.87095115650E+01  0.20499672638E+02  0.18474918558E+03  0.18614629661E+03  0.47000000000E+01 0.  1.
         -5    1    3    3    0  502 -0.43763873801E+01 -0.55952211788E+02  0.27324237892E+02  0.62597977179E+02  0.47000000000E+01 0.  1.
        -11    1    1    2    0    0 -0.42028636715E+02  0.13789837294E+02  0.52743265392E+02  0.68836167535E+02  0.00000000000E+00 0.  1.
         11    1    1    2    0    0  0.37695512530E+02  0.21662701856E+02  0.15059288518E+01  0.43502783110E+02  0.00000000000E+00 0. -1.
<mgrwt>
<rscale>  0 0.12124442E+03</rscale>
<asrwt>0</asrwt>
<pdfrwt beam="2">  1        3 0.72892777E-02 0.12999453E+03</pdfrwt>
<pdfrwt beam="1">  1       -3 0.48261986E-01 0.12999453E+03</pdfrwt>
<totfact> 0.12179324E+03</totfact>
</mgrwt>
</event>
<event>
 7    1  0.5400401E-006  0.1348276E+03  0.7546771E-02  0.1235640E+00
          1   -1    0    0  501    0  0.00000000000E+00  0.00000000000E+00  0.57832731098E+02  0.57832731098E+02  0.00000000000E+00 0. -1.
         -1   -1    0    0    0  501 -0.00000000000E+00 -0.00000000000E+00 -0.23635386538E+03  0.23635386538E+03  0.00000000000E+00 0.  1.
         23    2    1    2    0    0 -0.45407679932E+02  0.22254503129E+02 -0.93173812393E+02  0.16388968920E+03  0.12498540156E+03 0.  0.
          5    1    3    3  502    0 -0.78383994465E+02  0.38140387969E+02 -0.92202757538E+02  0.12697314000E+03  0.47000000000E+01 0.  1.
         -5    1    3    3    0  502  0.32976314533E+02 -0.15885884840E+02 -0.97105485460E+00  0.36916549200E+02  0.47000000000E+01 0.  1.
        -11    1    1    2    0    0 -0.21752830176E+02 -0.20614030367E+02 -0.16972652795E+02  0.34441179009E+02  0.00000000000E+00 0.  1.
         11    1    1    2    0    0  0.67160510109E+02 -0.16404727620E+01 -0.68374669094E+02  0.95855728272E+02  0.00000000000E+00 0. -1.
<mgrwt>
<rscale>  0 0.12463555E+03</rscale>
<asrwt>0</asrwt>
<pdfrwt beam="1">  1        1 0.88973432E-02 0.13482756E+03</pdfrwt>
<pdfrwt beam="2">  1       -1 0.36362133E-01 0.13482756E+03</pdfrwt>
<totfact> 0.52379131E+03</totfact>
</mgrwt>
</event>
<event>
 7    1  0.5400401E-006  0.2664091E+03  0.7546771E-02  0.1105494E+00
          1   -1    0    0  501    0  0.00000000000E+00  0.00000000000E+00  0.91427209222E+02  0.91427209222E+02  0.00000000000E+00 0. -1.
         -1   -1    0    0    0  501 -0.00000000000E+00 -0.00000000000E+00 -0.77805918074E+03  0.77805918074E+03  0.00000000000E+00 0.  1.
         23    2    1    2    0    0 -0.10609941168E+03 -0.20999327491E+03 -0.45422426325E+03  0.52658664268E+03  0.12497819912E+03 0.  0.
          5    1    3    3  502    0 -0.13250885671E+03 -0.15839219648E+03 -0.37740249084E+03  0.43023413987E+03  0.47000000000E+01 0.  1.
         -5    1    3    3    0  502  0.26409445034E+02 -0.51601078429E+02 -0.76821772412E+02  0.96352502814E+02  0.47000000000E+01 0.  1.
        -11    1    1    2    0    0  0.41850945801E+02  0.13110199317E+03 -0.78594880783E+02  0.15848151174E+03  0.00000000000E+00 0.  1.
         11    1    1    2    0    0  0.64248465877E+02  0.78891281737E+02 -0.15381282749E+03  0.18441823554E+03  0.00000000000E+00 0. -1.
<mgrwt>
<rscale>  0 0.26276388E+03</rscale>
<asrwt>0</asrwt>
<pdfrwt beam="1">  1        1 0.14065725E-01 0.26640910E+03</pdfrwt>
<pdfrwt beam="2">  1       -1 0.11970141E+00 0.26640910E+03</pdfrwt>
<totfact> 0.27077266E+02</totfact>
</mgrwt>
</event>
<event>
 6    1  0.5400401E-006  0.1609034E+03  0.7546771E-02  0.1211914E+00
         -1   -1    0    0    0  501 -0.00000000000E+00  0.00000000000E+00  0.19951290894E+03  0.19951290894E+03  0.00000000000E+00 0.  1.
          1   -1    0    0  501    0  0.00000000000E+00 -0.00000000000E+00 -0.27150684645E+03  0.27150684645E+03  0.00000000000E+00 0. -1.
          5    1    1    2  502    0  0.24801313112E+02 -0.65699605197E+02  0.72569820905E+02  0.10109407580E+03  0.47000000000E+01 0. -1.
         -5    1    1    2    0  502 -0.12892541381E+02  0.89353675256E+02  0.83368883389E+02  0.12297462186E+03  0.47000000000E+01 0.  1.
        -11    1    1    2    0    0  0.29969082866E+02  0.18011412550E+02 -0.10259538215E+03  0.10838989504E+03  0.00000000000E+00 0.  1.
         11    1    1    2    0    0 -0.41877854596E+02 -0.41665482610E+02 -0.12533725966E+03  0.13856116269E+03  0.00000000000E+00 0. -1.
<mgrwt>
<rscale>  0 0.14105682E+03</rscale>
<asrwt>0</asrwt>
<pdfrwt beam="2">  1        1 0.41770284E-01 0.16090339E+03</pdfrwt>
<pdfrwt beam="1">  1       -1 0.30694294E-01 0.16090339E+03</pdfrwt>
<totfact> 0.97298988E+02</totfact>
</mgrwt>
</event>
<event>
 7    1  0.5400401E-006  0.1267215E+03  0.7546771E-02  0.1247566E+00
          2   -1    0    0  501    0  0.00000000000E+00  0.00000000000E+00  0.32909071859E+03  0.32909071859E+03  0.00000000000E+00 0. -1.
         -2   -1    0    0    0  501 -0.00000000000E+00 -0.00000000000E+00 -0.37884538126E+02  0.37884538126E+02  0.00000000000E+00 0.  1.
         23    2    1    2    0    0 -0.19919173715E+01 -0.20728700728E+02  0.13535065998E+03  0.18541342877E+03  0.12499876657E+03 0.  0.
          5    1    3    3  502    0 -0.52608482708E+01 -0.50804548107E+02  0.14460267048E+03  0.15343011745E+03  0.47000000000E+01 0. -1.
         -5    1    3    3    0  502  0.32689308993E+01  0.30075847379E+02 -0.92520104963E+01  0.31983311320E+02  0.47000000000E+01 0. -1.
        -11    1    1    2    0    0  0.61627373826E+01  0.48976463152E+02  0.14096592767E+03  0.14935884989E+03  0.00000000000E+00 0. -1.
         11    1    1    2    0    0 -0.41708200112E+01 -0.28247762425E+02  0.14889592812E+02  0.32202978056E+02  0.00000000000E+00 0.  1.
<mgrwt>
<rscale>  0 0.11733123E+03</rscale>
<asrwt>0</asrwt>
<pdfrwt beam="1">  1        2 0.50629339E-01 0.12672150E+03</pdfrwt>
<pdfrwt beam="2">  1       -2 0.58283907E-02 0.12672150E+03</pdfrwt>
<totfact> 0.14312616E+04</totfact>
</mgrwt>
</event>
<event>
 7    1  0.5400401E-006  0.1129144E+03  0.7546771E-02  0.1264475E+00
         -3   -1    0    0    0  501 -0.00000000000E+00  0.00000000000E+00  0.86506089255E+02  0.86506089255E+02  0.00000000000E+00 0.  1.
          3   -1    0    0  501    0  0.00000000000E+00 -0.00000000000E+00 -0.16476723511E+03  0.16476723511E+03  0.00000000000E+00 0. -1.
         23    2    1    2    0    0  0.23276552086E+02  0.31616372738E+01  0.20521889475E+02  0.11476412331E+03  0.11044393249E+03 0.  0.
          5    1    3    3  502    0  0.39247005141E+02  0.20216703078E+02 -0.33566098911E+02  0.55658022710E+02  0.47000000000E+01 0. -1.
         -5    1    3    3    0  502 -0.15970453056E+02 -0.17055065804E+02  0.54087988386E+02  0.59106100599E+02  0.47000000000E+01 0.  1.
        -11    1    1    2    0    0  0.23403087241E+02 -0.25036993140E+01 -0.84458424483E+02  0.87676670037E+02  0.00000000000E+00 0. -1.
         11    1    1    2    0    0 -0.46679639327E+02 -0.65793795972E+00 -0.14324610850E+02  0.48832531022E+02  0.00000000000E+00 0.  1.
<mgrwt>
<rscale>  0 0.10791783E+03</rscale>
<asrwt>0</asrwt>
<pdfrwt beam="2">  1        3 0.25348805E-01 0.11291437E+03</pdfrwt>
<pdfrwt beam="1">  1       -3 0.13308629E-01 0.11291437E+03</pdfrwt>
<totfact> 0.14859363E+03</totfact>
</mgrwt>
</event>
<event>
 7    1  0.5400401E-006  0.1691583E+03  0.7546771E-02  0.1186048E+00
         -1   -1    0    0    0  501 -0.00000000000E+00  0.00000000000E+00  0.72885089452E+03  0.72885089452E+03  0.00000000000E+00 0.  1.
          1   -1    0    0  501    0  0.00000000000E+00 -0.00000000000E+00 -0.53869157726E+02  0.53869157726E+02  0.00000000000E+00 0. -1.
         23    2    1    2    0    0  0.50154844967E+02  0.10234720139E+03  0.59453041479E+03  0.61812697398E+03  0.12499633493E+03 0.  0.
          5    1    3    3  502    0  0.81617117723E+02  0.10929251175E+03  0.47089795377E+03  0.49027867574E+03  0.47000000000E+01 0.  1.
         -5    1    3    3    0  502 -0.31462272756E+02 -0.69453103571E+01  0.12363246102E+03  0.12784829823E+03  0.47000000000E+01 0.  1.
        -11    1    1    2    0    0 -0.23284615220E+02 -0.88179972217E+01  0.60269295510E+02  0.65209802654E+02  0.00000000000E+00 0.  1.
         11    1    1    2    0    0 -0.26870229747E+02 -0.93529204167E+02  0.20182026501E+02  0.99383275618E+02  0.00000000000E+00 0. -1.
<mgrwt>
<rscale>  0 0.16236862E+03</rscale>
<asrwt>0</asrwt>
<pdfrwt beam="2">  1        1 0.82875633E-02 0.16915833E+03</pdfrwt>
<pdfrwt beam="1">  1       -1 0.11213090E+00 0.16915833E+03</pdfrwt>
<totfact> 0.64009998E+02</totfact>
</mgrwt>
</event>
<event>
 7    1  0.5400401E-006  0.1292830E+03  0.7546771E-02  0.1243170E+00
         -1   -1    0    0    0  501 -0.00000000000E+00  0.00000000000E+00  0.15356319377E+03  0.15356319377E+03  0.00000000000E+00 0.  1.
          1   -1    0    0  501    0  0.00000000000E+00 -0.00000000000E+00 -0.11386127846E+03  0.11386127846E+03  0.00000000000E+00 0. -1.
         23    2    1    2    0    0 -0.14267185462E+02  0.29756549465E+02  0.91606535042E+02  0.15844822320E+03  0.12500030942E+03 0.  0.
          5    1    3    3  502    0  0.17088884647E+02 -0.15498114793E+02 -0.21932709124E+02  0.32176936929E+02  0.47000000000E+01 0. -1.
         -5    1    3    3    0  502 -0.31356070109E+02  0.45254664258E+02  0.11353924417E+03  0.12627128627E+03  0.47000000000E+01 0. -1.
        -11    1    1    2    0    0  0.69189686804E-03 -0.55509432070E+02 -0.56469457692E+02  0.79183942194E+02  0.00000000000E+00 0. -1.
         11    1    1    2    0    0  0.14266493565E+02  0.25752882606E+02  0.45648379654E+01  0.29792306839E+02  0.00000000000E+00 0.  1.
<mgrwt>
<rscale>  0 0.11995588E+03</rscale>
<asrwt>0</asrwt>
<pdfrwt beam="2">  1        1 0.17517120E-01 0.12928295E+03</pdfrwt>
<pdfrwt beam="1">  1       -1 0.23625107E-01 0.12928295E+03</pdfrwt>
<totfact> 0.44356823E+03</totfact>
</mgrwt>
</event>
<event>
 7    1  0.5400401E-006  0.1716433E+03  0.7546771E-02  0.1182599E+00
          2   -1    0    0  501    0  0.00000000000E+00  0.00000000000E+00  0.99062946595E+03  0.99062946595E+03  0.00000000000E+00 0.  1.
         -2   -1    0    0    0  501 -0.00000000000E+00 -0.00000000000E+00 -0.25857416370E+02  0.25857416370E+02  0.00000000000E+00 0. -1.
         23    2    1    2    0    0 -0.73535990433E+02 -0.91808650478E+02  0.51317587483E+03  0.54112004073E+03  0.12500019912E+03 0.  0.
          5    1    3    3  502    0 -0.33288565763E+02 -0.11101028565E+03  0.27023374344E+03  0.29407444334E+03  0.47000000000E+01 0.  1.
         -5    1    3    3    0  502 -0.40247424670E+02  0.19201635175E+02  0.24294213139E+03  0.24704559739E+03  0.47000000000E+01 0.  1.
        -11    1    1    2    0    0  0.66058672497E+02  0.15555992300E+02  0.15842410322E+03  0.17234829152E+03  0.00000000000E+00 0.  1.
         11    1    1    2    0    0  0.74773179364E+01  0.76252658178E+02  0.29317207153E+03  0.30301855007E+03  0.00000000000E+00 0. -1.
<mgrwt>
<rscale>  0 0.16552290E+03</rscale>
<asrwt>0</asrwt>
<pdfrwt beam="1">  1        2 0.15240450E+00 0.17164329E+03</pdfrwt>
<pdfrwt beam="2">  1       -2 0.39780648E-02 0.17164329E+03</pdfrwt>
<totfact> 0.72273989E+03</totfact>
</mgrwt>
</event>
<event>
 7    1  0.5400401E-006  0.1289713E+03  0.7546771E-02  0.1241765E+00
         -1   -1    0    0    0  501 -0.00000000000E+00  0.00000000000E+00  0.27524978402E+03  0.27524978402E+03  0.00000000000E+00 0.  1.
          1   -1    0    0  501    0  0.00000000000E+00 -0.00000000000E+00 -0.74673516595E+02  0.74673516595E+02  0.00000000000E+00 0. -1.
         23    2    1    2    0    0  0.30346141115E+02  0.92785129266E+01  0.21385958998E+03  0.24973891430E+03  0.12500648787E+03 0.  0.
          5    1    3    3  502    0  0.41066824232E+02 -0.47931997294E+02  0.69425582154E+02  0.93946590543E+02  0.47000000000E+01 0. -1.
         -5    1    3    3    0  502 -0.10720683117E+02  0.57210510221E+02  0.14443400783E+03  0.15579232376E+03  0.47000000000E+01 0. -1.
        -11    1    1    2    0    0 -0.38401481204E+02 -0.39985383951E+02  0.15251776627E+02  0.57498881543E+02  0.00000000000E+00 0.  1.
         11    1    1    2    0    0  0.80553400893E+01  0.30706871024E+02 -0.28535099182E+02  0.42685504769E+02  0.00000000000E+00 0. -1.
<mgrwt>
<rscale>  0 0.12081115E+03</rscale>
<asrwt>0</asrwt>
<pdfrwt beam="2">  1        1 0.11488233E-01 0.12897132E+03</pdfrwt>
<pdfrwt beam="1">  1       -1 0.42346120E-01 0.12897132E+03</pdfrwt>
<totfact> 0.28545624E+03</totfact>
</mgrwt>
</event>
<event>
 7    1  0.5400401E-006  0.1434638E+03  0.7546771E-02  0.1219089E+00
          2   -1    0    0  501    0  0.00000000000E+00  0.00000000000E+00  0.35534778136E+03  0.35534778136E+03  0.00000000000E+00 0. -1.
         -2   -1    0    0    0  501 -0.00000000000E+00 -0.00000000000E+00 -0.51625375944E+02  0.51625375944E+02  0.00000000000E+00 0.  1.
         23    2    1    2    0    0  0.68729450605E+01  0.70071842271E+02  0.10686995767E+03  0.17889399709E+03  0.12499829554E+03 0.  0.
          5    1    3    3  502    0 -0.24488141508E+02 -0.24529855605E+02  0.58149601827E+02  0.67859038330E+02  0.47000000000E+01 0.  1.
         -5    1    3    3    0  502  0.31361086568E+02  0.94601697876E+02  0.48720355847E+02  0.11103495875E+03  0.47000000000E+01 0.  1.
        -11    1    1    2    0    0 -0.29528320030E+02 -0.28840383749E+02  0.21528370320E+02  0.46552767342E+02  0.00000000000E+00 0.  1.
         11    1    1    2    0    0  0.22655374969E+02 -0.41231458522E+02  0.17532407742E+03  0.18152639287E+03  0.00000000000E+00 0. -1.
<mgrwt>
<rscale>  0 0.13580398E+03</rscale>
<asrwt>0</asrwt>
<pdfrwt beam="1">  1        2 0.54668888E-01 0.14346384E+03</pdfrwt>
<pdfrwt beam="2">  1       -2 0.79423658E-02 0.14346384E+03</pdfrwt>
<totfact> 0.82998351E+03</totfact>
</mgrwt>
</event>
<event>
 7    1  0.5400401E-006  0.2588167E+03  0.7546771E-02  0.1110107E+00
         -2   -1    0    0    0  501 -0.00000000000E+00  0.00000000000E+00  0.18237860093E+03  0.18237860093E+03  0.00000000000E+00 0. -1.
          2   -1    0    0  501    0  0.00000000000E+00 -0.00000000000E+00 -0.36223974518E+03  0.36223974518E+03  0.00000000000E+00 0.  1.
         23    2    1    2    0    0  0.22512930600E+03  0.26018673547E+02 -0.36711382174E+02  0.26140731551E+03  0.12500353286E+03 0.  0.
          5    1    3    3  502    0  0.16479638990E+03  0.44261794560E+02 -0.76139097703E+02  0.18691230238E+03  0.47000000000E+01 0.  1.
         -5    1    3    3    0  502  0.60332916099E+02 -0.18243121013E+02  0.39427715529E+02  0.74495013129E+02  0.47000000000E+01 0.  1.
        -11    1    1    2    0    0 -0.11092930135E+03 -0.39072403898E+01 -0.12207999337E+03  0.16499727637E+03  0.00000000000E+00 0.  1.
         11    1    1    2    0    0 -0.11420000465E+03 -0.22111433157E+02 -0.21069768702E+02  0.11821375424E+03  0.00000000000E+00 0. -1.
<mgrwt>
<rscale>  0 0.25512680E+03</rscale>
<asrwt>0</asrwt>
<pdfrwt beam="2">  1        2 0.55729191E-01 0.25881665E+03</pdfrwt>
<pdfrwt beam="1">  1       -2 0.28058247E-01 0.25881665E+03</pdfrwt>
<totfact> 0.10291005E+03</totfact>
</mgrwt>
</event>
<event>
 7    1  0.5400401E-006  0.1701144E+03  0.7546771E-02  0.1185015E+00
          1   -1    0    0  501    0  0.00000000000E+00  0.00000000000E+00  0.68797338808E+03  0.68797338808E+03  0.00000000000E+00 0. -1.
         -1   -1    0    0    0  501 -0.00000000000E+00 -0.00000000000E+00 -0.36209219597E+02  0.36209219597E+02  0.00000000000E+00 0.  1.
         23    2    1    2    0    0 -0.45400118187E+01 -0.11523375965E+03  0.38208290000E+03  0.41824184862E+03  0.12505786819E+03 0.  0.
          5    1    3    3  502    0 -0.48185825856E+02 -0.62938650587E+02  0.98322023515E+02  0.12638218964E+03  0.47000000000E+01 0.  1.
         -5    1    3    3    0  502  0.43645814037E+02 -0.52295109062E+02  0.28376087649E+03  0.29185965898E+03  0.47000000000E+01 0.  1.
        -11    1    1    2    0    0  0.31008649960E+02  0.10823368283E+03  0.24249533280E+03  0.26735753758E+03  0.00000000000E+00 0.  1.
         11    1    1    2    0    0 -0.26468638141E+02  0.70000768172E+01  0.27185935683E+02  0.38583221476E+02  0.00000000000E+00 0. -1.
<mgrwt>
<rscale>  0 0.16330544E+03</rscale>
<asrwt>0</asrwt>
<pdfrwt beam="1">  1        1 0.10584205E+00 0.17011438E+03</pdfrwt>
<pdfrwt beam="2">  1       -1 0.55706497E-02 0.17011438E+03</pdfrwt>
<totfact> 0.42415474E+03</totfact>
</mgrwt>
</event>
<event>
 7    1  0.5400401E-006  0.1462878E+03  0.7546771E-02  0.1214774E+00
          1   -1    0    0  501    0  0.00000000000E+00  0.00000000000E+00  0.11001109273E+04  0.11001109273E+04  0.00000000000E+00 0. -1.
         -1   -1    0    0    0  501 -0.00000000000E+00 -0.00000000000E+00 -0.16007676314E+02  0.16007676314E+02  0.00000000000E+00 0.  1.
         23    2    1    2    0    0 -0.76120740978E+01 -0.75571406206E+02  0.58173714630E+03  0.59984851424E+03  0.12502460377E+03 0.  0.
          5    1    3    3  502    0  0.25439264758E+02 -0.46645790951E+02  0.52615483834E+03  0.52885157645E+03  0.47000000000E+01 0.  1.
         -5    1    3    3    0  502 -0.33051338856E+02 -0.28925615255E+02  0.55582307956E+02  0.70996937791E+02  0.47000000000E+01 0.  1.
        -11    1    1    2    0    0  0.22079345543E+02 -0.39476551811E+01  0.32409423407E+02  0.39413858053E+02  0.00000000000E+00 0.  1.
         11    1    1    2    0    0 -0.14467271446E+02  0.79519061387E+02  0.46995668132E+03  0.47685623136E+03  0.00000000000E+00 0. -1.
<mgrwt>
<rscale>  0 0.13893158E+03</rscale>
<asrwt>0</asrwt>
<pdfrwt beam="1">  1        1 0.16924777E+00 0.14628784E+03</pdfrwt>
<pdfrwt beam="2">  1       -1 0.24627203E-02 0.14628784E+03</pdfrwt>
<totfact> 0.66501858E+03</totfact>
</mgrwt>
</event>
<event>
 7    1  0.5400401E-006  0.1287239E+03  0.7546771E-02  0.1244488E+00
         -2   -1    0    0    0  501 -0.00000000000E+00  0.00000000000E+00  0.12059943879E+03  0.12059943879E+03  0.00000000000E+00 0. -1.
          2   -1    0    0  501    0  0.00000000000E+00 -0.00000000000E+00 -0.12427133911E+03  0.12427133911E+03  0.00000000000E+00 0.  1.
         23    2    1    2    0    0 -0.29411224559E+02 -0.90303233616E+01  0.47711024115E+02  0.13728140504E+03  0.12499310172E+03 0.  0.
          5    1    3    3  502    0 -0.67119233160E+02 -0.14544450239E+02 -0.83383501478E+01  0.69340829069E+02  0.47000000000E+01 0. -1.
         -5    1    3    3    0  502  0.37708008602E+02  0.55141268769E+01  0.56049374263E+02  0.67940575970E+02  0.47000000000E+01 0. -1.
        -11    1    1    2    0    0  0.47318545759E+02  0.98856898092E+01  0.48356954151E+01  0.48581432522E+02  0.00000000000E+00 0. -1.
         11    1    1    2    0    0 -0.17907321200E+02 -0.85536644757E+00 -0.56218619853E+02  0.59007940335E+02  0.00000000000E+00 0.  1.
<mgrwt>
<rscale>  0 0.11916064E+03</rscale>
<asrwt>0</asrwt>
<pdfrwt beam="2">  1        2 0.19118668E-01 0.12872390E+03</pdfrwt>
<pdfrwt beam="1">  1       -2 0.18553760E-01 0.12872390E+03</pdfrwt>
<totfact> 0.66097193E+03</totfact>
</mgrwt>
</event>
<event>
 7    1  0.5400401E-006  0.1226784E+03  0.7546771E-02  0.1248257E+00
         -1   -1    0    0    0  501 -0.00000000000E+00  0.00000000000E+00  0.42268245283E+02  0.42268245283E+02  0.00000000000E+00 0.  1.
          1   -1    0    0  501    0  0.00000000000E+00 -0.00000000000E+00 -0.33772633211E+03  0.33772633211E+03  0.00000000000E+00 0. -1.
         23    2    1    2    0    0 -0.31860329054E+02  0.18601699675E+02 -0.94072332228E+02  0.15459495495E+03  0.11699954106E+03 0.  0.
          5    1    3    3  502    0 -0.61260816106E+02 -0.25076931726E+02 -0.70173684983E+02  0.96582483706E+02  0.47000000000E+01 0. -1.
         -5    1    3    3    0  502  0.29400487052E+02  0.43678631400E+02 -0.23898647245E+02  0.58012471246E+02  0.47000000000E+01 0.  1.
        -11    1    1    2    0    0  0.61896003107E+02 -0.28948347815E+02 -0.15236034454E+03  0.16698142600E+03  0.00000000000E+00 0.  1.
         11    1    1    2    0    0 -0.30035674053E+02  0.10346648141E+02 -0.49025410057E+02  0.58418196436E+02  0.00000000000E+00 0. -1.
<mgrwt>
<rscale>  0 0.11692573E+03</rscale>
<asrwt>0</asrwt>
<pdfrwt beam="2">  1        1 0.51957896E-01 0.12267843E+03</pdfrwt>
<pdfrwt beam="1">  1       -1 0.65028072E-02 0.12267843E+03</pdfrwt>
<totfact> 0.84011045E+03</totfact>
</mgrwt>
</event>
<event>
 7    1  0.5400401E-006  0.3259584E+03  0.7546771E-02  0.1074296E+00
         -4   -1    0    0    0  501 -0.00000000000E+00  0.00000000000E+00  0.15180025527E+03  0.15180025527E+03  0.00000000000E+00 0. -1.
          4   -1    0    0  501    0  0.00000000000E+00 -0.00000000000E+00 -0.69396312902E+03  0.69396312902E+03  0.00000000000E+00 0.  1.
         23    2    1    2    0    0 -0.11882720546E+03 -0.27659330078E+03 -0.34633563990E+03  0.47560200491E+03  0.12500053125E+03 0.  0.
          5    1    3    3  502    0 -0.73074825609E+02 -0.41709256980E+02 -0.66346130538E+02  0.10725432995E+03  0.47000000000E+01 0. -1.
         -5    1    3    3    0  502 -0.45752379851E+02 -0.23488404380E+03 -0.27998950936E+03  0.36834767496E+03  0.47000000000E+01 0. -1.
        -11    1    1    2    0    0  0.89079753713E+02  0.15871611452E+03 -0.16277531911E+03  0.24417578103E+03  0.00000000000E+00 0.  1.
         11    1    1    2    0    0  0.29747451747E+02  0.11787718626E+03 -0.33051914735E+02  0.12598559836E+03  0.00000000000E+00 0. -1.
<mgrwt>
<rscale>  0 0.32295754E+03</rscale>
<asrwt>0</asrwt>
<pdfrwt beam="2">  1        4 0.10676356E+00 0.32595842E+03</pdfrwt>
<pdfrwt beam="1">  1       -4 0.23353885E-01 0.32595842E+03</pdfrwt>
<totfact> 0.23119016E+01</totfact>
</mgrwt>
</event>
<event>
 7    1  0.5400401E-006  0.1397940E+03  0.7546771E-02  0.1225209E+00
          2   -1    0    0  501    0  0.00000000000E+00  0.00000000000E+00  0.28262905700E+03  0.28262905700E+03  0.00000000000E+00 0. -1.
         -2   -1    0    0    0  501 -0.00000000000E+00 -0.00000000000E+00 -0.55856720348E+02  0.55856720348E+02  0.00000000000E+00 0.  1.
         23    2    1    2    0    0 -0.18137516603E+02 -0.59935832405E+02  0.10601797763E+03  0.17544846659E+03  0.12498431635E+03 0.  0.
          5    1    3    3  502    0 -0.66095284031E+02 -0.38706599666E+02  0.28757661406E+02  0.81950476011E+02  0.47000000000E+01 0.  1.
         -5    1    3    3    0  502  0.47957767428E+02 -0.21229232739E+02  0.77260316220E+02  0.93497990576E+02  0.47000000000E+01 0.  1.
        -11    1    1    2    0    0  0.30572027044E+02  0.71780993982E+02  0.12306153369E+03  0.14570964624E+03  0.00000000000E+00 0. -1.
         11    1    1    2    0    0 -0.12434510440E+02 -0.11845161577E+02 -0.23071746629E+01  0.17327664517E+02  0.00000000000E+00 0.  1.
<mgrwt>
<rscale>  0 0.13152610E+03</rscale>
<asrwt>0</asrwt>
<pdfrwt beam="1">  1        2 0.43481393E-01 0.13979397E+03</pdfrwt>
<pdfrwt beam="2">  1       -2 0.85933417E-02 0.13979397E+03</pdfrwt>
<totfact> 0.93511049E+03</totfact>
</mgrwt>
</event>
<event>
 7    1  0.8325267E-006  0.1361769E+03  0.7546771E-02  0.1230862E+00
         -1   -1    0    0    0  501 -0.00000000000E+00  0.00000000000E+00  0.18375967853E+03  0.18375967853E+03  0.00000000000E+00 0.  1.
          1   -1    0    0  501    0  0.00000000000E+00 -0.00000000000E+00 -0.84175252421E+02  0.84175252421E+02  0.00000000000E+00 0. -1.
         23    2    1    2    0    0  0.52554836389E+02  0.12538671689E+02  0.87431388841E+02  0.16182829444E+03  0.12499968004E+03 0.  0.
          5    1    3    3  502    0  0.87958819617E+02 -0.14332076610E+02  0.71593138666E+02  0.11441079439E+03  0.47000000000E+01 0.  1.
         -5    1    3    3    0  502 -0.35403983227E+02  0.26870748299E+02  0.15838250174E+02  0.47417500051E+02  0.47000000000E+01 0.  1.
        -11    1    1    2    0    0 -0.33857847702E+02 -0.49866802781E+02  0.20238914891E+02  0.63581959286E+02  0.00000000000E+00 0.  1.
         11    1    1    2    0    0 -0.18696988687E+02  0.37328131092E+02 -0.80858776179E+01  0.42524677231E+02  0.00000000000E+00 0. -1.
<mgrwt>
<rscale>  0 0.12773101E+03</rscale>
<asrwt>0</asrwt>
<pdfrwt beam="2">  1        1 0.12950039E-01 0.13617690E+03</pdfrwt>
<pdfrwt beam="1">  1       -1 0.28270720E-01 0.13617690E+03</pdfrwt>
<totfact> 0.48923577E+03</totfact>
</mgrwt>
</event>
<event>
 6    1  0.5400401E-006  0.5272604E+03  0.7546771E-02  0.1054969E+00
         -2   -1    0    0    0  501 -0.00000000000E+00  0.00000000000E+00  0.31294243644E+03  0.31294243644E+03  0.00000000000E+00 0.  1.
          2   -1    0    0  501    0  0.00000000000E+00 -0.00000000000E+00 -0.46179178064E+03  0.46179178064E+03  0.00000000000E+00 0. -1.
          5    1    1    2  502    0 -0.20709659420E+03  0.42949123887E+02 -0.16567884730E+03  0.26871024732E+03  0.47000000000E+01 0. -1.
         -5    1    1    2    0  502  0.12025526816E+03 -0.57643861291E+02  0.22537831369E+03  0.26191910688E+03  0.47000000000E+01 0.  1.
        -11    1    1    2    0    0 -0.68181369821E+01 -0.87352553703E+01  0.30738678322E+01  0.11499580068E+02  0.00000000000E+00 0.  1.
         11    1    1    2    0    0  0.93659463022E+02  0.23429992774E+02 -0.21162267842E+03  0.23260528282E+03  0.00000000000E+00 0. -1.
<mgrwt>
<rscale>  0 0.36927830E+03</rscale>
<asrwt>0</asrwt>
<pdfrwt beam="2">  1        2 0.71044888E-01 0.52726036E+03</pdfrwt>
<pdfrwt beam="1">  1       -2 0.48144991E-01 0.52726036E+03</pdfrwt>
<totfact> 0.28047861E+02</totfact>
</mgrwt>
</event>
<event>
 7    1  0.5400401E-006  0.1257279E+03  0.7546771E-02  0.1249518E+00
         -1   -1    0    0    0  501 -0.00000000000E+00  0.00000000000E+00  0.74608101633E+02  0.74608101633E+02  0.00000000000E+00 0.  1.
          1   -1    0    0  501    0  0.00000000000E+00 -0.00000000000E+00 -0.24368312587E+03  0.24368312587E+03  0.00000000000E+00 0. -1.
         23    2    1    2    0    0 -0.13283328197E+02 -0.26523877667E+01  0.25027604177E+00  0.12572812327E+03  0.12499606543E+03 0.  0.
          5    1    3    3  502    0 -0.17290838746E+02  0.42482407048E+02 -0.42901934156E+02  0.62979313806E+02  0.47000000000E+01 0. -1.
         -5    1    3    3    0  502  0.40075105496E+01 -0.45134794815E+02  0.43152210198E+02  0.62748809461E+02  0.47000000000E+01 0. -1.
        -11    1    1    2    0    0  0.35887687087E+00  0.44480562602E+02 -0.59157209241E+02  0.74015029873E+02  0.00000000000E+00 0.  1.
         11    1    1    2    0    0  0.12924451326E+02 -0.41828174835E+02 -0.11016809104E+03  0.11854807436E+03  0.00000000000E+00 0. -1.
<mgrwt>
<rscale>  0 0.11619031E+03</rscale>
<asrwt>0</asrwt>
<pdfrwt beam="2">  1        1 0.37489713E-01 0.12572787E+03</pdfrwt>
<pdfrwt beam="1">  1       -1 0.11478169E-01 0.12572787E+03</pdfrwt>
<totfact> 0.53333504E+03</totfact>
</mgrwt>
</event>
<event>
 7    1  0.5400401E-006  0.1216240E+03  0.7546771E-02  0.1247201E+00
         -1   -1    0    0    0  501 -0.00000000000E+00  0.00000000000E+00  0.19033835912E+03  0.19033835912E+03  0.00000000000E+00 0.  1.
          1   -1    0    0  501    0  0.00000000000E+00 -0.00000000000E+00 -0.68389235895E+02  0.68389235895E+02  0.00000000000E+00 0. -1.
         23    2    1    2    0    0 -0.49875795477E+02 -0.10762888925E+02  0.73174106882E+02  0.14193956254E+03  0.11040359933E+03 0.  0.
          5    1    3    3  502    0 -0.80349989491E+02 -0.15138862534E+02  0.26981116364E+02  0.86228629876E+02  0.47000000000E+01 0. -1.
         -5    1    3    3    0  502  0.30474194014E+02  0.43759736092E+01  0.46192990518E+02  0.55710932669E+02  0.47000000000E+01 0.  1.
        -11    1    1    2    0    0  0.69511057155E+01 -0.37685888359E+02  0.31988483584E+02  0.49918004108E+02  0.00000000000E+00 0.  1.
         11    1    1    2    0    0  0.42924689761E+02  0.48448777284E+02  0.16786532763E+02  0.66870028365E+02  0.00000000000E+00 0. -1.
<mgrwt>
<rscale>  0 0.11754626E+03</rscale>
<asrwt>0</asrwt>
<pdfrwt beam="2">  1        1 0.10521421E-01 0.12162397E+03</pdfrwt>
<pdfrwt beam="1">  1       -1 0.29282824E-01 0.12162397E+03</pdfrwt>
<totfact> 0.60117161E+03</totfact>
</mgrwt>
</event>
<event>
 7    1  0.5400401E-006  0.1300844E+03  0.7546771E-02  0.1240513E+00
         -2   -1    0    0    0  501 -0.00000000000E+00  0.00000000000E+00  0.25708127940E+02  0.25708127940E+02  0.00000000000E+00 0.  1.
          2   -1    0    0  501    0  0.00000000000E+00 -0.00000000000E+00 -0.51259453811E+03  0.51259453811E+03  0.00000000000E+00 0. -1.
         23    2    1    2    0    0  0.31682123034E+02  0.17085167769E+02 -0.28840988416E+03  0.31638935251E+03  0.12500520479E+03 0.  0.
          5    1    3    3  502    0  0.18912097567E+02  0.71283655465E+02 -0.17484599963E+03  0.18982160193E+03  0.47000000000E+01 0. -1.
         -5    1    3    3    0  502  0.12770025467E+02 -0.54198487696E+02 -0.11356388452E+03  0.12656775058E+03  0.47000000000E+01 0. -1.
        -11    1    1    2    0    0  0.94515078177E+01  0.17852262627E+02 -0.46697094187E+01  0.20732594314E+02  0.00000000000E+00 0.  1.
         11    1    1    2    0    0 -0.41133630852E+02 -0.34937430397E+02 -0.19380681659E+03  0.20118071923E+03  0.00000000000E+00 0. -1.
<mgrwt>
<rscale>  0 0.12158018E+03</rscale>
<asrwt>0</asrwt>
<pdfrwt beam="2">  1        2 0.78860699E-01 0.13008444E+03</pdfrwt>
<pdfrwt beam="1">  1       -2 0.39550966E-02 0.13008444E+03</pdfrwt>
<totfact> 0.15931099E+04</totfact>
</mgrwt>
</event>
<event>
 7    1  0.5400401E-006  0.1709778E+03  0.7546771E-02  0.1183005E+00
         -1   -1    0    0    0  501 -0.00000000000E+00  0.00000000000E+00  0.28902061281E+02  0.28902061281E+02  0.00000000000E+00 0.  1.
          1   -1    0    0  501    0  0.00000000000E+00 -0.00000000000E+00 -0.89666307502E+03  0.89666307502E+03  0.00000000000E+00 0. -1.
         23    2    1    2    0    0  0.20844531690E+02 -0.11478513010E+03 -0.51698259044E+03  0.54452217099E+03  0.12499310097E+03 0.  0.
          5    1    3    3  502    0 -0.39742360680E+02 -0.90943763035E+02 -0.38008431130E+03  0.39285671302E+03  0.47000000000E+01 0.  1.
         -5    1    3    3    0  502  0.60586892370E+02 -0.23841367065E+02 -0.13689827914E+03  0.15166545797E+03  0.47000000000E+01 0.  1.
        -11    1    1    2    0    0  0.23432466383E+02  0.96923203063E+02 -0.21196881931E+03  0.23425193303E+03  0.00000000000E+00 0. -1.
         11    1    1    2    0    0 -0.44276998072E+02  0.17861927038E+02 -0.13880960400E+03  0.14679103228E+03  0.00000000000E+00 0.  1.
<mgrwt>
<rscale>  0 0.16514755E+03</rscale>
<asrwt>0</asrwt>
<pdfrwt beam="2">  1        1 0.13794815E+00 0.17097776E+03</pdfrwt>
<pdfrwt beam="1">  1       -1 0.44464715E-02 0.17097776E+03</pdfrwt>
<totfact> 0.39753411E+03</totfact>
</mgrwt>
</event>
<event>
 7    1  0.5400401E-006  0.1503918E+03  0.7546771E-02  0.1209236E+00
         -2   -1    0    0    0  501 -0.00000000000E+00  0.00000000000E+00  0.14065418794E+02  0.14065418794E+02  0.00000000000E+00 0.  1.
          2   -1    0    0  501    0  0.00000000000E+00 -0.00000000000E+00 -0.13363089432E+04  0.13363089432E+04  0.00000000000E+00 0. -1.
         23    2    1    2    0    0  0.87331820614E+01 -0.83218510188E+02 -0.68302866129E+03  0.69938962503E+03  0.12496442112E+03 0.  0.
          5    1    3    3  502    0  0.38098759311E+00 -0.59686605006E+02 -0.10552319938E+03  0.12132547785E+03  0.47000000000E+01 0.  1.
         -5    1    3    3    0  502  0.83521944683E+01 -0.23531905181E+02 -0.57750546191E+03  0.57806414718E+03  0.47000000000E+01 0.  1.
        -11    1    1    2    0    0 -0.35911785124E+02  0.22354823318E+01 -0.14214180643E+03  0.14662519165E+03  0.00000000000E+00 0.  1.
         11    1    1    2    0    0  0.27178603063E+02  0.80983027856E+02 -0.49707305671E+03  0.50435954533E+03  0.00000000000E+00 0. -1.
<mgrwt>
<rscale>  0 0.14308586E+03</rscale>
<asrwt>0</asrwt>
<pdfrwt beam="2">  1        2 0.20558607E+00 0.15039181E+03</pdfrwt>
<pdfrwt beam="1">  1       -2 0.21639098E-02 0.15039181E+03</pdfrwt>
<totfact> 0.11238915E+04</totfact>
</mgrwt>
</event>
<event>
 7    1  0.5400401E-006  0.1414016E+03  0.7546771E-02  0.1221795E+00
          2   -1    0    0  501    0  0.00000000000E+00  0.00000000000E+00  0.32945312452E+02  0.32945312452E+02  0.00000000000E+00 0. -1.
         -2   -1    0    0    0  501 -0.00000000000E+00 -0.00000000000E+00 -0.61588101320E+03  0.61588101320E+03  0.00000000000E+00 0.  1.
         23    2    1    2    0    0 -0.56471068225E+02  0.34350440035E+02 -0.46068717136E+03  0.48189944472E+03  0.12500188273E+03 0.  0.
          5    1    3    3  502    0 -0.73619865318E+02  0.21479754602E+02 -0.45168740369E+03  0.45817558324E+03  0.47000000000E+01 0. -1.
         -5    1    3    3    0  502  0.17148797093E+02  0.12870685433E+02 -0.89997676743E+01  0.23723861478E+02  0.47000000000E+01 0. -1.
        -11    1    1    2    0    0  0.42882900820E+02 -0.66265754679E+02 -0.87121151364E+02  0.11755929755E+03  0.00000000000E+00 0. -1.
         11    1    1    2    0    0  0.13588167405E+02  0.31915314644E+02 -0.35127378019E+02  0.49367583380E+02  0.00000000000E+00 0.  1.
<mgrwt>
<rscale>  0 0.13388995E+03</rscale>
<asrwt>0</asrwt>
<pdfrwt beam="1">  1        2 0.50685101E-02 0.14140157E+03</pdfrwt>
<pdfrwt beam="2">  1       -2 0.94750917E-01 0.14140157E+03</pdfrwt>
<totfact> 0.14520418E+03</totfact>
</mgrwt>
</event>
<event>
 7    1  0.5400401E-006  0.1378763E+03  0.7546771E-02  0.1230727E+00
          2   -1    0    0  501    0  0.00000000000E+00  0.00000000000E+00  0.73495161049E+03  0.73495161049E+03  0.00000000000E+00 0. -1.
         -2   -1    0    0    0  501 -0.00000000000E+00 -0.00000000000E+00 -0.19729818327E+02  0.19729818327E+02  0.00000000000E+00 0.  1.
         23    2    1    2    0    0 -0.45217671243E+02  0.36598800673E+02  0.37496318176E+03  0.39950877203E+03  0.12500304498E+03 0.  0.
          5    1    3    3  502    0 -0.62095441757E+02  0.70657441246E+02  0.31106978615E+03  0.32501510695E+03  0.47000000000E+01 0.  1.
         -5    1    3    3    0  502  0.16877770514E+02 -0.34058640573E+02  0.63893395604E+02  0.74493665080E+02  0.47000000000E+01 0.  1.
        -11    1    1    2    0    0  0.46887929055E+02  0.15319678780E+02  0.14704015729E+03  0.15509345023E+03  0.00000000000E+00 0.  1.
         11    1    1    2    0    0 -0.16702578113E+01 -0.51918479453E+02  0.19321845312E+03  0.20007920656E+03  0.00000000000E+00 0. -1.
<mgrwt>
<rscale>  0 0.12781988E+03</rscale>
<asrwt>0</asrwt>
<pdfrwt beam="1">  1        2 0.11306946E+00 0.13787629E+03</pdfrwt>
<pdfrwt beam="2">  1       -2 0.30353572E-02 0.13787629E+03</pdfrwt>
<totfact> 0.15649472E+04</totfact>
</mgrwt>
</event>
<event>
 7    1  0.5400401E-006  0.1283981E+03  0.7546771E-02  0.1239787E+00
         -1   -1    0    0    0  501 -0.00000000000E+00  0.00000000000E+00  0.52123870269E+02  0.52123870269E+02  0.00000000000E+00 0.  1.
          1   -1    0    0  501    0  0.00000000000E+00 -0.00000000000E+00 -0.26143609835E+03  0.26143609835E+03  0.00000000000E+00 0. -1.
         23    2    1    2    0    0  0.54499834872E+02 -0.17715137469E+02 -0.10711767657E+03  0.16721320750E+03  0.11489996532E+03 0.  0.
          5    1    3    3  502    0  0.73301177803E+02  0.22116514208E+02 -0.93355421519E+02  0.12082850489E+03  0.47000000000E+01 0.  1.
         -5    1    3    3    0  502 -0.18801342931E+02 -0.39831651677E+02 -0.13762255051E+02  0.46384702601E+02  0.47000000000E+01 0. -1.
        -11    1    1    2    0    0 -0.25664717595E+02 -0.87987291284E+01  0.88959117205E+01  0.28552278523E+02  0.00000000000E+00 0.  1.
         11    1    1    2    0    0 -0.28835117277E+02  0.26513866597E+02 -0.11109046323E+03  0.11779448260E+03  0.00000000000E+00 0. -1.
<mgrwt>
<rscale>  0 0.12202890E+03</rscale>
<asrwt>0</asrwt>
<pdfrwt beam="2">  1        1 0.40220938E-01 0.12839805E+03</pdfrwt>
<pdfrwt beam="1">  1       -1 0.80190570E-02 0.12839805E+03</pdfrwt>
<totfact> 0.84478913E+03</totfact>
</mgrwt>
</event>
<event>
 7    1  0.5400401E-006  0.1318062E+03  0.7546771E-02  0.1237899E+00
         -1   -1    0    0    0  501 -0.00000000000E+00  0.00000000000E+00  0.22550610050E+03  0.22550610050E+03  0.00000000000E+00 0.  1.
          1   -1    0    0  501    0  0.00000000000E+00 -0.00000000000E+00 -0.67317051558E+02  0.67317051558E+02  0.00000000000E+00 0. -1.
         23    2    1    2    0    0  0.29601106682E+02 -0.29727836912E+02  0.13675936123E+03  0.18993681466E+03  0.12495159412E+03 0.  0.
          5    1    3    3  502    0  0.41910001832E+02  0.41564074781E+02  0.65069865118E+02  0.87978394578E+02  0.47000000000E+01 0. -1.
         -5    1    3    3    0  502 -0.12308895150E+02 -0.71291911693E+02  0.71689496108E+02  0.10195842008E+03  0.47000000000E+01 0. -1.
        -11    1    1    2    0    0 -0.12331130549E+02 -0.27295755152E+01 -0.34057515328E+02  0.36323844971E+02  0.00000000000E+00 0. -1.
         11    1    1    2    0    0 -0.17269976133E+02  0.32457412427E+02  0.55487203049E+02  0.66562492436E+02  0.00000000000E+00 0.  1.
<mgrwt>
<rscale>  0 0.12320648E+03</rscale>
<asrwt>0</asrwt>
<pdfrwt beam="2">  1        1 0.10356470E-01 0.13180619E+03</pdfrwt>
<pdfrwt beam="1">  1       -1 0.34693246E-01 0.13180619E+03</pdfrwt>
<totfact> 0.46345697E+03</totfact>
</mgrwt>
</event>
<event>
 7    1  0.5400401E-006  0.1305457E+03  0.7546771E-02  0.1235773E+00
         -1   -1    0    0    0  501 -0.00000000000E+00  0.00000000000E+00  0.95329659972E+02  0.95329659972E+02  0.00000000000E+00 0.  1.
          1   -1    0    0  501    0  0.00000000000E+00 -0.00000000000E+00 -0.15681365884E+03  0.15681365884E+03  0.00000000000E+00 0. -1.
         23    2    1    2    0    0 -0.12397067211E+02  0.35523692198E+02 -0.62652966857E+01  0.13069593062E+03  0.12500620927E+03 0.  0.
          5    1    3    3  502    0  0.30248333887E+02 -0.19464162574E+02  0.34373842087E+02  0.49974657052E+02  0.47000000000E+01 0.  1.
         -5    1    3    3    0  502 -0.42645401097E+02  0.54987854771E+02 -0.40639138772E+02  0.80721273573E+02  0.47000000000E+01 0.  1.
        -11    1    1    2    0    0  0.99348037158E+01 -0.17817594303E+01  0.28989936289E+02  0.30696765262E+02  0.00000000000E+00 0.  1.
         11    1    1    2    0    0  0.24622634948E+01 -0.33741932767E+02 -0.84208638473E+02  0.90750622928E+02  0.00000000000E+00 0. -1.
<mgrwt>
<rscale>  0 0.12455087E+03</rscale>
<asrwt>0</asrwt>
<pdfrwt beam="2">  1        1 0.24125178E-01 0.13054567E+03</pdfrwt>
<pdfrwt beam="1">  1       -1 0.14666102E-01 0.13054567E+03</pdfrwt>
<totfact> 0.63265006E+03</totfact>
</mgrwt>
</event>
<event>
 7    1  0.5400401E-006  0.1546127E+03  0.7546771E-02  0.1203289E+00
          2   -1    0    0  501    0  0.00000000000E+00  0.00000000000E+00  0.39035392775E+03  0.39035392775E+03  0.00000000000E+00 0. -1.
         -2   -1    0    0    0  501 -0.00000000000E+00 -0.00000000000E+00 -0.51599201732E+02  0.51599201732E+02  0.00000000000E+00 0.  1.
         23    2    1    2    0    0 -0.21125739987E+02  0.88519527857E+02  0.17361246862E+03  0.23247878182E+03  0.12499236390E+03 0.  0.
          5    1    3    3  502    0  0.16257503818E+02  0.79799946400E+02  0.35341555369E+02  0.88901369009E+02  0.47000000000E+01 0.  1.
         -5    1    3    3    0  502 -0.37383243805E+02  0.87195814579E+01  0.13827091325E+03  0.14357741281E+03  0.47000000000E+01 0.  1.
        -11    1    1    2    0    0  0.54889197170E+02 -0.69212537779E+02  0.98462038610E+02  0.13227990172E+03  0.00000000000E+00 0.  1.
         11    1    1    2    0    0 -0.33763457183E+02 -0.19306990078E+02  0.66680218791E+02  0.77194445946E+02  0.00000000000E+00 0. -1.
<mgrwt>
<rscale>  0 0.14773115E+03</rscale>
<asrwt>0</asrwt>
<pdfrwt beam="1">  1        2 0.60054449E-01 0.15461273E+03</pdfrwt>
<pdfrwt beam="2">  1       -2 0.79383390E-02 0.15461273E+03</pdfrwt>
<totfact> 0.75497084E+03</totfact>
</mgrwt>
</event>
<event>
 7    1  0.5400401E-006  0.1255065E+03  0.7546771E-02  0.1250063E+00
         -1   -1    0    0    0  501 -0.00000000000E+00  0.00000000000E+00  0.19389368015E+02  0.19389368015E+02  0.00000000000E+00 0.  1.
          1   -1    0    0  501    0  0.00000000000E+00 -0.00000000000E+00 -0.60709210865E+03  0.60709210865E+03  0.00000000000E+00 0. -1.
         23    2    1    2    0    0 -0.99226089644E+01 -0.57361574940E+01 -0.32417096889E+03  0.34761861357E+03  0.12498208576E+03 0.  0.
          5    1    3    3  502    0  0.21458472901E+02  0.10903821035E+02 -0.30683853628E+03  0.30781705073E+03  0.47000000000E+01 0.  1.
         -5    1    3    3    0  502 -0.31381081866E+02 -0.16639978529E+02 -0.17332432603E+02  0.39801562839E+02  0.47000000000E+01 0.  1.
        -11    1    1    2    0    0  0.28291008398E+02 -0.31722289630E+02 -0.18625571238E+03  0.19104417084E+03  0.00000000000E+00 0. -1.
         11    1    1    2    0    0 -0.18368399434E+02  0.37458447124E+02 -0.77276059365E+02  0.87818692257E+02  0.00000000000E+00 0.  1.
<mgrwt>
<rscale>  0 0.11587393E+03</rscale>
<asrwt>0</asrwt>
<pdfrwt beam="2">  1        1 0.93398775E-01 0.12550651E+03</pdfrwt>
<pdfrwt beam="1">  1       -1 0.29829801E-02 0.12550651E+03</pdfrwt>
<totfact> 0.12453711E+04</totfact>
</mgrwt>
</event>
<event>
 7    1  0.5400401E-006  0.2649315E+03  0.7546771E-02  0.1105555E+00
          2   -1    0    0  501    0  0.00000000000E+00  0.00000000000E+00  0.40264411801E+03  0.40264411801E+03  0.00000000000E+00 0. -1.
         -2   -1    0    0    0  501 -0.00000000000E+00 -0.00000000000E+00 -0.28278507967E+03  0.28278507967E+03  0.00000000000E+00 0.  1.
         23    2    1    2    0    0  0.88451924073E+02  0.22220391212E+03 -0.15733603937E+03  0.30812877056E+03  0.11397538562E+03 0.  0.
          5    1    3    3  502    0  0.35419295078E+02  0.29999287047E+02 -0.83134658914E+02  0.95330714882E+02  0.47000000000E+01 0. -1.
         -5    1    3    3    0  502  0.53032628995E+02  0.19220462507E+03 -0.74201380460E+02  0.21279805568E+03  0.47000000000E+01 0.  1.
        -11    1    1    2    0    0 -0.55128307420E+02 -0.39325947405E+02  0.52533759387E+02  0.85705637467E+02  0.00000000000E+00 0.  1.
         11    1    1    2    0    0 -0.33323616653E+02 -0.18287796472E+03  0.22466131833E+03  0.29159478966E+03  0.00000000000E+00 0. -1.
<mgrwt>
<rscale>  0 0.26266107E+03</rscale>
<asrwt>0</asrwt>
<pdfrwt beam="1">  1        2 0.61945249E-01 0.26493152E+03</pdfrwt>
<pdfrwt beam="2">  1       -2 0.43505397E-01 0.26493152E+03</pdfrwt>
<totfact> 0.40359389E+02</totfact>
</mgrwt>
</event>
<event>
 7    1  0.5400401E-006  0.1326285E+03  0.7546771E-02  0.1236324E+00
         -2   -1    0    0    0  501 -0.00000000000E+00  0.00000000000E+00  0.28992296984E+03  0.28992296984E+03  0.00000000000E+00 0.  1.
          2   -1    0    0  501    0  0.00000000000E+00 -0.00000000000E+00 -0.47610789480E+02  0.47610789480E+02  0.00000000000E+00 0. -1.
         23    2    1    2    0    0 -0.35507232283E+02  0.26479547701E+02  0.14608233541E+03  0.19730781200E+03  0.12501357514E+03 0.  0.
          5    1    3    3  502    0 -0.22702609377E+02  0.65814419807E+02  0.33756482604E+02  0.77514749853E+02  0.47000000000E+01 0.  1.
         -5    1    3    3    0  502 -0.12804622906E+02 -0.39334872106E+02  0.11232585280E+03  0.11979306215E+03  0.47000000000E+01 0.  1.
        -11    1    1    2    0    0 -0.79621037452E+01 -0.34442215704E+02  0.11403866948E+01  0.35368938357E+02  0.00000000000E+00 0. -1.
         11    1    1    2    0    0  0.43469336028E+02  0.79626680028E+01  0.95089458258E+02  0.10485700896E+03  0.00000000000E+00 0.  1.
<mgrwt>
<rscale>  0 0.12420046E+03</rscale>
<asrwt>0</asrwt>
<pdfrwt beam="2">  1        2 0.73247370E-02 0.13262852E+03</pdfrwt>
<pdfrwt beam="1">  1       -2 0.44603533E-01 0.13262852E+03</pdfrwt>
<totfact> 0.43637946E+03</totfact>
</mgrwt>
</event>
<event>
 7    1  0.5400401E-006  0.2039149E+03  0.7546771E-02  0.1150453E+00
         -3   -1    0    0    0  501 -0.00000000000E+00  0.00000000000E+00  0.27505478194E+03  0.27505478194E+03  0.00000000000E+00 0.  1.
          3   -1    0    0  501    0  0.00000000000E+00 -0.00000000000E+00 -0.15461931871E+03  0.15461931871E+03  0.00000000000E+00 0. -1.
         23    2    1    2    0    0 -0.82530046699E+02 -0.13836536666E+03  0.13342369794E+03  0.24368662307E+03  0.12500041517E+03 0.  0.
          5    1    3    3  502    0 -0.39588063497E+02 -0.15139379737E+03  0.11785037312E+03  0.19595432401E+03  0.47000000000E+01 0.  1.
         -5    1    3    3    0  502 -0.42941983202E+02  0.13028430705E+02  0.15573324815E+02  0.47732299062E+02  0.47000000000E+01 0.  1.
        -11    1    1    2    0    0  0.87524967036E+02  0.12852969104E+03  0.14688819630E+02  0.15619303044E+03  0.00000000000E+00 0.  1.
         11    1    1    2    0    0 -0.49949203372E+01  0.98356756200E+01 -0.27677054331E+02  0.29794447142E+02  0.00000000000E+00 0. -1.
<mgrwt>
<rscale>  0 0.19915548E+03</rscale>
<asrwt>0</asrwt>
<pdfrwt beam="2">  1        3 0.23787587E-01 0.20391490E+03</pdfrwt>
<pdfrwt beam="1">  1       -3 0.42316120E-01 0.20391490E+03</pdfrwt>
<totfact> 0.22388873E+02</totfact>
</mgrwt>
</event>
<event>
 7    1  0.5400401E-006  0.1610707E+03  0.7546771E-02  0.1195565E+00
         -3   -1    0    0    0  501 -0.00000000000E+00  0.00000000000E+00  0.97735858174E+03  0.97735858174E+03  0.00000000000E+00 0.  1.
          3   -1    0    0  501    0  0.00000000000E+00 -0.00000000000E+00 -0.22469184839E+02  0.22469184839E+02  0.00000000000E+00 0. -1.
         23    2    1    2    0    0  0.17755834570E+02  0.10001345242E+03  0.54817845474E+03  0.57135224020E+03  0.12500321521E+03 0.  0.
          5    1    3    3  502    0  0.38445822125E+02 -0.11279561455E+02  0.23214369373E+03  0.23562277963E+03  0.47000000000E+01 0.  1.
         -5    1    3    3    0  502 -0.20689987555E+02  0.11129301387E+03  0.31603476101E+03  0.33572946056E+03  0.47000000000E+01 0.  1.
        -11    1    1    2    0    0  0.65930522920E+01 -0.92986751658E+02  0.38151716679E+03  0.39274082151E+03  0.00000000000E+00 0.  1.
         11    1    1    2    0    0 -0.24348886862E+02 -0.70267007616E+01  0.25193775377E+02  0.35734704878E+02  0.00000000000E+00 0. -1.
<mgrwt>
<rscale>  0 0.15406504E+03</rscale>
<asrwt>0</asrwt>
<pdfrwt beam="2">  1        3 0.34567984E-02 0.16107068E+03</pdfrwt>
<pdfrwt beam="1">  1       -3 0.15036283E+00 0.16107068E+03</pdfrwt>
<totfact> 0.33146413E+02</totfact>
</mgrwt>
</event>
<event>
 7    1  0.5400401E-006  0.1409696E+03  0.7546771E-02  0.1223175E+00
         -1   -1    0    0    0  501 -0.00000000000E+00  0.00000000000E+00  0.20308635360E+02  0.20308635360E+02  0.00000000000E+00 0.  1.
          1   -1    0    0  501    0  0.00000000000E+00 -0.00000000000E+00 -0.78610725734E+03  0.78610725734E+03  0.00000000000E+00 0. -1.
         23    2    1    2    0    0  0.19765198169E+02  0.62084051779E+02 -0.44652018427E+03  0.46824426983E+03  0.12500931455E+03 0.  0.
          5    1    3    3  502    0 -0.25459014353E+02  0.68380145828E+02 -0.13654665356E+03  0.15489055605E+03  0.47000000000E+01 0.  1.
         -5    1    3    3    0  502  0.45224212522E+02 -0.62960940482E+01 -0.30997353071E+03  0.31335371378E+03  0.47000000000E+01 0.  1.
        -11    1    1    2    0    0 -0.55973057124E+02 -0.40378258502E+02 -0.20821875628E+03  0.21935915151E+03  0.00000000000E+00 0. -1.
         11    1    1    2    0    0  0.36207858955E+02 -0.21705793278E+02 -0.11105968143E+03  0.11881247136E+03  0.00000000000E+00 0.  1.
<mgrwt>
<rscale>  0 0.13292756E+03</rscale>
<asrwt>0</asrwt>
<pdfrwt beam="2">  1        1 0.12093959E+00 0.14096958E+03</pdfrwt>
<pdfrwt beam="1">  1       -1 0.31244052E-02 0.14096958E+03</pdfrwt>
<totfact> 0.81189817E+03</totfact>
</mgrwt>
</event>
<event>
 7    1  0.5400401E-006  0.1528250E+03  0.7546771E-02  0.1206199E+00
          1   -1    0    0  501    0  0.00000000000E+00  0.00000000000E+00  0.47566203122E+02  0.47566203122E+02  0.00000000000E+00 0. -1.
         -1   -1    0    0    0  501 -0.00000000000E+00 -0.00000000000E+00 -0.51481787064E+03  0.51481787064E+03  0.00000000000E+00 0.  1.
         23    2    1    2    0    0 -0.13542690860E+02  0.86877819749E+02 -0.38024883808E+03  0.40981052710E+03  0.12499731686E+03 0.  0.
          5    1    3    3  502    0  0.97236297334E+01  0.93575637328E+02 -0.37209727200E+03  0.38383514522E+03  0.47000000000E+01 0.  1.
         -5    1    3    3    0  502 -0.23266320594E+02 -0.66978175795E+01 -0.81515660797E+01  0.25975381881E+02  0.47000000000E+01 0.  1.
        -11    1    1    2    0    0  0.44220674478E+01 -0.58338802745E+02 -0.10311376930E+03  0.11855555662E+03  0.00000000000E+00 0.  1.
         11    1    1    2    0    0  0.91206234125E+01 -0.28539017004E+02  0.16110939864E+02  0.34017990039E+02  0.00000000000E+00 0. -1.
<mgrwt>
<rscale>  0 0.14543372E+03</rscale>
<asrwt>0</asrwt>
<pdfrwt beam="1">  1        1 0.73178778E-02 0.15282503E+03</pdfrwt>
<pdfrwt beam="2">  1       -1 0.79202745E-01 0.15282503E+03</pdfrwt>
<totfact> 0.16041661E+03</totfact>
</mgrwt>
</event>
<event>
 7    1  0.5400401E-006  0.1301275E+03  0.7546771E-02  0.1242537E+00
          2   -1    0    0  501    0  0.00000000000E+00  0.00000000000E+00  0.44693535050E+03  0.44693535050E+03  0.00000000000E+00 0.  1.
         -2   -1    0    0    0  501 -0.00000000000E+00 -0.00000000000E+00 -0.35163515060E+02  0.35163515060E+02  0.00000000000E+00 0. -1.
         23    2    1    2    0    0 -0.13412379618E+01 -0.36170241867E+02  0.12694929160E+03  0.18179466053E+03  0.12499236235E+03 0.  0.
          5    1    3    3  502    0  0.51127116317E+02 -0.47549174298E+02  0.43313063558E+02  0.82298344298E+02  0.47000000000E+01 0.  1.
         -5    1    3    3    0  502 -0.52468354279E+02  0.11378932431E+02  0.83636228038E+02  0.99496316236E+02  0.47000000000E+01 0.  1.
        -11    1    1    2    0    0 -0.84700769744E+00 -0.17666598242E+02  0.10141000106E+02  0.20387888528E+02  0.00000000000E+00 0. -1.
         11    1    1    2    0    0  0.21882456592E+01  0.53836840109E+02  0.27468154374E+03  0.27991631650E+03  0.00000000000E+00 0.  1.
<mgrwt>
<rscale>  0 0.12034009E+03</rscale>
<asrwt>0</asrwt>
<pdfrwt beam="1">  1        2 0.68759281E-01 0.13012754E+03</pdfrwt>
<pdfrwt beam="2">  1       -2 0.54097718E-02 0.13012754E+03</pdfrwt>
<totfact> 0.11583333E+04</totfact>
</mgrwt>
</event>
<event>
 7    1  0.5400401E-006  0.1273210E+03  0.7546771E-02  0.1246073E+00
         -1   -1    0    0    0  501 -0.00000000000E+00  0.00000000000E+00  0.79218758092E+02  0.79218758092E+02  0.00000000000E+00 0.  1.
          1   -1    0    0  501    0  0.00000000000E+00 -0.00000000000E+00 -0.15803313604E+03  0.15803313604E+03  0.00000000000E+00 0. -1.
         23    2    1    2    0    0  0.23878079945E+02  0.38870697267E+01 -0.30101841936E+02  0.13083105303E+03  0.12500148614E+03 0.  0.
          5    1    3    3  502    0 -0.18857668436E+02  0.34936070748E+02  0.30512651064E+02  0.50291674988E+02  0.47000000000E+01 0. -1.
         -5    1    3    3    0  502  0.42735748381E+02 -0.31049001021E+02 -0.60614493000E+02  0.80539378044E+02  0.47000000000E+01 0. -1.
        -11    1    1    2    0    0 -0.76610323315E+01  0.43259421308E+02 -0.15836716825E+02  0.46699791735E+02  0.00000000000E+00 0.  1.
         11    1    1    2    0    0 -0.16217047613E+02 -0.47146491035E+02 -0.32875819188E+02  0.59721049367E+02  0.00000000000E+00 0. -1.
<mgrwt>
<rscale>  0 0.11821376E+03</rscale>
<asrwt>0</asrwt>
<pdfrwt beam="2">  1        1 0.24312790E-01 0.12732103E+03</pdfrwt>
<pdfrwt beam="1">  1       -1 0.12187501E-01 0.12732103E+03</pdfrwt>
<totfact> 0.83354305E+03</totfact>
</mgrwt>
</event>
<event>
 7    1  0.5400401E-006  0.1855822E+03  0.7546771E-02  0.1167614E+00
         -2   -1    0    0    0  501 -0.00000000000E+00  0.00000000000E+00  0.41404818826E+02  0.41404818826E+02  0.00000000000E+00 0.  1.
          2   -1    0    0  501    0  0.00000000000E+00 -0.00000000000E+00 -0.74411279754E+03  0.74411279754E+03  0.00000000000E+00 0. -1.
         23    2    1    2    0    0  0.38956989041E+02  0.13152238776E+03 -0.35072539162E+03  0.39679852592E+03  0.12499993746E+03 0.  0.
          5    1    3    3  502    0  0.66382003289E+02  0.52703044502E+02 -0.25967692955E+03  0.27320025439E+03  0.47000000000E+01 0. -1.
         -5    1    3    3    0  502 -0.27425014247E+02  0.78819343257E+02 -0.91048462074E+02  0.12359827152E+03  0.47000000000E+01 0. -1.
        -11    1    1    2    0    0  0.22133146634E+02 -0.26507171552E+01 -0.44460306542E+02  0.49735513863E+02  0.00000000000E+00 0. -1.
         11    1    1    2    0    0 -0.61090135676E+02 -0.12887167060E+03 -0.30752228055E+03  0.33898357658E+03  0.00000000000E+00 0.  1.
<mgrwt>
<rscale>  0 0.18019592E+03</rscale>
<asrwt>0</asrwt>
<pdfrwt beam="2">  1        2 0.11447889E+00 0.18558225E+03</pdfrwt>
<pdfrwt beam="1">  1       -2 0.63699721E-02 0.18558225E+03</pdfrwt>
<totfact> 0.51570764E+03</totfact>
</mgrwt>
</event>
<event>
 7    1  0.5400401E-006  0.1288661E+03  0.7546771E-02  0.1231364E+00
         -1   -1    0    0    0  501 -0.00000000000E+00  0.00000000000E+00  0.19711151674E+03  0.19711151674E+03  0.00000000000E+00 0.  1.
          1   -1    0    0  501    0  0.00000000000E+00 -0.00000000000E+00 -0.81428873535E+02  0.81428873535E+02  0.00000000000E+00 0. -1.
         23    2    1    2    0    0 -0.30629418648E+02  0.66256051819E+01  0.44480550888E+02  0.13632673637E+03  0.12499759882E+03 0.  0.
          5    1    3    3  502    0 -0.59670999134E+02 -0.15309907065E+02  0.68671535381E+02  0.92373649726E+02  0.47000000000E+01 0. -1.
         -5    1    3    3    0  502  0.29041580486E+02  0.21935512247E+02 -0.24190984493E+02  0.43953086642E+02  0.47000000000E+01 0. -1.
        -11    1    1    2    0    0  0.31694591117E+02 -0.19529487325E+02  0.10211990319E+03  0.10869417008E+03  0.00000000000E+00 0.  1.
         11    1    1    2    0    0 -0.10651724690E+01  0.12903882143E+02 -0.30917810875E+02  0.33519483827E+02  0.00000000000E+00 0. -1.
<mgrwt>
<rscale>  0 0.12740115E+03</rscale>
<asrwt>0</asrwt>
<pdfrwt beam="2">  1        1 0.12527519E-01 0.12886605E+03</pdfrwt>
<pdfrwt beam="1">  1       -1 0.30324849E-01 0.12886605E+03</pdfrwt>
<totfact> 0.45272290E+03</totfact>
</mgrwt>
</event>
<event>
 7    1  0.5400401E-006  0.1417871E+03  0.7546771E-02  0.1221447E+00
         -1   -1    0    0    0  501 -0.00000000000E+00  0.00000000000E+00  0.98002848993E+02  0.98002848993E+02  0.00000000000E+00 0.  1.
          1   -1    0    0  501    0  0.00000000000E+00 -0.00000000000E+00 -0.18698758812E+03  0.18698758812E+03  0.00000000000E+00 0. -1.
         23    2    1    2    0    0  0.66972792415E+02 -0.10020579810E+01 -0.95966500380E+02  0.17121085591E+03  0.12496891190E+03 0.  0.
          5    1    3    3  502    0  0.20169330098E+01 -0.51967177269E+02 -0.12456675805E+02  0.53683463973E+02  0.47000000000E+01 0. -1.
         -5    1    3    3    0  502  0.64955859405E+02  0.50965119288E+02 -0.83509824575E+02  0.11752739194E+03  0.47000000000E+01 0. -1.
        -11    1    1    2    0    0 -0.28083715134E+02  0.37514121627E+02 -0.23412825985E+02  0.52384776393E+02  0.00000000000E+00 0. -1.
         11    1    1    2    0    0 -0.38889077281E+02 -0.36512063646E+02  0.30394587241E+02  0.61394804805E+02  0.00000000000E+00 0.  1.
<mgrwt>
<rscale>  0 0.13413400E+03</rscale>
<asrwt>0</asrwt>
<pdfrwt beam="2">  1        1 0.28767321E-01 0.14178712E+03</pdfrwt>
<pdfrwt beam="1">  1       -1 0.15077361E-01 0.14178712E+03</pdfrwt>
<totfact> 0.48859546E+03</totfact>
</mgrwt>
</event>
<event>
 7    1  0.5400401E-006  0.1207139E+03  0.7546771E-02  0.1250832E+00
          1   -1    0    0  501    0  0.00000000000E+00  0.00000000000E+00  0.57210735959E+03  0.57210735959E+03  0.00000000000E+00 0. -1.
         -1   -1    0    0    0  501 -0.00000000000E+00 -0.00000000000E+00 -0.44338422276E+02  0.44338422276E+02  0.00000000000E+00 0.  1.
         23    2    1    2    0    0  0.61867071020E+01  0.41874912088E+02  0.54343916943E+02  0.13238240853E+03  0.11304891496E+03 0.  0.
          5    1    3    3  502    0  0.26190489803E+02 -0.10782633493E+02 -0.22858739686E+02  0.36699031611E+02  0.47000000000E+01 0. -1.
         -5    1    3    3    0  502 -0.20003782701E+02  0.52657545581E+02  0.77202656628E+02  0.95683376923E+02  0.47000000000E+01 0.  1.
        -11    1    1    2    0    0  0.25646993702E+02  0.19169783163E+02  0.15817258804E+03  0.16138096691E+03  0.00000000000E+00 0.  1.
         11    1    1    2    0    0 -0.31833700804E+02 -0.61044695251E+02  0.31525243233E+03  0.32268240643E+03  0.00000000000E+00 0. -1.
<mgrwt>
<rscale>  0 0.11543005E+03</rscale>
<asrwt>0</asrwt>
<pdfrwt beam="1">  1        1 0.88016512E-01 0.12071388E+03</pdfrwt>
<pdfrwt beam="2">  1       -1 0.68212961E-02 0.12071388E+03</pdfrwt>
<totfact> 0.39865411E+03</totfact>
</mgrwt>
</event>
<event>
 7    1  0.5400401E-006  0.1736513E+03  0.7546771E-02  0.1178043E+00
         -2   -1    0    0    0  501 -0.00000000000E+00  0.00000000000E+00  0.20220232951E+03  0.20220232951E+03  0.00000000000E+00 0.  1.
          2   -1    0    0  501    0  0.00000000000E+00 -0.00000000000E+00 -0.39854981722E+03  0.39854981722E+03  0.00000000000E+00 0. -1.
         23    2    1    2    0    0 -0.62499673799E+02  0.11433897995E+03  0.14373558252E+03  0.22542115990E+03  0.11478314374E+03 0.  0.
          5    1    3    3  502    0  0.38711846710E+01  0.46786497651E+02 -0.66419133430E+01  0.47646274209E+02  0.47000000000E+01 0. -1.
         -5    1    3    3    0  502 -0.66370858470E+02  0.67552482299E+02  0.15037749587E+03  0.17777488569E+03  0.47000000000E+01 0.  1.
        -11    1    1    2    0    0  0.83927558064E+02 -0.10599856579E+03 -0.30129501119E+03  0.33023963227E+03  0.00000000000E+00 0. -1.
         11    1    1    2    0    0 -0.21427884264E+02 -0.83404141625E+01 -0.38788059036E+02  0.45091354562E+02  0.00000000000E+00 0.  1.
<mgrwt>
<rscale>  0 0.16981261E+03</rscale>
<asrwt>0</asrwt>
<pdfrwt beam="2">  1        2 0.61315355E-01 0.17365132E+03</pdfrwt>
<pdfrwt beam="1">  1       -2 0.31108051E-01 0.17365132E+03</pdfrwt>
<totfact> 0.76715056E+02</totfact>
</mgrwt>
</event>
<event>
 7    1  0.5400401E-006  0.1271029E+03  0.7546771E-02  0.1246965E+00
          2   -1    0    0  501    0  0.00000000000E+00  0.00000000000E+00  0.51181910184E+03  0.51181910184E+03  0.00000000000E+00 0. -1.
         -2   -1    0    0    0  501 -0.00000000000E+00 -0.00000000000E+00 -0.33740915804E+02  0.33740915804E+02  0.00000000000E+00 0.  1.
         23    2    1    2    0    0  0.19593810881E+02 -0.12064039877E+02  0.11755574456E+03  0.17313141761E+03  0.12500270477E+03 0.  0.
          5    1    3    3  502    0 -0.29494403150E+01 -0.83741907210E+01 -0.25906437790E+02  0.27785963856E+02  0.47000000000E+01 0. -1.
         -5    1    3    3    0  502  0.22543251196E+02 -0.36898491560E+01  0.14346218235E+03  0.14534545375E+03  0.47000000000E+01 0. -1.
        -11    1    1    2    0    0 -0.28387746053E+02  0.47617845732E+02  0.24697521697E+03  0.25312068496E+03  0.00000000000E+00 0.  1.
         11    1    1    2    0    0  0.87939351722E+01 -0.35553805855E+02  0.11354722451E+03  0.11930791507E+03  0.00000000000E+00 0. -1.
<mgrwt>
<rscale>  0 0.11768532E+03</rscale>
<asrwt>0</asrwt>
<pdfrwt beam="1">  1        2 0.78741395E-01 0.12710285E+03</pdfrwt>
<pdfrwt beam="2">  1       -2 0.51909105E-02 0.12710285E+03</pdfrwt>
<totfact> 0.10615696E+04</totfact>
</mgrwt>
</event>
<event>
 7    1  0.5400401E-006  0.1351735E+03  0.7546771E-02  0.1232349E+00
          1   -1    0    0  501    0  0.00000000000E+00  0.00000000000E+00  0.97443096889E+02  0.97443096889E+02  0.00000000000E+00 0. -1.
         -1   -1    0    0    0  501 -0.00000000000E+00 -0.00000000000E+00 -0.15844578593E+03  0.15844578593E+03  0.00000000000E+00 0.  1.
         23    2    1    2    0    0 -0.43923203895E+02  0.26824557727E+02 -0.67645374738E+02  0.15115477666E+03  0.12499225994E+03 0.  0.
          5    1    3    3  502    0 -0.70500459518E+02 -0.14098910572E+02 -0.58654230527E+01  0.72288223517E+02  0.47000000000E+01 0.  1.
         -5    1    3    3    0  502  0.26577255623E+02  0.40923468299E+02 -0.61779951685E+02  0.78866553140E+02  0.47000000000E+01 0.  1.
        -11    1    1    2    0    0  0.16166686098E+02 -0.25680181887E+02  0.46876638302E+02  0.55841317137E+02  0.00000000000E+00 0. -1.
         11    1    1    2    0    0  0.27756517798E+02 -0.11443758393E+01 -0.40233952607E+02  0.48892789026E+02  0.00000000000E+00 0.  1.
<mgrwt>
<rscale>  0 0.12675697E+03</rscale>
<asrwt>0</asrwt>
<pdfrwt beam="1">  1        1 0.14991246E-01 0.13517348E+03</pdfrwt>
<pdfrwt beam="2">  1       -1 0.24376274E-01 0.13517348E+03</pdfrwt>
<totfact> 0.51643345E+03</totfact>
</mgrwt>
</event>
<event>
 7    1  0.5400401E-006  0.1258010E+03  0.7546771E-02  0.1249356E+00
          2   -1    0    0  501    0  0.00000000000E+00  0.00000000000E+00  0.27027725651E+03  0.27027725651E+03  0.00000000000E+00 0. -1.
         -2   -1    0    0    0  501 -0.00000000000E+00 -0.00000000000E+00 -0.43986181514E+02  0.43986181514E+02  0.00000000000E+00 0.  1.
         23    2    1    2    0    0  0.13036219072E+02  0.55520947074E+01  0.12102311000E+03  0.17456369509E+03  0.12500048691E+03 0.  0.
          5    1    3    3  502    0  0.39200237279E+02 -0.57625869865E+01  0.13620376083E+03  0.14192751839E+03  0.47000000000E+01 0.  1.
         -5    1    3    3    0  502 -0.26164018207E+02  0.11314681694E+02 -0.15180650826E+02  0.32636176708E+02  0.47000000000E+01 0.  1.
        -11    1    1    2    0    0 -0.23331694021E+02  0.25975470583E+02  0.10024999698E+03  0.10615627590E+03  0.00000000000E+00 0.  1.
         11    1    1    2    0    0  0.10295474949E+02 -0.31527565291E+02  0.50179680145E+01  0.33543467033E+02  0.00000000000E+00 0. -1.
<mgrwt>
<rscale>  0 0.11628444E+03</rscale>
<asrwt>0</asrwt>
<pdfrwt beam="1">  1        2 0.41581115E-01 0.12580100E+03</pdfrwt>
<pdfrwt beam="2">  1       -2 0.67671050E-02 0.12580100E+03</pdfrwt>
<totfact> 0.14041769E+04</totfact>
</mgrwt>
</event>
<event>
 7    1  0.5400401E-006  0.1815050E+03  0.7546771E-02  0.1171251E+00
         -2   -1    0    0    0  501 -0.00000000000E+00  0.00000000000E+00  0.24807365686E+02  0.24807365686E+02  0.00000000000E+00 0.  1.
          2   -1    0    0  501    0  0.00000000000E+00 -0.00000000000E+00 -0.11971653327E+04  0.11971653327E+04  0.00000000000E+00 0. -1.
         23    2    1    2    0    0 -0.11746329653E+03 -0.59348318330E+02 -0.66352007927E+03  0.68789749149E+03  0.12499685713E+03 0.  0.
          5    1    3    3  502    0 -0.10734168202E+03 -0.15167141475E+02 -0.59993912066E+03  0.60967312338E+03  0.47000000000E+01 0. -1.
         -5    1    3    3    0  502 -0.10121614507E+02 -0.44181176855E+02 -0.63580958607E+02  0.78224368108E+02  0.47000000000E+01 0. -1.
        -11    1    1    2    0    0  0.75468355564E+02 -0.30693916958E+01 -0.15621424171E+03  0.17351594500E+03  0.00000000000E+00 0.  1.
         11    1    1    2    0    0  0.41994940966E+02  0.62417710026E+02 -0.35262364607E+03  0.36055926193E+03  0.00000000000E+00 0. -1.
<mgrwt>
<rscale>  0 0.17648299E+03</rscale>
<asrwt>0</asrwt>
<pdfrwt beam="2">  1        2 0.18417931E+00 0.18150500E+03</pdfrwt>
<pdfrwt beam="1">  1       -2 0.38165172E-02 0.18150500E+03</pdfrwt>
<totfact> 0.58435610E+03</totfact>
</mgrwt>
</event>
<event>
 7    1  0.5400401E-006  0.1539782E+03  0.7546771E-02  0.1203656E+00
         -2   -1    0    0    0  501 -0.00000000000E+00  0.00000000000E+00  0.11491408119E+03  0.11491408119E+03  0.00000000000E+00 0.  1.
          2   -1    0    0  501    0  0.00000000000E+00 -0.00000000000E+00 -0.24639955388E+03  0.24639955388E+03  0.00000000000E+00 0. -1.
         23    2    1    2    0    0  0.41212559490E+02 -0.79901698279E+02  0.27378615337E+02  0.15639333172E+03  0.12500611657E+03 0.  0.
          5    1    3    3  502    0  0.38469979634E+02 -0.10636973595E+03  0.47430496157E+02  0.12274445823E+03  0.47000000000E+01 0. -1.
         -5    1    3    3    0  502  0.27425798559E+01  0.26468037675E+02 -0.20051880820E+02  0.33648873489E+02  0.47000000000E+01 0. -1.
        -11    1    1    2    0    0 -0.20946707096E+02  0.75689593678E+00  0.52390002262E+01  0.21605197361E+02  0.00000000000E+00 0.  1.
         11    1    1    2    0    0 -0.20265852394E+02  0.79144802342E+02 -0.16410308825E+03  0.18331510599E+03  0.00000000000E+00 0. -1.
<mgrwt>
<rscale>  0 0.14743852E+03</rscale>
<asrwt>0</asrwt>
<pdfrwt beam="2">  1        2 0.37907623E-01 0.15397820E+03</pdfrwt>
<pdfrwt beam="1">  1       -2 0.17679090E-01 0.15397820E+03</pdfrwt>
<totfact> 0.34159144E+03</totfact>
</mgrwt>
</event>
<event>
 7    1  0.5400401E-006  0.1851692E+03  0.7546771E-02  0.1168694E+00
          1   -1    0    0  501    0  0.00000000000E+00  0.00000000000E+00  0.80053939075E+03  0.80053939075E+03  0.00000000000E+00 0. -1.
         -1   -1    0    0    0  501 -0.00000000000E+00 -0.00000000000E+00 -0.42229242432E+02  0.42229242432E+02  0.00000000000E+00 0.  1.
         23    2    1    2    0    0  0.13004842223E+03  0.41813021221E+02  0.26305407250E+03  0.32169094885E+03  0.12500680239E+03 0.  0.
          5    1    3    3  502    0  0.18001764917E+02 -0.37773006063E+02  0.32298430781E+02  0.53067336074E+02  0.47000000000E+01 0.  1.
         -5    1    3    3    0  502  0.11204665731E+03  0.79586027284E+02  0.23075564172E+03  0.26862361277E+03  0.47000000000E+01 0.  1.
        -11    1    1    2    0    0 -0.67638596900E+02 -0.61825624761E+02  0.34859547892E+03  0.36043889301E+03  0.00000000000E+00 0.  1.
         11    1    1    2    0    0 -0.62409825327E+02  0.20012603540E+02  0.14666059690E+03  0.16063879133E+03  0.00000000000E+00 0. -1.
<mgrwt>
<rscale>  0 0.17908284E+03</rscale>
<asrwt>0</asrwt>
<pdfrwt beam="1">  1        1 0.12315989E+00 0.18516917E+03</pdfrwt>
<pdfrwt beam="2">  1       -1 0.64968071E-02 0.18516917E+03</pdfrwt>
<totfact> 0.26997112E+03</totfact>
</mgrwt>
</event>
<event>
 7    1  0.5400401E-006  0.1281617E+03  0.7546771E-02  0.1242518E+00
          2   -1    0    0  501    0  0.00000000000E+00  0.00000000000E+00  0.51365232013E+03  0.51365232013E+03  0.00000000000E+00 0. -1.
         -2   -1    0    0    0  501 -0.00000000000E+00 -0.00000000000E+00 -0.28253374512E+02  0.28253374512E+02  0.00000000000E+00 0.  1.
         23    2    1    2    0    0  0.28149191835E+02 -0.41834183834E+01  0.18230520172E+03  0.22284662573E+03  0.12496221043E+03 0.  0.
          5    1    3    3  502    0  0.39468395912E+02  0.41095637650E+01  0.19757933809E+03  0.20157958138E+03  0.47000000000E+01 0. -1.
         -5    1    3    3    0  502 -0.11319204076E+02 -0.82929821484E+01 -0.15274136367E+02  0.21267044355E+02  0.47000000000E+01 0. -1.
        -11    1    1    2    0    0  0.22369635098E+02 -0.27378737719E+02  0.69321182758E+02  0.77816593555E+02  0.00000000000E+00 0.  1.
         11    1    1    2    0    0 -0.50518826933E+02  0.31562156103E+02  0.23377256114E+03  0.24124247535E+03  0.00000000000E+00 0. -1.
<mgrwt>
<rscale>  0 0.12035196E+03</rscale>
<asrwt>0</asrwt>
<pdfrwt beam="1">  1        2 0.79023427E-01 0.12816174E+03</pdfrwt>
<pdfrwt beam="2">  1       -2 0.43466734E-02 0.12816174E+03</pdfrwt>
<totfact> 0.13797279E+04</totfact>
</mgrwt>
</event>
<event>
 7    1  0.5400401E-006  0.1211985E+03  0.7546771E-02  0.1254958E+00
         -2   -1    0    0    0  501 -0.00000000000E+00  0.00000000000E+00  0.88969675615E+02  0.88969675615E+02  0.00000000000E+00 0.  1.
          2   -1    0    0  501    0  0.00000000000E+00 -0.00000000000E+00 -0.29666195781E+03  0.29666195781E+03  0.00000000000E+00 0. -1.
         23    2    1    2    0    0  0.12825059687E+01  0.13415211344E+02  0.34986049796E+02  0.12614709960E+03  0.12044689428E+03 0.  0.
          5    1    3    3  502    0  0.18956026312E+02  0.19607333610E+02 -0.40041901565E+02  0.48674658147E+02  0.47000000000E+01 0. -1.
         -5    1    3    3    0  502 -0.17673520343E+02 -0.61921222663E+01  0.75027951361E+02  0.77472441454E+02  0.47000000000E+01 0.  1.
        -11    1    1    2    0    0 -0.32729370951E+02 -0.39224279331E+02 -0.14104474164E+03  0.15001124943E+03  0.00000000000E+00 0.  1.
         11    1    1    2    0    0  0.31446864983E+02  0.25809067988E+02 -0.10163359035E+03  0.10947328439E+03  0.00000000000E+00 0. -1.
<mgrwt>
<rscale>  0 0.11308685E+03</rscale>
<asrwt>0</asrwt>
<pdfrwt beam="2">  1        2 0.45640302E-01 0.12119846E+03</pdfrwt>
<pdfrwt beam="1">  1       -2 0.13687642E-01 0.12119846E+03</pdfrwt>
<totfact> 0.42156849E+03</totfact>
</mgrwt>
</event>
<event>
 7    1  0.5400401E-006  0.1413145E+03  0.7546771E-02  0.1222290E+00
         -1   -1    0    0    0  501 -0.00000000000E+00  0.00000000000E+00  0.12129751108E+04  0.12129751108E+04  0.00000000000E+00 0.  1.
          1   -1    0    0  501    0  0.00000000000E+00 -0.00000000000E+00 -0.14098689922E+02  0.14098689922E+02  0.00000000000E+00 0. -1.
         23    2    1    2    0    0 -0.32313622212E+02  0.57440910666E+02  0.80838343607E+03  0.82064216869E+03  0.12500464360E+03 0.  0.
          5    1    3    3  502    0 -0.37169753703E+02  0.83932485699E+02  0.75586994041E+03  0.76143792233E+03  0.47000000000E+01 0.  1.
         -5    1    3    3    0  502  0.48561314910E+01 -0.26491575032E+02  0.52513495669E+02  0.59204246369E+02  0.47000000000E+01 0.  1.
        -11    1    1    2    0    0  0.46092453410E+02 -0.71708341145E+01  0.89175818012E+02  0.10063926491E+03  0.00000000000E+00 0. -1.
         11    1    1    2    0    0 -0.13778831198E+02 -0.50270076552E+02  0.30131716681E+03  0.30579236714E+03  0.00000000000E+00 0.  1.
<mgrwt>
<rscale>  0 0.13354377E+03</rscale>
<asrwt>0</asrwt>
<pdfrwt beam="2">  1        1 0.21690302E-02 0.14131450E+03</pdfrwt>
<pdfrwt beam="1">  1       -1 0.18661147E+00 0.14131450E+03</pdfrwt>
<totfact> 0.10886488E+03</totfact>
</mgrwt>
</event>
<event>
 7    1  0.5400401E-006  0.1279240E+03  0.7546771E-02  0.1245645E+00
         -1   -1    0    0    0  501 -0.00000000000E+00  0.00000000000E+00  0.64560131612E+02  0.64560131612E+02  0.00000000000E+00 0.  1.
          1   -1    0    0  501    0  0.00000000000E+00 -0.00000000000E+00 -0.19558306762E+03  0.19558306762E+03  0.00000000000E+00 0. -1.
         23    2    1    2    0    0 -0.14435622272E+01 -0.27128035414E+02 -0.55301294582E+02  0.13936568790E+03  0.12500619027E+03 0.  0.
          5    1    3    3  502    0 -0.84863943122E+01 -0.59499029528E+02 -0.78259593180E+02  0.98786675862E+02  0.47000000000E+01 0. -1.
         -5    1    3    3    0  502  0.70428320851E+01  0.32370994114E+02  0.22958298598E+02  0.40579012041E+02  0.47000000000E+01 0. -1.
        -11    1    1    2    0    0  0.95106233532E+01  0.42090063620E+02  0.20716890512E-01  0.43151197449E+02  0.00000000000E+00 0.  1.
         11    1    1    2    0    0 -0.80670611260E+01 -0.14962028206E+02 -0.75742358321E+02  0.77626313884E+02  0.00000000000E+00 0. -1.
<mgrwt>
<rscale>  0 0.11846857E+03</rscale>
<asrwt>0</asrwt>
<pdfrwt beam="2">  1        1 0.30089702E-01 0.12792405E+03</pdfrwt>
<pdfrwt beam="1">  1       -1 0.99323281E-02 0.12792405E+03</pdfrwt>
<totfact> 0.87446323E+03</totfact>
</mgrwt>
</event>
<event>
 7    1  0.5400401E-006  0.1624565E+03  0.7546771E-02  0.1194007E+00
         -2   -1    0    0    0  501 -0.00000000000E+00  0.00000000000E+00  0.19910095481E+03  0.19910095481E+03  0.00000000000E+00 0. -1.
          2   -1    0    0  501    0  0.00000000000E+00 -0.00000000000E+00 -0.12863572136E+03  0.12863572136E+03  0.00000000000E+00 0.  1.
         23    2    1    2    0    0  0.34269185738E+02  0.97940988584E+02  0.96988778403E+02  0.18920610672E+03  0.12500125338E+03 0.  0.
          5    1    3    3  502    0 -0.41607745037E+02  0.26038636536E+02  0.61251985828E+02  0.78632759125E+02  0.47000000000E+01 0.  1.
         -5    1    3    3    0  502  0.75876930775E+02  0.71902352047E+02  0.35736792575E+02  0.11057334759E+03  0.47000000000E+01 0.  1.
        -11    1    1    2    0    0 -0.99285050245E+01 -0.10197039758E+03 -0.20054822302E+00  0.10245280579E+03  0.00000000000E+00 0. -1.
         11    1    1    2    0    0 -0.24340680713E+02  0.40294089968E+01 -0.26322996724E+02  0.36077763663E+02  0.00000000000E+00 0.  1.
<mgrwt>
<rscale>  0 0.15538599E+03</rscale>
<asrwt>0</asrwt>
<pdfrwt beam="2">  1        2 0.19790111E-01 0.16245654E+03</pdfrwt>
<pdfrwt beam="1">  1       -2 0.30630916E-01 0.16245654E+03</pdfrwt>
<totfact> 0.26955499E+03</totfact>
</mgrwt>
</event>
<event>
 7    1  0.5400401E-006  0.1725161E+03  0.7546771E-02  0.1181514E+00
         -2   -1    0    0    0  501 -0.00000000000E+00  0.00000000000E+00  0.14650551309E+03  0.14650551309E+03  0.00000000000E+00 0.  1.
          2   -1    0    0  501    0  0.00000000000E+00 -0.00000000000E+00 -0.61851504383E+03  0.61851504383E+03  0.00000000000E+00 0. -1.
         23    2    1    2    0    0  0.11845901173E+03  0.10230147377E+02  0.82075203215E+02  0.19104490631E+03  0.12499849547E+03 0.  0.
          5    1    3    3  502    0  0.11308244395E+03 -0.24797594416E+02  0.17422707750E+02  0.11716740402E+03  0.47000000000E+01 0.  1.
         -5    1    3    3    0  502  0.53765677825E+01  0.35027741792E+02  0.64652495465E+02  0.73877502300E+02  0.47000000000E+01 0.  1.
        -11    1    1    2    0    0 -0.12938585068E+03  0.65697910125E+01 -0.48943694894E+03  0.50629278831E+03  0.00000000000E+00 0. -1.
         11    1    1    2    0    0  0.10926838950E+02 -0.16799938389E+02 -0.64647785020E+02  0.67682862287E+02  0.00000000000E+00 0.  1.
<mgrwt>
<rscale>  0 0.16653123E+03</rscale>
<asrwt>0</asrwt>
<pdfrwt beam="2">  1        2 0.95156162E-01 0.17251614E+03</pdfrwt>
<pdfrwt beam="1">  1       -2 0.22539309E-01 0.17251614E+03</pdfrwt>
<totfact> 0.83354808E+02</totfact>
</mgrwt>
</event>
<event>
 7    1  0.5400401E-006  0.1664237E+03  0.7546771E-02  0.1188396E+00
         -2   -1    0    0    0  501 -0.00000000000E+00  0.00000000000E+00  0.12876986268E+03  0.12876986268E+03  0.00000000000E+00 0.  1.
          2   -1    0    0  501    0  0.00000000000E+00 -0.00000000000E+00 -0.19778981748E+03  0.19778981748E+03  0.00000000000E+00 0. -1.
         23    2    1    2    0    0 -0.56002548615E+01 -0.10972174444E+03  0.27463221408E+01  0.16644634477E+03  0.12500647720E+03 0.  0.
          5    1    3    3  502    0 -0.34696831681E+02  0.11541446421E+02 -0.16115591134E+02  0.40235275466E+02  0.47000000000E+01 0.  1.
         -5    1    3    3    0  502  0.29096576820E+02 -0.12126319086E+03  0.18861913275E+02  0.12621106930E+03  0.47000000000E+01 0.  1.
        -11    1    1    2    0    0  0.30741824069E+02  0.10508243408E+03 -0.77211508651E+02  0.13397385852E+03  0.00000000000E+00 0. -1.
         11    1    1    2    0    0 -0.25141569207E+02  0.46393103693E+01  0.54452317187E+01  0.26139476876E+02  0.00000000000E+00 0.  1.
<mgrwt>
<rscale>  0 0.16026666E+03</rscale>
<asrwt>0</asrwt>
<pdfrwt beam="2">  1        2 0.30429202E-01 0.16642369E+03</pdfrwt>
<pdfrwt beam="1">  1       -2 0.19810748E-01 0.16642369E+03</pdfrwt>
<totfact> 0.35880916E+03</totfact>
</mgrwt>
</event>
<event>
 7    1  0.5400401E-006  0.1490473E+03  0.7546771E-02  0.1210966E+00
          2   -1    0    0  501    0  0.00000000000E+00  0.00000000000E+00  0.21547962336E+03  0.21547962336E+03  0.00000000000E+00 0. -1.
         -2   -1    0    0    0  501 -0.00000000000E+00 -0.00000000000E+00 -0.11561302134E+03  0.11561302134E+03  0.00000000000E+00 0.  1.
         23    2    1    2    0    0  0.77911574330E+02  0.22805883276E+02 -0.30934928910E+02  0.15222371878E+03  0.12499907602E+03 0.  0.
          5    1    3    3  502    0  0.91547739239E+02 -0.27983112007E+02 -0.14550157351E+02  0.96942458171E+02  0.47000000000E+01 0. -1.
         -5    1    3    3    0  502 -0.13636164908E+02  0.50788995283E+02 -0.16384771559E+02  0.55281260607E+02  0.47000000000E+01 0. -1.
        -11    1    1    2    0    0 -0.51107941951E+02 -0.96557332849E+01  0.81631662810E+01  0.52648762564E+02  0.00000000000E+00 0.  1.
         11    1    1    2    0    0 -0.26803632379E+02 -0.13150149991E+02  0.12263836465E+03  0.12622016336E+03  0.00000000000E+00 0. -1.
<mgrwt>
<rscale>  0 0.14177081E+03</rscale>
<asrwt>0</asrwt>
<pdfrwt beam="1">  1        2 0.33150711E-01 0.14904728E+03</pdfrwt>
<pdfrwt beam="2">  1       -2 0.17786619E-01 0.14904728E+03</pdfrwt>
<totfact> 0.38988773E+03</totfact>
</mgrwt>
</event>
<event>
 7    1  0.5400401E-006  0.1385527E+03  0.7546771E-02  0.1225868E+00
         -1   -1    0    0    0  501 -0.00000000000E+00  0.00000000000E+00  0.80064111061E+03  0.80064111061E+03  0.00000000000E+00 0.  1.
          1   -1    0    0  501    0  0.00000000000E+00 -0.00000000000E+00 -0.21694337127E+02  0.21694337127E+02  0.00000000000E+00 0. -1.
         23    2    1    2    0    0 -0.26961844577E+02 -0.53267917127E+02  0.55978266090E+03  0.57667450715E+03  0.12502978724E+03 0.  0.
          5    1    3    3  502    0 -0.46037364973E+02 -0.78828209059E+02  0.50420432320E+03  0.51242308208E+03  0.47000000000E+01 0.  1.
         -5    1    3    3    0  502  0.19075520396E+02  0.25560291931E+02  0.55578337701E+02  0.64251425071E+02  0.47000000000E+01 0.  1.
        -11    1    1    2    0    0  0.17355992335E+02  0.78299873553E+02  0.18894807275E+03  0.20526440233E+03  0.00000000000E+00 0.  1.
         11    1    1    2    0    0  0.96058522424E+01 -0.25031956425E+02  0.30216039834E+02  0.40396538255E+02  0.00000000000E+00 0. -1.
<mgrwt>
<rscale>  0 0.13107557E+03</rscale>
<asrwt>0</asrwt>
<pdfrwt beam="2">  1        1 0.33375910E-02 0.13855273E+03</pdfrwt>
<pdfrwt beam="1">  1       -1 0.12317553E+00 0.13855273E+03</pdfrwt>
<totfact> 0.17726787E+03</totfact>
</mgrwt>
</event>
<event>
 7    1  0.5400401E-006  0.3097895E+03  0.7546771E-02  0.1081830E+00
         -1   -1    0    0    0  501 -0.00000000000E+00  0.00000000000E+00  0.12893608481E+03  0.12893608481E+03  0.00000000000E+00 0.  1.
          1   -1    0    0  501    0  0.00000000000E+00 -0.00000000000E+00 -0.72596692226E+03  0.72596692226E+03  0.00000000000E+00 0. -1.
         23    2    1    2    0    0  0.64013746115E+02  0.27612852223E+03 -0.25756924799E+03  0.40287895959E+03  0.12499927238E+03 0.  0.
          5    1    3    3  502    0  0.53410733736E+02  0.88317621235E+02 -0.16119904693E+03  0.19146783393E+03  0.47000000000E+01 0. -1.
         -5    1    3    3    0  502  0.10603012379E+02  0.18781090099E+03 -0.96370201065E+02  0.21141112567E+03  0.47000000000E+01 0. -1.
        -11    1    1    2    0    0 -0.35188519188E+02 -0.26153858025E+03 -0.31800535802E+03  0.41324093283E+03  0.00000000000E+00 0. -1.
         11    1    1    2    0    0 -0.28825226928E+02 -0.14589941980E+02 -0.21456231439E+02  0.38783114650E+02  0.00000000000E+00 0.  1.
<mgrwt>
<rscale>  0 0.30692312E+03</rscale>
<asrwt>0</asrwt>
<pdfrwt beam="2">  1        1 0.11168722E+00 0.30978951E+03</pdfrwt>
<pdfrwt beam="1">  1       -1 0.19836320E-01 0.30978951E+03</pdfrwt>
<totfact> 0.54728366E+02</totfact>
</mgrwt>
</event>
<event>
 7    1  0.5400401E-006  0.1376903E+03  0.7546771E-02  0.1226982E+00
          1   -1    0    0  501    0  0.00000000000E+00  0.00000000000E+00  0.46738444748E+03  0.46738444748E+03  0.00000000000E+00 0. -1.
         -1   -1    0    0    0  501 -0.00000000000E+00 -0.00000000000E+00 -0.33218485122E+02  0.33218485122E+02  0.00000000000E+00 0.  1.
         23    2    1    2    0    0  0.46524041136E+02  0.34200912183E+02  0.21815825901E+03  0.25797605222E+03  0.12499771497E+03 0.  0.
          5    1    3    3  502    0  0.35681344162E+02 -0.44975330108E+02  0.94153091032E+02  0.11037587232E+03  0.47000000000E+01 0. -1.
         -5    1    3    3    0  502  0.10842696974E+02  0.79176242292E+02  0.12400516798E+03  0.14760017990E+03  0.47000000000E+01 0. -1.
        -11    1    1    2    0    0 -0.32929553986E+02 -0.67076931076E+02  0.13951661313E+03  0.15826735465E+03  0.00000000000E+00 0.  1.
         11    1    1    2    0    0 -0.13594487150E+02  0.32876018893E+02  0.76491090224E+02  0.84359525738E+02  0.00000000000E+00 0. -1.
<mgrwt>
<rscale>  0 0.13031973E+03</rscale>
<asrwt>0</asrwt>
<pdfrwt beam="1">  1        1 0.71905295E-01 0.13769030E+03</pdfrwt>
<pdfrwt beam="2">  1       -1 0.51105365E-02 0.13769030E+03</pdfrwt>
<totfact> 0.80425682E+03</totfact>
</mgrwt>
</event>
<event>
 7    1  0.5400401E-006  0.2147400E+03  0.7546771E-02  0.1141376E+00
         -1   -1    0    0    0  501 -0.00000000000E+00  0.00000000000E+00  0.68360174260E+02  0.68360174260E+02  0.00000000000E+00 0.  1.
          1   -1    0    0  501    0  0.00000000000E+00 -0.00000000000E+00 -0.81275153831E+03  0.81275153831E+03  0.00000000000E+00 0. -1.
         23    2    1    2    0    0 -0.16693065104E+03  0.51203767089E+02 -0.17032457863E+03  0.27408704631E+03  0.12500231538E+03 0.  0.
          5    1    3    3  502    0 -0.98466446837E+01  0.26082842319E+02  0.13170395906E+02  0.31190068985E+02  0.47000000000E+01 0.  1.
         -5    1    3    3    0  502 -0.15708400635E+03  0.25120924770E+02 -0.18349497453E+03  0.24289697732E+03  0.47000000000E+01 0.  1.
        -11    1    1    2    0    0  0.91334788720E+02  0.19494759640E+02 -0.29168269539E+03  0.30626929992E+03  0.00000000000E+00 0.  1.
         11    1    1    2    0    0  0.75595862316E+02 -0.70698526729E+02 -0.28238409004E+03  0.30075536635E+03  0.00000000000E+00 0. -1.
<mgrwt>
<rscale>  0 0.21023983E+03</rscale>
<asrwt>0</asrwt>
<pdfrwt beam="2">  1        1 0.12503870E+00 0.21473995E+03</pdfrwt>
<pdfrwt beam="1">  1       -1 0.10516950E-01 0.21473995E+03</pdfrwt>
<totfact> 0.12671630E+03</totfact>
</mgrwt>
</event>
<event>
 7    1  0.5400401E-006  0.3179231E+03  0.7546771E-02  0.1078088E+00
          2   -1    0    0  501    0  0.00000000000E+00  0.00000000000E+00  0.29628407668E+03  0.29628407668E+03  0.00000000000E+00 0. -1.
         -2   -1    0    0    0  501 -0.00000000000E+00 -0.00000000000E+00 -0.32832493734E+03  0.32832493734E+03  0.00000000000E+00 0.  1.
         23    2    1    2    0    0  0.17396783313E+03 -0.23491502137E+03 -0.49657446003E+01  0.31796183513E+03  0.12500078301E+03 0.  0.
          5    1    3    3  502    0  0.37164790419E+02  0.28408827804E+01 -0.21199899455E+02  0.43137199709E+02  0.47000000000E+01 0.  1.
         -5    1    3    3    0  502  0.13680304271E+03 -0.23775590415E+03  0.16234154855E+02  0.27482463542E+03  0.47000000000E+01 0.  1.
        -11    1    1    2    0    0 -0.91059090283E+02  0.16398290130E+03  0.18336615298E+02  0.18846320941E+03  0.00000000000E+00 0. -1.
         11    1    1    2    0    0 -0.82908742844E+02  0.70932120067E+02 -0.45411731356E+02  0.11818396948E+03  0.00000000000E+00 0.  1.
<mgrwt>
<rscale>  0 0.31475772E+03</rscale>
<asrwt>0</asrwt>
<pdfrwt beam="1">  1        2 0.45582166E-01 0.31792306E+03</pdfrwt>
<pdfrwt beam="2">  1       -2 0.50511529E-01 0.31792306E+03</pdfrwt>
<totfact> 0.41882369E+02</totfact>
</mgrwt>
</event>
<event>
 6    1  0.5400401E-006  0.1858904E+03  0.7546771E-02  0.1177364E+00
         -1   -1    0    0    0  501 -0.00000000000E+00  0.00000000000E+00  0.81706282984E+02  0.81706282984E+02  0.00000000000E+00 0.  1.
          1   -1    0    0  501    0  0.00000000000E+00 -0.00000000000E+00 -0.43685880112E+03  0.43685880112E+03  0.00000000000E+00 0. -1.
          5    1    1    2  502    0  0.28709078772E+02 -0.94930865043E+01 -0.62813819487E+02  0.69871280323E+02  0.47000000000E+01 0. -1.
         -5    1    1    2    0  502 -0.12506932050E+03 -0.71256158876E+01  0.30276274756E+01  0.12539683354E+03  0.47000000000E+01 0.  1.
        -11    1    1    2    0    0  0.12735132686E+02 -0.32194664561E+02 -0.77260147896E+02  0.84662922721E+02  0.00000000000E+00 0. -1.
         11    1    1    2    0    0  0.83625109046E+02  0.48813366953E+02 -0.21810617823E+03  0.23863404753E+03  0.00000000000E+00 0.  1.
<mgrwt>
<rscale>  0 0.17046478E+03</rscale>
<asrwt>0</asrwt>
<pdfrwt beam="2">  1        1 0.67209046E-01 0.18589042E+03</pdfrwt>
<pdfrwt beam="1">  1       -1 0.12570197E-01 0.18589042E+03</pdfrwt>
<totfact> 0.22716969E+03</totfact>
</mgrwt>
</event>
<event>
 7    1  0.5400401E-006  0.1283451E+03  0.7546771E-02  0.1248623E+00
         -4   -1    0    0    0  501 -0.00000000000E+00  0.00000000000E+00  0.31337090438E+02  0.31337090438E+02  0.00000000000E+00 0.  1.
          4   -1    0    0  501    0  0.00000000000E+00 -0.00000000000E+00 -0.40907758102E+03  0.40907758102E+03  0.00000000000E+00 0. -1.
         23    2    1    2    0    0  0.22722625209E+02 -0.18192463121E+02 -0.15646901743E+03  0.20237348946E+03  0.12500076965E+03 0.  0.
          5    1    3    3  502    0  0.52485907153E+02 -0.31768996695E+02 -0.15772271944E+03  0.16930028302E+03  0.47000000000E+01 0. -1.
         -5    1    3    3    0  502 -0.29763281944E+02  0.13576533574E+02  0.12537020156E+01  0.33073206448E+02  0.47000000000E+01 0. -1.
        -11    1    1    2    0    0  0.25762523302E+02  0.19051264902E+02 -0.45138860982E+02  0.55354991392E+02  0.00000000000E+00 0.  1.
         11    1    1    2    0    0 -0.48485148510E+02 -0.85880178079E+00 -0.17613261217E+03  0.18268619060E+03  0.00000000000E+00 0. -1.
<mgrwt>
<rscale>  0 0.11671155E+03</rscale>
<asrwt>0</asrwt>
<pdfrwt beam="2">  1        4 0.62935013E-01 0.12834514E+03</pdfrwt>
<pdfrwt beam="1">  1       -4 0.48210908E-02 0.12834514E+03</pdfrwt>
<totfact> 0.99195682E+02</totfact>
</mgrwt>
</event>
<event>
 7    1  0.5400401E-006  0.1342703E+03  0.7546771E-02  0.1233330E+00
         -2   -1    0    0    0  501 -0.00000000000E+00  0.00000000000E+00  0.29186154059E+02  0.29186154059E+02  0.00000000000E+00 0.  1.
          2   -1    0    0  501    0  0.00000000000E+00 -0.00000000000E+00 -0.50255344156E+03  0.50255344156E+03  0.00000000000E+00 0. -1.
         23    2    1    2    0    0 -0.10352020970E+02  0.47956630879E+02 -0.22108488165E+03  0.25866396778E+03  0.12498608144E+03 0.  0.
          5    1    3    3  502    0  0.35379472827E+02  0.70621318046E+02 -0.10260328038E+03  0.12957083315E+03  0.47000000000E+01 0.  1.
         -5    1    3    3    0  502 -0.45731493797E+02 -0.22664687167E+02 -0.11848160127E+03  0.12909313463E+03  0.47000000000E+01 0.  1.
        -11    1    1    2    0    0  0.61928527474E+01  0.27789150349E+02 -0.61779569195E+02  0.68024285900E+02  0.00000000000E+00 0. -1.
         11    1    1    2    0    0  0.41591682230E+01 -0.75745781228E+02 -0.19050283666E+03  0.20505134194E+03  0.00000000000E+00 0.  1.
<mgrwt>
<rscale>  0 0.12611949E+03</rscale>
<asrwt>0</asrwt>
<pdfrwt beam="2">  1        2 0.77315912E-01 0.13427034E+03</pdfrwt>
<pdfrwt beam="1">  1       -2 0.44901777E-02 0.13427034E+03</pdfrwt>
<totfact> 0.13513364E+04</totfact>
</mgrwt>
</event>
<event>
 7    1  0.5400401E-006  0.1289204E+03  0.7546771E-02  0.1242909E+00
         -3   -1    0    0    0  501 -0.00000000000E+00  0.00000000000E+00  0.25105478967E+03  0.25105478967E+03  0.00000000000E+00 0.  1.
          3   -1    0    0  501    0  0.00000000000E+00 -0.00000000000E+00 -0.50904219349E+02  0.50904219349E+02  0.00000000000E+00 0. -1.
         23    2    1    2    0    0  0.31290089195E+02 -0.40760090352E+01  0.11667302155E+03  0.17387656839E+03  0.12499913418E+03 0.  0.
          5    1    3    3  502    0  0.11777625006E+02  0.50508723891E+02  0.10952857788E+02  0.53215587318E+02  0.47000000000E+01 0. -1.
         -5    1    3    3    0  502  0.19512464188E+02 -0.54584732926E+02  0.10572016377E+03  0.12066098107E+03  0.47000000000E+01 0. -1.
        -11    1    1    2    0    0 -0.42818159946E+02 -0.29853337555E+02  0.74800496117E+02  0.91212558366E+02  0.00000000000E+00 0. -1.
         11    1    1    2    0    0  0.11528070751E+02  0.33929346590E+02  0.86770526521E+01  0.36869882262E+02  0.00000000000E+00 0.  1.
<mgrwt>
<rscale>  0 0.12011388E+03</rscale>
<asrwt>0</asrwt>
<pdfrwt beam="2">  1        3 0.78314185E-02 0.12892039E+03</pdfrwt>
<pdfrwt beam="1">  1       -3 0.38623813E-01 0.12892039E+03</pdfrwt>
<totfact> 0.16710839E+03</totfact>
</mgrwt>
</event>
<event>
 7    1  0.5400401E-006  0.1274248E+03  0.7546771E-02  0.1245894E+00
         -1   -1    0    0    0  501 -0.00000000000E+00  0.00000000000E+00  0.52175451831E+02  0.52175451831E+02  0.00000000000E+00 0.  1.
          1   -1    0    0  501    0  0.00000000000E+00 -0.00000000000E+00 -0.24871668523E+03  0.24871668523E+03  0.00000000000E+00 0. -1.
         23    2    1    2    0    0  0.20868632344E+02 -0.13342706532E+02 -0.78983738117E+02  0.14991833840E+03  0.12499419853E+03 0.  0.
          5    1    3    3  502    0 -0.52662716843E+02 -0.71849406547E+01 -0.36441785193E+02  0.64614849884E+02  0.47000000000E+01 0.  1.
         -5    1    3    3    0  502  0.73531349187E+02 -0.61577658774E+01 -0.42541952924E+02  0.85303488512E+02  0.47000000000E+01 0.  1.
        -11    1    1    2    0    0  0.34321967729E+02  0.97300565531E+01 -0.26519805069E+02  0.44451901312E+02  0.00000000000E+00 0.  1.
         11    1    1    2    0    0 -0.55190600073E+02  0.36126499790E+01 -0.91037690211E+02  0.10652189735E+03  0.00000000000E+00 0. -1.
<mgrwt>
<rscale>  0 0.11832039E+03</rscale>
<asrwt>0</asrwt>
<pdfrwt beam="2">  1        1 0.38264105E-01 0.12742479E+03</pdfrwt>
<pdfrwt beam="1">  1       -1 0.80269928E-02 0.12742479E+03</pdfrwt>
<totfact> 0.89655436E+03</totfact>
</mgrwt>
</event>
<event>
 7    1  0.5400401E-006  0.2046361E+03  0.7546771E-02  0.1149660E+00
          1   -1    0    0  501    0  0.00000000000E+00  0.00000000000E+00  0.45320942139E+03  0.45320942139E+03  0.00000000000E+00 0. -1.
         -1   -1    0    0    0  501 -0.00000000000E+00 -0.00000000000E+00 -0.92159075744E+02  0.92159075744E+02  0.00000000000E+00 0.  1.
         23    2    1    2    0    0  0.14163410375E+03 -0.78689951484E+02  0.11011391963E+03  0.23238113494E+03  0.12499435495E+03 0.  0.
          5    1    3    3  502    0  0.15178099658E+03 -0.92895166198E+02  0.75566188356E+02  0.19338904221E+03  0.47000000000E+01 0.  1.
         -5    1    3    3    0  502 -0.10146892824E+02  0.14205214714E+02  0.34547731276E+02  0.38992092728E+02  0.47000000000E+01 0.  1.
        -11    1    1    2    0    0 -0.91741240041E+02  0.97068010036E+02  0.17090397486E+03  0.21690279463E+03  0.00000000000E+00 0.  1.
         11    1    1    2    0    0 -0.49892863712E+02 -0.18378058552E+02  0.80032451155E+02  0.96084567561E+02  0.00000000000E+00 0. -1.
<mgrwt>
<rscale>  0 0.20009338E+03</rscale>
<asrwt>0</asrwt>
<pdfrwt beam="1">  1        1 0.69724525E-01 0.20463606E+03</pdfrwt>
<pdfrwt beam="2">  1       -1 0.14178320E-01 0.20463606E+03</pdfrwt>
<totfact> 0.17977388E+03</totfact>
</mgrwt>
</event>
<event>
 7    1  0.5400401E-006  0.1264410E+03  0.7546771E-02  0.1248938E+00
         -2   -1    0    0    0  501 -0.00000000000E+00  0.00000000000E+00  0.17040656448E+03  0.17040656448E+03  0.00000000000E+00 0.  1.
          2   -1    0    0  501    0  0.00000000000E+00 -0.00000000000E+00 -0.70094304260E+02  0.70094304260E+02  0.00000000000E+00 0. -1.
         23    2    1    2    0    0 -0.42173536527E+01 -0.18580120980E+02  0.69133887463E+02  0.14410698854E+03  0.12499729111E+03 0.  0.
          5    1    3    3  502    0  0.28552031917E+02 -0.52664169973E+02 -0.15647130177E+00  0.60090330410E+02  0.47000000000E+01 0. -1.
         -5    1    3    3    0  502 -0.32769385570E+02  0.34084048993E+02  0.69290358765E+02  0.84016658135E+02  0.47000000000E+01 0. -1.
        -11    1    1    2    0    0  0.28296305973E+02  0.27428282005E+02  0.50659290878E+02  0.64182204214E+02  0.00000000000E+00 0.  1.
         11    1    1    2    0    0 -0.24078952320E+02 -0.88481610251E+01 -0.19480918124E+02  0.32211675978E+02  0.00000000000E+00 0. -1.
<mgrwt>
<rscale>  0 0.11652775E+03</rscale>
<asrwt>0</asrwt>
<pdfrwt beam="2">  1        2 0.10783739E-01 0.12644101E+03</pdfrwt>
<pdfrwt beam="1">  1       -2 0.26216394E-01 0.12644101E+03</pdfrwt>
<totfact> 0.71530491E+03</totfact>
</mgrwt>
</event>
<event>
 7    1  0.5400401E-006  0.1425918E+03  0.7546771E-02  0.1220375E+00
          1   -1    0    0  501    0  0.00000000000E+00  0.00000000000E+00  0.32466687285E+02  0.32466687285E+02  0.00000000000E+00 0. -1.
         -1   -1    0    0    0  501 -0.00000000000E+00 -0.00000000000E+00 -0.55644742514E+03  0.55644742514E+03  0.00000000000E+00 0.  1.
         23    2    1    2    0    0 -0.65038554343E+02  0.21885402634E+02 -0.37506867042E+03  0.40125918855E+03  0.12499377770E+03 0.  0.
          5    1    3    3  502    0 -0.86904601681E+02  0.54756139407E+02 -0.26833922715E+03  0.28736505602E+03  0.47000000000E+01 0. -1.
         -5    1    3    3    0  502  0.21866047339E+02 -0.32870736773E+02 -0.10672944328E+03  0.11389413253E+03  0.47000000000E+01 0. -1.
        -11    1    1    2    0    0  0.23669716529E+02 -0.11537289448E+02 -0.14204142735E+03  0.14446152295E+03  0.00000000000E+00 0.  1.
         11    1    1    2    0    0  0.41368837813E+02 -0.10348113186E+02 -0.68706400783E+01  0.43193400927E+02  0.00000000000E+00 0. -1.
<mgrwt>
<rscale>  0 0.13488972E+03</rscale>
<asrwt>0</asrwt>
<pdfrwt beam="1">  1        1 0.49948749E-02 0.14259183E+03</pdfrwt>
<pdfrwt beam="2">  1       -1 0.85607297E-01 0.14259183E+03</pdfrwt>
<totfact> 0.22895478E+03</totfact>
</mgrwt>
</event>
<event>
 7    1  0.5400401E-006  0.1702821E+03  0.7546771E-02  0.1183889E+00
          2   -1    0    0  501    0  0.00000000000E+00  0.00000000000E+00  0.92699505410E+02  0.92699505410E+02  0.00000000000E+00 0. -1.
         -2   -1    0    0    0  501 -0.00000000000E+00 -0.00000000000E+00 -0.27792647769E+03  0.27792647769E+03  0.00000000000E+00 0.  1.
         23    2    1    2    0    0 -0.11563148550E+03  0.10558975517E+01 -0.12441903754E+03  0.21089355247E+03  0.12499695281E+03 0.  0.
          5    1    3    3  502    0  0.13058667442E+02 -0.28504013237E+02 -0.50135185140E+02  0.59318077810E+02  0.47000000000E+01 0. -1.
         -5    1    3    3    0  502 -0.12869015295E+03  0.29559910789E+02 -0.74283852396E+02  0.15157547466E+03  0.47000000000E+01 0. -1.
        -11    1    1    2    0    0  0.45200687882E+02  0.34894105210E+01  0.22446867072E+02  0.50587943348E+02  0.00000000000E+00 0. -1.
         11    1    1    2    0    0  0.70430797622E+02 -0.45453080728E+01 -0.83254801818E+02  0.10914448729E+03  0.00000000000E+00 0.  1.
<mgrwt>
<rscale>  0 0.16433336E+03</rscale>
<asrwt>0</asrwt>
<pdfrwt beam="1">  1        2 0.14261462E-01 0.17028210E+03</pdfrwt>
<pdfrwt beam="2">  1       -2 0.42757920E-01 0.17028210E+03</pdfrwt>
<totfact> 0.21208219E+03</totfact>
</mgrwt>
</event>
<event>
 7    1  0.5400401E-006  0.1320215E+03  0.7546771E-02  0.1238223E+00
         -2   -1    0    0    0  501 -0.00000000000E+00  0.00000000000E+00  0.12488502380E+03  0.12488502380E+03  0.00000000000E+00 0. -1.
          2   -1    0    0  501    0  0.00000000000E+00 -0.00000000000E+00 -0.10771998790E+03  0.10771998790E+03  0.00000000000E+00 0.  1.
         23    2    1    2    0    0  0.36955398893E+01  0.42383163977E+02  0.24588931226E+01  0.13204442256E+03  0.12497877328E+03 0.  0.
          5    1    3    3  502    0 -0.31439763070E+00 -0.18537700128E+02  0.50637714035E+02  0.54129596845E+02  0.47000000000E+01 0.  1.
         -5    1    3    3    0  502  0.40099375200E+01  0.60920864104E+02 -0.48178820912E+02  0.77914825718E+02  0.47000000000E+01 0.  1.
        -11    1    1    2    0    0 -0.18218139798E+02  0.78627223388E+01 -0.27110748459E+02  0.33596364421E+02  0.00000000000E+00 0.  1.
         11    1    1    2    0    0  0.14522599909E+02 -0.50245886315E+02  0.41816891240E+02  0.66964224723E+02  0.00000000000E+00 0. -1.
<mgrwt>
<rscale>  0 0.12300334E+03</rscale>
<asrwt>0</asrwt>
<pdfrwt beam="2">  1        2 0.16572306E-01 0.13202153E+03</pdfrwt>
<pdfrwt beam="1">  1       -2 0.19213081E-01 0.13202153E+03</pdfrwt>
<totfact> 0.73565677E+03</totfact>
</mgrwt>
</event>
<event>
 7    1  0.5400401E-006  0.2102549E+03  0.7546771E-02  0.1146442E+00
          4   -1    0    0  501    0  0.00000000000E+00  0.00000000000E+00  0.97036922737E+02  0.97036922737E+02  0.00000000000E+00 0. -1.
         -4   -1    0    0    0  501 -0.00000000000E+00 -0.00000000000E+00 -0.40764807340E+03  0.40764807340E+03  0.00000000000E+00 0.  1.
         23    2    1    2    0    0 -0.40209116685E+02  0.16421838899E+03 -0.18538783676E+03  0.28031370926E+03  0.12499069260E+03 0.  0.
          5    1    3    3  502    0  0.15761908460E+01  0.36878446050E+02 -0.13000387978E+03  0.13522426897E+03  0.47000000000E+01 0. -1.
         -5    1    3    3    0  502 -0.41785307531E+02  0.12733994294E+03 -0.55383956974E+02  0.14508944029E+03  0.47000000000E+01 0. -1.
        -11    1    1    2    0    0  0.58475970020E+02 -0.10351217045E+03 -0.10267055219E+03  0.15708421559E+03  0.00000000000E+00 0.  1.
         11    1    1    2    0    0 -0.18266853335E+02 -0.60706218547E+02 -0.22552761715E+02  0.67287071284E+02  0.00000000000E+00 0. -1.
<mgrwt>
<rscale>  0 0.20395797E+03</rscale>
<asrwt>0</asrwt>
<pdfrwt beam="1">  1        4 0.14928757E-01 0.21025491E+03</pdfrwt>
<pdfrwt beam="2">  1       -4 0.62715089E-01 0.21025491E+03</pdfrwt>
<totfact> 0.16436374E+02</totfact>
</mgrwt>
</event>
<event>
 7    1  0.5400401E-006  0.1404955E+03  0.7546771E-02  0.1227415E+00
         -1   -1    0    0    0  501 -0.00000000000E+00  0.00000000000E+00  0.22804702093E+03  0.22804702093E+03  0.00000000000E+00 0.  1.
          1   -1    0    0  501    0  0.00000000000E+00 -0.00000000000E+00 -0.79377197644E+02  0.79377197644E+02  0.00000000000E+00 0. -1.
         23    2    1    2    0    0  0.42042315200E+02  0.48430524272E+02  0.14839001104E+03  0.20434916865E+03  0.12500366155E+03 0.  0.
          5    1    3    3  502    0 -0.31600258498E+02  0.53872463365E+02  0.44624372614E+02  0.76904117427E+02  0.47000000000E+01 0.  1.
         -5    1    3    3    0  502  0.73642573698E+02 -0.54419390922E+01  0.10376563843E+03  0.12744505122E+03  0.47000000000E+01 0.  1.
        -11    1    1    2    0    0 -0.20091740915E+02 -0.67915159246E+02  0.11305687198E+02  0.71721443596E+02  0.00000000000E+00 0.  1.
         11    1    1    2    0    0 -0.21950574286E+02  0.19484634974E+02 -0.11025874953E+02  0.31353606332E+02  0.00000000000E+00 0. -1.
<mgrwt>
<rscale>  0 0.13002738E+03</rscale>
<asrwt>0</asrwt>
<pdfrwt beam="2">  1        1 0.12211877E-01 0.14049551E+03</pdfrwt>
<pdfrwt beam="1">  1       -1 0.35084157E-01 0.14049551E+03</pdfrwt>
<totfact> 0.36731243E+03</totfact>
</mgrwt>
</event>
<event>
 7    1  0.5400401E-006  0.1258301E+03  0.7546771E-02  0.1249312E+00
          1   -1    0    0  501    0  0.00000000000E+00  0.00000000000E+00  0.19820413993E+02  0.19820413993E+02  0.00000000000E+00 0. -1.
         -1   -1    0    0    0  501 -0.00000000000E+00 -0.00000000000E+00 -0.59974021933E+03  0.59974021933E+03  0.00000000000E+00 0.  1.
         23    2    1    2    0    0 -0.14174492481E+02  0.27748410532E+01 -0.35283501909E+03  0.37460080763E+03  0.12499839361E+03 0.  0.
          5    1    3    3  502    0 -0.88287447375E+01  0.20659562507E+01  0.84435938810E+01  0.13251384324E+02  0.47000000000E+01 0. -1.
         -5    1    3    3    0  502 -0.53457477433E+01  0.70888480250E+00 -0.36127861297E+03  0.36134942331E+03  0.47000000000E+01 0. -1.
        -11    1    1    2    0    0 -0.20814260791E+02  0.33244846180E+02 -0.12803259377E+03  0.13390593085E+03  0.00000000000E+00 0.  1.
         11    1    1    2    0    0  0.34988753271E+02 -0.36019687233E+02 -0.99052192476E+02  0.11105389484E+03  0.00000000000E+00 0. -1.
<mgrwt>
<rscale>  0 0.11631003E+03</rscale>
<asrwt>0</asrwt>
<pdfrwt beam="1">  1        1 0.30492942E-02 0.12583010E+03</pdfrwt>
<pdfrwt beam="2">  1       -1 0.92267734E-01 0.12583010E+03</pdfrwt>
<totfact> 0.38264798E+03</totfact>
</mgrwt>
</event>
<event>
 6    1  0.5400401E-006  0.4421718E+03  0.7546771E-02  0.1041853E+00
         -2   -1    0    0    0  501 -0.00000000000E+00  0.00000000000E+00  0.24990484159E+03  0.24990484159E+03  0.00000000000E+00 0.  1.
          2   -1    0    0  501    0  0.00000000000E+00 -0.00000000000E+00 -0.57077671509E+03  0.57077671509E+03  0.00000000000E+00 0. -1.
          5    1    1    2  502    0 -0.56349414999E+01  0.94551678744E+02 -0.12566291573E+03  0.15743262339E+03  0.47000000000E+01 0. -1.
         -5    1    1    2    0  502 -0.29387366551E+03 -0.12175426555E+03 -0.68146321203E+02  0.32534880290E+03  0.47000000000E+01 0.  1.
        -11    1    1    2    0    0  0.37415578797E+02 -0.10229426091E+02 -0.47757158702E+02  0.61524896604E+02  0.00000000000E+00 0.  1.
         11    1    1    2    0    0  0.26209302821E+03  0.37432012894E+02 -0.79305477874E+02  0.27637523378E+03  0.00000000000E+00 0. -1.
<mgrwt>
<rscale>  0 0.40561501E+03</rscale>
<asrwt>0</asrwt>
<pdfrwt beam="2">  1        2 0.87811802E-01 0.44217178E+03</pdfrwt>
<pdfrwt beam="1">  1       -2 0.38446899E-01 0.44217178E+03</pdfrwt>
<totfact> 0.34301965E+02</totfact>
</mgrwt>
</event>
<event>
 7    1  0.5400401E-006  0.1463278E+03  0.7546771E-02  0.1206671E+00
         -1   -1    0    0    0  501 -0.00000000000E+00  0.00000000000E+00  0.29742155731E+03  0.29742155731E+03  0.00000000000E+00 0.  1.
          1   -1    0    0  501    0  0.00000000000E+00 -0.00000000000E+00 -0.76171794109E+02  0.76171794109E+02  0.00000000000E+00 0. -1.
         23    2    1    2    0    0 -0.39133899245E+01  0.75956376724E+02  0.16739962768E+03  0.22233861227E+03  0.12500854920E+03 0.  0.
          5    1    3    3  502    0 -0.17529869549E+02  0.10118081738E+03  0.16335977911E+03  0.19301129906E+03  0.47000000000E+01 0. -1.
         -5    1    3    3    0  502  0.13616479625E+02 -0.25224440657E+02  0.40398485714E+01  0.29327313213E+02  0.47000000000E+01 0. -1.
        -11    1    1    2    0    0  0.55991100820E+02 -0.93743885220E+01  0.23491108004E+02  0.61438706745E+02  0.00000000000E+00 0.  1.
         11    1    1    2    0    0 -0.52077710896E+02 -0.66581988201E+02  0.30359027513E+02  0.89816032402E+02  0.00000000000E+00 0. -1.
<mgrwt>
<rscale>  0 0.14506564E+03</rscale>
<asrwt>0</asrwt>
<pdfrwt beam="2">  1        1 0.11718738E-01 0.14632779E+03</pdfrwt>
<pdfrwt beam="1">  1       -1 0.45757162E-01 0.14632779E+03</pdfrwt>
<totfact> 0.24370072E+03</totfact>
</mgrwt>
</event>
<event>
 6    1  0.5400401E-006  0.2195745E+03  0.7546771E-02  0.1142909E+00
         -1   -1    0    0    0  501 -0.00000000000E+00  0.00000000000E+00  0.57273605323E+03  0.57273605323E+03  0.00000000000E+00 0.  1.
          1   -1    0    0  501    0  0.00000000000E+00 -0.00000000000E+00 -0.73028506172E+02  0.73028506172E+02  0.00000000000E+00 0. -1.
          5    1    1    2  502    0  0.32643310694E+02  0.33622961801E+02  0.15648781350E+03  0.16342158691E+03  0.47000000000E+01 0. -1.
         -5    1    1    2    0  502  0.81610551041E+02 -0.13514641028E+03  0.19399764303E+03  0.25016396574E+03  0.47000000000E+01 0.  1.
        -11    1    1    2    0    0 -0.32767657949E+02 -0.46912562159E+01  0.19563946848E+01  0.33159535167E+02  0.00000000000E+00 0. -1.
         11    1    1    2    0    0 -0.81486203787E+02  0.10621470469E+03  0.14726569584E+03  0.19901947159E+03  0.00000000000E+00 0.  1.
<mgrwt>
<rscale>  0 0.20831269E+03</rscale>
<asrwt>0</asrwt>
<pdfrwt beam="2">  1        1 0.11235155E-01 0.21957448E+03</pdfrwt>
<pdfrwt beam="1">  1       -1 0.88113236E-01 0.21957448E+03</pdfrwt>
<totfact> 0.72783015E+02</totfact>
</mgrwt>
</event>
<event>
 7    1  0.5400401E-006  0.1285000E+03  0.7546771E-02  0.1243767E+00
          2   -1    0    0  501    0  0.00000000000E+00  0.00000000000E+00  0.10379915612E+03  0.10379915612E+03  0.00000000000E+00 0. -1.
         -2   -1    0    0    0  501 -0.00000000000E+00 -0.00000000000E+00 -0.14302563666E+03  0.14302563666E+03  0.00000000000E+00 0.  1.
         23    2    1    2    0    0 -0.18797036921E+02  0.23094085479E+02 -0.69084146481E+02  0.14589337357E+03  0.12500236709E+03 0.  0.
          5    1    3    3  502    0  0.24991204369E+02  0.42725298409E+02  0.12371788511E+02  0.51236340335E+02  0.47000000000E+01 0.  1.
         -5    1    3    3    0  502 -0.43788241290E+02 -0.19631212930E+02 -0.81455934992E+02  0.94657033240E+02  0.47000000000E+01 0.  1.
        -11    1    1    2    0    0  0.42622509439E+02  0.91210822806E+01  0.40473242392E+02  0.59480717905E+02  0.00000000000E+00 0. -1.
         11    1    1    2    0    0 -0.23825472518E+02 -0.32215167760E+02 -0.10615576449E+02  0.41450701295E+02  0.00000000000E+00 0.  1.
<mgrwt>
<rscale>  0 0.11959486E+03</rscale>
<asrwt>0</asrwt>
<pdfrwt beam="1">  1        2 0.15969101E-01 0.12850003E+03</pdfrwt>
<pdfrwt beam="2">  1       -2 0.22003944E-01 0.12850003E+03</pdfrwt>
<totfact> 0.60880134E+03</totfact>
</mgrwt>
</event>
<event>
 7    1  0.5400401E-006  0.1696660E+03  0.7546771E-02  0.1185319E+00
          2   -1    0    0  501    0  0.00000000000E+00  0.00000000000E+00  0.16732067715E+03  0.16732067715E+03  0.00000000000E+00 0. -1.
         -2   -1    0    0    0  501 -0.00000000000E+00 -0.00000000000E+00 -0.14888610606E+03  0.14888610606E+03  0.00000000000E+00 0.  1.
         23    2    1    2    0    0 -0.81705101657E+02  0.80533594426E+02 -0.47116229706E+01  0.16973138209E+03  0.12500063683E+03 0.  0.
          5    1    3    3  502    0 -0.14774224121E+02  0.88181507451E+02  0.29186056970E+02  0.94170971516E+02  0.47000000000E+01 0.  1.
         -5    1    3    3    0  502 -0.66930877536E+02 -0.76479130256E+01 -0.33897679941E+02  0.75560410578E+02  0.47000000000E+01 0.  1.
        -11    1    1    2    0    0  0.88669598743E+02 -0.30710875194E+02  0.92971819484E+01  0.94296835518E+02  0.00000000000E+00 0.  1.
         11    1    1    2    0    0 -0.69644970863E+01 -0.49822719232E+02  0.13849012119E+02  0.52178565599E+02  0.00000000000E+00 0. -1.
<mgrwt>
<rscale>  0 0.16302884E+03</rscale>
<asrwt>0</asrwt>
<pdfrwt beam="1">  1        2 0.25741643E-01 0.16966597E+03</pdfrwt>
<pdfrwt beam="2">  1       -2 0.22905555E-01 0.16966597E+03</pdfrwt>
<totfact> 0.33641342E+03</totfact>
</mgrwt>
</event>
<event>
 7    1  0.5400401E-006  0.1627094E+03  0.7546771E-02  0.1191534E+00
         -2   -1    0    0    0  501 -0.00000000000E+00  0.00000000000E+00  0.97771089938E+03  0.97771089938E+03  0.00000000000E+00 0.  1.
          2   -1    0    0  501    0  0.00000000000E+00 -0.00000000000E+00 -0.47047692037E+02  0.47047692037E+02  0.00000000000E+00 0. -1.
         23    2    1    2    0    0  0.64807558490E+02 -0.81545221731E+02  0.83980310091E+03  0.85542012063E+03  0.12499876667E+03 0.  0.
          5    1    3    3  502    0 -0.18417160843E+02 -0.13882960797E+01  0.20479168575E+02  0.27975087579E+02  0.47000000000E+01 0. -1.
         -5    1    3    3    0  502  0.83224719333E+02 -0.80156925652E+02  0.81932393233E+03  0.82744503305E+03  0.47000000000E+01 0. -1.
        -11    1    1    2    0    0 -0.50834127392E+02  0.21079658594E+02  0.92075160743E+02  0.10726740297E+03  0.00000000000E+00 0.  1.
         11    1    1    2    0    0 -0.13973431099E+02  0.60465563138E+02 -0.12150543081E+01  0.62071067811E+02  0.00000000000E+00 0. -1.
<mgrwt>
<rscale>  0 0.15751295E+03</rscale>
<asrwt>0</asrwt>
<pdfrwt beam="2">  1        2 0.72381072E-02 0.16270936E+03</pdfrwt>
<pdfrwt beam="1">  1       -2 0.15041705E+00 0.16270936E+03</pdfrwt>
<totfact> 0.30248338E+02</totfact>
</mgrwt>
</event>
<event>
 7    1  0.5400401E-006  0.2110657E+03  0.7546771E-02  0.1148595E+00
         -2   -1    0    0    0  501 -0.00000000000E+00  0.00000000000E+00  0.32432531389E+03  0.32432531389E+03  0.00000000000E+00 0.  1.
          2   -1    0    0  501    0  0.00000000000E+00 -0.00000000000E+00 -0.12137893435E+03  0.12137893435E+03  0.00000000000E+00 0. -1.
         23    2    1    2    0    0 -0.12657885645E+03  0.11358015502E+03  0.16215619098E+03  0.26616418214E+03  0.12500433221E+03 0.  0.
          5    1    3    3  502    0  0.66839924718E+01  0.35849998820E+02 -0.67216694790E+01  0.37378724046E+02  0.47000000000E+01 0. -1.
         -5    1    3    3    0  502 -0.13326284892E+03  0.77730156196E+02  0.16887786045E+03  0.22878545810E+03  0.47000000000E+01 0. -1.
        -11    1    1    2    0    0  0.21565395741E+02 -0.31512610298E+02 -0.52282226055E+01  0.38541473933E+02  0.00000000000E+00 0.  1.
         11    1    1    2    0    0  0.10501346071E+03 -0.82067544718E+02  0.46018411166E+02  0.14099859216E+03  0.00000000000E+00 0. -1.
<mgrwt>
<rscale>  0 0.20136159E+03</rscale>
<asrwt>0</asrwt>
<pdfrwt beam="2">  1        2 0.18673682E-01 0.21106573E+03</pdfrwt>
<pdfrwt beam="1">  1       -2 0.49896202E-01 0.21106573E+03</pdfrwt>
<totfact> 0.11521488E+03</totfact>
</mgrwt>
</event>
<event>
 6    1  0.5400401E-006  0.9085168E+03  0.7546771E-02  0.9983491E-01
         -2   -1    0    0    0  501 -0.00000000000E+00  0.00000000000E+00  0.22910836637E+03  0.22910836637E+03  0.00000000000E+00 0.  1.
          2   -1    0    0  501    0  0.00000000000E+00 -0.00000000000E+00 -0.11907699112E+04  0.11907699112E+04  0.00000000000E+00 0. -1.
          5    1    1    2  502    0 -0.90234149146E+02 -0.35966943504E+03 -0.82355170775E+03  0.90319644016E+03  0.47000000000E+01 0. -1.
         -5    1    1    2    0  502  0.27584610111E+01  0.31508240626E+03  0.11500867590E+02  0.31533932802E+03  0.47000000000E+01 0.  1.
        -11    1    1    2    0    0 -0.16154202929E+02  0.24206760569E+02 -0.30731501718E+02  0.42324351470E+02  0.00000000000E+00 0.  1.
         11    1    1    2    0    0  0.10362989106E+03  0.20380268215E+02 -0.11887920293E+03  0.15901815790E+03  0.00000000000E+00 0. -1.
<mgrwt>
<rscale>  0 0.56380068E+03</rscale>
<asrwt>0</asrwt>
<pdfrwt beam="2">  1        2 0.18319537E+00 0.90851684E+03</pdfrwt>
<pdfrwt beam="1">  1       -2 0.35247441E-01 0.90851684E+03</pdfrwt>
<totfact> 0.14534838E+02</totfact>
</mgrwt>
</event>
<event>
 7    1  0.5400401E-006  0.1421667E+03  0.7546771E-02  0.1220037E+00
         -1   -1    0    0    0  501 -0.00000000000E+00  0.00000000000E+00  0.97976171194E+02  0.97976171194E+02  0.00000000000E+00 0.  1.
          1   -1    0    0  501    0  0.00000000000E+00 -0.00000000000E+00 -0.18618898098E+03  0.18618898098E+03  0.00000000000E+00 0. -1.
         23    2    1    2    0    0 -0.55616816601E+02  0.38640021138E+02 -0.66396859704E+01  0.14232164693E+03  0.12500033693E+03 0.  0.
          5    1    3    3  502    0 -0.51344886298E+02  0.15627267359E+02  0.54531575056E+02  0.76656973017E+02  0.47000000000E+01 0.  1.
         -5    1    3    3    0  502 -0.42719303028E+01  0.23012753779E+02 -0.61171261026E+02  0.65664673916E+02  0.47000000000E+01 0.  1.
        -11    1    1    2    0    0  0.12436877549E+02 -0.21733367612E+02  0.18776181213E+02  0.31297925999E+02  0.00000000000E+00 0.  1.
         11    1    1    2    0    0  0.43179939052E+02 -0.16906653527E+02 -0.10034930503E+03  0.11054557924E+03  0.00000000000E+00 0. -1.
<mgrwt>
<rscale>  0 0.13512970E+03</rscale>
<asrwt>0</asrwt>
<pdfrwt beam="2">  1        1 0.28644458E-01 0.14216668E+03</pdfrwt>
<pdfrwt beam="1">  1       -1 0.15073257E-01 0.14216668E+03</pdfrwt>
<totfact> 0.49149834E+03</totfact>
</mgrwt>
</event>
<event>
 7    1  0.5400401E-006  0.1440016E+03  0.7546771E-02  0.1219007E+00
          1   -1    0    0  501    0  0.00000000000E+00  0.00000000000E+00  0.14563825617E+03  0.14563825617E+03  0.00000000000E+00 0. -1.
         -1   -1    0    0    0  501 -0.00000000000E+00 -0.00000000000E+00 -0.11525435520E+03  0.11525435520E+03  0.00000000000E+00 0.  1.
         23    2    1    2    0    0 -0.10202029848E+02  0.70747492657E+02  0.55019999271E+01  0.14410671522E+03  0.12500873665E+03 0.  0.
          5    1    3    3  502    0 -0.21975453562E+02  0.37061526519E+02 -0.57225511264E+02  0.71786673183E+02  0.47000000000E+01 0. -1.
         -5    1    3    3    0  502  0.11773423714E+02  0.33685966138E+02  0.62727511191E+02  0.72320042041E+02  0.47000000000E+01 0. -1.
        -11    1    1    2    0    0  0.14476739196E+00 -0.30619365546E+02 -0.33401815481E+02  0.45312777242E+02  0.00000000000E+00 0.  1.
         11    1    1    2    0    0  0.10057262456E+02 -0.40128127111E+02  0.58283716524E+02  0.71473118901E+02  0.00000000000E+00 0. -1.
<mgrwt>
<rscale>  0 0.13586302E+03</rscale>
<asrwt>0</asrwt>
<pdfrwt beam="1">  1        1 0.22405886E-01 0.14400164E+03</pdfrwt>
<pdfrwt beam="2">  1       -1 0.17731439E-01 0.14400164E+03</pdfrwt>
<totfact> 0.51813093E+03</totfact>
</mgrwt>
</event>
<event>
 7    1  0.5400401E-006  0.3594386E+03  0.7546771E-02  0.1059822E+00
         -1   -1    0    0    0  501 -0.00000000000E+00  0.00000000000E+00  0.10562780287E+03  0.10562780287E+03  0.00000000000E+00 0.  1.
          1   -1    0    0  501    0  0.00000000000E+00 -0.00000000000E+00 -0.12291663884E+04  0.12291663884E+04  0.00000000000E+00 0. -1.
         23    2    1    2    0    0  0.22388838235E+03 -0.25187794991E+03 -0.44892814223E+03  0.57509352508E+03  0.12501030477E+03 0.  0.
          5    1    3    3  502    0  0.12378089409E+02 -0.49966738339E+02 -0.18886849877E+02  0.55033581893E+02  0.47000000000E+01 0.  1.
         -5    1    3    3    0  502  0.21151029294E+03 -0.20191121158E+03 -0.43004129235E+03  0.52005994318E+03  0.47000000000E+01 0.  1.
        -11    1    1    2    0    0 -0.61563226942E+02  0.73330452712E+02 -0.11089793260E+03  0.14651190280E+03  0.00000000000E+00 0.  1.
         11    1    1    2    0    0 -0.16232515541E+03  0.17854749720E+03 -0.56371251070E+03  0.61318876339E+03  0.00000000000E+00 0. -1.
<mgrwt>
<rscale>  0 0.35688959E+03</rscale>
<asrwt>0</asrwt>
<pdfrwt beam="2">  1        1 0.18910253E+00 0.35943857E+03</pdfrwt>
<pdfrwt beam="1">  1       -1 0.16250431E-01 0.35943857E+03</pdfrwt>
<totfact> 0.30702728E+02</totfact>
</mgrwt>
</event>
<event>
 7    1  0.5400401E-006  0.1719533E+03  0.7546771E-02  0.1182133E+00
          2   -1    0    0  501    0  0.00000000000E+00  0.00000000000E+00  0.18588377563E+03  0.18588377563E+03  0.00000000000E+00 0. -1.
         -2   -1    0    0    0  501 -0.00000000000E+00 -0.00000000000E+00 -0.13919730531E+03  0.13919730531E+03  0.00000000000E+00 0.  1.
         23    2    1    2    0    0 -0.17492744704E+02  0.11677626817E+03  0.15332142659E+02  0.17263548630E+03  0.12500097442E+03 0.  0.
          5    1    3    3  502    0  0.25132160334E+02  0.33983566712E+02  0.56496115007E+02  0.70713572251E+02  0.47000000000E+01 0.  1.
         -5    1    3    3    0  502 -0.42624905037E+02  0.82792701459E+02 -0.41163972348E+02  0.10192191405E+03  0.47000000000E+01 0.  1.
        -11    1    1    2    0    0 -0.65413207844E+01 -0.14941414682E+02 -0.27812898985E+02  0.32242706155E+02  0.00000000000E+00 0. -1.
         11    1    1    2    0    0  0.24034065488E+02 -0.10183485349E+03  0.59167226647E+02  0.12020288848E+03  0.00000000000E+00 0.  1.
<mgrwt>
<rscale>  0 0.16595493E+03</rscale>
<asrwt>0</asrwt>
<pdfrwt beam="1">  1        2 0.28597504E-01 0.17195330E+03</pdfrwt>
<pdfrwt beam="2">  1       -2 0.21414970E-01 0.17195330E+03</pdfrwt>
<totfact> 0.33669804E+03</totfact>
</mgrwt>
</event>
<event>
 7    1  0.5400401E-006  0.1271379E+03  0.7546771E-02  0.1247655E+00
          4   -1    0    0  501    0  0.00000000000E+00  0.00000000000E+00  0.13704007547E+03  0.13704007547E+03  0.00000000000E+00 0. -1.
         -4   -1    0    0    0  501 -0.00000000000E+00 -0.00000000000E+00 -0.89233812349E+02  0.89233812349E+02  0.00000000000E+00 0.  1.
         23    2    1    2    0    0  0.19556024593E+00 -0.23206562587E+02  0.12775595810E+02  0.12777819614E+03  0.12500187507E+03 0.  0.
          5    1    3    3  502    0 -0.50428464835E+02 -0.48462890964E+02  0.11196427499E+02  0.70986842830E+02  0.47000000000E+01 0.  1.
         -5    1    3    3    0  502  0.50624025081E+02  0.25256328377E+02  0.15791683103E+01  0.56791353312E+02  0.47000000000E+01 0.  1.
        -11    1    1    2    0    0 -0.42594062890E+02  0.15101330158E+02  0.40711042390E+01  0.45374863700E+02  0.00000000000E+00 0.  1.
         11    1    1    2    0    0  0.42398502644E+02  0.81052324292E+01  0.30959563068E+02  0.53120827974E+02  0.00000000000E+00 0. -1.
<mgrwt>
<rscale>  0 0.11727867E+03</rscale>
<asrwt>0</asrwt>
<pdfrwt beam="1">  1        4 0.21083089E-01 0.12713792E+03</pdfrwt>
<pdfrwt beam="2">  1       -4 0.13728279E-01 0.12713792E+03</pdfrwt>
<totfact> 0.14641757E+03</totfact>
</mgrwt>
</event>
<event>
 7    1  0.5400401E-006  0.1301931E+03  0.7546771E-02  0.1240314E+00
          2   -1    0    0  501    0  0.00000000000E+00  0.00000000000E+00  0.40611407604E+03  0.40611407604E+03  0.00000000000E+00 0. -1.
         -2   -1    0    0    0  501 -0.00000000000E+00 -0.00000000000E+00 -0.32581919452E+02  0.32581919452E+02  0.00000000000E+00 0.  1.
         23    2    1    2    0    0  0.31880224599E+02 -0.17664239274E+02  0.22539099011E+03  0.26029088965E+03  0.12498749833E+03 0.  0.
          5    1    3    3  502    0  0.56619262611E+02 -0.58354664812E+02  0.15630857163E+03  0.17625398540E+03  0.47000000000E+01 0. -1.
         -5    1    3    3    0  502 -0.24739038012E+02  0.40690425538E+02  0.69082418479E+02  0.84036904245E+02  0.47000000000E+01 0. -1.
        -11    1    1    2    0    0 -0.45775407873E+02 -0.22807748095E+02  0.50852665250E+02  0.72121944664E+02  0.00000000000E+00 0.  1.
         11    1    1    2    0    0  0.13895183274E+02  0.40471987369E+02  0.97288501221E+02  0.10628316118E+03  0.00000000000E+00 0. -1.
<mgrwt>
<rscale>  0 0.12170258E+03</rscale>
<asrwt>0</asrwt>
<pdfrwt beam="1">  1        2 0.62479085E-01 0.13019312E+03</pdfrwt>
<pdfrwt beam="2">  1       -2 0.50126033E-02 0.13019312E+03</pdfrwt>
<totfact> 0.14397194E+04</totfact>
</mgrwt>
</event>
<event>
 7    1  0.5400401E-006  0.1336831E+03  0.7546771E-02  0.1231982E+00
          1   -1    0    0  501    0  0.00000000000E+00  0.00000000000E+00  0.19445897754E+02  0.19445897754E+02  0.00000000000E+00 0. -1.
         -1   -1    0    0    0  501 -0.00000000000E+00 -0.00000000000E+00 -0.93460191224E+03  0.93460191224E+03  0.00000000000E+00 0.  1.
         23    2    1    2    0    0  0.34698721633E+01 -0.47267189511E+02 -0.70286820527E+03  0.71546829488E+03  0.12499975911E+03 0.  0.
          5    1    3    3  502    0  0.39054774304E+02  0.24973375294E+02 -0.37209604843E+03  0.37500200550E+03  0.47000000000E+01 0.  1.
         -5    1    3    3    0  502 -0.35584902141E+02 -0.72240564805E+02 -0.33077215684E+03  0.34046628938E+03  0.47000000000E+01 0.  1.
        -11    1    1    2    0    0 -0.28437738259E+02  0.63347187906E+00 -0.16560136910E+03  0.16802654460E+03  0.00000000000E+00 0.  1.
         11    1    1    2    0    0  0.24967866096E+02  0.46633717632E+02 -0.46686440121E+02  0.70552970517E+02  0.00000000000E+00 0. -1.
<mgrwt>
<rscale>  0 0.12699622E+03</rscale>
<asrwt>0</asrwt>
<pdfrwt beam="1">  1        1 0.29916765E-02 0.13368308E+03</pdfrwt>
<pdfrwt beam="2">  1       -1 0.14378491E+00 0.13368308E+03</pdfrwt>
<totfact> 0.14087525E+03</totfact>
</mgrwt>
</event>
<event>
 7    1  0.5400401E-006  0.1209327E+03  0.7546771E-02  0.1254941E+00
         -2   -1    0    0    0  501 -0.00000000000E+00  0.00000000000E+00  0.73869145861E+03  0.73869145861E+03  0.00000000000E+00 0.  1.
          2   -1    0    0  501    0  0.00000000000E+00 -0.00000000000E+00 -0.18460406447E+02  0.18460406447E+02  0.00000000000E+00 0. -1.
         23    2    1    2    0    0 -0.22827133687E+02  0.97662785288E+01  0.55272636871E+03  0.56580133787E+03  0.11835648290E+03 0.  0.
          5    1    3    3  502    0 -0.47539678838E+02  0.45697964977E+02  0.43827676146E+03  0.44323462715E+03  0.47000000000E+01 0. -1.
         -5    1    3    3    0  502  0.24712545151E+02 -0.35931686448E+02  0.11444960725E+03  0.12256671073E+03  0.47000000000E+01 0.  1.
        -11    1    1    2    0    0 -0.26702850457E+02  0.20148154068E+02  0.47173611959E+02  0.57830268892E+02  0.00000000000E+00 0. -1.
         11    1    1    2    0    0  0.49529984143E+02 -0.29914432597E+02  0.12033107150E+03  0.13352025830E+03  0.00000000000E+00 0.  1.
<mgrwt>
<rscale>  0 0.11309653E+03</rscale>
<asrwt>0</asrwt>
<pdfrwt beam="2">  1        2 0.28400631E-02 0.12093269E+03</pdfrwt>
<pdfrwt beam="1">  1       -2 0.11364482E+00 0.12093269E+03</pdfrwt>
<totfact> 0.20319216E+03</totfact>
</mgrwt>
</event>
<event>
 7    1  0.5400401E-006  0.1340844E+03  0.7546771E-02  0.1234086E+00
          2   -1    0    0  501    0  0.00000000000E+00  0.00000000000E+00  0.37976995798E+03  0.37976995798E+03  0.00000000000E+00 0. -1.
         -2   -1    0    0    0  501 -0.00000000000E+00 -0.00000000000E+00 -0.61353579579E+02  0.61353579579E+02  0.00000000000E+00 0.  1.
         23    2    1    2    0    0 -0.20557014113E+02  0.43931582294E+02  0.33728777128E+02  0.13826157475E+03  0.12500423150E+03 0.  0.
          5    1    3    3  502    0 -0.31503590651E+02 -0.30391284956E+02 -0.17323054393E+02  0.47310512983E+02  0.47000000000E+01 0. -1.
         -5    1    3    3    0  502  0.10946576538E+02  0.74322867250E+02  0.51051831522E+02  0.90951061763E+02  0.47000000000E+01 0. -1.
        -11    1    1    2    0    0 -0.32024148868E+02 -0.12030441175E+01  0.57985964570E+02  0.66252286851E+02  0.00000000000E+00 0.  1.
         11    1    1    2    0    0  0.52581162981E+02 -0.42728538176E+02  0.22670163670E+03  0.23660967596E+03  0.00000000000E+00 0. -1.
<mgrwt>
<rscale>  0 0.12563097E+03</rscale>
<asrwt>0</asrwt>
<pdfrwt beam="1">  1        2 0.58426146E-01 0.13408442E+03</pdfrwt>
<pdfrwt beam="2">  1       -2 0.94390125E-02 0.13408442E+03</pdfrwt>
<totfact> 0.58879984E+03</totfact>
</mgrwt>
</event>
<event>
 7    1  0.5400401E-006  0.1477120E+03  0.7546771E-02  0.1212806E+00
          2   -1    0    0  501    0  0.00000000000E+00  0.00000000000E+00  0.17264212384E+03  0.17264212384E+03  0.00000000000E+00 0. -1.
         -2   -1    0    0    0  501 -0.00000000000E+00 -0.00000000000E+00 -0.10793956031E+03  0.10793956031E+03  0.00000000000E+00 0.  1.
         23    2    1    2    0    0  0.21071575794E+02  0.75830429903E+02  0.95121286200E+01  0.14801799170E+03  0.12499831947E+03 0.  0.
          5    1    3    3  502    0  0.92595906979E+01 -0.21916281160E+02 -0.32765171064E+02  0.40764075295E+02  0.47000000000E+01 0.  1.
         -5    1    3    3    0  502  0.11811985097E+02  0.97746711063E+02  0.42277299684E+02  0.10725391641E+03  0.47000000000E+01 0.  1.
        -11    1    1    2    0    0  0.16893358693E+02 -0.77112605287E+02  0.51815088059E+02  0.94427447348E+02  0.00000000000E+00 0. -1.
         11    1    1    2    0    0 -0.37964934487E+02  0.12821753843E+01  0.33753468544E+01  0.38136245105E+02  0.00000000000E+00 0.  1.
<mgrwt>
<rscale>  0 0.14038945E+03</rscale>
<asrwt>0</asrwt>
<pdfrwt beam="1">  1        2 0.26560327E-01 0.14771203E+03</pdfrwt>
<pdfrwt beam="2">  1       -2 0.16606086E-01 0.14771203E+03</pdfrwt>
<totfact> 0.55588535E+03</totfact>
</mgrwt>
</event>
<event>
 7    1  0.6389867E-006  0.1300844E+03  0.7546771E-02  0.1240496E+00
         -1   -1    0    0    0  501 -0.00000000000E+00  0.00000000000E+00  0.11794431092E+03  0.11794431092E+03  0.00000000000E+00 0.  1.
          1   -1    0    0  501    0  0.00000000000E+00 -0.00000000000E+00 -0.11783779927E+03  0.11783779927E+03  0.00000000000E+00 0. -1.
         23    2    1    2    0    0 -0.14182379019E+02  0.33098552721E+02  0.27114278107E+02  0.13288010494E+03  0.12500113657E+03 0.  0.
          5    1    3    3  502    0 -0.48387936792E+02 -0.18380175727E+02  0.44587780052E+02  0.68479072838E+02  0.47000000000E+01 0.  1.
         -5    1    3    3    0  502  0.34205557772E+02  0.51478728448E+02 -0.17473501945E+02  0.64401032099E+02  0.47000000000E+01 0.  1.
        -11    1    1    2    0    0  0.29681408563E+02 -0.28814764198E+02 -0.56075409507E+02  0.69683055340E+02  0.00000000000E+00 0. -1.
         11    1    1    2    0    0 -0.15499029543E+02 -0.42837885235E+01  0.29067643049E+02  0.33218949913E+02  0.00000000000E+00 0.  1.
<mgrwt>
<rscale>  0 0.12159063E+03</rscale>
<asrwt>0</asrwt>
<pdfrwt beam="2">  1        1 0.18128892E-01 0.13008435E+03</pdfrwt>
<pdfrwt beam="1">  1       -1 0.18145279E-01 0.13008435E+03</pdfrwt>
<totfact> 0.64941903E+03</totfact>
</mgrwt>
</event>
<event>
 7    1  0.5400401E-006  0.1529026E+03  0.7546771E-02  0.1206168E+00
          4   -1    0    0  501    0  0.00000000000E+00  0.00000000000E+00  0.42167037963E+02  0.42167037963E+02  0.00000000000E+00 0. -1.
         -4   -1    0    0    0  501 -0.00000000000E+00 -0.00000000000E+00 -0.13967431447E+04  0.13967431447E+04  0.00000000000E+00 0.  1.
         23    2    1    2    0    0 -0.50024815618E+02 -0.72450603536E+02 -0.12880762313E+04  0.12971197271E+04  0.12501054622E+03 0.  0.
          5    1    3    3  502    0  0.41961119523E+02 -0.20631931658E+02 -0.42975365517E+03  0.43231551706E+03  0.47000000000E+01 0. -1.
         -5    1    3    3    0  502 -0.91985935141E+02 -0.51818671878E+02 -0.85832257611E+03  0.86480421003E+03  0.47000000000E+01 0. -1.
        -11    1    1    2    0    0  0.43323314137E+02  0.40651075391E+02 -0.85524131471E+02  0.10413355147E+03  0.00000000000E+00 0.  1.
         11    1    1    2    0    0  0.67015014813E+01  0.31799528145E+02  0.19024255995E+02  0.37656904128E+02  0.00000000000E+00 0. -1.
<mgrwt>
<rscale>  0 0.14545793E+03</rscale>
<asrwt>0</asrwt>
<pdfrwt beam="1">  1        4 0.64872367E-02 0.15290261E+03</pdfrwt>
<pdfrwt beam="2">  1       -4 0.21488356E+00 0.15290261E+03</pdfrwt>
<totfact> 0.31739698E+01</totfact>
</mgrwt>
</event>
<event>
 7    1  0.5400401E-006  0.1345056E+03  0.7546771E-02  0.1228034E+00
         -1   -1    0    0    0  501 -0.00000000000E+00  0.00000000000E+00  0.28695525149E+02  0.28695525149E+02  0.00000000000E+00 0.  1.
          1   -1    0    0  501    0  0.00000000000E+00 -0.00000000000E+00 -0.57984400479E+03  0.57984400479E+03  0.00000000000E+00 0. -1.
         23    2    1    2    0    0 -0.45246391004E+02  0.59612204698E+02 -0.22211075191E+03  0.25966314629E+03  0.11176275130E+03 0.  0.
          5    1    3    3  502    0 -0.50383555711E+00 -0.23208547848E+02 -0.11311574227E+03  0.11556881799E+03  0.47000000000E+01 0. -1.
         -5    1    3    3    0  502 -0.44742555447E+02  0.82820752546E+02 -0.10899500964E+03  0.14409432830E+03  0.47000000000E+01 0.  1.
        -11    1    1    2    0    0  0.54322048903E+02 -0.14182090184E+02 -0.95435894580E+02  0.11072500464E+03  0.00000000000E+00 0. -1.
         11    1    1    2    0    0 -0.90756578987E+01 -0.45430114514E+02 -0.23360183315E+03  0.23815137900E+03  0.00000000000E+00 0.  1.
<mgrwt>
<rscale>  0 0.12961080E+03</rscale>
<asrwt>0</asrwt>
<pdfrwt beam="2">  1        1 0.89206760E-01 0.13450563E+03</pdfrwt>
<pdfrwt beam="1">  1       -1 0.44146967E-02 0.13450563E+03</pdfrwt>
<totfact> 0.75058064E+03</totfact>
</mgrwt>
</event>
<event>
 7    1  0.5400401E-006  0.1969167E+03  0.7546771E-02  0.1155161E+00
          2   -1    0    0  501    0  0.00000000000E+00  0.00000000000E+00  0.23447164601E+03  0.23447164601E+03  0.00000000000E+00 0. -1.
         -2   -1    0    0    0  501 -0.00000000000E+00 -0.00000000000E+00 -0.18191389033E+03  0.18191389033E+03  0.00000000000E+00 0.  1.
         23    2    1    2    0    0  0.96931263269E+02 -0.11727616424E+03 -0.52998434890E+02  0.20392402050E+03  0.12500721394E+03 0.  0.
          5    1    3    3  502    0  0.52163361847E+02 -0.12251503857E+03  0.12384554400E+01  0.13324629363E+03  0.47000000000E+01 0.  1.
         -5    1    3    3    0  502  0.44767901423E+02  0.52388743315E+01 -0.54236890330E+02  0.70677726865E+02  0.47000000000E+01 0.  1.
        -11    1    1    2    0    0 -0.10625134717E+03  0.92049207700E+02  0.47343554701E+02  0.14833683826E+03  0.00000000000E+00 0.  1.
         11    1    1    2    0    0  0.93200838969E+01  0.25226956540E+02  0.58212635866E+02  0.64124677578E+02  0.00000000000E+00 0. -1.
<mgrwt>
<rscale>  0 0.19370605E+03</rscale>
<asrwt>0</asrwt>
<pdfrwt beam="1">  1        2 0.36072561E-01 0.19691666E+03</pdfrwt>
<pdfrwt beam="2">  1       -2 0.27986752E-01 0.19691666E+03</pdfrwt>
<totfact> 0.16445929E+03</totfact>
</mgrwt>
</event>
<event>
 7    1  0.5400401E-006  0.2524005E+03  0.7546771E-02  0.1114230E+00
          2   -1    0    0  501    0  0.00000000000E+00  0.00000000000E+00  0.19763118425E+03  0.19763118425E+03  0.00000000000E+00 0. -1.
         -2   -1    0    0    0  501 -0.00000000000E+00 -0.00000000000E+00 -0.33779754346E+03  0.33779754346E+03  0.00000000000E+00 0.  1.
         23    2    1    2    0    0  0.21900520953E+03 -0.10840102851E+02  0.13405120594E+02  0.25275619064E+03  0.12500082005E+03 0.  0.
          5    1    3    3  502    0 -0.15507050815E+02 -0.88726971136E+00  0.75864316820E+01  0.17913676848E+02  0.47000000000E+01 0. -1.
         -5    1    3    3    0  502  0.23451226035E+03 -0.99528331401E+01  0.58186889118E+01  0.23484251379E+03  0.47000000000E+01 0. -1.
        -11    1    1    2    0    0 -0.52993844757E+02  0.19880088706E+02 -0.86551372893E+02  0.10341521000E+03  0.00000000000E+00 0.  1.
         11    1    1    2    0    0 -0.16601136478E+03 -0.90399858546E+01 -0.67020106915E+02  0.17925732708E+03  0.00000000000E+00 0. -1.
<mgrwt>
<rscale>  0 0.24854213E+03</rscale>
<asrwt>0</asrwt>
<pdfrwt beam="1">  1        2 0.30404798E-01 0.25240046E+03</pdfrwt>
<pdfrwt beam="2">  1       -2 0.51968852E-01 0.25240046E+03</pdfrwt>
<totfact> 0.61519709E+02</totfact>
</mgrwt>
</event>
<event>
 7    1  0.5400401E-006  0.1338289E+03  0.7546771E-02  0.1238281E+00
          1   -1    0    0  501    0  0.00000000000E+00  0.00000000000E+00  0.17494193595E+03  0.17494193595E+03  0.00000000000E+00 0. -1.
         -1   -1    0    0    0  501 -0.00000000000E+00 -0.00000000000E+00 -0.92336112778E+02  0.92336112778E+02  0.00000000000E+00 0.  1.
         23    2    1    2    0    0 -0.45966354348E+02  0.13010160024E+02 -0.10165728766E+02  0.13421442266E+03  0.12501199627E+03 0.  0.
          5    1    3    3  502    0  0.11002317307E+02 -0.85619474056E+01  0.47789161776E+02  0.50002519064E+02  0.47000000000E+01 0. -1.
         -5    1    3    3    0  502 -0.56968671655E+02  0.21572107430E+02 -0.57954890542E+02  0.84211903594E+02  0.47000000000E+01 0. -1.
        -11    1    1    2    0    0  0.49919201447E+02  0.20286137681E+02  0.29435185194E+02  0.61399382591E+02  0.00000000000E+00 0.  1.
         11    1    1    2    0    0 -0.39528470988E+01 -0.33296297706E+02  0.63336366743E+02  0.71664243478E+02  0.00000000000E+00 0. -1.
<mgrwt>
<rscale>  0 0.12296706E+03</rscale>
<asrwt>0</asrwt>
<pdfrwt beam="1">  1        1 0.26914144E-01 0.13382888E+03</pdfrwt>
<pdfrwt beam="2">  1       -1 0.14205556E-01 0.13382888E+03</pdfrwt>
<totfact> 0.58076130E+03</totfact>
</mgrwt>
</event>
<event>
 7    1  0.5400401E-006  0.2460911E+03  0.7546771E-02  0.1117091E+00
         -2   -1    0    0    0  501 -0.00000000000E+00  0.00000000000E+00  0.90254783541E+03  0.90254783541E+03  0.00000000000E+00 0.  1.
          2   -1    0    0  501    0  0.00000000000E+00 -0.00000000000E+00 -0.55140676145E+03  0.55140676145E+03  0.00000000000E+00 0. -1.
         23    2    1    2    0    0  0.51890564537E+02 -0.21317837861E+03  0.85870190309E+03  0.89326916630E+03  0.11145937958E+03 0.  0.
          5    1    3    3  502    0 -0.31354891704E+02 -0.79771523430E+02  0.37189297954E+03  0.38167146005E+03  0.47000000000E+01 0. -1.
         -5    1    3    3    0  502  0.83245456240E+02 -0.13340685518E+03  0.48680892355E+03  0.51159770625E+03  0.47000000000E+01 0.  1.
        -11    1    1    2    0    0 -0.46430510163E+02  0.53998618689E+02 -0.97181945325E+02  0.12048225426E+03  0.00000000000E+00 0.  1.
         11    1    1    2    0    0 -0.54600543737E+01  0.15917975992E+03 -0.41037888380E+03  0.44020317631E+03  0.00000000000E+00 0. -1.
<mgrwt>
<rscale>  0 0.24410004E+03</rscale>
<asrwt>0</asrwt>
<pdfrwt beam="2">  1        2 0.84831810E-01 0.24609113E+03</pdfrwt>
<pdfrwt beam="1">  1       -2 0.13885351E+00 0.24609113E+03</pdfrwt>
<totfact> 0.21949749E+01</totfact>
</mgrwt>
</event>
<event>
 7    1  0.5400401E-006  0.1340928E+03  0.7546771E-02  0.1235556E+00
         -3   -1    0    0    0  501 -0.00000000000E+00  0.00000000000E+00  0.92842174124E+02  0.92842174124E+02  0.00000000000E+00 0.  1.
          3   -1    0    0  501    0  0.00000000000E+00 -0.00000000000E+00 -0.14951679615E+03  0.14951679615E+03  0.00000000000E+00 0. -1.
         23    2    1    2    0    0 -0.23823804844E+02 -0.42242402152E+02 -0.44933977707E+02  0.14142115984E+03  0.12501555055E+03 0.  0.
          5    1    3    3  502    0  0.12144867086E+02 -0.73754589003E+02 -0.54245800330E+02  0.92476667592E+02  0.47000000000E+01 0.  1.
         -5    1    3    3    0  502 -0.35968671930E+02  0.31512186850E+02  0.93118226227E+01  0.48944492244E+02  0.47000000000E+01 0.  1.
        -11    1    1    2    0    0  0.26278688282E+02 -0.71011647494E+01 -0.36614587770E+02  0.45624818204E+02  0.00000000000E+00 0. -1.
         11    1    1    2    0    0 -0.24548834380E+01  0.49343566902E+02  0.24873943449E+02  0.55312992235E+02  0.00000000000E+00 0.  1.
<mgrwt>
<rscale>  0 0.12468899E+03</rscale>
<asrwt>0</asrwt>
<pdfrwt beam="2">  1        3 0.23002584E-01 0.13409281E+03</pdfrwt>
<pdfrwt beam="1">  1       -3 0.14283411E-01 0.13409281E+03</pdfrwt>
<totfact> 0.16170901E+03</totfact>
</mgrwt>
</event>
<event>
 7    1  0.5400401E-006  0.1254969E+03  0.7546771E-02  0.1248409E+00
         -1   -1    0    0    0  501 -0.00000000000E+00  0.00000000000E+00  0.93143419775E+02  0.93143419775E+02  0.00000000000E+00 0.  1.
          1   -1    0    0  501    0  0.00000000000E+00 -0.00000000000E+00 -0.19995084336E+03  0.19995084336E+03  0.00000000000E+00 0. -1.
         23    2    1    2    0    0  0.11173423429E+02 -0.10029909911E+00  0.28007174329E+02  0.12858406622E+03  0.12499841927E+03 0.  0.
          5    1    3    3  502    0  0.32508548030E+02  0.51047161051E+02  0.38643268140E+02  0.71958394361E+02  0.47000000000E+01 0.  1.
         -5    1    3    3    0  502 -0.21335124601E+02 -0.51147460150E+02 -0.10636093811E+02  0.56625671856E+02  0.47000000000E+01 0.  1.
        -11    1    1    2    0    0  0.39368503622E+02 -0.12467931743E+02 -0.48488718524E+02  0.63690534803E+02  0.00000000000E+00 0.  1.
         11    1    1    2    0    0 -0.50541927051E+02  0.12568230842E+02 -0.86325879394E+02  0.10081966212E+03  0.00000000000E+00 0. -1.
<mgrwt>
<rscale>  0 0.11683662E+03</rscale>
<asrwt>0</asrwt>
<pdfrwt beam="2">  1        1 0.30761668E-01 0.12549685E+03</pdfrwt>
<pdfrwt beam="1">  1       -1 0.14329757E-01 0.12549685E+03</pdfrwt>
<totfact> 0.48318061E+03</totfact>
</mgrwt>
</event>
<event>
 7    1  0.5400401E-006  0.3860822E+03  0.7546771E-02  0.1049605E+00
         -1   -1    0    0    0  501 -0.00000000000E+00  0.00000000000E+00  0.18595710605E+04  0.18595710605E+04  0.00000000000E+00 0.  1.
          1   -1    0    0  501    0  0.00000000000E+00 -0.00000000000E+00 -0.82322315236E+02  0.82322315236E+02  0.00000000000E+00 0. -1.
         23    2    1    2    0    0  0.34950618492E+03  0.10618130145E+03  0.11181815393E+04  0.11829579026E+04  0.12502160853E+03 0.  0.
          5    1    3    3  502    0  0.31075318910E+03  0.12337717243E+03  0.88828380590E+03  0.94913628159E+03  0.47000000000E+01 0. -1.
         -5    1    3    3    0  502  0.38752995815E+02 -0.17195870983E+02  0.22989773337E+03  0.23382162105E+03  0.47000000000E+01 0. -1.
        -11    1    1    2    0    0 -0.27774432729E+03 -0.67077339167E+02  0.43517807308E+03  0.52059699966E+03  0.00000000000E+00 0.  1.
         11    1    1    2    0    0 -0.71761857630E+02 -0.39103962283E+02  0.22388913291E+03  0.23833847342E+03  0.00000000000E+00 0. -1.
<mgrwt>
<rscale>  0 0.38361703E+03</rscale>
<asrwt>0</asrwt>
<pdfrwt beam="2">  1        1 0.12664973E-01 0.38608217E+03</pdfrwt>
<pdfrwt beam="1">  1       -1 0.28608782E+00 0.38608217E+03</pdfrwt>
<totfact> 0.21514047E+01</totfact>
</mgrwt>
</event>
<event>
 7    1  0.5400401E-006  0.1478548E+03  0.7546771E-02  0.1210741E+00
          1   -1    0    0  501    0  0.00000000000E+00  0.00000000000E+00  0.24981255663E+03  0.24981255663E+03  0.00000000000E+00 0. -1.
         -1   -1    0    0    0  501 -0.00000000000E+00 -0.00000000000E+00 -0.11876801257E+03  0.11876801257E+03  0.00000000000E+00 0.  1.
         23    2    1    2    0    0  0.53436762758E+02 -0.58139983422E+02 -0.42980417609E+02  0.15397515377E+03  0.12500114558E+03 0.  0.
          5    1    3    3  502    0  0.41029800771E+02  0.15595724672E+02  0.26757595908E+02  0.51621023993E+02  0.47000000000E+01 0. -1.
         -5    1    3    3    0  502  0.12406961988E+02 -0.73735708094E+02 -0.69738013517E+02  0.10235412978E+03  0.47000000000E+01 0. -1.
        -11    1    1    2    0    0 -0.50060564343E+02  0.30876314849E+02  0.26441586189E+02  0.64486932019E+02  0.00000000000E+00 0.  1.
         11    1    1    2    0    0 -0.33761984152E+01  0.27263668573E+02  0.14758337548E+03  0.15011848340E+03  0.00000000000E+00 0. -1.
<mgrwt>
<rscale>  0 0.14194111E+03</rscale>
<asrwt>0</asrwt>
<pdfrwt beam="1">  1        1 0.38432701E-01 0.14785477E+03</pdfrwt>
<pdfrwt beam="2">  1       -1 0.18272002E-01 0.14785477E+03</pdfrwt>
<totfact> 0.25203443E+03</totfact>
</mgrwt>
</event>
<event>
 7    1  0.5400401E-006  0.1551423E+03  0.7546771E-02  0.1203233E+00
          1   -1    0    0  501    0  0.00000000000E+00  0.00000000000E+00  0.12892087723E+03  0.12892087723E+03  0.00000000000E+00 0. -1.
         -1   -1    0    0    0  501 -0.00000000000E+00 -0.00000000000E+00 -0.15605385064E+03  0.15605385064E+03  0.00000000000E+00 0.  1.
         23    2    1    2    0    0 -0.40437444254E+02  0.82526638637E+02 -0.40458678674E+01  0.15519505986E+03  0.12499321811E+03 0.  0.
          5    1    3    3  502    0 -0.74411051250E+02  0.83273533705E+02 -0.25615394482E+02  0.11467224773E+03  0.47000000000E+01 0.  1.
         -5    1    3    3    0  502  0.33973606996E+02 -0.74689506789E+00  0.21569526614E+02  0.40522812130E+02  0.47000000000E+01 0.  1.
        -11    1    1    2    0    0 -0.18457666824E+02 -0.41558458563E+02 -0.34572829231E+02  0.57123300533E+02  0.00000000000E+00 0.  1.
         11    1    1    2    0    0  0.58895111078E+02 -0.40968180075E+02  0.11485723687E+02  0.72656367485E+02  0.00000000000E+00 0. -1.
<mgrwt>
<rscale>  0 0.14777590E+03</rscale>
<asrwt>0</asrwt>
<pdfrwt beam="1">  1        1 0.19833981E-01 0.15514231E+03</pdfrwt>
<pdfrwt beam="2">  1       -1 0.24008285E-01 0.15514231E+03</pdfrwt>
<totfact> 0.37243148E+03</totfact>
</mgrwt>
</event>
<event>
 7    1  0.5400401E-006  0.1254932E+03  0.7546771E-02  0.1249926E+00
         -2   -1    0    0    0  501 -0.00000000000E+00  0.00000000000E+00  0.24656940157E+03  0.24656940157E+03  0.00000000000E+00 0.  1.
          2   -1    0    0  501    0  0.00000000000E+00 -0.00000000000E+00 -0.47773258360E+02  0.47773258360E+02  0.00000000000E+00 0. -1.
         23    2    1    2    0    0  0.10563250630E+02 -0.36858423249E+01  0.11947071151E+03  0.17326797880E+03  0.12499349533E+03 0.  0.
          5    1    3    3  502    0  0.35064584440E+02  0.44971092575E+02  0.10002231245E+03  0.11523227515E+03  0.47000000000E+01 0. -1.
         -5    1    3    3    0  502 -0.24501333810E+02 -0.48656934900E+02  0.19448399056E+02  0.58035703651E+02  0.47000000000E+01 0. -1.
        -11    1    1    2    0    0 -0.35827629751E+01 -0.33560254137E+02  0.65962635576E+00  0.33757398526E+02  0.00000000000E+00 0. -1.
         11    1    1    2    0    0 -0.69804876547E+01  0.37246096462E+02  0.78665805349E+02  0.87317282600E+02  0.00000000000E+00 0.  1.
<mgrwt>
<rscale>  0 0.11595339E+03</rscale>
<asrwt>0</asrwt>
<pdfrwt beam="2">  1        2 0.73497322E-02 0.12549319E+03</pdfrwt>
<pdfrwt beam="1">  1       -2 0.37933753E-01 0.12549319E+03</pdfrwt>
<totfact> 0.58865017E+03</totfact>
</mgrwt>
</event>
<event>
 7    1  0.5400401E-006  0.1423633E+03  0.7546771E-02  0.1220922E+00
         -1   -1    0    0    0  501 -0.00000000000E+00  0.00000000000E+00  0.25498160981E+03  0.25498160981E+03  0.00000000000E+00 0.  1.
          1   -1    0    0  501    0  0.00000000000E+00 -0.00000000000E+00 -0.72024171970E+02  0.72024171970E+02  0.00000000000E+00 0. -1.
         23    2    1    2    0    0  0.58374812177E+02 -0.35182753001E+02  0.15443403450E+03  0.21004088188E+03  0.12498742434E+03 0.  0.
          5    1    3    3  502    0  0.59777370310E+02 -0.74348472339E+02  0.75366733057E+02  0.12166866397E+03  0.47000000000E+01 0.  1.
         -5    1    3    3    0  502 -0.14025581331E+01  0.39165719338E+02  0.79067301441E+02  0.88372217906E+02  0.47000000000E+01 0.  1.
        -11    1    1    2    0    0 -0.37923922301E+02 -0.47740511939E+01 -0.26085511956E+02  0.46276013025E+02  0.00000000000E+00 0. -1.
         11    1    1    2    0    0 -0.20450889876E+02  0.39956804195E+02  0.54608915295E+02  0.70688886877E+02  0.00000000000E+00 0.  1.
<mgrwt>
<rscale>  0 0.13450363E+03</rscale>
<asrwt>0</asrwt>
<pdfrwt beam="2">  1        1 0.11080642E-01 0.14236327E+03</pdfrwt>
<pdfrwt beam="1">  1       -1 0.39227939E-01 0.14236327E+03</pdfrwt>
<totfact> 0.34426192E+03</totfact>
</mgrwt>
</event>
<event>
 7    1  0.5400401E-006  0.1264063E+03  0.7546771E-02  0.1248058E+00
         -3   -1    0    0    0  501 -0.00000000000E+00  0.00000000000E+00  0.21541209154E+03  0.21541209154E+03  0.00000000000E+00 0.  1.
          3   -1    0    0  501    0  0.00000000000E+00 -0.00000000000E+00 -0.59559582576E+02  0.59559582576E+02  0.00000000000E+00 0. -1.
         23    2    1    2    0    0 -0.12382899896E+02 -0.13338979186E+02  0.55023001762E+02  0.13786257014E+03  0.12508914000E+03 0.  0.
          5    1    3    3  502    0 -0.39018959556E+02 -0.28277588157E+02  0.83058885241E+02  0.96140364126E+02  0.47000000000E+01 0.  1.
         -5    1    3    3    0  502  0.26636059659E+02  0.14938608971E+02 -0.28035883479E+02  0.41722206013E+02  0.47000000000E+01 0.  1.
        -11    1    1    2    0    0  0.29765195171E+02  0.31100592787E+02  0.11744061253E+02  0.44622154699E+02  0.00000000000E+00 0. -1.
         11    1    1    2    0    0 -0.17382295275E+02 -0.17761613601E+02  0.89085445950E+02  0.92486949278E+02  0.00000000000E+00 0.  1.
<mgrwt>
<rscale>  0 0.11704221E+03</rscale>
<asrwt>0</asrwt>
<pdfrwt beam="2">  1        3 0.91630128E-02 0.12640632E+03</pdfrwt>
<pdfrwt beam="1">  1       -3 0.33140321E-01 0.12640632E+03</pdfrwt>
<totfact> 0.17223829E+03</totfact>
</mgrwt>
</event>
<event>
 7    1  0.5400401E-006  0.1392561E+03  0.7546771E-02  0.1225357E+00
         -1   -1    0    0    0  501 -0.00000000000E+00  0.00000000000E+00  0.19049238147E+03  0.19049238147E+03  0.00000000000E+00 0.  1.
          1   -1    0    0  501    0  0.00000000000E+00 -0.00000000000E+00 -0.99863372348E+02  0.99863372348E+02  0.00000000000E+00 0. -1.
         23    2    1    2    0    0 -0.51323405646E+02 -0.33679708043E+02  0.11092142075E+03  0.17803317204E+03  0.12499533616E+03 0.  0.
          5    1    3    3  502    0  0.17254603373E+02 -0.27806699362E+02  0.10349261359E+03  0.10864504101E+03  0.47000000000E+01 0. -1.
         -5    1    3    3    0  502 -0.68578009019E+02 -0.58730086805E+01  0.74288071607E+01  0.69388131030E+02  0.47000000000E+01 0. -1.
        -11    1    1    2    0    0  0.63178362043E+02  0.53907796531E+02 -0.28505494560E+01  0.83100430742E+02  0.00000000000E+00 0.  1.
         11    1    1    2    0    0 -0.11854956397E+02 -0.20228088488E+02 -0.17441862177E+02  0.29222151038E+02  0.00000000000E+00 0. -1.
<mgrwt>
<rscale>  0 0.13142438E+03</rscale>
<asrwt>0</asrwt>
<pdfrwt beam="2">  1        1 0.15363596E-01 0.13925605E+03</pdfrwt>
<pdfrwt beam="1">  1       -1 0.29306520E-01 0.13925605E+03</pdfrwt>
<totfact> 0.36939624E+03</totfact>
</mgrwt>
</event>
<event>
 7    1  0.5400401E-006  0.1416788E+03  0.7546771E-02  0.1223559E+00
          2   -1    0    0  501    0  0.00000000000E+00  0.00000000000E+00  0.50001386794E+03  0.50001386794E+03  0.00000000000E+00 0. -1.
         -2   -1    0    0    0  501 -0.00000000000E+00 -0.00000000000E+00 -0.31463949946E+02  0.31463949946E+02  0.00000000000E+00 0.  1.
         23    2    1    2    0    0  0.23687372107E+02  0.62406120028E+02  0.25265045817E+03  0.28966384356E+03  0.12496908753E+03 0.  0.
          5    1    3    3  502    0  0.14584015640E+02  0.33078216474E+02  0.13806806606E+01  0.36480929215E+02  0.47000000000E+01 0.  1.
         -5    1    3    3    0  502  0.91033564669E+01  0.29327903554E+02  0.25126977751E+03  0.25318291434E+03  0.47000000000E+01 0.  1.
        -11    1    1    2    0    0  0.27728380725E+02 -0.47706923543E+02  0.11789738460E+03  0.13017145212E+03  0.00000000000E+00 0.  1.
         11    1    1    2    0    0 -0.51415752831E+02 -0.14699196485E+02  0.98002075227E+02  0.11164252221E+03  0.00000000000E+00 0. -1.
<mgrwt>
<rscale>  0 0.13266177E+03</rscale>
<asrwt>0</asrwt>
<pdfrwt beam="1">  1        2 0.76925205E-01 0.14167882E+03</pdfrwt>
<pdfrwt beam="2">  1       -2 0.48406080E-02 0.14167882E+03</pdfrwt>
<totfact> 0.12191171E+04</totfact>
</mgrwt>
</event>
<event>
 7    1  0.5400401E-006  0.1329125E+03  0.7546771E-02  0.1239660E+00
          3   -1    0    0  501    0  0.00000000000E+00  0.00000000000E+00  0.20055053862E+03  0.20055053862E+03  0.00000000000E+00 0. -1.
         -3   -1    0    0    0  501 -0.00000000000E+00 -0.00000000000E+00 -0.74006519391E+02  0.74006519391E+02  0.00000000000E+00 0.  1.
         23    2    1    2    0    0 -0.18492091594E+02  0.41194599604E+02  0.24137380770E+02  0.13508646769E+03  0.12500715225E+03 0.  0.
          5    1    3    3  502    0 -0.36274041035E+02 -0.37204887198E+02  0.57837168100E+01  0.52493343050E+02  0.47000000000E+01 0. -1.
         -5    1    3    3    0  502  0.17781949441E+02  0.78399486802E+02  0.18353663960E+02  0.82593124639E+02  0.47000000000E+01 0. -1.
        -11    1    1    2    0    0  0.44508374661E+02  0.36522047885E-01  0.36914295283E+02  0.57824406136E+02  0.00000000000E+00 0.  1.
         11    1    1    2    0    0 -0.26016283067E+02 -0.41231121652E+02  0.65492343174E+02  0.81646184183E+02  0.00000000000E+00 0. -1.
<mgrwt>
<rscale>  0 0.12210762E+03</rscale>
<asrwt>0</asrwt>
<pdfrwt beam="1">  1        3 0.30853929E-01 0.13291253E+03</pdfrwt>
<pdfrwt beam="2">  1       -3 0.11385618E-01 0.13291253E+03</pdfrwt>
<totfact> 0.13862898E+03</totfact>
</mgrwt>
</event>
<event>
 7    1  0.5400401E-006  0.1636022E+03  0.7546771E-02  0.1192812E+00
         -1   -1    0    0    0  501 -0.00000000000E+00  0.00000000000E+00  0.43124300349E+02  0.43124300349E+02  0.00000000000E+00 0.  1.
          1   -1    0    0  501    0  0.00000000000E+00 -0.00000000000E+00 -0.55756070085E+03  0.55756070085E+03  0.00000000000E+00 0. -1.
         23    2    1    2    0    0  0.89126357891E+02  0.56598649696E+02 -0.20402972443E+03  0.26152209457E+03  0.12497504822E+03 0.  0.
          5    1    3    3  502    0  0.11698900319E+03  0.22398712669E+02 -0.15100397646E+03  0.19238612243E+03  0.47000000000E+01 0.  1.
         -5    1    3    3    0  502 -0.27862645299E+02  0.34199937027E+02 -0.53025747974E+02  0.69135972142E+02  0.47000000000E+01 0.  1.
        -11    1    1    2    0    0 -0.75814689386E+00  0.13035287832E+02 -0.55125314782E+01  0.14173267755E+02  0.00000000000E+00 0.  1.
         11    1    1    2    0    0 -0.88368210997E+02 -0.69633937528E+02 -0.30489414459E+03  0.32498963888E+03  0.00000000000E+00 0. -1.
<mgrwt>
<rscale>  0 0.15640893E+03</rscale>
<asrwt>0</asrwt>
<pdfrwt beam="2">  1        1 0.85778565E-01 0.16360219E+03</pdfrwt>
<pdfrwt beam="1">  1       -1 0.66345081E-02 0.16360219E+03</pdfrwt>
<totfact> 0.43612225E+03</totfact>
</mgrwt>
</event>
<event>
 7    1  0.5400401E-006  0.1766968E+03  0.7546771E-02  0.1176986E+00
         -2   -1    0    0    0  501 -0.00000000000E+00  0.00000000000E+00  0.10979502238E+03  0.10979502238E+03  0.00000000000E+00 0.  1.
          2   -1    0    0  501    0  0.00000000000E+00 -0.00000000000E+00 -0.25218898522E+03  0.25218898522E+03  0.00000000000E+00 0. -1.
         23    2    1    2    0    0 -0.84794358367E+02 -0.91692245815E+02 -0.57541647621E+02  0.18583006498E+03  0.12499688270E+03 0.  0.
          5    1    3    3  502    0 -0.88105521107E+02 -0.10723465745E+03 -0.14395367236E+02  0.13961078470E+03  0.47000000000E+01 0.  1.
         -5    1    3    3    0  502  0.33111627400E+01  0.15542411631E+02 -0.43146280385E+02  0.46219280274E+02  0.47000000000E+01 0.  1.
        -11    1    1    2    0    0  0.94983665137E+02  0.57022756041E+02 -0.38293224008E+02  0.11721715896E+03  0.00000000000E+00 0.  1.
         11    1    1    2    0    0 -0.10189306770E+02  0.34669489774E+02 -0.46559091216E+02  0.58936783663E+02  0.00000000000E+00 0. -1.
<mgrwt>
<rscale>  0 0.17082946E+03</rscale>
<asrwt>0</asrwt>
<pdfrwt beam="2">  1        2 0.38798305E-01 0.17669684E+03</pdfrwt>
<pdfrwt beam="1">  1       -2 0.16891542E-01 0.17669684E+03</pdfrwt>
<totfact> 0.36182025E+03</totfact>
</mgrwt>
</event>
<event>
 7    1  0.5400401E-006  0.2071177E+03  0.7546771E-02  0.1147774E+00
          1   -1    0    0  501    0  0.00000000000E+00  0.00000000000E+00  0.18514129918E+03  0.18514129918E+03  0.00000000000E+00 0. -1.
         -1   -1    0    0    0  501 -0.00000000000E+00 -0.00000000000E+00 -0.21233727197E+03  0.21233727197E+03  0.00000000000E+00 0.  1.
         23    2    1    2    0    0  0.14899762917E+03  0.71224391721E+02 -0.20394621831E+01  0.20712775105E+03  0.12499815348E+03 0.  0.
          5    1    3    3  502    0  0.91104282484E+02  0.10361335280E+03 -0.16612077661E+02  0.13904592152E+03  0.47000000000E+01 0.  1.
         -5    1    3    3    0  502  0.57893346686E+02 -0.32388961083E+02  0.14572615478E+02  0.68081829532E+02  0.47000000000E+01 0.  1.
        -11    1    1    2    0    0 -0.25815985555E+02  0.98117750597E+01 -0.32588158172E+02  0.42716789358E+02  0.00000000000E+00 0.  1.
         11    1    1    2    0    0 -0.12318164361E+03 -0.81036166781E+02  0.74316475645E+01  0.14763403075E+03  0.00000000000E+00 0. -1.
<mgrwt>
<rscale>  0 0.20234621E+03</rscale>
<asrwt>0</asrwt>
<pdfrwt beam="1">  1        1 0.28483277E-01 0.20711771E+03</pdfrwt>
<pdfrwt beam="2">  1       -1 0.32667272E-01 0.20711771E+03</pdfrwt>
<totfact> 0.14186178E+03</totfact>
</mgrwt>
</event>
<event>
 7    1  0.5400401E-006  0.1418136E+03  0.7546771E-02  0.1221719E+00
         -2   -1    0    0    0  501 -0.00000000000E+00  0.00000000000E+00  0.16656491547E+02  0.16656491547E+02  0.00000000000E+00 0.  1.
          2   -1    0    0  501    0  0.00000000000E+00 -0.00000000000E+00 -0.97666197039E+03  0.97666197039E+03  0.00000000000E+00 0. -1.
         23    2    1    2    0    0  0.55510981824E+02  0.37421724114E+02 -0.56263153340E+03  0.58022869743E+03  0.12501697648E+03 0.  0.
          5    1    3    3  502    0  0.28972103108E+02  0.82056989598E+02 -0.29671717478E+03  0.30925055232E+03  0.47000000000E+01 0.  1.
         -5    1    3    3    0  502  0.26538878716E+02 -0.44635265484E+02 -0.26591435862E+03  0.27097814511E+03  0.47000000000E+01 0.  1.
        -11    1    1    2    0    0  0.19084792024E+02 -0.32477783037E+02 -0.15063732250E+03  0.15527600783E+03  0.00000000000E+00 0. -1.
         11    1    1    2    0    0 -0.74595773848E+02 -0.49439410770E+01 -0.24673662294E+03  0.25781375667E+03  0.00000000000E+00 0.  1.
<mgrwt>
<rscale>  0 0.13394369E+03</rscale>
<asrwt>0</asrwt>
<pdfrwt beam="2">  1        2 0.15025572E+00 0.14181361E+03</pdfrwt>
<pdfrwt beam="1">  1       -2 0.25625366E-02 0.14181361E+03</pdfrwt>
<totfact> 0.13978694E+04</totfact>
</mgrwt>
</event>
<event>
 7    1  0.5400401E-006  0.1729650E+03  0.7546771E-02  0.1179873E+00
          1   -1    0    0  501    0  0.00000000000E+00  0.00000000000E+00  0.20841684582E+03  0.20841684582E+03  0.00000000000E+00 0. -1.
         -1   -1    0    0    0  501 -0.00000000000E+00 -0.00000000000E+00 -0.14088777249E+03  0.14088777249E+03  0.00000000000E+00 0.  1.
         23    2    1    2    0    0 -0.10907294825E+03 -0.48939274818E+02 -0.16389905593E+02  0.17373978562E+03  0.12499969377E+03 0.  0.
          5    1    3    3  502    0 -0.10083322358E+03 -0.81597187439E+01  0.35275371249E+02  0.10723973985E+03  0.47000000000E+01 0. -1.
         -5    1    3    3    0  502 -0.82397246753E+01 -0.40779556074E+02 -0.51665276841E+02  0.66500045770E+02  0.47000000000E+01 0. -1.
        -11    1    1    2    0    0  0.49015939171E+02  0.42598818747E+02  0.94088775379E+02  0.11432374777E+03  0.00000000000E+00 0. -1.
         11    1    1    2    0    0  0.60057009081E+02  0.63404560708E+01 -0.10169796457E+02  0.61241084926E+02  0.00000000000E+00 0.  1.
<mgrwt>
<rscale>  0 0.16807245E+03</rscale>
<asrwt>0</asrwt>
<pdfrwt beam="1">  1        1 0.32064130E-01 0.17296498E+03</pdfrwt>
<pdfrwt beam="2">  1       -1 0.21675042E-01 0.17296498E+03</pdfrwt>
<totfact> 0.24124181E+03</totfact>
</mgrwt>
</event>
<event>
 6    1  0.5400401E-006  0.1556951E+03  0.7546771E-02  0.1211776E+00
          1   -1    0    0  501    0  0.00000000000E+00  0.00000000000E+00  0.63671217667E+03  0.63671217667E+03  0.00000000000E+00 0. -1.
         -1   -1    0    0    0  501 -0.00000000000E+00 -0.00000000000E+00 -0.94179331038E+02  0.94179331038E+02  0.00000000000E+00 0.  1.
          5    1    1    2  502    0 -0.64366789671E+01 -0.60817090719E+02 -0.15685192626E+02  0.63310857105E+02  0.47000000000E+01 0. -1.
         -5    1    1    2    0  502 -0.41768829040E+02  0.83719550494E+02 -0.57779271888E+01  0.93856660162E+02  0.47000000000E+01 0.  1.
        -11    1    1    2    0    0  0.55537717250E+02  0.21921827963E+02  0.33105389205E+03  0.33639513080E+03  0.00000000000E+00 0. -1.
         11    1    1    2    0    0 -0.73322092432E+01 -0.44824287737E+02  0.23294207339E+03  0.23732885964E+03  0.00000000000E+00 0.  1.
<mgrwt>
<rscale>  0 0.14116067E+03</rscale>
<asrwt>0</asrwt>
<pdfrwt beam="1">  1        1 0.97955717E-01 0.15569510E+03</pdfrwt>
<pdfrwt beam="2">  1       -1 0.14489128E-01 0.15569510E+03</pdfrwt>
<totfact> 0.10974869E+03</totfact>
</mgrwt>
</event>
<event>
 7    1  0.5400401E-006  0.1382753E+03  0.7546771E-02  0.1230835E+00
          1   -1    0    0  501    0  0.00000000000E+00  0.00000000000E+00  0.44107172410E+03  0.44107172410E+03  0.00000000000E+00 0. -1.
         -1   -1    0    0    0  501 -0.00000000000E+00 -0.00000000000E+00 -0.32380006872E+02  0.32380006872E+02  0.00000000000E+00 0.  1.
         23    2    1    2    0    0 -0.56149743835E+02 -0.18489039104E+02  0.23709505231E+03  0.27447060037E+03  0.12500163334E+03 0.  0.
          5    1    3    3  502    0 -0.31770861553E+02  0.32402779938E+02  0.19476993234E+02  0.49606159466E+02  0.47000000000E+01 0.  1.
         -5    1    3    3    0  502 -0.24378882283E+02 -0.50891819042E+02  0.21761805908E+03  0.22486444090E+03  0.47000000000E+01 0.  1.
        -11    1    1    2    0    0  0.19737037753E+02 -0.25324169637E+02  0.22046418291E+02  0.38947513227E+02  0.00000000000E+00 0.  1.
         11    1    1    2    0    0  0.36412706082E+02  0.43813208741E+02  0.14955024663E+03  0.16003361738E+03  0.00000000000E+00 0. -1.
<mgrwt>
<rscale>  0 0.12774865E+03</rscale>
<asrwt>0</asrwt>
<pdfrwt beam="1">  1        1 0.67857184E-01 0.13827526E+03</pdfrwt>
<pdfrwt beam="2">  1       -1 0.49815398E-02 0.13827526E+03</pdfrwt>
<totfact> 0.89999125E+03</totfact>
</mgrwt>
</event>
<event>
 7    1  0.5400401E-006  0.1572505E+03  0.7546771E-02  0.1199693E+00
          2   -1    0    0  501    0  0.00000000000E+00  0.00000000000E+00  0.18412960762E+03  0.18412960762E+03  0.00000000000E+00 0. -1.
         -2   -1    0    0    0  501 -0.00000000000E+00 -0.00000000000E+00 -0.12183316860E+03  0.12183316860E+03  0.00000000000E+00 0.  1.
         23    2    1    2    0    0  0.95396298240E+02  0.66172452655E+00 -0.51997453396E+01  0.15733646196E+03  0.12500733304E+03 0.  0.
          5    1    3    3  502    0  0.17401221178E+02  0.12508431266E+02  0.54200510435E+02  0.58472631911E+02  0.47000000000E+01 0. -1.
         -5    1    3    3    0  502  0.77995077062E+02 -0.11846706740E+02 -0.59400255775E+02  0.98863830052E+02  0.47000000000E+01 0. -1.
        -11    1    1    2    0    0 -0.22046475271E+02  0.21932775453E+02  0.64744807824E+02  0.71826066655E+02  0.00000000000E+00 0. -1.
         11    1    1    2    0    0 -0.73349822969E+02 -0.22594499979E+02  0.27513765411E+01  0.76800247602E+02  0.00000000000E+00 0.  1.
<mgrwt>
<rscale>  0 0.15063619E+03</rscale>
<asrwt>0</asrwt>
<pdfrwt beam="1">  1        2 0.28327632E-01 0.15725052E+03</pdfrwt>
<pdfrwt beam="2">  1       -2 0.18743564E-01 0.15725052E+03</pdfrwt>
<totfact> 0.42477715E+03</totfact>
</mgrwt>
</event>
<event>
 7    1  0.5400401E-006  0.2069629E+03  0.7546771E-02  0.1147855E+00
         -2   -1    0    0    0  501 -0.00000000000E+00  0.00000000000E+00  0.27520128556E+02  0.27520128556E+02  0.00000000000E+00 0.  1.
          2   -1    0    0  501    0  0.00000000000E+00 -0.00000000000E+00 -0.14943779594E+04  0.14943779594E+04  0.00000000000E+00 0. -1.
         23    2    1    2    0    0 -0.95781237854E+02  0.13430027951E+03 -0.59878884395E+03  0.63354694381E+03  0.12499215881E+03 0.  0.
          5    1    3    3  502    0 -0.27041084742E+01  0.24345770257E+02 -0.91836193646E+01  0.26579270055E+02  0.47000000000E+01 0. -1.
         -5    1    3    3    0  502 -0.93077129379E+02  0.10995450925E+03 -0.58960522459E+03  0.60696767375E+03  0.47000000000E+01 0. -1.
        -11    1    1    2    0    0  0.86865839600E+02 -0.12046837798E+03 -0.85364374304E+03  0.86646750904E+03  0.00000000000E+00 0. -1.
         11    1    1    2    0    0  0.89153982534E+01 -0.13831901534E+02 -0.14425243880E+02  0.21883635143E+02  0.00000000000E+00 0.  1.
<mgrwt>
<rscale>  0 0.20224939E+03</rscale>
<asrwt>0</asrwt>
<pdfrwt beam="2">  1        2 0.22990433E+00 0.20696292E+03</pdfrwt>
<pdfrwt beam="1">  1       -2 0.42338655E-02 0.20696292E+03</pdfrwt>
<totfact> 0.34569619E+03</totfact>
</mgrwt>
</event>
<event>
 7    1  0.5400401E-006  0.1306907E+03  0.7546771E-02  0.1239275E+00
         -3   -1    0    0    0  501 -0.00000000000E+00  0.00000000000E+00  0.26502616407E+03  0.26502616407E+03  0.00000000000E+00 0.  1.
          3   -1    0    0  501    0  0.00000000000E+00 -0.00000000000E+00 -0.50477555006E+02  0.50477555006E+02  0.00000000000E+00 0. -1.
         23    2    1    2    0    0 -0.25662768862E+02 -0.28214824900E+02  0.12870316877E+03  0.18342458135E+03  0.12500166936E+03 0.  0.
          5    1    3    3  502    0 -0.75989327030E+02 -0.23436306954E+02  0.84184568516E+02  0.11589982693E+03  0.47000000000E+01 0.  1.
         -5    1    3    3    0  502  0.50326558168E+02 -0.47785179462E+01  0.44518600251E+02  0.67524754417E+02  0.47000000000E+01 0.  1.
        -11    1    1    2    0    0 -0.25014633848E+02  0.37863724040E+01  0.68786824644E+02  0.73291853347E+02  0.00000000000E+00 0.  1.
         11    1    1    2    0    0  0.50677402711E+02  0.24428452496E+02  0.17058615650E+02  0.58787284380E+02  0.00000000000E+00 0. -1.
<mgrwt>
<rscale>  0 0.12234655E+03</rscale>
<asrwt>0</asrwt>
<pdfrwt beam="2">  1        3 0.77657778E-02 0.13069075E+03</pdfrwt>
<pdfrwt beam="1">  1       -3 0.40773256E-01 0.13069075E+03</pdfrwt>
<totfact> 0.15302117E+03</totfact>
</mgrwt>
</event>
<event>
 7    1  0.5400401E-006  0.1349741E+03  0.7546771E-02  0.1232441E+00
          2   -1    0    0  501    0  0.00000000000E+00  0.00000000000E+00  0.46904497483E+02  0.46904497483E+02  0.00000000000E+00 0. -1.
         -2   -1    0    0    0  501 -0.00000000000E+00 -0.00000000000E+00 -0.32013306133E+03  0.32013306133E+03  0.00000000000E+00 0.  1.
         23    2    1    2    0    0  0.23771663832E+02 -0.45036956927E+02 -0.19079945076E+03  0.23371444830E+03  0.12499837376E+03 0.  0.
          5    1    3    3  502    0 -0.40834874630E+02 -0.47687758001E+02 -0.13176006893E+03  0.14602881569E+03  0.47000000000E+01 0.  1.
         -5    1    3    3    0  502  0.64606538461E+02  0.26508010747E+01 -0.59039381833E+02  0.87685632606E+02  0.47000000000E+01 0.  1.
        -11    1    1    2    0    0  0.67837535397E+01 -0.24857503853E+02 -0.35133803485E+02  0.43569472767E+02  0.00000000000E+00 0.  1.
         11    1    1    2    0    0 -0.30555417372E+02  0.69894460779E+02 -0.47295309603E+02  0.89753637747E+02  0.00000000000E+00 0. -1.
<mgrwt>
<rscale>  0 0.12669679E+03</rscale>
<asrwt>0</asrwt>
<pdfrwt beam="1">  1        2 0.72160767E-02 0.13497412E+03</pdfrwt>
<pdfrwt beam="2">  1       -2 0.49251239E-01 0.13497412E+03</pdfrwt>
<totfact> 0.36694258E+03</totfact>
</mgrwt>
</event>
<event>
 7    1  0.5400401E-006  0.1448158E+03  0.7546771E-02  0.1216800E+00
          2   -1    0    0  501    0  0.00000000000E+00  0.00000000000E+00  0.92355347919E+02  0.92355347919E+02  0.00000000000E+00 0. -1.
         -2   -1    0    0    0  501 -0.00000000000E+00 -0.00000000000E+00 -0.27841736944E+03  0.27841736944E+03  0.00000000000E+00 0.  1.
         23    2    1    2    0    0  0.30266049191E+02  0.66569008402E+02 -0.20575147554E+03  0.25160541084E+03  0.12499658581E+03 0.  0.
          5    1    3    3  502    0  0.42038305119E+02 -0.13427057795E+02 -0.14127317299E+03  0.14808006072E+03  0.47000000000E+01 0. -1.
         -5    1    3    3    0  502 -0.11772255928E+02  0.79996066197E+02 -0.64478302551E+02  0.10352535011E+03  0.47000000000E+01 0. -1.
        -11    1    1    2    0    0 -0.53260462467E+02 -0.57265683489E+02 -0.11790469436E+02  0.79088877455E+02  0.00000000000E+00 0.  1.
         11    1    1    2    0    0  0.22994413275E+02 -0.93033249131E+01  0.31479923448E+02  0.40078429069E+02  0.00000000000E+00 0. -1.
<mgrwt>
<rscale>  0 0.13745123E+03</rscale>
<asrwt>0</asrwt>
<pdfrwt beam="1">  1        2 0.14208515E-01 0.14481579E+03</pdfrwt>
<pdfrwt beam="2">  1       -2 0.42833441E-01 0.14481579E+03</pdfrwt>
<totfact> 0.21071926E+03</totfact>
</mgrwt>
</event>
<event>
 7    1  0.5400401E-006  0.1250552E+03  0.7546771E-02  0.1250999E+00
          1   -1    0    0  501    0  0.00000000000E+00  0.00000000000E+00  0.22010940706E+02  0.22010940706E+02  0.00000000000E+00 0. -1.
         -1   -1    0    0    0  501 -0.00000000000E+00 -0.00000000000E+00 -0.53308568241E+03  0.53308568241E+03  0.00000000000E+00 0.  1.
         23    2    1    2    0    0 -0.39168102250E+01 -0.16925685618E+01 -0.32386893731E+03  0.34717415875E+03  0.12498240580E+03 0.  0.
          5    1    3    3  502    0  0.10164537996E+02  0.58992570261E+02 -0.19361912528E+03  0.20271629647E+03  0.47000000000E+01 0.  1.
         -5    1    3    3    0  502 -0.14081348221E+02 -0.60685138823E+02 -0.13024981202E+03  0.14445786228E+03  0.47000000000E+01 0.  1.
        -11    1    1    2    0    0  0.34873284681E+02 -0.21415188433E+02 -0.14518925316E+03  0.15084652967E+03  0.00000000000E+00 0.  1.
         11    1    1    2    0    0 -0.30956474456E+02  0.23107756995E+02 -0.42016551238E+02  0.57075934701E+02  0.00000000000E+00 0. -1.
<mgrwt>
<rscale>  0 0.11533433E+03</rscale>
<asrwt>0</asrwt>
<pdfrwt beam="1">  1        1 0.33862983E-02 0.12505522E+03</pdfrwt>
<pdfrwt beam="2">  1       -1 0.82013188E-01 0.12505522E+03</pdfrwt>
<totfact> 0.42362752E+03</totfact>
</mgrwt>
</event>
<event>
 7    1  0.5400401E-006  0.1584659E+03  0.7546771E-02  0.1198357E+00
         -1   -1    0    0    0  501 -0.00000000000E+00  0.00000000000E+00  0.89162974438E+02  0.89162974438E+02  0.00000000000E+00 0.  1.
          1   -1    0    0  501    0  0.00000000000E+00 -0.00000000000E+00 -0.23901754131E+03  0.23901754131E+03  0.00000000000E+00 0. -1.
         23    2    1    2    0    0  0.33504415709E+02 -0.91453332589E+02 -0.74086870211E+02  0.17492944814E+03  0.12500075830E+03 0.  0.
          5    1    3    3  502    0 -0.15083457796E+02  0.23842743111E+02  0.15645655594E+01  0.28644806921E+02  0.47000000000E+01 0.  1.
         -5    1    3    3    0  502  0.48587873505E+02 -0.11529607570E+03 -0.75651435771E+02  0.14628464122E+03  0.47000000000E+01 0.  1.
        -11    1    1    2    0    0  0.24271344241E+02  0.36987662146E+02 -0.56109629139E+02  0.71452612159E+02  0.00000000000E+00 0.  1.
         11    1    1    2    0    0 -0.57775759950E+02  0.54465670443E+02 -0.19658067523E+02  0.81798455446E+02  0.00000000000E+00 0. -1.
<mgrwt>
<rscale>  0 0.15173538E+03</rscale>
<asrwt>0</asrwt>
<pdfrwt beam="2">  1        1 0.36771929E-01 0.15846592E+03</pdfrwt>
<pdfrwt beam="1">  1       -1 0.13717381E-01 0.15846592E+03</pdfrwt>
<totfact> 0.41998981E+03</totfact>
</mgrwt>
</event>
<event>
 7    1  0.5400401E-006  0.1286098E+03  0.7546771E-02  0.1242543E+00
          2   -1    0    0  501    0  0.00000000000E+00  0.00000000000E+00  0.33699362335E+03  0.33699362335E+03  0.00000000000E+00 0.  1.
         -2   -1    0    0    0  501 -0.00000000000E+00 -0.00000000000E+00 -0.39389873253E+02  0.39389873253E+02  0.00000000000E+00 0. -1.
         23    2    1    2    0    0  0.26434946945E+02  0.14744725693E+02  0.13673465926E+03  0.18771478448E+03  0.12499703961E+03 0.  0.
          5    1    3    3  502    0 -0.38700970757E+02 -0.19709925139E+02  0.16658190502E+02  0.46752877957E+02  0.47000000000E+01 0.  1.
         -5    1    3    3    0  502  0.65135917701E+02  0.34454650832E+02  0.12007646876E+03  0.14096190652E+03  0.47000000000E+01 0.  1.
        -11    1    1    2    0    0  0.33254697612E+02 -0.12092391193E+02  0.85190320467E+02  0.92246905310E+02  0.00000000000E+00 0. -1.
         11    1    1    2    0    0 -0.59689644557E+02 -0.26523345008E+01  0.75678770361E+02  0.96421806812E+02  0.00000000000E+00 0.  1.
<mgrwt>
<rscale>  0 0.12033642E+03</rscale>
<asrwt>0</asrwt>
<pdfrwt beam="1">  1        2 0.51845171E-01 0.12860977E+03</pdfrwt>
<pdfrwt beam="2">  1       -2 0.60599807E-02 0.12860977E+03</pdfrwt>
<totfact> 0.13174978E+04</totfact>
</mgrwt>
</event>
<event>
 6    1  0.5400401E-006  0.1507357E+03  0.7546771E-02  0.1219197E+00
          1   -1    0    0  501    0  0.00000000000E+00  0.00000000000E+00  0.15905684326E+03  0.15905684326E+03  0.00000000000E+00 0. -1.
         -1   -1    0    0    0  501 -0.00000000000E+00 -0.00000000000E+00 -0.20034703061E+03  0.20034703061E+03  0.00000000000E+00 0.  1.
          5    1    1    2  502    0 -0.13594374175E+02 -0.34151350767E+02  0.95954781462E+01  0.38279040861E+02  0.47000000000E+01 0. -1.
         -5    1    1    2    0  502 -0.61463038141E+00  0.70216215181E+02 -0.15935940725E+03  0.17420736300E+03  0.47000000000E+01 0.  1.
        -11    1    1    2    0    0 -0.26453448923E+02  0.13963752371E+02  0.57182088800E+02  0.64533422502E+02  0.00000000000E+00 0. -1.
         11    1    1    2    0    0  0.40662453480E+02 -0.50028616786E+02  0.51291652954E+02  0.82384047505E+02  0.00000000000E+00 0.  1.
<mgrwt>
<rscale>  0 0.13572690E+03</rscale>
<asrwt>0</asrwt>
<pdfrwt beam="1">  1        1 0.24470284E-01 0.15073565E+03</pdfrwt>
<pdfrwt beam="2">  1       -1 0.30822620E-01 0.15073565E+03</pdfrwt>
<totfact> 0.18800346E+03</totfact>
</mgrwt>
</event>
<event>
 7    1  0.1150039E-005  0.2755899E+03  0.7546771E-02  0.1100103E+00
          1   -1    0    0  501    0  0.00000000000E+00  0.00000000000E+00  0.19841628032E+04  0.19841628032E+04  0.00000000000E+00 0. -1.
         -1   -1    0    0    0  501 -0.00000000000E+00 -0.00000000000E+00 -0.36385235001E+02  0.36385235001E+02  0.00000000000E+00 0.  1.
         23    2    1    2    0    0  0.22354007156E+03 -0.10175351718E+03  0.98854421018E+03  0.10262404484E+04  0.12500344241E+03 0.  0.
          5    1    3    3  502    0  0.27621626637E+02 -0.62054110997E+02  0.36897063267E+03  0.37520005959E+03  0.47000000000E+01 0.  1.
         -5    1    3    3    0  502  0.19591844492E+03 -0.39699406186E+02  0.61957357751E+03  0.65104038881E+03  0.47000000000E+01 0.  1.
        -11    1    1    2    0    0 -0.81261780430E+02  0.12203222865E+02  0.46656164825E+03  0.47374272261E+03  0.00000000000E+00 0. -1.
         11    1    1    2    0    0 -0.14227829113E+03  0.89550294318E+02  0.49267170974E+03  0.52056486715E+03  0.00000000000E+00 0.  1.
<mgrwt>
<rscale>  0 0.27206572E+03</rscale>
<asrwt>0</asrwt>
<pdfrwt beam="1">  1        1 0.30525573E+00 0.27558992E+03</pdfrwt>
<pdfrwt beam="2">  1       -1 0.55977300E-02 0.27558992E+03</pdfrwt>
<totfact> 0.51234075E+02</totfact>
</mgrwt>
</event>
<event>
 7    1  0.5400401E-006  0.1670679E+03  0.7546771E-02  0.1187724E+00
         -2   -1    0    0    0  501 -0.00000000000E+00  0.00000000000E+00  0.51725123999E+02  0.51725123999E+02  0.00000000000E+00 0.  1.
          2   -1    0    0  501    0  0.00000000000E+00 -0.00000000000E+00 -0.47579500096E+03  0.47579500096E+03  0.00000000000E+00 0. -1.
         23    2    1    2    0    0 -0.43265147550E+02 -0.10205559894E+03 -0.19095412483E+03  0.25372262377E+03  0.12499789501E+03 0.  0.
          5    1    3    3  502    0 -0.33848743368E+02 -0.97832992230E+02 -0.55045848445E+02  0.11734209486E+03  0.47000000000E+01 0. -1.
         -5    1    3    3    0  502 -0.94164041823E+01 -0.42226067147E+01 -0.13590827638E+03  0.13638052891E+03  0.47000000000E+01 0. -1.
        -11    1    1    2    0    0  0.11109545887E+02  0.58010362778E+02 -0.35761283924E+02  0.69047039237E+02  0.00000000000E+00 0.  1.
         11    1    1    2    0    0  0.32155601663E+02  0.44045236166E+02 -0.19735446820E+03  0.20475046195E+03  0.00000000000E+00 0. -1.
<mgrwt>
<rscale>  0 0.16086497E+03</rscale>
<asrwt>0</asrwt>
<pdfrwt beam="2">  1        2 0.73199231E-01 0.16706793E+03</pdfrwt>
<pdfrwt beam="1">  1       -2 0.79577114E-02 0.16706793E+03</pdfrwt>
<totfact> 0.60963036E+03</totfact>
</mgrwt>
</event>
<event>
 7    1  0.5400401E-006  0.1407315E+03  0.7546771E-02  0.1223848E+00
          1   -1    0    0  501    0  0.00000000000E+00  0.00000000000E+00  0.72457411835E+02  0.72457411835E+02  0.00000000000E+00 0. -1.
         -1   -1    0    0    0  501 -0.00000000000E+00 -0.00000000000E+00 -0.22322318358E+03  0.22322318358E+03  0.00000000000E+00 0.  1.
         23    2    1    2    0    0 -0.10411529660E+02  0.63807507220E+02 -0.10733738972E+03  0.17699345208E+03  0.12500227565E+03 0.  0.
          5    1    3    3  502    0  0.28508440036E+02  0.78985390710E+02 -0.30604021417E+02  0.89499269415E+02  0.47000000000E+01 0. -1.
         -5    1    3    3    0  502 -0.38919969696E+02 -0.15177883490E+02 -0.76733368306E+02  0.87494182663E+02  0.47000000000E+01 0. -1.
        -11    1    1    2    0    0 -0.19152842099E+01 -0.26598068224E+02 -0.67576447781E+02  0.72647793095E+02  0.00000000000E+00 0.  1.
         11    1    1    2    0    0  0.12326813870E+02 -0.37209438995E+02  0.24148065761E+02  0.46039350240E+02  0.00000000000E+00 0. -1.
<mgrwt>
<rscale>  0 0.13246200E+03</rscale>
<asrwt>0</asrwt>
<pdfrwt beam="1">  1        1 0.11147294E-01 0.14073154E+03</pdfrwt>
<pdfrwt beam="2">  1       -1 0.34342028E-01 0.14073154E+03</pdfrwt>
<totfact> 0.42965673E+03</totfact>
</mgrwt>
</event>
<event>
 7    1  0.5400401E-006  0.1613935E+03  0.7546771E-02  0.1207210E+00
         -2   -1    0    0    0  501 -0.00000000000E+00  0.00000000000E+00  0.10700916349E+03  0.10700916349E+03  0.00000000000E+00 0.  1.
          2   -1    0    0  501    0  0.00000000000E+00 -0.00000000000E+00 -0.17402223914E+03  0.17402223914E+03  0.00000000000E+00 0. -1.
         23    2    1    2    0    0 -0.10246897806E+03 -0.10691792851E+02 -0.85669953380E+01  0.16162072985E+03  0.12423228649E+03 0.  0.
          5    1    3    3  502    0 -0.11337921030E+02 -0.18062105361E+02 -0.54849880987E+02  0.59037170898E+02  0.47000000000E+01 0. -1.
         -5    1    3    3    0  502 -0.91131057033E+02  0.73703125106E+01  0.46282885649E+02  0.10258355895E+03  0.47000000000E+01 0.  1.
        -11    1    1    2    0    0  0.97538746125E+01  0.22865171495E+01 -0.11197441887E+01  0.10080677442E+02  0.00000000000E+00 0. -1.
         11    1    1    2    0    0  0.92715103451E+02  0.84052757013E+01 -0.57326336127E+02  0.10932999534E+03  0.00000000000E+00 0.  1.
<mgrwt>
<rscale>  0 0.14464655E+03</rscale>
<asrwt>0</asrwt>
<pdfrwt beam="2">  1        2 0.26772652E-01 0.16139352E+03</pdfrwt>
<pdfrwt beam="1">  1       -2 0.16462949E-01 0.16139352E+03</pdfrwt>
<totfact> 0.56209915E+03</totfact>
</mgrwt>
</event>
<event>
 6    1  0.5400401E-006  0.3295309E+03  0.7546771E-02  0.1081608E+00
          2   -1    0    0  501    0  0.00000000000E+00  0.00000000000E+00  0.20794655094E+04  0.20794655094E+04  0.00000000000E+00 0. -1.
         -2   -1    0    0    0  501 -0.00000000000E+00 -0.00000000000E+00 -0.41148800846E+02  0.41148800846E+02  0.00000000000E+00 0.  1.
          5    1    1    2  502    0  0.30102566344E+02  0.51470983960E+00  0.79683165753E+03  0.79741407680E+03  0.47000000000E+01 0. -1.
         -5    1    1    2    0  502  0.16683433563E+03  0.12223224836E+03  0.51083261053E+03  0.55113198425E+03  0.47000000000E+01 0.  1.
        -11    1    1    2    0    0 -0.68880370385E+02 -0.91692827793E+02  0.28084951329E+03  0.30336204313E+03  0.00000000000E+00 0. -1.
         11    1    1    2    0    0 -0.12805653159E+03 -0.31054130405E+02  0.44980292724E+03  0.46870620611E+03  0.00000000000E+00 0.  1.
<mgrwt>
<rscale>  0 0.30738148E+03</rscale>
<asrwt>0</asrwt>
<pdfrwt beam="1">  1        2 0.31991769E+00 0.32953094E+03</pdfrwt>
<pdfrwt beam="2">  1       -2 0.63305864E-02 0.32953094E+03</pdfrwt>
<totfact> 0.91266187E+02</totfact>
</mgrwt>
</event>
<event>
 7    1  0.5400401E-006  0.1295500E+03  0.7546771E-02  0.1243337E+00
         -1   -1    0    0    0  501 -0.00000000000E+00  0.00000000000E+00  0.26477391122E+03  0.26477391122E+03  0.00000000000E+00 0.  1.
          1   -1    0    0  501    0  0.00000000000E+00 -0.00000000000E+00 -0.48127621484E+02  0.48127621484E+02  0.00000000000E+00 0. -1.
         23    2    1    2    0    0 -0.34076598044E+02 -0.13518540172E+01  0.14148418909E+03  0.19183583271E+03  0.12498067412E+03 0.  0.
          5    1    3    3  502    0  0.17068348088E+02  0.11645771978E+02  0.13704167381E+03  0.13867033884E+03  0.47000000000E+01 0.  1.
         -5    1    3    3    0  502 -0.51144946132E+02 -0.12997625995E+02  0.44425152766E+01  0.53165493869E+02  0.47000000000E+01 0.  1.
        -11    1    1    2    0    0  0.19536309676E+02  0.31703122422E+02  0.78858352907E+02  0.87208916919E+02  0.00000000000E+00 0.  1.
         11    1    1    2    0    0  0.14540288368E+02 -0.30351268405E+02 -0.36962522617E+01  0.33856783078E+02  0.00000000000E+00 0. -1.
<mgrwt>
<rscale>  0 0.11985442E+03</rscale>
<asrwt>0</asrwt>
<pdfrwt beam="2">  1        1 0.74042496E-02 0.12955003E+03</pdfrwt>
<pdfrwt beam="1">  1       -1 0.40734447E-01 0.12955003E+03</pdfrwt>
<totfact> 0.54821940E+03</totfact>
</mgrwt>
</event>
<event>
 7    1  0.5400401E-006  0.1681196E+03  0.7546771E-02  0.1186563E+00
          1   -1    0    0  501    0  0.00000000000E+00  0.00000000000E+00  0.24298310271E+03  0.24298310271E+03  0.00000000000E+00 0. -1.
         -1   -1    0    0    0  501 -0.00000000000E+00 -0.00000000000E+00 -0.11592637338E+03  0.11592637338E+03  0.00000000000E+00 0.  1.
         23    2    1    2    0    0 -0.11009440374E+03 -0.22738897980E+02  0.26284934620E+01  0.16814010218E+03  0.12500539896E+03 0.  0.
          5    1    3    3  502    0 -0.13362720310E+03  0.46929378135E+00 -0.53431465736E+01  0.13381737130E+03  0.47000000000E+01 0. -1.
         -5    1    3    3    0  502  0.23532799362E+02 -0.23208191762E+02  0.79716400356E+01  0.34322730887E+02  0.47000000000E+01 0. -1.
        -11    1    1    2    0    0  0.37883807085E+02  0.53221013845E+02  0.67196658786E+02  0.93717928413E+02  0.00000000000E+00 0. -1.
         11    1    1    2    0    0  0.72210596653E+02 -0.30482115865E+02  0.57231577079E+02  0.97051445489E+02  0.00000000000E+00 0.  1.
<mgrwt>
<rscale>  0 0.16190468E+03</rscale>
<asrwt>0</asrwt>
<pdfrwt beam="1">  1        1 0.37382016E-01 0.16811956E+03</pdfrwt>
<pdfrwt beam="2">  1       -1 0.17834827E-01 0.16811956E+03</pdfrwt>
<totfact> 0.27253194E+03</totfact>
</mgrwt>
</event>
<event>
 7    1  0.5400401E-006  0.1652762E+03  0.7546771E-02  0.1192056E+00
          2   -1    0    0  501    0  0.00000000000E+00  0.00000000000E+00  0.66173474132E+02  0.66173474132E+02  0.00000000000E+00 0. -1.
         -2   -1    0    0    0  501 -0.00000000000E+00 -0.00000000000E+00 -0.47795851974E+03  0.47795851974E+03  0.00000000000E+00 0.  1.
         23    2    1    2    0    0  0.98979209678E+02 -0.43483766331E+02 -0.36633571855E+03  0.40189311159E+03  0.12501396952E+03 0.  0.
          5    1    3    3  502    0  0.56930762231E+02 -0.56097225330E+02 -0.83687716385E+02  0.11581767677E+03  0.47000000000E+01 0.  1.
         -5    1    3    3    0  502  0.42048447447E+02  0.12613458998E+02 -0.28264800217E+03  0.28607543482E+03  0.47000000000E+01 0.  1.
        -11    1    1    2    0    0 -0.82495814989E+02  0.98733777290E+01 -0.59565997507E+02  0.10223087174E+03  0.00000000000E+00 0.  1.
         11    1    1    2    0    0 -0.16483394690E+02  0.33610388602E+02  0.14116670452E+02  0.40008010537E+02  0.00000000000E+00 0. -1.
<mgrwt>
<rscale>  0 0.15706010E+03</rscale>
<asrwt>0</asrwt>
<pdfrwt beam="1">  1        2 0.10180535E-01 0.16527618E+03</pdfrwt>
<pdfrwt beam="2">  1       -2 0.73532079E-01 0.16527618E+03</pdfrwt>
<totfact> 0.10561430E+03</totfact>
</mgrwt>
</event>
<event>
 7    1  0.5400401E-006  0.2227571E+03  0.7546771E-02  0.1135158E+00
         -1   -1    0    0    0  501 -0.00000000000E+00  0.00000000000E+00  0.62702216147E+02  0.62702216147E+02  0.00000000000E+00 0.  1.
          1   -1    0    0  501    0  0.00000000000E+00 -0.00000000000E+00 -0.75156282158E+03  0.75156282158E+03  0.00000000000E+00 0. -1.
         23    2    1    2    0    0 -0.15308846142E+03  0.10278396049E+03 -0.29081509343E+03  0.36632520053E+03  0.12498045617E+03 0.  0.
          5    1    3    3  502    0 -0.65648449349E+02  0.46310799255E+02 -0.30729858962E+02  0.86144200394E+02  0.47000000000E+01 0. -1.
         -5    1    3    3    0  502 -0.87440012066E+02  0.56473161233E+02 -0.26008523446E+03  0.28018100013E+03  0.47000000000E+01 0. -1.
        -11    1    1    2    0    0  0.10421283839E+03 -0.65049222490E+02 -0.34607546020E+03  0.36723281605E+03  0.00000000000E+00 0. -1.
         11    1    1    2    0    0  0.48875623027E+02 -0.37734737998E+02 -0.51970051809E+02  0.80707021151E+02  0.00000000000E+00 0.  1.
<mgrwt>
<rscale>  0 0.21829835E+03</rscale>
<asrwt>0</asrwt>
<pdfrwt beam="2">  1        1 0.11562504E+00 0.22275712E+03</pdfrwt>
<pdfrwt beam="1">  1       -1 0.96464955E-02 0.22275712E+03</pdfrwt>
<totfact> 0.16312382E+03</totfact>
</mgrwt>
</event>
<event>
 7    1  0.5400401E-006  0.1400691E+03  0.7546771E-02  0.1222655E+00
          2   -1    0    0  501    0  0.00000000000E+00  0.00000000000E+00  0.93725444043E+03  0.93725444043E+03  0.00000000000E+00 0. -1.
         -2   -1    0    0    0  501 -0.00000000000E+00 -0.00000000000E+00 -0.18744158491E+02  0.18744158491E+02  0.00000000000E+00 0.  1.
         23    2    1    2    0    0  0.34137979635E+02  0.53168734929E+02  0.37077066209E+03  0.39634608969E+03  0.12500809140E+03 0.  0.
          5    1    3    3  502    0  0.27734011603E+01  0.83734201898E+02  0.15631177052E+03  0.17741073227E+03  0.47000000000E+01 0.  1.
         -5    1    3    3    0  502  0.31364578475E+02 -0.30565466969E+02  0.21445889158E+03  0.21893535742E+03  0.47000000000E+01 0.  1.
        -11    1    1    2    0    0 -0.59341712222E+01  0.27784651116E+02  0.11094664527E+03  0.11452667515E+03  0.00000000000E+00 0.  1.
         11    1    1    2    0    0 -0.28203808413E+02 -0.80953386045E+02  0.43679297458E+03  0.44512583408E+03  0.00000000000E+00 0. -1.
<mgrwt>
<rscale>  0 0.13328966E+03</rscale>
<asrwt>0</asrwt>
<pdfrwt beam="1">  1        2 0.14419296E+00 0.14006905E+03</pdfrwt>
<pdfrwt beam="2">  1       -2 0.28837174E-02 0.14006905E+03</pdfrwt>
<totfact> 0.12417697E+04</totfact>
</mgrwt>
</event>
<event>
 7    1  0.5400401E-006  0.1305982E+03  0.7546771E-02  0.1241260E+00
          2   -1    0    0  501    0  0.00000000000E+00  0.00000000000E+00  0.51601951400E+02  0.51601951400E+02  0.00000000000E+00 0.  1.
         -2   -1    0    0    0  501 -0.00000000000E+00 -0.00000000000E+00 -0.26375735839E+03  0.26375735839E+03  0.00000000000E+00 0. -1.
         23    2    1    2    0    0  0.75763019654E+01  0.37062020917E+02 -0.15658738076E+03  0.20390068335E+03  0.12499954844E+03 0.  0.
          5    1    3    3  502    0 -0.12661451240E+02 -0.83172051636E+01 -0.15304628640E+03  0.15386599374E+03  0.47000000000E+01 0.  1.
         -5    1    3    3    0  502  0.20237753206E+02  0.45379226081E+02 -0.35410943556E+01  0.50034689604E+02  0.47000000000E+01 0.  1.
        -11    1    1    2    0    0 -0.67157736466E+01  0.28499809390E+02 -0.27384455379E+02  0.40090511937E+02  0.00000000000E+00 0.  1.
         11    1    1    2    0    0 -0.86052831886E+00 -0.65561830307E+02 -0.28183570853E+02  0.71368114507E+02  0.00000000000E+00 0. -1.
<mgrwt>
<rscale>  0 0.12112070E+03</rscale>
<asrwt>0</asrwt>
<pdfrwt beam="1">  1        2 0.79387618E-02 0.13059817E+03</pdfrwt>
<pdfrwt beam="2">  1       -2 0.40578055E-01 0.13059817E+03</pdfrwt>
<totfact> 0.47199847E+03</totfact>
</mgrwt>
</event>
<event>
 7    1  0.5400401E-006  0.1415010E+03  0.7546771E-02  0.1224123E+00
         -2   -1    0    0    0  501 -0.00000000000E+00  0.00000000000E+00  0.47907534383E+03  0.47907534383E+03  0.00000000000E+00 0.  1.
          2   -1    0    0  501    0  0.00000000000E+00 -0.00000000000E+00 -0.51627888960E+02  0.51627888960E+02  0.00000000000E+00 0. -1.
         23    2    1    2    0    0 -0.65481147900E+02 -0.10463550622E+02  0.39237739111E+03  0.41711215168E+03  0.12500105360E+03 0.  0.
          5    1    3    3  502    0 -0.58054454579E+02 -0.25476565966E+02  0.39449752323E+03  0.39958698795E+03  0.47000000000E+01 0.  1.
         -5    1    3    3    0  502 -0.74266933205E+01  0.15013015344E+02 -0.21201321158E+01  0.17525163725E+02  0.47000000000E+01 0.  1.
        -11    1    1    2    0    0  0.55563752181E+02 -0.24438384437E+02 -0.32898799260E+01  0.60789707190E+02  0.00000000000E+00 0. -1.
         11    1    1    2    0    0  0.99173957189E+01  0.34901935059E+02  0.38359943689E+02  0.52801373926E+02  0.00000000000E+00 0.  1.
<mgrwt>
<rscale>  0 0.13227188E+03</rscale>
<asrwt>0</asrwt>
<pdfrwt beam="2">  1        2 0.79427525E-02 0.14150099E+03</pdfrwt>
<pdfrwt beam="1">  1       -2 0.73703896E-01 0.14150099E+03</pdfrwt>
<totfact> 0.14219353E+03</totfact>
</mgrwt>
</event>
<event>
 7    1  0.5400401E-006  0.1322063E+03  0.7546771E-02  0.1237885E+00
          2   -1    0    0  501    0  0.00000000000E+00  0.00000000000E+00  0.11008019634E+03  0.11008019634E+03  0.00000000000E+00 0. -1.
         -2   -1    0    0    0  501 -0.00000000000E+00 -0.00000000000E+00 -0.13624730491E+03  0.13624730491E+03  0.00000000000E+00 0.  1.
         23    2    1    2    0    0 -0.37458379978E+02  0.21241274230E+02 -0.53937333237E+02  0.14278565980E+03  0.12499674703E+03 0.  0.
          5    1    3    3  502    0  0.17906544366E+02 -0.41318593716E+02 -0.34400237600E+02  0.56862438083E+02  0.47000000000E+01 0. -1.
         -5    1    3    3    0  502 -0.55364924344E+02  0.62559867946E+02 -0.19537095637E+02  0.85923221721E+02  0.47000000000E+01 0. -1.
        -11    1    1    2    0    0 -0.22081310877E+01  0.15596740443E+02  0.44237816680E+02  0.46958690143E+02  0.00000000000E+00 0. -1.
         11    1    1    2    0    0  0.39666511065E+02 -0.36838014673E+02 -0.16467592012E+02  0.56583151307E+02  0.00000000000E+00 0.  1.
<mgrwt>
<rscale>  0 0.12321556E+03</rscale>
<asrwt>0</asrwt>
<pdfrwt beam="1">  1        2 0.16935415E-01 0.13220631E+03</pdfrwt>
<pdfrwt beam="2">  1       -2 0.20961124E-01 0.13220631E+03</pdfrwt>
<totfact> 0.61924954E+03</totfact>
</mgrwt>
</event>
<event>
 7    1  0.5400401E-006  0.2878577E+03  0.7546771E-02  0.1093104E+00
          1   -1    0    0  501    0  0.00000000000E+00  0.00000000000E+00  0.32573465891E+03  0.32573465891E+03  0.00000000000E+00 0. -1.
         -1   -1    0    0    0  501 -0.00000000000E+00 -0.00000000000E+00 -0.26702110440E+03  0.26702110440E+03  0.00000000000E+00 0.  1.
         23    2    1    2    0    0 -0.11480084090E+03 -0.22427601961E+03 -0.58583929787E+02  0.28191697634E+03  0.11209878981E+03 0.  0.
          5    1    3    3  502    0 -0.50986410702E+02 -0.11579307035E+03  0.27242089229E+02  0.12950625716E+03  0.47000000000E+01 0. -1.
         -5    1    3    3    0  502 -0.63814430198E+02 -0.10848294926E+03 -0.85826019016E+02  0.15241071918E+03  0.47000000000E+01 0.  1.
        -11    1    1    2    0    0  0.12323083062E+02  0.13746354647E+02  0.69439546481E+02  0.71851731070E+02  0.00000000000E+00 0.  1.
         11    1    1    2    0    0  0.10247775784E+03  0.21052966496E+03  0.47857937811E+02  0.23898705591E+03  0.00000000000E+00 0. -1.
<mgrwt>
<rscale>  0 0.28478512E+03</rscale>
<asrwt>0</asrwt>
<pdfrwt beam="1">  1        1 0.50113025E-01 0.28785769E+03</pdfrwt>
<pdfrwt beam="2">  1       -1 0.41080170E-01 0.28785769E+03</pdfrwt>
<totfact> 0.46649110E+02</totfact>
</mgrwt>
</event>
<event>
 7    1  0.5400401E-006  0.1908454E+03  0.7546771E-02  0.1162396E+00
         -3   -1    0    0    0  501 -0.00000000000E+00  0.00000000000E+00  0.61253208686E+02  0.61253208686E+02  0.00000000000E+00 0.  1.
          3   -1    0    0  501    0  0.00000000000E+00 -0.00000000000E+00 -0.53505207967E+03  0.53505207967E+03  0.00000000000E+00 0. -1.
         23    2    1    2    0    0  0.46480225688E+02  0.13652997194E+03 -0.25793965312E+03  0.32086577082E+03  0.12498453349E+03 0.  0.
          5    1    3    3  502    0  0.17326965844E+02  0.58977370680E+02 -0.22205659323E+03  0.23045558052E+03  0.47000000000E+01 0. -1.
         -5    1    3    3    0  502  0.29153259844E+02  0.77552601263E+02 -0.35883059890E+02  0.90410190296E+02  0.47000000000E+01 0. -1.
        -11    1    1    2    0    0 -0.69642698551E+02 -0.95431457991E+02 -0.11890860347E+03  0.16762017962E+03  0.00000000000E+00 0.  1.
         11    1    1    2    0    0  0.23162472862E+02 -0.41098513953E+02 -0.96950614399E+02  0.10781933792E+03  0.00000000000E+00 0. -1.
<mgrwt>
<rscale>  0 0.18570234E+03</rscale>
<asrwt>0</asrwt>
<pdfrwt beam="2">  1        3 0.82315701E-01 0.19084543E+03</pdfrwt>
<pdfrwt beam="1">  1       -3 0.94235710E-02 0.19084543E+03</pdfrwt>
<totfact> 0.27746909E+02</totfact>
</mgrwt>
</event>
<event>
 7    1  0.5400401E-006  0.1325019E+03  0.7546771E-02  0.1236681E+00
         -1   -1    0    0    0  501 -0.00000000000E+00  0.00000000000E+00  0.87915489387E+02  0.87915489387E+02  0.00000000000E+00 0.  1.
          1   -1    0    0  501    0  0.00000000000E+00 -0.00000000000E+00 -0.19152752178E+03  0.19152752178E+03  0.00000000000E+00 0. -1.
         23    2    1    2    0    0  0.42594609213E+02 -0.10799717468E+02  0.25621840126E+01  0.13252671022E+03  0.12500331797E+03 0.  0.
          5    1    3    3  502    0 -0.42055009649E+02 -0.20614890156E+02  0.31776029430E+01  0.47178222658E+02  0.47000000000E+01 0. -1.
         -5    1    3    3    0  502  0.84649618862E+02  0.98151726873E+01 -0.61541893040E+00  0.85348487560E+02  0.47000000000E+01 0. -1.
        -11    1    1    2    0    0 -0.70407296802E+01  0.31872951253E+02 -0.99919323147E+02  0.10511578394E+03  0.00000000000E+00 0. -1.
         11    1    1    2    0    0 -0.35553879533E+02 -0.21073233785E+02 -0.62548932561E+01  0.41800517002E+02  0.00000000000E+00 0.  1.
<mgrwt>
<rscale>  0 0.12397427E+03</rscale>
<asrwt>0</asrwt>
<pdfrwt beam="2">  1        1 0.29465772E-01 0.13250194E+03</pdfrwt>
<pdfrwt beam="1">  1       -1 0.13525460E-01 0.13250194E+03</pdfrwt>
<totfact> 0.55959706E+03</totfact>
</mgrwt>
</event>
<event>
 7    1  0.5400401E-006  0.1896811E+03  0.7546771E-02  0.1163463E+00
         -1   -1    0    0    0  501 -0.00000000000E+00  0.00000000000E+00  0.85859716413E+02  0.85859716413E+02  0.00000000000E+00 0.  1.
          1   -1    0    0  501    0  0.00000000000E+00 -0.00000000000E+00 -0.39174714282E+03  0.39174714282E+03  0.00000000000E+00 0. -1.
         23    2    1    2    0    0 -0.36046349184E+02  0.13803219439E+03 -0.11425847408E+03  0.22143602859E+03  0.12500675935E+03 0.  0.
          5    1    3    3  502    0 -0.26322628096E+02  0.11201799326E+03 -0.14136961637E+03  0.18234135570E+03  0.47000000000E+01 0. -1.
         -5    1    3    3    0  502 -0.97237210878E+01  0.26014201131E+02  0.27111142297E+02  0.39094672897E+02  0.47000000000E+01 0. -1.
        -11    1    1    2    0    0  0.21711644330E+02 -0.38456431612E+02 -0.53804012398E+01  0.44488665403E+02  0.00000000000E+00 0.  1.
         11    1    1    2    0    0  0.14334704854E+02 -0.99575762780E+02 -0.18624855109E+03  0.21168216524E+03  0.00000000000E+00 0. -1.
<mgrwt>
<rscale>  0 0.18455836E+03</rscale>
<asrwt>0</asrwt>
<pdfrwt beam="2">  1        1 0.60268792E-01 0.18968109E+03</pdfrwt>
<pdfrwt beam="1">  1       -1 0.13209187E-01 0.18968109E+03</pdfrwt>
<totfact> 0.24184701E+03</totfact>
</mgrwt>
</event>
<event>
 7    1  0.5400401E-006  0.1470993E+03  0.7546771E-02  0.1213710E+00
         -2   -1    0    0    0  501 -0.00000000000E+00  0.00000000000E+00  0.12888754392E+03  0.12888754392E+03  0.00000000000E+00 0.  1.
          2   -1    0    0  501    0  0.00000000000E+00 -0.00000000000E+00 -0.14321440968E+03  0.14321440968E+03  0.00000000000E+00 0. -1.
         23    2    1    2    0    0 -0.76702295880E+02  0.11359411883E+02  0.17730064491E+02  0.14816391391E+03  0.12500364701E+03 0.  0.
          5    1    3    3  502    0  0.19924680435E+02 -0.32907475534E+02  0.15535319471E+02  0.41753215296E+02  0.47000000000E+01 0.  1.
         -5    1    3    3    0  502 -0.96626976315E+02  0.44266887417E+02  0.21947450208E+01  0.10641069861E+03  0.47000000000E+01 0.  1.
        -11    1    1    2    0    0  0.31389614091E+02 -0.49736409422E+02 -0.60889104735E+01  0.59127769498E+02  0.00000000000E+00 0. -1.
         11    1    1    2    0    0  0.45312681789E+02  0.38376997540E+02 -0.25968019782E+02  0.64810270192E+02  0.00000000000E+00 0.  1.
<mgrwt>
<rscale>  0 0.13971723E+03</rscale>
<asrwt>0</asrwt>
<pdfrwt beam="2">  1        2 0.22032986E-01 0.14709925E+03</pdfrwt>
<pdfrwt beam="1">  1       -2 0.19828853E-01 0.14709925E+03</pdfrwt>
<totfact> 0.50813742E+03</totfact>
</mgrwt>
</event>
<event>
 7    1  0.5400401E-006  0.1326433E+03  0.7546771E-02  0.1239168E+00
          2   -1    0    0  501    0  0.00000000000E+00  0.00000000000E+00  0.30805759842E+03  0.30805759842E+03  0.00000000000E+00 0. -1.
         -2   -1    0    0    0  501 -0.00000000000E+00 -0.00000000000E+00 -0.42529785484E+02  0.42529785484E+02  0.00000000000E+00 0.  1.
         23    2    1    2    0    0  0.39919236222E+02  0.19407162754E+02  0.15792176426E+03  0.20623656746E+03  0.12499621892E+03 0.  0.
          5    1    3    3  502    0  0.56034221966E+02  0.15817648607E+02  0.12411659670E+02  0.59717429068E+02  0.47000000000E+01 0.  1.
         -5    1    3    3    0  502 -0.16114985744E+02  0.35895141474E+01  0.14551010459E+03  0.14651913840E+03  0.47000000000E+01 0.  1.
        -11    1    1    2    0    0 -0.36348122412E+02  0.83198190615E+01  0.11013942325E+03  0.11628025604E+03  0.00000000000E+00 0. -1.
         11    1    1    2    0    0 -0.35711138094E+01 -0.27726981815E+02 -0.25333745710E+01  0.28070560400E+02  0.00000000000E+00 0.  1.
<mgrwt>
<rscale>  0 0.12241345E+03</rscale>
<asrwt>0</asrwt>
<pdfrwt beam="1">  1        2 0.47393475E-01 0.13264327E+03</pdfrwt>
<pdfrwt beam="2">  1       -2 0.65430441E-02 0.13264327E+03</pdfrwt>
<totfact> 0.12928312E+04</totfact>
</mgrwt>
</event>
<event>
 7    1  0.5400401E-006  0.2454735E+03  0.7546771E-02  0.1118783E+00
          2   -1    0    0  501    0  0.00000000000E+00  0.00000000000E+00  0.23616917680E+03  0.23616917680E+03  0.00000000000E+00 0. -1.
         -2   -1    0    0    0  501 -0.00000000000E+00 -0.00000000000E+00 -0.23973636537E+03  0.23973636537E+03  0.00000000000E+00 0.  1.
         23    2    1    2    0    0  0.19315278010E+03 -0.85593733033E+02 -0.11269458222E+02  0.24573204473E+03  0.12499181382E+03 0.  0.
          5    1    3    3  502    0  0.23905068658E+02 -0.28527278602E+02 -0.50396756877E+02  0.62826594971E+02  0.47000000000E+01 0. -1.
         -5    1    3    3    0  502  0.16924771144E+03 -0.57066454431E+02  0.39127298655E+02  0.18290544975E+03  0.47000000000E+01 0. -1.
        -11    1    1    2    0    0 -0.16271007352E+03  0.87898760714E+02 -0.23616558793E+02  0.18643632159E+03  0.00000000000E+00 0.  1.
         11    1    1    2    0    0 -0.30442706582E+02 -0.23050276812E+01  0.31318828446E+02  0.43737175856E+02  0.00000000000E+00 0. -1.
<mgrwt>
<rscale>  0 0.24152187E+03</rscale>
<asrwt>0</asrwt>
<pdfrwt beam="1">  1        2 0.36333720E-01 0.24547350E+03</pdfrwt>
<pdfrwt beam="2">  1       -2 0.36882518E-01 0.24547350E+03</pdfrwt>
<totfact> 0.98727462E+02</totfact>
</mgrwt>
</event>
<event>
 7    1  0.5400401E-006  0.1415885E+03  0.7546771E-02  0.1212159E+00
         -1   -1    0    0    0  501 -0.00000000000E+00  0.00000000000E+00  0.82905979117E+02  0.82905979117E+02  0.00000000000E+00 0.  1.
          1   -1    0    0  501    0  0.00000000000E+00 -0.00000000000E+00 -0.23820919435E+03  0.23820919435E+03  0.00000000000E+00 0. -1.
         23    2    1    2    0    0 -0.38117692174E+02  0.46591455306E+02 -0.65339765407E+02  0.15336322318E+03  0.12500908414E+03 0.  0.
          5    1    3    3  502    0 -0.24567094574E+02  0.10421812749E+02 -0.98550295184E+02  0.10220766604E+03  0.47000000000E+01 0. -1.
         -5    1    3    3    0  502 -0.13550597600E+02  0.36169642556E+02  0.33210529777E+02  0.51155557138E+02  0.47000000000E+01 0. -1.
        -11    1    1    2    0    0  0.14128819587E+02  0.20267091017E+02  0.23363851284E+02  0.34003647863E+02  0.00000000000E+00 0.  1.
         11    1    1    2    0    0  0.23988872588E+02 -0.66858546323E+02 -0.11332730111E+03  0.13374830242E+03  0.00000000000E+00 0. -1.
<mgrwt>
<rscale>  0 0.14087293E+03</rscale>
<asrwt>0</asrwt>
<pdfrwt beam="2">  1        1 0.36647568E-01 0.14158847E+03</pdfrwt>
<pdfrwt beam="1">  1       -1 0.12754766E-01 0.14158847E+03</pdfrwt>
<totfact> 0.46946206E+03</totfact>
</mgrwt>
</event>
<event>
 7    1  0.5400401E-006  0.1250184E+03  0.7546771E-02  0.1250531E+00
         -2   -1    0    0    0  501 -0.00000000000E+00  0.00000000000E+00  0.27340550338E+02  0.27340550338E+02  0.00000000000E+00 0.  1.
          2   -1    0    0  501    0  0.00000000000E+00 -0.00000000000E+00 -0.43671932462E+03  0.43671932462E+03  0.00000000000E+00 0. -1.
         23    2    1    2    0    0 -0.24836094915E+01 -0.74153261971E+00 -0.20401797247E+03  0.23927587518E+03  0.12499157237E+03 0.  0.
          5    1    3    3  502    0  0.52609310099E+02  0.30825694349E+02 -0.10660398387E+03  0.12290021284E+03  0.47000000000E+01 0. -1.
         -5    1    3    3    0  502 -0.55092919591E+02 -0.31567226969E+02 -0.97413988602E+02  0.11637566233E+03  0.47000000000E+01 0. -1.
        -11    1    1    2    0    0 -0.43513677733E+02 -0.65732232056E+01 -0.84789336156E+02  0.95529466339E+02  0.00000000000E+00 0.  1.
         11    1    1    2    0    0  0.45997287225E+02  0.73147558253E+01 -0.12057146566E+03  0.12925453345E+03  0.00000000000E+00 0. -1.
<mgrwt>
<rscale>  0 0.11560390E+03</rscale>
<asrwt>0</asrwt>
<pdfrwt beam="2">  1        2 0.67187587E-01 0.12501844E+03</pdfrwt>
<pdfrwt beam="1">  1       -2 0.42062386E-02 0.12501844E+03</pdfrwt>
<totfact> 0.17246089E+04</totfact>
</mgrwt>
</event>
<event>
 7    1  0.5400401E-006  0.1368728E+03  0.7546771E-02  0.1229453E+00
          1   -1    0    0  501    0  0.00000000000E+00  0.00000000000E+00  0.13824021253E+03  0.13824021253E+03  0.00000000000E+00 0. -1.
         -1   -1    0    0    0  501 -0.00000000000E+00 -0.00000000000E+00 -0.10748689516E+03  0.10748689516E+03  0.00000000000E+00 0.  1.
         23    2    1    2    0    0  0.43069681470E+02 -0.35376466996E+02  0.19763593002E+02  0.13829235622E+03  0.12501073675E+03 0.  0.
          5    1    3    3  502    0  0.73097824836E+02 -0.62355065306E+02  0.15368129383E+02  0.97415171128E+02  0.47000000000E+01 0.  1.
         -5    1    3    3    0  502 -0.30028143367E+02  0.26978598311E+02  0.43954636196E+01  0.40877185095E+02  0.47000000000E+01 0.  1.
        -11    1    1    2    0    0 -0.59356739478E+02  0.24944141122E+01  0.29506205795E+02  0.66332954130E+02  0.00000000000E+00 0. -1.
         11    1    1    2    0    0  0.16287058009E+02  0.32882052883E+02 -0.18516481424E+02  0.41101797342E+02  0.00000000000E+00 0.  1.
<mgrwt>
<rscale>  0 0.12866284E+03</rscale>
<asrwt>0</asrwt>
<pdfrwt beam="1">  1        1 0.21267725E-01 0.13687285E+03</pdfrwt>
<pdfrwt beam="2">  1       -1 0.16536445E-01 0.13687285E+03</pdfrwt>
<totfact> 0.61619250E+03</totfact>
</mgrwt>
</event>
<event>
 7    1  0.5400401E-006  0.1363510E+03  0.7546771E-02  0.1229617E+00
         -2   -1    0    0    0  501 -0.00000000000E+00  0.00000000000E+00  0.85217758555E+02  0.85217758555E+02  0.00000000000E+00 0.  1.
          2   -1    0    0  501    0  0.00000000000E+00 -0.00000000000E+00 -0.17595269884E+03  0.17595269884E+03  0.00000000000E+00 0. -1.
         23    2    1    2    0    0  0.40200234404E+01  0.54465260742E+02 -0.40092768470E+02  0.14212330861E+03  0.12493590177E+03 0.  0.
          5    1    3    3  502    0 -0.47585263675E+02 -0.14610113469E+02 -0.14864301347E+02  0.52161769421E+02  0.47000000000E+01 0.  1.
         -5    1    3    3    0  502  0.51605287115E+02  0.69075374211E+02 -0.25228467124E+02  0.89961539193E+02  0.47000000000E+01 0.  1.
        -11    1    1    2    0    0  0.15372567780E+02 -0.72629779208E+02 -0.16969730905E+02  0.76153610781E+02  0.00000000000E+00 0.  1.
         11    1    1    2    0    0 -0.19392591221E+02  0.18164518467E+02 -0.33672440910E+02  0.42893538001E+02  0.00000000000E+00 0. -1.
<mgrwt>
<rscale>  0 0.12855430E+03</rscale>
<asrwt>0</asrwt>
<pdfrwt beam="2">  1        2 0.27069646E-01 0.13635104E+03</pdfrwt>
<pdfrwt beam="1">  1       -2 0.13110424E-01 0.13635104E+03</pdfrwt>
<totfact> 0.79657843E+03</totfact>
</mgrwt>
</event>
<event>
 7    1  0.6442936E-006  0.1542913E+03  0.7546771E-02  0.1204261E+00
         -1   -1    0    0    0  501 -0.00000000000E+00  0.00000000000E+00  0.28362118873E+02  0.28362118873E+02  0.00000000000E+00 0.  1.
          1   -1    0    0  501    0  0.00000000000E+00 -0.00000000000E+00 -0.70502040717E+03  0.70502040717E+03  0.00000000000E+00 0. -1.
         23    2    1    2    0    0  0.54277129218E+00  0.90444464558E+02 -0.33283179602E+03  0.36685528864E+03  0.12500121035E+03 0.  0.
          5    1    3    3  502    0 -0.53216405493E+02  0.83197633718E+01 -0.91453571505E+02  0.10624052907E+03  0.47000000000E+01 0. -1.
         -5    1    3    3    0  502  0.53759176786E+02  0.82124701186E+02 -0.24137822452E+03  0.26061475957E+03  0.47000000000E+01 0. -1.
        -11    1    1    2    0    0 -0.37581516345E+02 -0.40098559619E+02 -0.92943049412E+02  0.10797534574E+03  0.00000000000E+00 0.  1.
         11    1    1    2    0    0  0.37038745053E+02 -0.50345904939E+02 -0.25088344286E+03  0.25855189166E+03  0.00000000000E+00 0. -1.
<mgrwt>
<rscale>  0 0.14695873E+03</rscale>
<asrwt>0</asrwt>
<pdfrwt beam="2">  1        1 0.10846467E+00 0.15429128E+03</pdfrwt>
<pdfrwt beam="1">  1       -1 0.43634032E-02 0.15429128E+03</pdfrwt>
<totfact> 0.58613587E+03</totfact>
</mgrwt>
</event>
<event>
 7    1  0.5400401E-006  0.1388137E+03  0.7546771E-02  0.1223998E+00
         -1   -1    0    0    0  501 -0.00000000000E+00  0.00000000000E+00  0.22379061253E+03  0.22379061253E+03  0.00000000000E+00 0.  1.
          1   -1    0    0  501    0  0.00000000000E+00 -0.00000000000E+00 -0.15473195977E+03  0.15473195977E+03  0.00000000000E+00 0. -1.
         23    2    1    2    0    0  0.50034513348E+00 -0.60360379700E+02  0.17430479968E+03  0.22282592969E+03  0.12500242384E+03 0.  0.
          5    1    3    3  502    0 -0.35922528378E+02 -0.77082630136E+02  0.15761952549E+03  0.17915960686E+03  0.47000000000E+01 0.  1.
         -5    1    3    3    0  502  0.36422873511E+02  0.16722250436E+02  0.16685274191E+02  0.43666322828E+02  0.47000000000E+01 0.  1.
        -11    1    1    2    0    0 -0.23860413831E+02  0.55624840673E+02 -0.11498998811E+03  0.12994667988E+03  0.00000000000E+00 0. -1.
         11    1    1    2    0    0  0.23360068697E+02  0.47355390275E+01  0.97438411879E+01  0.25749962729E+02  0.00000000000E+00 0.  1.
<mgrwt>
<rscale>  0 0.13235809E+03</rscale>
<asrwt>0</asrwt>
<pdfrwt beam="2">  1        1 0.23804917E-01 0.13881366E+03</pdfrwt>
<pdfrwt beam="1">  1       -1 0.34429325E-01 0.13881366E+03</pdfrwt>
<totfact> 0.16080309E+03</totfact>
</mgrwt>
</event>
<event>
 7    1  0.5400401E-006  0.1451338E+03  0.7546771E-02  0.1213790E+00
         -2   -1    0    0    0  501 -0.00000000000E+00  0.00000000000E+00  0.30302537475E+02  0.30302537475E+02  0.00000000000E+00 0.  1.
          2   -1    0    0  501    0  0.00000000000E+00 -0.00000000000E+00 -0.62160117257E+03  0.62160117257E+03  0.00000000000E+00 0. -1.
         23    2    1    2    0    0  0.11553597422E+02 -0.72836096915E+02 -0.25630487829E+03  0.29454371523E+03  0.12500090766E+03 0.  0.
          5    1    3    3  502    0 -0.56393291738E+02 -0.40986776599E+02 -0.11879839316E+03  0.13782331961E+03  0.47000000000E+01 0.  1.
         -5    1    3    3    0  502  0.67946889161E+02 -0.31849320316E+02 -0.13750648513E+03  0.15672039562E+03  0.47000000000E+01 0.  1.
        -11    1    1    2    0    0 -0.15557889900E+02 -0.19499143962E+02 -0.13172840796E+03  0.13406952680E+03  0.00000000000E+00 0. -1.
         11    1    1    2    0    0  0.40042924776E+01  0.92335240877E+02 -0.20326534885E+03  0.22329046802E+03  0.00000000000E+00 0.  1.
<mgrwt>
<rscale>  0 0.13965821E+03</rscale>
<asrwt>0</asrwt>
<pdfrwt beam="2">  1        2 0.95630945E-01 0.14513376E+03</pdfrwt>
<pdfrwt beam="1">  1       -2 0.46619290E-02 0.14513376E+03</pdfrwt>
<totfact> 0.10117882E+04</totfact>
</mgrwt>
</event>
<event>
 6    1  0.5400401E-006  0.1853640E+03  0.7546771E-02  0.1175061E+00
          2   -1    0    0  501    0  0.00000000000E+00  0.00000000000E+00  0.43431694370E+03  0.43431694370E+03  0.00000000000E+00 0. -1.
         -2   -1    0    0    0  501 -0.00000000000E+00 -0.00000000000E+00 -0.17738287113E+03  0.17738287113E+03  0.00000000000E+00 0.  1.
          5    1    1    2  502    0  0.77165277352E+01 -0.58675504419E+02 -0.28793709544E+02  0.65981264980E+02  0.47000000000E+01 0. -1.
         -5    1    1    2    0  502 -0.11387672788E+03  0.52533939603E+02 -0.83647456959E+02  0.15082012803E+03  0.47000000000E+01 0.  1.
        -11    1    1    2    0    0  0.50930608689E+02 -0.84833130253E+00  0.52424016194E+02  0.73095307930E+02  0.00000000000E+00 0.  1.
         11    1    1    2    0    0  0.55229591457E+02  0.69898961184E+01  0.31695122289E+03  0.32180311389E+03  0.00000000000E+00 0. -1.
<mgrwt>
<rscale>  0 0.17269990E+03</rscale>
<asrwt>0</asrwt>
<pdfrwt beam="1">  1        2 0.66817991E-01 0.18536404E+03</pdfrwt>
<pdfrwt beam="2">  1       -2 0.27289673E-01 0.18536404E+03</pdfrwt>
<totfact> 0.88528254E+02</totfact>
</mgrwt>
</event>
<event>
 7    1  0.5400401E-006  0.1499993E+03  0.7546771E-02  0.1208417E+00
         -1   -1    0    0    0  501 -0.00000000000E+00  0.00000000000E+00  0.38038637578E+03  0.38038637578E+03  0.00000000000E+00 0.  1.
          1   -1    0    0  501    0  0.00000000000E+00 -0.00000000000E+00 -0.52078064479E+02  0.52078064479E+02  0.00000000000E+00 0. -1.
         23    2    1    2    0    0 -0.78121506402E+01  0.82550177520E+02  0.21850451113E+03  0.26503587546E+03  0.12499692951E+03 0.  0.
          5    1    3    3  502    0  0.37055050911E+02  0.28216674783E+02  0.17707863597E+03  0.18316165224E+03  0.47000000000E+01 0.  1.
         -5    1    3    3    0  502 -0.44867201551E+02  0.54333502737E+02  0.41425875163E+02  0.81874223219E+02  0.47000000000E+01 0.  1.
        -11    1    1    2    0    0  0.12618505902E+02  0.17302648127E+02  0.38507346152E+01  0.21758595554E+02  0.00000000000E+00 0. -1.
         11    1    1    2    0    0 -0.48063552616E+01 -0.99852825647E+02  0.10595306555E+03  0.14566996925E+03  0.00000000000E+00 0.  1.
<mgrwt>
<rscale>  0 0.14371384E+03</rscale>
<asrwt>0</asrwt>
<pdfrwt beam="2">  1        1 0.80120102E-02 0.14999931E+03</pdfrwt>
<pdfrwt beam="1">  1       -1 0.58520979E-01 0.14999931E+03</pdfrwt>
<totfact> 0.25718604E+03</totfact>
</mgrwt>
</event>
<event>
 7    1  0.5400401E-006  0.1514408E+03  0.7546771E-02  0.1208144E+00
          4   -1    0    0  501    0  0.00000000000E+00  0.00000000000E+00  0.60071765329E+03  0.60071765329E+03  0.00000000000E+00 0. -1.
         -4   -1    0    0    0  501 -0.00000000000E+00 -0.00000000000E+00 -0.34472151270E+02  0.34472151270E+02  0.00000000000E+00 0.  1.
         23    2    1    2    0    0 -0.85148288149E+02  0.77735486835E+01  0.21603884016E+03  0.26383155321E+03  0.12499459579E+03 0.  0.
          5    1    3    3  502    0 -0.74600176829E+01 -0.10583228687E+01  0.17533026036E+03  0.17555501163E+03  0.47000000000E+01 0.  1.
         -5    1    3    3    0  502 -0.77688270466E+02  0.88318715522E+01  0.40708579798E+02  0.88276541574E+02  0.47000000000E+01 0.  1.
        -11    1    1    2    0    0  0.11347023698E+02  0.15154442735E+02  0.80320335242E+01  0.20565156064E+02  0.00000000000E+00 0.  1.
         11    1    1    2    0    0  0.73801264451E+02 -0.22927991418E+02  0.34217462834E+03  0.35079309530E+03  0.00000000000E+00 0. -1.
<mgrwt>
<rscale>  0 0.14392440E+03</rscale>
<asrwt>0</asrwt>
<pdfrwt beam="1">  1        4 0.92418093E-01 0.15144077E+03</pdfrwt>
<pdfrwt beam="2">  1       -4 0.53034083E-02 0.15144077E+03</pdfrwt>
<totfact> 0.37834840E+02</totfact>
</mgrwt>
</event>
<event>
 7    1  0.7252441E-006  0.1852263E+03  0.7546771E-02  0.1167923E+00
          4   -1    0    0  501    0  0.00000000000E+00  0.00000000000E+00  0.54886418844E+02  0.54886418844E+02  0.00000000000E+00 0. -1.
         -4   -1    0    0    0  501 -0.00000000000E+00 -0.00000000000E+00 -0.57027818612E+03  0.57027818612E+03  0.00000000000E+00 0.  1.
         23    2    1    2    0    0  0.12568061629E+03 -0.53738041754E+02 -0.31851937643E+03  0.36846084186E+03  0.12500161751E+03 0.  0.
          5    1    3    3  502    0  0.52136811873E+02  0.15382451248E+02 -0.22244269543E+03  0.22903648117E+03  0.47000000000E+01 0. -1.
         -5    1    3    3    0  502  0.73543804413E+02 -0.69120493002E+02 -0.96076681004E+02  0.13942436069E+03  0.47000000000E+01 0. -1.
        -11    1    1    2    0    0 -0.53701945080E+02 -0.22978551413E+02 -0.56294377745E+02  0.81123176072E+02  0.00000000000E+00 0. -1.
         11    1    1    2    0    0 -0.71978671206E+02  0.76716593167E+02 -0.14057801310E+03  0.17558058703E+03  0.00000000000E+00 0.  1.
<mgrwt>
<rscale>  0 0.17987651E+03</rscale>
<asrwt>0</asrwt>
<pdfrwt beam="1">  1        4 0.84440643E-02 0.18522634E+03</pdfrwt>
<pdfrwt beam="2">  1       -4 0.87735107E-01 0.18522634E+03</pdfrwt>
<totfact> 0.20491794E+02</totfact>
</mgrwt>
</event>
<event>
 7    1  0.5400401E-006  0.1434843E+03  0.7546771E-02  0.1219365E+00
          4   -1    0    0  501    0  0.00000000000E+00  0.00000000000E+00  0.39000750414E+02  0.39000750414E+02  0.00000000000E+00 0.  1.
         -4   -1    0    0    0  501 -0.00000000000E+00 -0.00000000000E+00 -0.56832164714E+03  0.56832164714E+03  0.00000000000E+00 0. -1.
         23    2    1    2    0    0 -0.41559289397E+02  0.56967877818E+02 -0.43794051855E+03  0.46084665135E+03  0.12496089241E+03 0.  0.
          5    1    3    3  502    0  0.35372897177E+01  0.29744176312E+02 -0.38438751468E+03  0.38558148281E+03  0.47000000000E+01 0. -1.
         -5    1    3    3    0  502 -0.45096579115E+02  0.27223701506E+02 -0.53553003871E+02  0.75265168538E+02  0.47000000000E+01 0. -1.
        -11    1    1    2    0    0  0.57968829588E+02 -0.46803022431E+02 -0.26970773506E+02  0.79235918219E+02  0.00000000000E+00 0.  1.
         11    1    1    2    0    0 -0.16409540190E+02 -0.10164855387E+02 -0.64409604665E+02  0.67239827984E+02  0.00000000000E+00 0. -1.
<mgrwt>
<rscale>  0 0.13560694E+03</rscale>
<asrwt>0</asrwt>
<pdfrwt beam="1">  1        4 0.60001155E-02 0.14348428E+03</pdfrwt>
<pdfrwt beam="2">  1       -4 0.87434099E-01 0.14348428E+03</pdfrwt>
<totfact> 0.34770518E+02</totfact>
</mgrwt>
</event>
<event>
 7    1  0.5400401E-006  0.2480109E+03  0.7546771E-02  0.1117560E+00
          1   -1    0    0  501    0  0.00000000000E+00  0.00000000000E+00  0.81552008258E+03  0.81552008258E+03  0.00000000000E+00 0. -1.
         -1   -1    0    0    0  501 -0.00000000000E+00 -0.00000000000E+00 -0.71220722707E+02  0.71220722707E+02  0.00000000000E+00 0.  1.
         23    2    1    2    0    0 -0.42321906933E+01 -0.21416277222E+03  0.32909065250E+03  0.41208016760E+03  0.12500321006E+03 0.  0.
          5    1    3    3  502    0  0.17237025445E+01 -0.59624762662E+02  0.20556156502E+03  0.21409280812E+03  0.47000000000E+01 0. -1.
         -5    1    3    3    0  502 -0.59558932378E+01 -0.15453800956E+03  0.12352908748E+03  0.19798735948E+03  0.47000000000E+01 0. -1.
        -11    1    1    2    0    0  0.12100529518E+02  0.11149023336E+03  0.13140666785E+03  0.17275476058E+03  0.00000000000E+00 0.  1.
         11    1    1    2    0    0 -0.78683388252E+01  0.10267253886E+03  0.28380203952E+03  0.30190587710E+03  0.00000000000E+00 0. -1.
<mgrwt>
<rscale>  0 0.24338264E+03</rscale>
<asrwt>0</asrwt>
<pdfrwt beam="1">  1        1 0.12546462E+00 0.24801090E+03</pdfrwt>
<pdfrwt beam="2">  1       -1 0.10957035E-01 0.24801090E+03</pdfrwt>
<totfact> 0.11829683E+03</totfact>
</mgrwt>
</event>
<event>
 7    1  0.5400401E-006  0.1264727E+03  0.7546771E-02  0.1247654E+00
          2   -1    0    0  501    0  0.00000000000E+00  0.00000000000E+00  0.13573308000E+03  0.13573308000E+03  0.00000000000E+00 0. -1.
         -2   -1    0    0    0  501 -0.00000000000E+00 -0.00000000000E+00 -0.90679635012E+02  0.90679635012E+02  0.00000000000E+00 0.  1.
         23    2    1    2    0    0 -0.37536969681E+01 -0.18860345559E+02  0.11247365589E+02  0.12697180601E+03  0.12500213363E+03 0.  0.
          5    1    3    3  502    0  0.12629967569E+02 -0.16041726220E+02 -0.54817864826E+02  0.58685103433E+02  0.47000000000E+01 0.  1.
         -5    1    3    3    0  502 -0.16383664537E+02 -0.28186193385E+01  0.66065230415E+02  0.68286702574E+02  0.47000000000E+01 0.  1.
        -11    1    1    2    0    0  0.17679765630E+02 -0.60585287000E+01 -0.26669832666E+02  0.32566237995E+02  0.00000000000E+00 0.  1.
         11    1    1    2    0    0 -0.13926068662E+02  0.24918874259E+02  0.60475912069E+02  0.66874671014E+02  0.00000000000E+00 0. -1.
<mgrwt>
<rscale>  0 0.11727933E+03</rscale>
<asrwt>0</asrwt>
<pdfrwt beam="1">  1        2 0.20882012E-01 0.12647267E+03</pdfrwt>
<pdfrwt beam="2">  1       -2 0.13950713E-01 0.12647267E+03</pdfrwt>
<totfact> 0.95505626E+03</totfact>
</mgrwt>
</event>
<event>
 7    1  0.5400401E-006  0.2543161E+03  0.7546771E-02  0.1113014E+00
          1   -1    0    0  501    0  0.00000000000E+00  0.00000000000E+00  0.44778950039E+03  0.44778950039E+03  0.00000000000E+00 0. -1.
         -1   -1    0    0    0  501 -0.00000000000E+00 -0.00000000000E+00 -0.13734320431E+03  0.13734320431E+03  0.00000000000E+00 0.  1.
         23    2    1    2    0    0  0.29095104395E+02  0.21955789674E+03  0.13100552301E+03  0.28607538292E+03  0.12499793011E+03 0.  0.
          5    1    3    3  502    0  0.12165922917E+02  0.11107185142E+03  0.13598234589E+03  0.17606321096E+03  0.47000000000E+01 0. -1.
         -5    1    3    3    0  502  0.16929181478E+02  0.10848604531E+03 -0.49768228808E+01  0.11001217196E+03  0.47000000000E+01 0. -1.
        -11    1    1    2    0    0 -0.31576677089E+02 -0.18441434963E+03  0.99979333056E+02  0.21213581952E+03  0.00000000000E+00 0.  1.
         11    1    1    2    0    0  0.24815726942E+01 -0.35143547103E+02  0.79461440017E+02  0.86921502263E+02  0.00000000000E+00 0. -1.
<mgrwt>
<rscale>  0 0.25046055E+03</rscale>
<asrwt>0</asrwt>
<pdfrwt beam="1">  1        1 0.68890692E-01 0.25431610E+03</pdfrwt>
<pdfrwt beam="2">  1       -1 0.21129724E-01 0.25431610E+03</pdfrwt>
<totfact> 0.96471735E+02</totfact>
</mgrwt>
</event>
<event>
 7    1  0.5400401E-006  0.1394252E+03  0.7546771E-02  0.1224912E+00
          2   -1    0    0  501    0  0.00000000000E+00  0.00000000000E+00  0.63378270822E+03  0.63378270822E+03  0.00000000000E+00 0. -1.
         -2   -1    0    0    0  501 -0.00000000000E+00 -0.00000000000E+00 -0.24824306540E+02  0.24824306540E+02  0.00000000000E+00 0.  1.
         23    2    1    2    0    0 -0.46565409346E+02  0.40456765515E+02  0.35584838971E+03  0.38218774604E+03  0.12503723262E+03 0.  0.
          5    1    3    3  502    0 -0.76504523847E+00  0.54266880223E+02  0.31327887542E+03  0.31797991032E+03  0.47000000000E+01 0. -1.
         -5    1    3    3    0  502 -0.45800364108E+02 -0.13810114708E+02  0.42569514282E+02  0.64207835712E+02  0.47000000000E+01 0. -1.
        -11    1    1    2    0    0  0.23616054984E+02 -0.57786975229E+02  0.82788196935E+02  0.10368673064E+03  0.00000000000E+00 0.  1.
         11    1    1    2    0    0  0.22949354362E+02  0.17330209714E+02  0.17032181504E+03  0.17273253808E+03  0.00000000000E+00 0. -1.
<mgrwt>
<rscale>  0 0.13172959E+03</rscale>
<asrwt>0</asrwt>
<pdfrwt beam="1">  1        2 0.97505020E-01 0.13942524E+03</pdfrwt>
<pdfrwt beam="2">  1       -2 0.38191246E-02 0.13942524E+03</pdfrwt>
<totfact> 0.13284638E+04</totfact>
</mgrwt>
</event>
<event>
 7    1  0.5400401E-006  0.1319389E+03  0.7546771E-02  0.1238369E+00
         -2   -1    0    0    0  501 -0.00000000000E+00  0.00000000000E+00  0.25662038151E+03  0.25662038151E+03  0.00000000000E+00 0.  1.
          2   -1    0    0  501    0  0.00000000000E+00 -0.00000000000E+00 -0.53197225122E+02  0.53197225122E+02  0.00000000000E+00 0. -1.
         23    2    1    2    0    0  0.41262859628E+02  0.90045998282E+01  0.13753194752E+03  0.19058570201E+03  0.12499666723E+03 0.  0.
          5    1    3    3  502    0 -0.30506694725E+02 -0.59426425233E+01  0.10614460823E+03  0.11070113495E+03  0.47000000000E+01 0. -1.
         -5    1    3    3    0  502  0.71769554353E+02  0.14947242351E+02  0.31387339287E+02  0.79884567054E+02  0.47000000000E+01 0. -1.
        -11    1    1    2    0    0  0.41703170706E+01 -0.13390361209E+02  0.71844816389E+02  0.73200894529E+02  0.00000000000E+00 0.  1.
         11    1    1    2    0    0 -0.45433176699E+02  0.43857613808E+01 -0.59536075222E+01  0.46031010095E+02  0.00000000000E+00 0. -1.
<mgrwt>
<rscale>  0 0.12291208E+03</rscale>
<asrwt>0</asrwt>
<pdfrwt beam="2">  1        2 0.81841887E-02 0.13193890E+03</pdfrwt>
<pdfrwt beam="1">  1       -2 0.39480058E-01 0.13193890E+03</pdfrwt>
<totfact> 0.47888731E+03</totfact>
</mgrwt>
</event>
<event>
 7    1  0.5400401E-006  0.1192879E+03  0.7546771E-02  0.1261151E+00
         -2   -1    0    0    0  501 -0.00000000000E+00  0.00000000000E+00  0.20149478786E+02  0.20149478786E+02  0.00000000000E+00 0.  1.
          2   -1    0    0  501    0  0.00000000000E+00 -0.00000000000E+00 -0.51934114977E+03  0.51934114977E+03  0.00000000000E+00 0. -1.
         23    2    1    2    0    0 -0.26182419459E+02  0.69570828914E+01 -0.29547841578E+03  0.31864887848E+03  0.11617096657E+03 0.  0.
          5    1    3    3  502    0 -0.23112970884E+02  0.50885826005E+02 -0.24570825475E+03  0.25202819915E+03  0.47000000000E+01 0. -1.
         -5    1    3    3    0  502 -0.30694485747E+01 -0.43928743114E+02 -0.49770161029E+02  0.66620679334E+02  0.47000000000E+01 0.  1.
        -11    1    1    2    0    0  0.93916225208E+01 -0.42009456967E+02 -0.13731964692E+03  0.14390859070E+03  0.00000000000E+00 0.  1.
         11    1    1    2    0    0  0.16790796938E+02  0.35052374076E+02 -0.66393608282E+02  0.76933159372E+02  0.00000000000E+00 0. -1.
<mgrwt>
<rscale>  0 0.10968672E+03</rscale>
<asrwt>0</asrwt>
<pdfrwt beam="2">  1        2 0.79898631E-01 0.11928794E+03</pdfrwt>
<pdfrwt beam="1">  1       -2 0.30999201E-02 0.11928794E+03</pdfrwt>
<totfact> 0.22323096E+04</totfact>
</mgrwt>
</event>
<event>
 7    1  0.5400401E-006  0.1310210E+03  0.7546771E-02  0.1239751E+00
          3   -1    0    0  501    0  0.00000000000E+00  0.00000000000E+00  0.27438855011E+03  0.27438855011E+03  0.00000000000E+00 0. -1.
         -3   -1    0    0    0  501 -0.00000000000E+00 -0.00000000000E+00 -0.55577161915E+02  0.55577161915E+02  0.00000000000E+00 0.  1.
         23    2    1    2    0    0  0.18542291647E+02 -0.34610789487E+02  0.62602144699E+02  0.14520861460E+03  0.12499915962E+03 0.  0.
          5    1    3    3  502    0  0.55692638552E+02  0.19647036345E+02  0.51205159659E+02  0.78305391907E+02  0.47000000000E+01 0.  1.
         -5    1    3    3    0  502 -0.37150346904E+02 -0.54257825833E+02  0.11396985040E+02  0.66903222697E+02  0.47000000000E+01 0.  1.
        -11    1    1    2    0    0 -0.46091595094E+02  0.34631370821E+02  0.54327901072E+02  0.79216714260E+02  0.00000000000E+00 0.  1.
         11    1    1    2    0    0  0.27549303447E+02 -0.20581333739E-01  0.10188134243E+03  0.10554038317E+03  0.00000000000E+00 0. -1.
<mgrwt>
<rscale>  0 0.12205102E+03</rscale>
<asrwt>0</asrwt>
<pdfrwt beam="1">  1        3 0.42213622E-01 0.13102104E+03</pdfrwt>
<pdfrwt beam="2">  1       -3 0.85503327E-02 0.13102104E+03</pdfrwt>
<totfact> 0.12243388E+03</totfact>
</mgrwt>
</event>
<event>
 7    1  0.5400401E-006  0.1433999E+03  0.7546771E-02  0.1219219E+00
         -2   -1    0    0    0  501 -0.00000000000E+00  0.00000000000E+00  0.74675889473E+02  0.74675889473E+02  0.00000000000E+00 0.  1.
          2   -1    0    0  501    0  0.00000000000E+00 -0.00000000000E+00 -0.22952258905E+03  0.22952258905E+03  0.00000000000E+00 0. -1.
         23    2    1    2    0    0  0.60705623979E+02 -0.35453163497E+02 -0.61388743007E+02  0.15598749519E+03  0.12498568439E+03 0.  0.
          5    1    3    3  502    0  0.59059962079E+02 -0.63850143478E+02 -0.82720336269E+02  0.12012353631E+03  0.47000000000E+01 0. -1.
         -5    1    3    3    0  502  0.16456618997E+01  0.28396979982E+02  0.21331593262E+02  0.35863958876E+02  0.47000000000E+01 0. -1.
        -11    1    1    2    0    0 -0.78960222505E+02  0.35812705478E+02 -0.96469725731E+02  0.12970610855E+03  0.00000000000E+00 0. -1.
         11    1    1    2    0    0  0.18254598526E+02 -0.35954198088E+00  0.30117691568E+01  0.18504874796E+02  0.00000000000E+00 0.  1.
<mgrwt>
<rscale>  0 0.13571104E+03</rscale>
<asrwt>0</asrwt>
<pdfrwt beam="2">  1        2 0.35311167E-01 0.14339986E+03</pdfrwt>
<pdfrwt beam="1">  1       -2 0.11488599E-01 0.14339986E+03</pdfrwt>
<totfact> 0.74081102E+03</totfact>
</mgrwt>
</event>
<event>
 7    1  0.5400401E-006  0.1273844E+03  0.7546771E-02  0.1249942E+00
          2   -1    0    0  501    0  0.00000000000E+00  0.00000000000E+00  0.49086992492E+02  0.49086992492E+02  0.00000000000E+00 0. -1.
         -2   -1    0    0    0  501 -0.00000000000E+00 -0.00000000000E+00 -0.23797128925E+03  0.23797128925E+03  0.00000000000E+00 0.  1.
         23    2    1    2    0    0  0.19135871634E+02 -0.15347832260E+02 -0.12752088428E+03  0.18024530445E+03  0.12500022524E+03 0.  0.
          5    1    3    3  502    0 -0.42702232436E+02 -0.24981347799E+02 -0.10009829224E+03  0.11175556587E+03  0.47000000000E+01 0. -1.
         -5    1    3    3    0  502  0.61838104070E+02  0.96335155389E+01 -0.27422592039E+02  0.68489738580E+02  0.47000000000E+01 0. -1.
        -11    1    1    2    0    0 -0.47803212902E+02  0.84870396699E+01 -0.60165881992E+02  0.77311773760E+02  0.00000000000E+00 0.  1.
         11    1    1    2    0    0  0.28667341268E+02  0.68607925903E+01 -0.11975304801E+01  0.29501203528E+02  0.00000000000E+00 0. -1.
<mgrwt>
<rscale>  0 0.11594422E+03</rscale>
<asrwt>0</asrwt>
<pdfrwt beam="1">  1        2 0.75518450E-02 0.12738443E+03</pdfrwt>
<pdfrwt beam="2">  1       -2 0.36610968E-01 0.12738443E+03</pdfrwt>
<totfact> 0.60850333E+03</totfact>
</mgrwt>
</event>
<event>
 7    1  0.5400401E-006  0.1486134E+03  0.7546771E-02  0.1210774E+00
         -1   -1    0    0    0  501 -0.00000000000E+00  0.00000000000E+00  0.25155474665E+03  0.25155474665E+03  0.00000000000E+00 0.  1.
          1   -1    0    0  501    0  0.00000000000E+00 -0.00000000000E+00 -0.74455505312E+02  0.74455505312E+02  0.00000000000E+00 0. -1.
         23    2    1    2    0    0  0.47587653412E+01 -0.80227564724E+02  0.11367695692E+03  0.18710533009E+03  0.12500738388E+03 0.  0.
          5    1    3    3  502    0 -0.56897145342E+02 -0.56527420947E+02  0.77583212528E+02  0.11168652261E+03  0.47000000000E+01 0.  1.
         -5    1    3    3    0  502  0.61655910683E+02 -0.23700143777E+02  0.36093744396E+02  0.75418807481E+02  0.47000000000E+01 0.  1.
        -11    1    1    2    0    0 -0.31394910264E+02  0.39438395839E+02  0.73531611837E+02  0.89151137941E+02  0.00000000000E+00 0.  1.
         11    1    1    2    0    0  0.26636144923E+02  0.40789168885E+02 -0.10109327418E+02  0.49753783932E+02  0.00000000000E+00 0. -1.
<mgrwt>
<rscale>  0 0.14191596E+03</rscale>
<asrwt>0</asrwt>
<pdfrwt beam="2">  1        1 0.11454693E-01 0.14861344E+03</pdfrwt>
<pdfrwt beam="1">  1       -1 0.38700730E-01 0.14861344E+03</pdfrwt>
<totfact> 0.33817178E+03</totfact>
</mgrwt>
</event>
<event>
 7    1  0.5400401E-006  0.1377346E+03  0.7546771E-02  0.1230407E+00
          2   -1    0    0  501    0  0.00000000000E+00  0.00000000000E+00  0.45054218990E+03  0.45054218990E+03  0.00000000000E+00 0. -1.
         -2   -1    0    0    0  501 -0.00000000000E+00 -0.00000000000E+00 -0.32113784201E+02  0.32113784201E+02  0.00000000000E+00 0.  1.
         23    2    1    2    0    0 -0.90734111269E+01  0.57142047059E+02  0.24083448923E+03  0.27743841137E+03  0.12499312210E+03 0.  0.
          5    1    3    3  502    0  0.23405515742E+02 -0.14805903746E+02  0.47862631343E+01  0.28496162333E+02  0.47000000000E+01 0.  1.
         -5    1    3    3    0  502 -0.32478926869E+02  0.71947950805E+02  0.23604822609E+03  0.24894224904E+03  0.47000000000E+01 0.  1.
        -11    1    1    2    0    0  0.30132150006E+02 -0.71332536621E+02  0.13449154233E+03  0.15519101843E+03  0.00000000000E+00 0. -1.
         11    1    1    2    0    0 -0.21058738879E+02  0.14190489563E+02  0.43102374144E+02  0.50026544295E+02  0.00000000000E+00 0.  1.
<mgrwt>
<rscale>  0 0.12803112E+03</rscale>
<asrwt>0</asrwt>
<pdfrwt beam="1">  1        2 0.69314179E-01 0.13773460E+03</pdfrwt>
<pdfrwt beam="2">  1       -2 0.49405825E-02 0.13773460E+03</pdfrwt>
<totfact> 0.13217992E+04</totfact>
</mgrwt>
</event>
<event>
 7    1  0.5400401E-006  0.1428235E+03  0.7546771E-02  0.1220405E+00
          3   -1    0    0  501    0  0.00000000000E+00  0.00000000000E+00  0.23280948936E+03  0.23280948936E+03  0.00000000000E+00 0. -1.
         -3   -1    0    0    0  501 -0.00000000000E+00 -0.00000000000E+00 -0.79253917885E+02  0.79253917885E+02  0.00000000000E+00 0.  1.
         23    2    1    2    0    0 -0.63902583837E+02  0.26264109780E+02  0.33291574062E+02  0.14665225618E+03  0.12500084662E+03 0.  0.
          5    1    3    3  502    0  0.37153017952E+01  0.58844049354E+02 -0.98338259618E+01  0.59960151308E+02  0.47000000000E+01 0.  1.
         -5    1    3    3    0  502 -0.67617885632E+02 -0.32579939573E+02  0.43125400024E+02  0.86692104873E+02  0.47000000000E+01 0.  1.
        -11    1    1    2    0    0  0.44480254530E+02 -0.53953408904E+01  0.31939713744E+01  0.44919975507E+02  0.00000000000E+00 0.  1.
         11    1    1    2    0    0  0.19422329307E+02 -0.20868768890E+02  0.11707002604E+03  0.12049117556E+03  0.00000000000E+00 0. -1.
<mgrwt>
<rscale>  0 0.13486915E+03</rscale>
<asrwt>0</asrwt>
<pdfrwt beam="1">  1        3 0.35816844E-01 0.14282351E+03</pdfrwt>
<pdfrwt beam="2">  1       -3 0.12192911E-01 0.14282351E+03</pdfrwt>
<totfact> 0.94507846E+02</totfact>
</mgrwt>
</event>
<event>
 6    1  0.5400401E-006  0.1465229E+03  0.7546771E-02  0.1216864E+00
          2   -1    0    0  501    0  0.00000000000E+00  0.00000000000E+00  0.10270177792E+04  0.10270177792E+04  0.00000000000E+00 0. -1.
         -2   -1    0    0    0  501 -0.00000000000E+00 -0.00000000000E+00 -0.16542895009E+02  0.16542895009E+02  0.00000000000E+00 0.  1.
          5    1    1    2  502    0 -0.81467656067E+01 -0.90371132031E+02  0.45317206618E+03  0.46219078621E+03  0.47000000000E+01 0. -1.
         -5    1    1    2    0  502 -0.26138998635E+02  0.32317024329E+02  0.74426479580E+02  0.85375805553E+02  0.47000000000E+01 0.  1.
        -11    1    1    2    0    0  0.64019087398E+02  0.44162447197E+02  0.28530577338E+03  0.29571633303E+03  0.00000000000E+00 0.  1.
         11    1    1    2    0    0 -0.29733323157E+02  0.13891660505E+02  0.19757056505E+03  0.20027774942E+03  0.00000000000E+00 0. -1.
<mgrwt>
<rscale>  0 0.13740485E+03</rscale>
<asrwt>0</asrwt>
<pdfrwt beam="1">  1        2 0.15800269E+00 0.14652285E+03</pdfrwt>
<pdfrwt beam="2">  1       -2 0.25450616E-02 0.14652285E+03</pdfrwt>
<totfact> 0.13199305E+04</totfact>
</mgrwt>
</event>
<event>
 6    1  0.5400401E-006  0.1689215E+03  0.7546771E-02  0.1192940E+00
          3   -1    0    0  501    0  0.00000000000E+00  0.00000000000E+00  0.19277083545E+02  0.19277083545E+02  0.00000000000E+00 0. -1.
         -3   -1    0    0    0  501 -0.00000000000E+00 -0.00000000000E+00 -0.12571421162E+04  0.12571421162E+04  0.00000000000E+00 0.  1.
          5    1    1    2  502    0 -0.85110420340E+02  0.19365960026E+02 -0.64373828824E+03  0.64964597882E+03  0.47000000000E+01 0.  1.
         -5    1    1    2    0  502  0.46867880489E+02  0.55569852121E+02 -0.27455962172E+03  0.28405929410E+03  0.47000000000E+01 0. -1.
        -11    1    1    2    0    0  0.36926537454E+02 -0.82146052626E+01 -0.39052150174E+02  0.54370206374E+02  0.00000000000E+00 0. -1.
         11    1    1    2    0    0  0.13160023968E+01 -0.66721206885E+02 -0.28051497248E+03  0.28834372040E+03  0.00000000000E+00 0.  1.
<mgrwt>
<rscale>  0 0.15629873E+03</rscale>
<asrwt>0</asrwt>
<pdfrwt beam="1">  1        3 0.29657049E-02 0.16892154E+03</pdfrwt>
<pdfrwt beam="2">  1       -3 0.19340650E+00 0.16892154E+03</pdfrwt>
<totfact> 0.21908667E+02</totfact>
</mgrwt>
</event>
<event>
 7    1  0.5400401E-006  0.1635310E+03  0.7546771E-02  0.1192122E+00
         -2   -1    0    0    0  501 -0.00000000000E+00  0.00000000000E+00  0.28777761969E+03  0.28777761969E+03  0.00000000000E+00 0.  1.
          2   -1    0    0  501    0  0.00000000000E+00 -0.00000000000E+00 -0.90490988328E+02  0.90490988328E+02  0.00000000000E+00 0. -1.
         23    2    1    2    0    0 -0.98201244512E+02 -0.38517137511E+02  0.17146966439E+03  0.23694773491E+03  0.12496130987E+03 0.  0.
          5    1    3    3  502    0 -0.34663149475E+02 -0.37917007894E+02 -0.25295115390E+01  0.51649993686E+02  0.47000000000E+01 0.  1.
         -5    1    3    3    0  502 -0.63538095036E+02 -0.60012961712E+00  0.17399917593E+03  0.18529774122E+03  0.47000000000E+01 0.  1.
        -11    1    1    2    0    0  0.44137185739E+02  0.18202875646E+02  0.58065082022E+02  0.75173064305E+02  0.00000000000E+00 0.  1.
         11    1    1    2    0    0  0.54064058772E+02  0.20314261865E+02 -0.32248115049E+02  0.66147808809E+02  0.00000000000E+00 0. -1.
<mgrwt>
<rscale>  0 0.15700337E+03</rscale>
<asrwt>0</asrwt>
<pdfrwt beam="2">  1        2 0.13921691E-01 0.16353099E+03</pdfrwt>
<pdfrwt beam="1">  1       -2 0.44273479E-01 0.16353099E+03</pdfrwt>
<totfact> 0.20368083E+03</totfact>
</mgrwt>
</event>
<event>
 6    1  0.5400401E-006  0.1378851E+03  0.7546771E-02  0.1229536E+00
          2   -1    0    0  501    0  0.00000000000E+00  0.00000000000E+00  0.78718390757E+03  0.78718390757E+03  0.00000000000E+00 0. -1.
         -2   -1    0    0    0  501 -0.00000000000E+00 -0.00000000000E+00 -0.19121414179E+02  0.19121414179E+02  0.00000000000E+00 0.  1.
          5    1    1    2  502    0 -0.49256985660E+02 -0.53558508199E+00  0.14085112260E+03  0.14929054299E+03  0.47000000000E+01 0. -1.
         -5    1    1    2    0  502  0.79440792814E+02 -0.38274657930E+02  0.23137613861E+03  0.24765459116E+03  0.47000000000E+01 0.  1.
        -11    1    1    2    0    0 -0.61561882769E+02  0.36756376472E+02  0.24469207295E+03  0.25498060158E+03  0.00000000000E+00 0.  1.
         11    1    1    2    0    0  0.31378075615E+02  0.20538665397E+01  0.15114315923E+03  0.15437958601E+03  0.00000000000E+00 0. -1.
<mgrwt>
<rscale>  0 0.12860791E+03</rscale>
<asrwt>0</asrwt>
<pdfrwt beam="1">  1        2 0.12110519E+00 0.13788512E+03</pdfrwt>
<pdfrwt beam="2">  1       -2 0.29417566E-02 0.13788512E+03</pdfrwt>
<totfact> 0.15068775E+04</totfact>
</mgrwt>
</event>
<event>
 7    1  0.5400401E-006  0.1721876E+03  0.7546771E-02  0.1181528E+00
          2   -1    0    0  501    0  0.00000000000E+00  0.00000000000E+00  0.18160127294E+03  0.18160127294E+03  0.00000000000E+00 0. -1.
         -2   -1    0    0    0  501 -0.00000000000E+00 -0.00000000000E+00 -0.14344728461E+03  0.14344728461E+03  0.00000000000E+00 0.  1.
         23    2    1    2    0    0  0.10686025739E+03  0.51038219865E+02  0.21489125354E+02  0.17352338627E+03  0.12499827430E+03 0.  0.
          5    1    3    3  502    0  0.25998755516E+02 -0.30555045947E+02 -0.27169002530E+02  0.48680497324E+02  0.47000000000E+01 0. -1.
         -5    1    3    3    0  502  0.80861501875E+02  0.81593265812E+02  0.48658127884E+02  0.12484288895E+03  0.47000000000E+01 0. -1.
        -11    1    1    2    0    0 -0.80480765482E+02  0.76477820339E+01 -0.10809103005E+02  0.81562729788E+02  0.00000000000E+00 0. -1.
         11    1    1    2    0    0 -0.26379491909E+02 -0.58686001899E+02  0.27473965989E+02  0.69962441492E+02  0.00000000000E+00 0.  1.
<mgrwt>
<rscale>  0 0.16651832E+03</rscale>
<asrwt>0</asrwt>
<pdfrwt beam="1">  1        2 0.27938657E-01 0.17218764E+03</pdfrwt>
<pdfrwt beam="2">  1       -2 0.22068813E-01 0.17218764E+03</pdfrwt>
<totfact> 0.32801582E+03</totfact>
</mgrwt>
</event>
<event>
 7    1  0.5400401E-006  0.1162882E+03  0.7546771E-02  0.1261110E+00
         -1   -1    0    0    0  501 -0.00000000000E+00  0.00000000000E+00  0.74552099138E+02  0.74552099138E+02  0.00000000000E+00 0.  1.
          1   -1    0    0  501    0  0.00000000000E+00 -0.00000000000E+00 -0.18268084829E+03  0.18268084829E+03  0.00000000000E+00 0. -1.
         23    2    1    2    0    0  0.11275759091E+02 -0.19502927179E+01 -0.14681165385E+01  0.11629742568E+03  0.11572376363E+03 0.  0.
          5    1    3    3  502    0  0.56820573141E+02 -0.17582270662E+02 -0.22200881800E+02  0.63660685878E+02  0.47000000000E+01 0. -1.
         -5    1    3    3    0  502 -0.45544814050E+02  0.15631977944E+02  0.20732765261E+02  0.52636739799E+02  0.47000000000E+01 0.  1.
        -11    1    1    2    0    0 -0.49315203750E+01  0.46595156446E+02 -0.58658059129E+02  0.75074605548E+02  0.00000000000E+00 0.  1.
         11    1    1    2    0    0 -0.63442387159E+01 -0.44644863728E+02 -0.48002573489E+02  0.65860916208E+02  0.00000000000E+00 0. -1.
<mgrwt>
<rscale>  0 0.10970884E+03</rscale>
<asrwt>0</asrwt>
<pdfrwt beam="2">  1        1 0.28104746E-01 0.11628816E+03</pdfrwt>
<pdfrwt beam="1">  1       -1 0.11469554E-01 0.11628816E+03</pdfrwt>
<totfact> 0.75840263E+03</totfact>
</mgrwt>
</event>
<event>
 7    1  0.5400401E-006  0.1381371E+03  0.7546771E-02  0.1226456E+00
         -1   -1    0    0    0  501 -0.00000000000E+00  0.00000000000E+00  0.37436838881E+03  0.37436838881E+03  0.00000000000E+00 0.  1.
          1   -1    0    0  501    0  0.00000000000E+00 -0.00000000000E+00 -0.77329997646E+02  0.77329997646E+02  0.00000000000E+00 0. -1.
         23    2    1    2    0    0  0.48659691008E+02  0.32998826007E+02  0.31090168884E+03  0.34020836480E+03  0.12500073322E+03 0.  0.
          5    1    3    3  502    0  0.81909442950E+02  0.53580616867E+02  0.20489282935E+03  0.22711935380E+03  0.47000000000E+01 0.  1.
         -5    1    3    3    0  502 -0.33249751942E+02 -0.20581790860E+02  0.10600885949E+03  0.11308901100E+03  0.47000000000E+01 0.  1.
        -11    1    1    2    0    0 -0.15573365446E+02 -0.49999081411E+02 -0.40110140821E+02  0.65964090609E+02  0.00000000000E+00 0. -1.
         11    1    1    2    0    0 -0.33086325562E+02  0.17000255404E+02  0.26246843147E+02  0.45525931052E+02  0.00000000000E+00 0.  1.
<mgrwt>
<rscale>  0 0.13067603E+03</rscale>
<asrwt>0</asrwt>
<pdfrwt beam="2">  1        1 0.11896923E-01 0.13813715E+03</pdfrwt>
<pdfrwt beam="1">  1       -1 0.57595136E-01 0.13813715E+03</pdfrwt>
<totfact> 0.15616235E+03</totfact>
</mgrwt>
</event>
<event>
 7    1  0.5400401E-006  0.1295191E+03  0.7546771E-02  0.1295393E+00
          1   -1    0    0  501    0  0.00000000000E+00  0.00000000000E+00  0.12254468057E+03  0.12254468057E+03  0.00000000000E+00 0. -1.
         -1   -1    0    0    0  501 -0.00000000000E+00 -0.00000000000E+00 -0.14770818454E+03  0.14770818454E+03  0.00000000000E+00 0.  1.
         23    2    1    2    0    0  0.33192849882E+02 -0.72377306661E+01 -0.11547439253E+03  0.17352097395E+03  0.12498417117E+03 0.  0.
          5    1    3    3  502    0  0.59543537260E+02 -0.26602560069E+02 -0.12330516658E+03  0.13956856071E+03  0.47000000000E+01 0.  1.
         -5    1    3    3    0  502 -0.26350687378E+02  0.19364829403E+02  0.78307740556E+01  0.33952413249E+02  0.47000000000E+01 0.  1.
        -11    1    1    2    0    0 -0.12373051909E+02  0.31136449659E+01  0.25145395924E+02  0.28197129902E+02  0.00000000000E+00 0.  1.
         11    1    1    2    0    0 -0.20819797973E+02  0.41240857003E+01  0.65165492630E+02  0.68534761255E+02  0.00000000000E+00 0. -1.
<mgrwt>
<rscale>  0 0.93152239E+02</rscale>
<asrwt>0</asrwt>
<pdfrwt beam="1">  1        1 0.18853028E-01 0.12951908E+03</pdfrwt>
<pdfrwt beam="2">  1       -1 0.22724336E-01 0.12951908E+03</pdfrwt>
<totfact> 0.43024461E+03</totfact>
</mgrwt>
</event>
<event>
 7    1  0.5400401E-006  0.1827214E+03  0.7546771E-02  0.1170536E+00
         -2   -1    0    0    0  501 -0.00000000000E+00  0.00000000000E+00  0.20955626738E+03  0.20955626738E+03  0.00000000000E+00 0.  1.
          2   -1    0    0  501    0  0.00000000000E+00 -0.00000000000E+00 -0.14556935946E+03  0.14556935946E+03  0.00000000000E+00 0. -1.
         23    2    1    2    0    0 -0.56365697114E+02  0.12076961442E+03  0.63657466474E+02  0.19349254577E+03  0.12499880261E+03 0.  0.
          5    1    3    3  502    0 -0.44493907751E+02  0.82405011319E+02 -0.24145828725E+02  0.96826673816E+02  0.47000000000E+01 0. -1.
         -5    1    3    3    0  502 -0.11871789363E+02  0.38364603097E+02  0.87803295200E+02  0.96665871958E+02  0.47000000000E+01 0. -1.
        -11    1    1    2    0    0  0.14769554267E+02 -0.96029777460E+02 -0.33290835690E+02  0.10270412666E+03  0.00000000000E+00 0. -1.
         11    1    1    2    0    0  0.41596142847E+02 -0.24739836957E+02  0.33620277132E+02  0.58928954401E+02  0.00000000000E+00 0.  1.
<mgrwt>
<rscale>  0 0.17720432E+03</rscale>
<asrwt>0</asrwt>
<pdfrwt beam="2">  1        2 0.22395286E-01 0.18272135E+03</pdfrwt>
<pdfrwt beam="1">  1       -2 0.32239426E-01 0.18272135E+03</pdfrwt>
<totfact> 0.21456780E+03</totfact>
</mgrwt>
</event>
<event>
 7    1  0.5400401E-006  0.1654849E+03  0.7546771E-02  0.1189778E+00
          1   -1    0    0  501    0  0.00000000000E+00  0.00000000000E+00  0.84757486930E+02  0.84757486930E+02  0.00000000000E+00 0. -1.
         -1   -1    0    0    0  501 -0.00000000000E+00 -0.00000000000E+00 -0.30593023451E+03  0.30593023451E+03  0.00000000000E+00 0.  1.
         23    2    1    2    0    0  0.64280884458E+02  0.87340632220E+02 -0.17800069099E+03  0.24304215504E+03  0.12499929995E+03 0.  0.
          5    1    3    3  502    0  0.37325260178E+01 -0.30741509223E+02 -0.47254654661E+02  0.56692720229E+02  0.47000000000E+01 0.  1.
         -5    1    3    3    0  502  0.60548358440E+02  0.11808214144E+03 -0.13074603633E+03  0.18634943481E+03  0.47000000000E+01 0.  1.
        -11    1    1    2    0    0 -0.70182156534E+02 -0.52639042471E+02 -0.62285445128E+02  0.10759126620E+03  0.00000000000E+00 0.  1.
         11    1    1    2    0    0  0.59012720755E+01 -0.34701589749E+02  0.19113388539E+02  0.40054300201E+02  0.00000000000E+00 0. -1.
<mgrwt>
<rscale>  0 0.15904565E+03</rscale>
<asrwt>0</asrwt>
<pdfrwt beam="1">  1        1 0.13039613E-01 0.16548487E+03</pdfrwt>
<pdfrwt beam="2">  1       -1 0.47066190E-01 0.16548487E+03</pdfrwt>
<totfact> 0.20228975E+03</totfact>
</mgrwt>
</event>
<event>
 7    1  0.5400401E-006  0.1567267E+03  0.7546771E-02  0.1200378E+00
         -1   -1    0    0    0  501 -0.00000000000E+00  0.00000000000E+00  0.32137052562E+03  0.32137052562E+03  0.00000000000E+00 0.  1.
          1   -1    0    0  501    0  0.00000000000E+00 -0.00000000000E+00 -0.85301147162E+02  0.85301147162E+02  0.00000000000E+00 0. -1.
         23    2    1    2    0    0 -0.63911229550E+02  0.69660965135E+02  0.22530960233E+03  0.27445890068E+03  0.12500390368E+03 0.  0.
          5    1    3    3  502    0  0.13225147366E+02  0.52101427868E+02  0.25847858912E+02  0.59830302682E+02  0.47000000000E+01 0. -1.
         -5    1    3    3    0  502 -0.77136376917E+02  0.17559537267E+02  0.19946174342E+03  0.21462859800E+03  0.47000000000E+01 0. -1.
        -11    1    1    2    0    0  0.28203979112E+02  0.17113046766E+02 -0.12933045816E+02  0.35434227541E+02  0.00000000000E+00 0. -1.
         11    1    1    2    0    0  0.35707250438E+02 -0.86774011901E+02  0.23692821946E+02  0.96778544559E+02  0.00000000000E+00 0.  1.
<mgrwt>
<rscale>  0 0.15007728E+03</rscale>
<asrwt>0</asrwt>
<pdfrwt beam="2">  1        1 0.13123254E-01 0.15672674E+03</pdfrwt>
<pdfrwt beam="1">  1       -1 0.49441619E-01 0.15672674E+03</pdfrwt>
<totfact> 0.18303634E+03</totfact>
</mgrwt>
</event>
<event>
 7    1  0.5400401E-006  0.1336034E+03  0.7546771E-02  0.1236608E+00
          4   -1    0    0  501    0  0.00000000000E+00  0.00000000000E+00  0.41172410759E+03  0.41172410759E+03  0.00000000000E+00 0. -1.
         -4   -1    0    0    0  501 -0.00000000000E+00 -0.00000000000E+00 -0.33586740055E+02  0.33586740055E+02  0.00000000000E+00 0.  1.
         23    2    1    2    0    0  0.25053884876E+02  0.35886258844E+02  0.18516578609E+03  0.22833361019E+03  0.12623132925E+03 0.  0.
          5    1    3    3  502    0 -0.40262263949E+02  0.43187529880E+02  0.12824073843E+03  0.14125859134E+03  0.47000000000E+01 0. -1.
         -5    1    3    3    0  502  0.65316148825E+02 -0.73012710360E+01  0.56925047663E+02  0.87075018849E+02  0.47000000000E+01 0.  1.
        -11    1    1    2    0    0  0.20080997876E+02 -0.47274683515E+02  0.11852437168E+03  0.12917495446E+03  0.00000000000E+00 0.  1.
         11    1    1    2    0    0 -0.45134882752E+02  0.11388424672E+02  0.74447209766E+02  0.87802282997E+02  0.00000000000E+00 0. -1.
<mgrwt>
<rscale>  0 0.12402052E+03</rscale>
<asrwt>0</asrwt>
<pdfrwt beam="1">  1        4 0.63342167E-01 0.13360340E+03</pdfrwt>
<pdfrwt beam="2">  1       -4 0.51671911E-02 0.13360340E+03</pdfrwt>
<totfact> 0.88291756E+02</totfact>
</mgrwt>
</event>
<event>
 7    1  0.5400401E-006  0.1279690E+03  0.7546771E-02  0.1244277E+00
         -1   -1    0    0    0  501 -0.00000000000E+00  0.00000000000E+00  0.17986193668E+02  0.17986193668E+02  0.00000000000E+00 0.  1.
          1   -1    0    0  501    0  0.00000000000E+00 -0.00000000000E+00 -0.71742512484E+03  0.71742512484E+03  0.00000000000E+00 0. -1.
         23    2    1    2    0    0 -0.16530220796E+02  0.22055484371E+02 -0.45237269540E+03  0.47012458278E+03  0.12496549604E+03 0.  0.
          5    1    3    3  502    0 -0.12993027142E+02  0.72947845238E+02 -0.31149010111E+03  0.32021614571E+03  0.47000000000E+01 0.  1.
         -5    1    3    3    0  502 -0.35371936545E+01 -0.50892360866E+02 -0.14088259428E+03  0.14990843707E+03  0.47000000000E+01 0.  1.
        -11    1    1    2    0    0  0.10998247363E+02  0.24132050171E+02 -0.19250793925E+02  0.32770571512E+02  0.00000000000E+00 0.  1.
         11    1    1    2    0    0  0.55319734334E+01 -0.46187534542E+02 -0.22781544185E+03  0.23251616422E+03  0.00000000000E+00 0. -1.
<mgrwt>
<rscale>  0 0.11928746E+03</rscale>
<asrwt>0</asrwt>
<pdfrwt beam="2">  1        1 0.11037310E+00 0.12796901E+03</pdfrwt>
<pdfrwt beam="1">  1       -1 0.27671066E-02 0.12796901E+03</pdfrwt>
<totfact> 0.11012164E+04</totfact>
</mgrwt>
</event>
<event>
 7    1  0.1356678E-005  0.2294459E+03  0.7546771E-02  0.1129992E+00
          2   -1    0    0  501    0  0.00000000000E+00  0.00000000000E+00  0.17188671039E+04  0.17188671039E+04  0.00000000000E+00 0. -1.
         -2   -1    0    0    0  501 -0.00000000000E+00 -0.00000000000E+00 -0.29870116715E+02  0.29870116715E+02  0.00000000000E+00 0.  1.
         23    2    1    2    0    0  0.18094926249E+03  0.65403448932E+02  0.68751608428E+03  0.72479222425E+03  0.12500062184E+03 0.  0.
          5    1    3    3  502    0  0.19071670735E+03  0.30894532188E+02  0.57611204880E+03  0.60766316110E+03  0.47000000000E+01 0.  1.
         -5    1    3    3    0  502 -0.97674448571E+01  0.34508916744E+02  0.11140403547E+03  0.11712906315E+03  0.47000000000E+01 0.  1.
        -11    1    1    2    0    0 -0.92863783916E+02 -0.75514563271E+02  0.68037839406E+03  0.69082623772E+03  0.00000000000E+00 0.  1.
         11    1    1    2    0    0 -0.88085478576E+02  0.10111114339E+02  0.32110250885E+03  0.33311875864E+03  0.00000000000E+00 0. -1.
<mgrwt>
<rscale>  0 0.22529981E+03</rscale>
<asrwt>0</asrwt>
<pdfrwt beam="1">  1        2 0.26444102E+00 0.22944586E+03</pdfrwt>
<pdfrwt beam="2">  1       -2 0.45954039E-02 0.22944586E+03</pdfrwt>
<totfact> 0.23273950E+03</totfact>
</mgrwt>
</event>
<event>
 7    1  0.5400401E-006  0.1426774E+03  0.7546771E-02  0.1219671E+00
          3   -1    0    0  501    0  0.00000000000E+00  0.00000000000E+00  0.28787277130E+03  0.28787277130E+03  0.00000000000E+00 0. -1.
         -3   -1    0    0    0  501 -0.00000000000E+00 -0.00000000000E+00 -0.58764129694E+02  0.58764129694E+02  0.00000000000E+00 0.  1.
         23    2    1    2    0    0  0.68615869347E+02 -0.48139716296E+01  0.10630509066E+03  0.17792586913E+03  0.12500212301E+03 0.  0.
          5    1    3    3  502    0  0.75193461462E+02 -0.27729584310E+02  0.12775765260E+02  0.81291430487E+02  0.47000000000E+01 0.  1.
         -5    1    3    3    0  502 -0.65775921158E+01  0.22915612680E+02  0.93529325402E+02  0.96634438647E+02  0.47000000000E+01 0.  1.
        -11    1    1    2    0    0 -0.29131013292E+02  0.75795734793E+01 -0.87378273055E+01  0.31343508029E+02  0.00000000000E+00 0.  1.
         11    1    1    2    0    0 -0.39484856054E+02 -0.27656018497E+01  0.13154137825E+03  0.13736752383E+03  0.00000000000E+00 0. -1.
<mgrwt>
<rscale>  0 0.13538931E+03</rscale>
<asrwt>0</asrwt>
<pdfrwt beam="1">  1        3 0.44288118E-01 0.14267741E+03</pdfrwt>
<pdfrwt beam="2">  1       -3 0.90406355E-02 0.14267741E+03</pdfrwt>
<totfact> 0.10316220E+03</totfact>
</mgrwt>
</event>
<event>
 7    1  0.5400401E-006  0.1687657E+03  0.7546771E-02  0.1183987E+00
          2   -1    0    0  501    0  0.00000000000E+00  0.00000000000E+00  0.51826016667E+03  0.51826016667E+03  0.00000000000E+00 0. -1.
         -2   -1    0    0    0  501 -0.00000000000E+00 -0.00000000000E+00 -0.11289604429E+03  0.11289604429E+03  0.00000000000E+00 0.  1.
         23    2    1    2    0    0 -0.61640525986E+02  0.95185292436E+02 -0.28933208832E+02  0.17122787236E+03  0.12498823688E+03 0.  0.
          5    1    3    3  502    0 -0.98280931914E+02  0.50609919821E+02 -0.23195779058E+02  0.11305149149E+03  0.47000000000E+01 0.  1.
         -5    1    3    3    0  502  0.36640405928E+02  0.44575372616E+02 -0.57374297737E+01  0.58176380867E+02  0.47000000000E+01 0.  1.
        -11    1    1    2    0    0  0.11758624912E+02 -0.63264090138E+02  0.90363778610E+02  0.11093341627E+03  0.00000000000E+00 0.  1.
         11    1    1    2    0    0  0.49881901074E+02 -0.31921202299E+02  0.34393355260E+03  0.34899492233E+03  0.00000000000E+00 0. -1.
<mgrwt>
<rscale>  0 0.16424407E+03</rscale>
<asrwt>0</asrwt>
<pdfrwt beam="1">  1        2 0.79732332E-01 0.16876568E+03</pdfrwt>
<pdfrwt beam="2">  1       -2 0.17368622E-01 0.16876568E+03</pdfrwt>
<totfact> 0.15855184E+03</totfact>
</mgrwt>
</event>
<event>
 7    1  0.5400401E-006  0.2324808E+03  0.7546771E-02  0.1127844E+00
         -4   -1    0    0    0  501 -0.00000000000E+00  0.00000000000E+00  0.37175301952E+03  0.37175301952E+03  0.00000000000E+00 0. -1.
          4   -1    0    0  501    0  0.00000000000E+00 -0.00000000000E+00 -0.15326925364E+03  0.15326925364E+03  0.00000000000E+00 0.  1.
         23    2    1    2    0    0  0.17048719814E+03 -0.96580883505E+02  0.20238163067E+03  0.30822984230E+03  0.12511418571E+03 0.  0.
          5    1    3    3  502    0  0.91679822627E+02  0.33849337036E+01  0.13727152389E+03  0.16517326940E+03  0.47000000000E+01 0. -1.
         -5    1    3    3    0  502  0.78807375514E+02 -0.99965817208E+02  0.65110106772E+02  0.14305657290E+03  0.47000000000E+01 0. -1.
        -11    1    1    2    0    0 -0.10204972899E+03  0.74283356381E+02 -0.32005940114E+02  0.13021729695E+03  0.00000000000E+00 0.  1.
         11    1    1    2    0    0 -0.68437469149E+02  0.22297527124E+02  0.48108075324E+02  0.86575133905E+02  0.00000000000E+00 0. -1.
<mgrwt>
<rscale>  0 0.22829742E+03</rscale>
<asrwt>0</asrwt>
<pdfrwt beam="2">  1        4 0.23579885E-01 0.23248078E+03</pdfrwt>
<pdfrwt beam="1">  1       -4 0.57192772E-01 0.23248078E+03</pdfrwt>
<totfact> 0.88768926E+01</totfact>
</mgrwt>
</event>
<event>
 7    1  0.5400401E-006  0.1370224E+03  0.7546771E-02  0.1229660E+00
          1   -1    0    0  501    0  0.00000000000E+00  0.00000000000E+00  0.51767020281E+03  0.51767020281E+03  0.00000000000E+00 0. -1.
         -1   -1    0    0    0  501 -0.00000000000E+00 -0.00000000000E+00 -0.29633465877E+02  0.29633465877E+02  0.00000000000E+00 0.  1.
         23    2    1    2    0    0  0.28433380297E+02 -0.48385176882E+02  0.22173516117E+03  0.26065614759E+03  0.12500225246E+03 0.  0.
          5    1    3    3  502    0  0.66550044119E+02 -0.15903445925E+02  0.18792564259E+03  0.20004990655E+03  0.47000000000E+01 0.  1.
         -5    1    3    3    0  502 -0.38116663822E+02 -0.32481730957E+02  0.33809518574E+02  0.60606241041E+02  0.47000000000E+01 0.  1.
        -11    1    1    2    0    0 -0.17402572728E+02  0.15365638065E+01  0.15301331188E+01  0.17537156931E+02  0.00000000000E+00 0.  1.
         11    1    1    2    0    0 -0.11030807569E+02  0.46848613075E+02  0.26477144265E+03  0.26911036417E+03  0.00000000000E+00 0. -1.
<mgrwt>
<rscale>  0 0.12852545E+03</rscale>
<asrwt>0</asrwt>
<pdfrwt beam="1">  1        1 0.79641563E-01 0.13702243E+03</pdfrwt>
<pdfrwt beam="2">  1       -1 0.45589951E-02 0.13702243E+03</pdfrwt>
<totfact> 0.83336811E+03</totfact>
</mgrwt>
</event>
<event>
 7    1  0.5400401E-006  0.1540231E+03  0.7546771E-02  0.1204025E+00
          2   -1    0    0  501    0  0.00000000000E+00  0.00000000000E+00  0.85260198941E+02  0.85260198941E+02  0.00000000000E+00 0. -1.
         -2   -1    0    0    0  501 -0.00000000000E+00 -0.00000000000E+00 -0.25881372148E+03  0.25881372148E+03  0.00000000000E+00 0.  1.
         23    2    1    2    0    0  0.78438570876E+02  0.44100582860E+02 -0.14728691853E+03  0.21311162461E+03  0.12500262943E+03 0.  0.
          5    1    3    3  502    0  0.20211760405E+02 -0.32851179293E+02 -0.96357675324E+02  0.10389709733E+03  0.47000000000E+01 0.  1.
         -5    1    3    3    0  502  0.58226810470E+02  0.76951762153E+02 -0.50929243203E+02  0.10921452728E+03  0.47000000000E+01 0.  1.
        -11    1    1    2    0    0 -0.14289493652E+02 -0.60191008729E+02 -0.82170746233E+01  0.62407271019E+02  0.00000000000E+00 0. -1.
         11    1    1    2    0    0 -0.64149077224E+02  0.16090425869E+02 -0.18049529392E+02  0.68555024795E+02  0.00000000000E+00 0.  1.
<mgrwt>
<rscale>  0 0.14714555E+03</rscale>
<asrwt>0</asrwt>
<pdfrwt beam="1">  1        2 0.13116954E-01 0.15402314E+03</pdfrwt>
<pdfrwt beam="2">  1       -2 0.39817495E-01 0.15402314E+03</pdfrwt>
<totfact> 0.26714347E+03</totfact>
</mgrwt>
</event>
<event>
 6    1  0.5400401E-006  0.3366011E+03  0.7546771E-02  0.1099175E+00
         -3   -1    0    0    0  501 -0.00000000000E+00  0.00000000000E+00  0.99069913154E+03  0.99069913154E+03  0.00000000000E+00 0.  1.
          3   -1    0    0  501    0  0.00000000000E+00 -0.00000000000E+00 -0.60283475067E+02  0.60283475067E+02  0.00000000000E+00 0. -1.
          5    1    1    2  502    0  0.63384370971E+02 -0.11487191124E+03  0.29289883532E+03  0.32097500246E+03  0.47000000000E+01 0. -1.
         -5    1    1    2    0  502  0.16300325114E+02  0.19837326808E+03  0.28169946684E+03  0.34495555323E+03  0.47000000000E+01 0.  1.
        -11    1    1    2    0    0 -0.34248261662E+02  0.10642807074E+02  0.14977123198E+03  0.15400530737E+03  0.00000000000E+00 0.  1.
         11    1    1    2    0    0 -0.45436434423E+02 -0.94144163916E+02  0.20604612234E+03  0.23104674355E+03  0.00000000000E+00 0. -1.
<mgrwt>
<rscale>  0 0.27371064E+03</rscale>
<asrwt>0</asrwt>
<pdfrwt beam="2">  1        3 0.92743815E-02 0.33660109E+03</pdfrwt>
<pdfrwt beam="1">  1       -3 0.15241524E+00 0.33660109E+03</pdfrwt>
<totfact> 0.69602682E+01</totfact>
</mgrwt>
</event>
<event>
 7    1  0.5400401E-006  0.1311289E+03  0.7546771E-02  0.1250015E+00
         -2   -1    0    0    0  501 -0.00000000000E+00  0.00000000000E+00  0.10626886665E+03  0.10626886665E+03  0.00000000000E+00 0.  1.
          2   -1    0    0  501    0  0.00000000000E+00 -0.00000000000E+00 -0.10713700210E+03  0.10713700210E+03  0.00000000000E+00 0. -1.
         23    2    1    2    0    0 -0.20232564200E+02 -0.34057326921E+02  0.14443822340E+02  0.13192203249E+03  0.12500216191E+03 0.  0.
          5    1    3    3  502    0 -0.18073048978E+02  0.41377394917E+02  0.30413126718E+02  0.54642219814E+02  0.47000000000E+01 0.  1.
         -5    1    3    3    0  502 -0.21595152212E+01 -0.75434721838E+02 -0.15969304379E+02  0.77279812675E+02  0.47000000000E+01 0.  1.
        -11    1    1    2    0    0  0.37091212157E+02  0.37229178470E+02  0.73471026941E+01  0.53063637896E+02  0.00000000000E+00 0.  1.
         11    1    1    2    0    0 -0.16858647957E+02 -0.31718515485E+01 -0.22659060485E+02  0.28420198367E+02  0.00000000000E+00 0. -1.
<mgrwt>
<rscale>  0 0.11590179E+03</rscale>
<asrwt>0</asrwt>
<pdfrwt beam="2">  1        2 0.16482616E-01 0.13112894E+03</pdfrwt>
<pdfrwt beam="1">  1       -2 0.16349057E-01 0.13112894E+03</pdfrwt>
<totfact> 0.96798278E+03</totfact>
</mgrwt>
</event>
<event>
 7    1  0.5400401E-006  0.1711093E+03  0.7546771E-02  0.1183073E+00
         -3   -1    0    0    0  501 -0.00000000000E+00  0.00000000000E+00  0.20156428756E+03  0.20156428756E+03  0.00000000000E+00 0.  1.
          3   -1    0    0  501    0  0.00000000000E+00 -0.00000000000E+00 -0.12943168062E+03  0.12943168062E+03  0.00000000000E+00 0. -1.
         23    2    1    2    0    0 -0.70737361513E+02 -0.93008503088E+02  0.63426498970E+02  0.18248649822E+03  0.12499618114E+03 0.  0.
          5    1    3    3  502    0 -0.63948981571E+02  0.81115793097E+01  0.36629037391E+01  0.64736209549E+02  0.47000000000E+01 0. -1.
         -5    1    3    3    0  502 -0.67883799416E+01 -0.10112008240E+03  0.59763595231E+02  0.11775028867E+03  0.47000000000E+01 0. -1.
        -11    1    1    2    0    0  0.13703059097E+02 -0.15501812169E+02  0.15320497012E+02  0.25744856532E+02  0.00000000000E+00 0.  1.
         11    1    1    2    0    0  0.57034302416E+02  0.10851031526E+03 -0.66143890339E+01  0.12276461343E+03  0.00000000000E+00 0. -1.
<mgrwt>
<rscale>  0 0.16508473E+03</rscale>
<asrwt>0</asrwt>
<pdfrwt beam="2">  1        3 0.19912566E-01 0.17110933E+03</pdfrwt>
<pdfrwt beam="1">  1       -3 0.31009890E-01 0.17110933E+03</pdfrwt>
<totfact> 0.54621539E+02</totfact>
</mgrwt>
</event>
<event>
 7    1  0.5400401E-006  0.1395503E+03  0.7546771E-02  0.1224958E+00
          3   -1    0    0  501    0  0.00000000000E+00  0.00000000000E+00  0.64757590546E+03  0.64757590546E+03  0.00000000000E+00 0. -1.
         -3   -1    0    0    0  501 -0.00000000000E+00 -0.00000000000E+00 -0.24409568949E+02  0.24409568949E+02  0.00000000000E+00 0.  1.
         23    2    1    2    0    0  0.35901093257E+02 -0.50588842989E+02  0.31448448828E+03  0.34405635985E+03  0.12500466333E+03 0.  0.
          5    1    3    3  502    0  0.19138729153E+02 -0.30149323233E+02  0.86465464666E+01  0.37042211203E+02  0.47000000000E+01 0. -1.
         -5    1    3    3    0  502  0.16762364104E+02 -0.20439519755E+02  0.30583794181E+03  0.30701414865E+03  0.47000000000E+01 0. -1.
        -11    1    1    2    0    0 -0.11569537143E+02  0.70441209503E+02  0.26285057655E+03  0.27237151793E+03  0.00000000000E+00 0. -1.
         11    1    1    2    0    0 -0.24331556114E+02 -0.19852366514E+02  0.45831271683E+02  0.55557596629E+02  0.00000000000E+00 0.  1.
<mgrwt>
<rscale>  0 0.13169778E+03</rscale>
<asrwt>0</asrwt>
<pdfrwt beam="1">  1        3 0.99627050E-01 0.13955030E+03</pdfrwt>
<pdfrwt beam="2">  1       -3 0.37553188E-02 0.13955030E+03</pdfrwt>
<totfact> 0.76200541E+02</totfact>
</mgrwt>
</event>
<event>
 7    1  0.5400401E-006  0.1415666E+03  0.7546771E-02  0.1222312E+00
          3   -1    0    0  501    0  0.00000000000E+00  0.00000000000E+00  0.18199523087E+03  0.18199523087E+03  0.00000000000E+00 0. -1.
         -3   -1    0    0    0  501 -0.00000000000E+00 -0.00000000000E+00 -0.98427739717E+02  0.98427739717E+02  0.00000000000E+00 0.  1.
         23    2    1    2    0    0 -0.43463001498E+02 -0.50270929496E+02  0.15708326651E+01  0.14157529437E+03  0.12499959043E+03 0.  0.
          5    1    3    3  502    0 -0.25487219411E+02 -0.87992630143E+02 -0.20635643297E+02  0.94022449910E+02  0.47000000000E+01 0. -1.
         -5    1    3    3    0  502 -0.17975782087E+02  0.37721700646E+02  0.22206475962E+02  0.47552844457E+02  0.47000000000E+01 0. -1.
        -11    1    1    2    0    0  0.72134643924E+01  0.58244009610E+02  0.12417997053E+02  0.59988376998E+02  0.00000000000E+00 0.  1.
         11    1    1    2    0    0  0.36249537105E+02 -0.79730801139E+01  0.69578661435E+02  0.78859299223E+02  0.00000000000E+00 0. -1.
<mgrwt>
<rscale>  0 0.13352839E+03</rscale>
<asrwt>0</asrwt>
<pdfrwt beam="1">  1        3 0.27999266E-01 0.14156658E+03</pdfrwt>
<pdfrwt beam="2">  1       -3 0.15142729E-01 0.14156658E+03</pdfrwt>
<totfact> 0.10342404E+03</totfact>
</mgrwt>
</event>
<event>
 7    1  0.5400401E-006  0.1794743E+03  0.7546771E-02  0.1174445E+00
         -2   -1    0    0    0  501 -0.00000000000E+00  0.00000000000E+00  0.52191440161E+02  0.52191440161E+02  0.00000000000E+00 0.  1.
          2   -1    0    0  501    0  0.00000000000E+00 -0.00000000000E+00 -0.57835351987E+03  0.57835351987E+03  0.00000000000E+00 0. -1.
         23    2    1    2    0    0  0.36723229644E+02  0.12345254008E+03 -0.19838260481E+03  0.26751951810E+03  0.12498763709E+03 0.  0.
          5    1    3    3  502    0  0.20635946218E+02 -0.13703387299E+02  0.65385451236E+00  0.25221868002E+02  0.47000000000E+01 0. -1.
         -5    1    3    3    0  502  0.16087283426E+02  0.13715592738E+03 -0.19903645933E+03  0.24229765010E+03  0.47000000000E+01 0. -1.
        -11    1    1    2    0    0 -0.16318805099E+02 -0.30151755432E+02 -0.17726003049E+02  0.38595892781E+02  0.00000000000E+00 0.  1.
         11    1    1    2    0    0 -0.20404424545E+02 -0.93300784645E+02 -0.31005347185E+03  0.32442954915E+03  0.00000000000E+00 0. -1.
<mgrwt>
<rscale>  0 0.17330451E+03</rscale>
<asrwt>0</asrwt>
<pdfrwt beam="2">  1        2 0.88977469E-01 0.17947433E+03</pdfrwt>
<pdfrwt beam="1">  1       -2 0.80294519E-02 0.17947433E+03</pdfrwt>
<totfact> 0.48498670E+03</totfact>
</mgrwt>
</event>
<event>
 7    1  0.5400401E-006  0.1231308E+03  0.7546771E-02  0.1249290E+00
          1   -1    0    0  501    0  0.00000000000E+00  0.00000000000E+00  0.37547578861E+02  0.37547578861E+02  0.00000000000E+00 0. -1.
         -1   -1    0    0    0  501 -0.00000000000E+00 -0.00000000000E+00 -0.32711241242E+03  0.32711241242E+03  0.00000000000E+00 0.  1.
         23    2    1    2    0    0  0.33039075478E+02  0.27744694576E+02 -0.17259337398E+03  0.21201334744E+03  0.11532492430E+03 0.  0.
          5    1    3    3  502    0  0.54412978928E+02 -0.79324172722E+01 -0.28797694389E+02  0.62250242744E+02  0.47000000000E+01 0. -1.
         -5    1    3    3    0  502 -0.21373903450E+02  0.35677111848E+02 -0.14379567959E+03  0.14976310469E+03  0.47000000000E+01 0.  1.
        -11    1    1    2    0    0  0.14409301693E+02 -0.44737290121E+02 -0.47539650965E+02  0.66851114549E+02  0.00000000000E+00 0. -1.
         11    1    1    2    0    0 -0.47448377171E+02  0.16992595545E+02 -0.69431808613E+02  0.85795529294E+02  0.00000000000E+00 0.  1.
<mgrwt>
<rscale>  0 0.11632267E+03</rscale>
<asrwt>0</asrwt>
<pdfrwt beam="1">  1        1 0.57765508E-02 0.12313077E+03</pdfrwt>
<pdfrwt beam="2">  1       -1 0.50324984E-01 0.12313077E+03</pdfrwt>
<totfact> 0.52323124E+03</totfact>
</mgrwt>
</event>
<event>
 7    1  0.5400401E-006  0.1263818E+03  0.7546771E-02  0.1247950E+00
         -1   -1    0    0    0  501 -0.00000000000E+00  0.00000000000E+00  0.38515464626E+02  0.38515464626E+02  0.00000000000E+00 0.  1.
          1   -1    0    0  501    0  0.00000000000E+00 -0.00000000000E+00 -0.33666693899E+03  0.33666693899E+03  0.00000000000E+00 0. -1.
         23    2    1    2    0    0 -0.11079277601E+02  0.14980405384E+02 -0.12069484938E+03  0.17475585025E+03  0.12500079036E+03 0.  0.
          5    1    3    3  502    0 -0.37754110845E+01  0.58713385995E+02 -0.11570630097E+03  0.12989054434E+03  0.47000000000E+01 0.  1.
         -5    1    3    3    0  502 -0.73038665165E+01 -0.43732980611E+02 -0.49885484107E+01  0.44865305911E+02  0.47000000000E+01 0.  1.
        -11    1    1    2    0    0  0.19759631274E+02  0.19377176603E+02 -0.10260167079E+02  0.29515911466E+02  0.00000000000E+00 0.  1.
         11    1    1    2    0    0 -0.86803536731E+01 -0.34357581988E+02 -0.16719645790E+03  0.17091064190E+03  0.00000000000E+00 0. -1.
<mgrwt>
<rscale>  0 0.11710571E+03</rscale>
<asrwt>0</asrwt>
<pdfrwt beam="2">  1        1 0.51794913E-01 0.12638180E+03</pdfrwt>
<pdfrwt beam="1">  1       -1 0.59254562E-02 0.12638180E+03</pdfrwt>
<totfact> 0.97070734E+03</totfact>
</mgrwt>
</event>
<event>
 7    1  0.5400401E-006  0.1614821E+03  0.7546771E-02  0.1193755E+00
         -2   -1    0    0    0  501 -0.00000000000E+00  0.00000000000E+00  0.47114855994E+02  0.47114855994E+02  0.00000000000E+00 0.  1.
          2   -1    0    0  501    0  0.00000000000E+00 -0.00000000000E+00 -0.55989872227E+03  0.55989872227E+03  0.00000000000E+00 0. -1.
         23    2    1    2    0    0  0.51469819492E+02 -0.88322594121E+02 -0.15811307997E+03  0.22600050382E+03  0.12500583473E+03 0.  0.
          5    1    3    3  502    0  0.31384410110E+02 -0.11880076978E+03 -0.13467659123E+03  0.18236907173E+03  0.47000000000E+01 0.  1.
         -5    1    3    3    0  502  0.20085409382E+02  0.30478175660E+02 -0.23436488741E+02  0.43631432088E+02  0.47000000000E+01 0.  1.
        -11    1    1    2    0    0 -0.62772523842E+02  0.82416769820E+02 -0.35331248129E+03  0.36818829847E+03  0.00000000000E+00 0. -1.
         11    1    1    2    0    0  0.11302704350E+02  0.59058243014E+01 -0.13583050177E+01  0.12824775976E+02  0.00000000000E+00 0.  1.
<mgrwt>
<rscale>  0 0.15560067E+03</rscale>
<asrwt>0</asrwt>
<pdfrwt beam="2">  1        2 0.86138262E-01 0.16148214E+03</pdfrwt>
<pdfrwt beam="1">  1       -2 0.72484397E-02 0.16148214E+03</pdfrwt>
<totfact> 0.58665265E+03</totfact>
</mgrwt>
</event>
<event>
 7    1  0.5400401E-006  0.1469736E+03  0.7546771E-02  0.1213909E+00
         -1   -1    0    0    0  501 -0.00000000000E+00  0.00000000000E+00  0.10663145487E+03  0.10663145487E+03  0.00000000000E+00 0.  1.
          1   -1    0    0  501    0  0.00000000000E+00 -0.00000000000E+00 -0.28522712133E+03  0.28522712133E+03  0.00000000000E+00 0. -1.
         23    2    1    2    0    0 -0.76893729296E+02 -0.79885768516E+01  0.31344804380E+02  0.15027886360E+03  0.12499910846E+03 0.  0.
          5    1    3    3  502    0 -0.23321919722E+02 -0.55344893350E+02 -0.18468497776E+02  0.63009083231E+02  0.47000000000E+01 0.  1.
         -5    1    3    3    0  502 -0.53571809574E+02  0.47356316499E+02  0.49813302156E+02  0.87269780365E+02  0.47000000000E+01 0.  1.
        -11    1    1    2    0    0  0.13831926913E+02 -0.27198370241E+02 -0.15629120743E+02  0.34283275239E+02  0.00000000000E+00 0.  1.
         11    1    1    2    0    0  0.63061802383E+02  0.35186947093E+02 -0.19431135010E+03  0.20729643737E+03  0.00000000000E+00 0. -1.
<mgrwt>
<rscale>  0 0.13957011E+03</rscale>
<asrwt>0</asrwt>
<pdfrwt beam="2">  1        1 0.43881095E-01 0.14697360E+03</pdfrwt>
<pdfrwt beam="1">  1       -1 0.16404839E-01 0.14697360E+03</pdfrwt>
<totfact> 0.25373307E+03</totfact>
</mgrwt>
</event>
<event>
 7    1  0.5400401E-006  0.2739644E+03  0.7546771E-02  0.1102279E+00
          2   -1    0    0  501    0  0.00000000000E+00  0.00000000000E+00  0.85954952612E+03  0.85954952612E+03  0.00000000000E+00 0. -1.
         -2   -1    0    0    0  501 -0.00000000000E+00 -0.00000000000E+00 -0.10218880681E+03  0.10218880681E+03  0.00000000000E+00 0.  1.
         23    2    1    2    0    0  0.19427342196E+01  0.24377536133E+03  0.16939710034E+03  0.32210537998E+03  0.12500518869E+03 0.  0.
          5    1    3    3  502    0 -0.42292694797E+02  0.12029839705E+03  0.30882212922E+02  0.13128662324E+03  0.47000000000E+01 0. -1.
         -5    1    3    3    0  502  0.44235429017E+02  0.12347696428E+03  0.13851488742E+03  0.19081875674E+03  0.47000000000E+01 0. -1.
        -11    1    1    2    0    0 -0.17842456897E+02 -0.79337016956E+02  0.25983030943E+03  0.27225815916E+03  0.00000000000E+00 0.  1.
         11    1    1    2    0    0  0.15899722677E+02 -0.16443834438E+03  0.32813330954E+03  0.36737479379E+03  0.00000000000E+00 0. -1.
<mgrwt>
<rscale>  0 0.26826047E+03</rscale>
<asrwt>0</asrwt>
<pdfrwt beam="1">  1        2 0.13223838E+00 0.27396441E+03</pdfrwt>
<pdfrwt beam="2">  1       -2 0.15721355E-01 0.27396441E+03</pdfrwt>
<totfact> 0.10241999E+03</totfact>
</mgrwt>
</event>
<event>
 6    1  0.5400401E-006  0.1343841E+03  0.7546771E-02  0.1239681E+00
         -1   -1    0    0    0  501 -0.00000000000E+00  0.00000000000E+00  0.20142553748E+02  0.20142553748E+02  0.00000000000E+00 0.  1.
          1   -1    0    0  501    0  0.00000000000E+00 -0.00000000000E+00 -0.63367581774E+03  0.63367581774E+03  0.00000000000E+00 0. -1.
          5    1    1    2  502    0  0.49064953376E+02 -0.48914654928E+02 -0.27399365012E+03  0.28265636986E+03  0.47000000000E+01 0. -1.
         -5    1    1    2    0  502 -0.45106410893E+02  0.31418322155E+02 -0.92566278610E+02  0.10776040649E+03  0.47000000000E+01 0.  1.
        -11    1    1    2    0    0 -0.19155453426E+02  0.49214059793E+02 -0.11053044657E+03  0.12249871304E+03  0.00000000000E+00 0.  1.
         11    1    1    2    0    0  0.15196910943E+02 -0.31717727019E+02 -0.13644288869E+03  0.14090288209E+03  0.00000000000E+00 0. -1.
<mgrwt>
<rscale>  0 0.12209446E+03</rscale>
<asrwt>0</asrwt>
<pdfrwt beam="2">  1        1 0.97488582E-01 0.13438407E+03</pdfrwt>
<pdfrwt beam="1">  1       -1 0.30988546E-02 0.13438407E+03</pdfrwt>
<totfact> 0.11164589E+04</totfact>
</mgrwt>
</event>
<event>
 7    1  0.5400401E-006  0.1262980E+03  0.7546771E-02  0.1240874E+00
          2   -1    0    0  501    0  0.00000000000E+00  0.00000000000E+00  0.69416443639E+03  0.69416443639E+03  0.00000000000E+00 0. -1.
         -2   -1    0    0    0  501 -0.00000000000E+00 -0.00000000000E+00 -0.19728671092E+02  0.19728671092E+02  0.00000000000E+00 0.  1.
         23    2    1    2    0    0  0.53680319843E+02 -0.22920441156E+02  0.35439243464E+03  0.37622489480E+03  0.11200111773E+03 0.  0.
          5    1    3    3  502    0 -0.84109243476E+01 -0.51731683862E+02  0.10334600942E+03  0.11597154145E+03  0.47000000000E+01 0. -1.
         -5    1    3    3    0  502  0.62091244191E+02  0.28811242706E+02  0.25104642522E+03  0.26025335334E+03  0.47000000000E+01 0.  1.
        -11    1    1    2    0    0 -0.27511751511E+02 -0.32839987258E+02  0.92567685906E+02  0.10200067504E+03  0.00000000000E+00 0. -1.
         11    1    1    2    0    0 -0.26168568332E+02  0.55760428414E+02  0.22747564475E+03  0.23566753765E+03  0.00000000000E+00 0.  1.
<mgrwt>
<rscale>  0 0.12135773E+03</rscale>
<asrwt>0</asrwt>
<pdfrwt beam="1">  1        2 0.10679451E+00 0.12629796E+03</pdfrwt>
<pdfrwt beam="2">  1       -2 0.30351807E-02 0.12629796E+03</pdfrwt>
<totfact> 0.16643276E+04</totfact>
</mgrwt>
</event>
<event>
 7    1  0.5400401E-006  0.1252963E+03  0.7546771E-02  0.1247189E+00
         -2   -1    0    0    0  501 -0.00000000000E+00  0.00000000000E+00  0.21284551430E+02  0.21284551430E+02  0.00000000000E+00 0.  1.
          2   -1    0    0  501    0  0.00000000000E+00 -0.00000000000E+00 -0.58085827911E+03  0.58085827911E+03  0.00000000000E+00 0. -1.
         23    2    1    2    0    0  0.46591795769E+01 -0.72188879566E+01 -0.31753817854E+03  0.34136439078E+03  0.12500132865E+03 0.  0.
          5    1    3    3  502    0 -0.38169417596E+02  0.22664051991E+02 -0.25882354210E+03  0.26264477844E+03  0.47000000000E+01 0. -1.
         -5    1    3    3    0  502  0.42828597172E+02 -0.29882939948E+02 -0.58714636437E+02  0.78719612344E+02  0.47000000000E+01 0. -1.
        -11    1    1    2    0    0  0.12835452199E+02  0.42604287736E+02 -0.19177773230E+03  0.19687197052E+03  0.00000000000E+00 0. -1.
         11    1    1    2    0    0 -0.17494631776E+02 -0.35385399779E+02 -0.50257816835E+02  0.63906469247E+02  0.00000000000E+00 0.  1.
<mgrwt>
<rscale>  0 0.11755310E+03</rscale>
<asrwt>0</asrwt>
<pdfrwt beam="2">  1        2 0.89362830E-01 0.12529626E+03</pdfrwt>
<pdfrwt beam="1">  1       -2 0.32745457E-02 0.12529626E+03</pdfrwt>
<totfact> 0.18265397E+04</totfact>
</mgrwt>
</event>
<event>
 6    1  0.5400401E-006  0.1930461E+03  0.7546771E-02  0.1176595E+00
         -2   -1    0    0    0  501 -0.00000000000E+00  0.00000000000E+00  0.29214910410E+02  0.29214910410E+02  0.00000000000E+00 0.  1.
          2   -1    0    0  501    0  0.00000000000E+00 -0.00000000000E+00 -0.89386936966E+03  0.89386936966E+03  0.00000000000E+00 0. -1.
          5    1    1    2  502    0 -0.82357256397E+02 -0.12819599903E+02 -0.42079574489E+03  0.42899674677E+03  0.47000000000E+01 0. -1.
         -5    1    1    2    0  502  0.18834317877E+02 -0.16360837883E+02  0.80750883545E+01  0.26640300263E+02  0.47000000000E+01 0.  1.
        -11    1    1    2    0    0  0.26834939828E+02  0.60552004560E+02 -0.32420612273E+03  0.33090220499E+03  0.00000000000E+00 0. -1.
         11    1    1    2    0    0  0.36687998691E+02 -0.31371566774E+02 -0.12772767998E+03  0.13654502805E+03  0.00000000000E+00 0.  1.
<mgrwt>
<rscale>  0 0.17120684E+03</rscale>
<asrwt>0</asrwt>
<pdfrwt beam="2">  1        2 0.13751838E+00 0.19304605E+03</pdfrwt>
<pdfrwt beam="1">  1       -2 0.44946010E-02 0.19304605E+03</pdfrwt>
<totfact> 0.69487944E+03</totfact>
</mgrwt>
</event>
<event>
 6    1  0.5400401E-006  0.1959620E+03  0.7546771E-02  0.1174953E+00
         -2   -1    0    0    0  501 -0.00000000000E+00  0.00000000000E+00  0.83507711833E+03  0.83507711833E+03  0.00000000000E+00 0.  1.
          2   -1    0    0  501    0  0.00000000000E+00 -0.00000000000E+00 -0.31660959925E+02  0.31660959925E+02  0.00000000000E+00 0. -1.
          5    1    1    2  502    0  0.59995321842E+02 -0.10574431799E+03  0.32239136278E+03  0.34458609988E+03  0.47000000000E+01 0. -1.
         -5    1    1    2    0  502  0.61284261678E+01  0.70709889623E+02  0.27912968088E+03  0.28805019502E+03  0.47000000000E+01 0.  1.
        -11    1    1    2    0    0 -0.25843722294E+02  0.34095238754E+02  0.18588753589E+03  0.19074737033E+03  0.00000000000E+00 0.  1.
         11    1    1    2    0    0 -0.40280025716E+02  0.93918961142E+00  0.16007578841E+02  0.43354413030E+02  0.00000000000E+00 0. -1.
<mgrwt>
<rscale>  0 0.17280551E+03</rscale>
<asrwt>0</asrwt>
<pdfrwt beam="2">  1        2 0.48709175E-02 0.19596203E+03</pdfrwt>
<pdfrwt beam="1">  1       -2 0.12847339E+00 0.19596203E+03</pdfrwt>
<totfact> 0.75553953E+02</totfact>
</mgrwt>
</event>
<event>
 7    1  0.5400401E-006  0.1297178E+03  0.7546771E-02  0.1241397E+00
          1   -1    0    0  501    0  0.00000000000E+00  0.00000000000E+00  0.48738996530E+03  0.48738996530E+03  0.00000000000E+00 0. -1.
         -1   -1    0    0    0  501 -0.00000000000E+00 -0.00000000000E+00 -0.26902581059E+02  0.26902581059E+02  0.00000000000E+00 0.  1.
         23    2    1    2    0    0  0.24577357298E+02 -0.24534825459E+02  0.23822552303E+03  0.27125285019E+03  0.12498281785E+03 0.  0.
          5    1    3    3  502    0  0.26329332014E+02  0.34842613702E+02  0.18877492445E+03  0.19381770702E+03  0.47000000000E+01 0.  1.
         -5    1    3    3    0  502 -0.17519747159E+01 -0.59377439161E+02  0.49450598582E+02  0.77435143164E+02  0.47000000000E+01 0.  1.
        -11    1    1    2    0    0  0.14835879193E+02  0.46024013192E+02  0.15337156431E+03  0.16081402253E+03  0.00000000000E+00 0.  1.
         11    1    1    2    0    0 -0.39413236491E+02 -0.21489187732E+02  0.68890296897E+02  0.82225673647E+02  0.00000000000E+00 0. -1.
<mgrwt>
<rscale>  0 0.12103655E+03</rscale>
<asrwt>0</asrwt>
<pdfrwt beam="1">  1        1 0.74983065E-01 0.12971780E+03</pdfrwt>
<pdfrwt beam="2">  1       -1 0.41388590E-02 0.12971780E+03</pdfrwt>
<totfact> 0.10354895E+04</totfact>
</mgrwt>
</event>
<event>
 7    1  0.5400401E-006  0.2020806E+03  0.7546771E-02  0.1152030E+00
         -2   -1    0    0    0  501 -0.00000000000E+00  0.00000000000E+00  0.37013923192E+02  0.37013923192E+02  0.00000000000E+00 0.  1.
          2   -1    0    0  501    0  0.00000000000E+00 -0.00000000000E+00 -0.10065860012E+04  0.10065860012E+04  0.00000000000E+00 0. -1.
         23    2    1    2    0    0  0.15870432932E+03  0.53203166930E+01 -0.48714885542E+03  0.52739983466E+03  0.12498483245E+03 0.  0.
          5    1    3    3  502    0  0.16219338598E+03  0.30058720430E+02 -0.33838315071E+03  0.37647771224E+03  0.47000000000E+01 0. -1.
         -5    1    3    3    0  502 -0.34890566598E+01 -0.24738403737E+02 -0.14876570471E+03  0.15092212242E+03  0.47000000000E+01 0. -1.
        -11    1    1    2    0    0 -0.11527259919E+03  0.29160026980E+02 -0.39642207756E+03  0.41387020052E+03  0.00000000000E+00 0.  1.
         11    1    1    2    0    0 -0.43431730134E+02 -0.34480343673E+02 -0.86001145039E+02  0.10232988923E+03  0.00000000000E+00 0. -1.
<mgrwt>
<rscale>  0 0.19730866E+03</rscale>
<asrwt>0</asrwt>
<pdfrwt beam="2">  1        2 0.15485937E+00 0.20208062E+03</pdfrwt>
<pdfrwt beam="1">  1       -2 0.56944504E-02 0.20208062E+03</pdfrwt>
<totfact> 0.41353512E+03</totfact>
</mgrwt>
</event>
<event>
 7    1  0.5400401E-006  0.1493259E+03  0.7546771E-02  0.1213088E+00
         -4   -1    0    0    0  501 -0.00000000000E+00  0.00000000000E+00  0.51295714379E+03  0.51295714379E+03  0.00000000000E+00 0.  1.
          4   -1    0    0  501    0  0.00000000000E+00 -0.00000000000E+00 -0.46099194775E+02  0.46099194775E+02  0.00000000000E+00 0. -1.
         23    2    1    2    0    0  0.49423757075E+02  0.65042154535E+02  0.39584907787E+03  0.42307765509E+03  0.12500008061E+03 0.  0.
          5    1    3    3  502    0  0.65665354441E+02  0.79502511523E+02  0.19173303183E+03  0.21775268909E+03  0.47000000000E+01 0.  1.
         -5    1    3    3    0  502 -0.16241597365E+02 -0.14460356987E+02  0.20411604604E+03  0.20532496600E+03  0.47000000000E+01 0.  1.
        -11    1    1    2    0    0 -0.32183468419E+02 -0.84199266587E+02  0.56901783880E+02  0.10659786650E+03  0.00000000000E+00 0.  1.
         11    1    1    2    0    0 -0.17240288657E+02  0.19157112052E+02  0.14107087260E+02  0.29380816974E+02  0.00000000000E+00 0. -1.
<mgrwt>
<rscale>  0 0.14017909E+03</rscale>
<asrwt>0</asrwt>
<pdfrwt beam="2">  1        4 0.70921842E-02 0.14932585E+03</pdfrwt>
<pdfrwt beam="1">  1       -4 0.78916480E-01 0.14932585E+03</pdfrwt>
<totfact> 0.33476356E+02</totfact>
</mgrwt>
</event>
<event>
 7    1  0.5400401E-006  0.1281358E+03  0.7546771E-02  0.1241269E+00
         -1   -1    0    0    0  501 -0.00000000000E+00  0.00000000000E+00  0.19380604210E+03  0.19380604210E+03  0.00000000000E+00 0.  1.
          1   -1    0    0  501    0  0.00000000000E+00 -0.00000000000E+00 -0.30737035808E+03  0.30737035808E+03  0.00000000000E+00 0. -1.
         23    2    1    2    0    0  0.19789525347E+02  0.42230495078E+02  0.16240286788E+03  0.20686581699E+03  0.11934711858E+03 0.  0.
          5    1    3    3  502    0  0.17061637632E+02  0.26112642672E+01 -0.16021717967E+02  0.24014654409E+02  0.47000000000E+01 0. -1.
         -5    1    3    3    0  502  0.27278877151E+01  0.39619230811E+02  0.17842458585E+03  0.18285116258E+03  0.47000000000E+01 0.  1.
        -11    1    1    2    0    0  0.19353980072E+02 -0.50520262090E+02 -0.98404910658E+02  0.11229603674E+03  0.00000000000E+00 0.  1.
         11    1    1    2    0    0 -0.39143505419E+02  0.82897670117E+01 -0.17756227320E+03  0.18201454645E+03  0.00000000000E+00 0. -1.
<mgrwt>
<rscale>  0 0.12111518E+03</rscale>
<asrwt>0</asrwt>
<pdfrwt beam="2">  1        1 0.47287747E-01 0.12813577E+03</pdfrwt>
<pdfrwt beam="1">  1       -1 0.29816314E-01 0.12813577E+03</pdfrwt>
<totfact> 0.87341241E+02</totfact>
</mgrwt>
</event>
<event>
 7    1  0.5400401E-006  0.2011858E+03  0.7546771E-02  0.1152908E+00
          1   -1    0    0  501    0  0.00000000000E+00  0.00000000000E+00  0.42457125998E+03  0.42457125998E+03  0.00000000000E+00 0. -1.
         -1   -1    0    0    0  501 -0.00000000000E+00 -0.00000000000E+00 -0.12423657837E+03  0.12423657837E+03  0.00000000000E+00 0.  1.
         23    2    1    2    0    0 -0.14659238992E+03  0.57976974003E+02  0.44079254738E+01  0.20123406941E+03  0.12500025035E+03 0.  0.
          5    1    3    3  502    0 -0.27983039318E+02  0.50188286695E+02 -0.44282219554E+02  0.72697452359E+02  0.47000000000E+01 0. -1.
         -5    1    3    3    0  502 -0.11860935060E+03  0.77886873073E+01  0.48690145028E+02  0.12853661705E+03  0.47000000000E+01 0. -1.
        -11    1    1    2    0    0  0.20976265462E+02 -0.18093026008E+02  0.49494199398E+01  0.28139972647E+02  0.00000000000E+00 0.  1.
         11    1    1    2    0    0  0.12561612446E+03 -0.39883947995E+02  0.29097733620E+03  0.31943379629E+03  0.00000000000E+00 0. -1.
<mgrwt>
<rscale>  0 0.19628958E+03</rscale>
<asrwt>0</asrwt>
<pdfrwt beam="1">  1        1 0.65318655E-01 0.20118579E+03</pdfrwt>
<pdfrwt beam="2">  1       -1 0.19113320E-01 0.20118579E+03</pdfrwt>
<totfact> 0.12146268E+03</totfact>
</mgrwt>
</event>
<event>
 7    1  0.5400401E-006  0.1365585E+03  0.7546771E-02  0.1230025E+00
          1   -1    0    0  501    0  0.00000000000E+00  0.00000000000E+00  0.68733940708E+03  0.68733940708E+03  0.00000000000E+00 0. -1.
         -1   -1    0    0    0  501 -0.00000000000E+00 -0.00000000000E+00 -0.21980556915E+02  0.21980556915E+02  0.00000000000E+00 0.  1.
         23    2    1    2    0    0 -0.42827414692E+02  0.34458150939E+02  0.31895131508E+03  0.34695555527E+03  0.12500665713E+03 0.  0.
          5    1    3    3  502    0  0.12225766018E+01  0.71297414623E+02  0.23109368443E+03  0.24189087831E+03  0.47000000000E+01 0. -1.
         -5    1    3    3    0  502 -0.44049991294E+02 -0.36839263684E+02  0.87857630649E+02  0.10506467696E+03  0.47000000000E+01 0. -1.
        -11    1    1    2    0    0  0.25676355252E+02  0.15111192168E+02  0.32438450653E+02  0.44044028296E+02  0.00000000000E+00 0.  1.
         11    1    1    2    0    0  0.17151059441E+02 -0.49569343107E+02  0.31396908444E+03  0.31832038044E+03  0.00000000000E+00 0. -1.
<mgrwt>
<rscale>  0 0.12828349E+03</rscale>
<asrwt>0</asrwt>
<pdfrwt beam="1">  1        1 0.10574451E+00 0.13655847E+03</pdfrwt>
<pdfrwt beam="2">  1       -1 0.33816247E-02 0.13655847E+03</pdfrwt>
<totfact> 0.87799107E+03</totfact>
</mgrwt>
</event>
<event>
 7    1  0.5400401E-006  0.1257987E+03  0.7546771E-02  0.1242010E+00
         -1   -1    0    0    0  501 -0.00000000000E+00  0.00000000000E+00  0.68966879985E+03  0.68966879985E+03  0.00000000000E+00 0.  1.
          1   -1    0    0  501    0  0.00000000000E+00 -0.00000000000E+00 -0.42501658726E+02  0.42501658726E+02  0.00000000000E+00 0. -1.
         23    2    1    2    0    0 -0.17178725381E+02  0.50045041456E+02  0.60452283580E+03  0.61747320932E+03  0.11413014700E+03 0.  0.
          5    1    3    3  502    0  0.20866798046E+02 -0.28709330345E+02  0.12541919139E+03  0.13042895567E+03  0.47000000000E+01 0. -1.
         -5    1    3    3    0  502 -0.38045523426E+02  0.78754371801E+02  0.47910364441E+03  0.48704425365E+03  0.47000000000E+01 0.  1.
        -11    1    1    2    0    0 -0.24859780054E+02  0.73416692663E+01 -0.82799762272E+01  0.27211519220E+02  0.00000000000E+00 0.  1.
         11    1    1    2    0    0  0.42038505435E+02 -0.57386710722E+02  0.50924281552E+02  0.87485730027E+02  0.00000000000E+00 0. -1.
<mgrwt>
<rscale>  0 0.12066156E+03</rscale>
<asrwt>0</asrwt>
<pdfrwt beam="2">  1        1 0.65387173E-02 0.12579867E+03</pdfrwt>
<pdfrwt beam="1">  1       -1 0.10610288E+00 0.12579867E+03</pdfrwt>
<totfact> 0.99291346E+02</totfact>
</mgrwt>
</event>
<event>
 7    1  0.5400401E-006  0.1166478E+03  0.7546771E-02  0.1290921E+00
          4   -1    0    0  501    0  0.00000000000E+00  0.00000000000E+00  0.45071454772E+01  0.45071454772E+01  0.00000000000E+00 0. -1.
         -4   -1    0    0    0  501 -0.00000000000E+00 -0.00000000000E+00 -0.21656764210E+04  0.21656764210E+04  0.00000000000E+00 0.  1.
         23    2    1    2    0    0 -0.21241045358E+02 -0.44190835777E+01 -0.19211579391E+04  0.19246959569E+04  0.11461234420E+03 0.  0.
          5    1    3    3  502    0 -0.16699087846E+01  0.53644590321E+02 -0.10428636579E+04  0.10442543893E+04  0.47000000000E+01 0. -1.
         -5    1    3    3    0  502 -0.19571136574E+02 -0.58063673899E+02 -0.87829428119E+03  0.88044156761E+03  0.47000000000E+01 0.  1.
        -11    1    1    2    0    0  0.70815748226E+01  0.24557899185E+02 -0.93872672062E+02  0.97289864191E+02  0.00000000000E+00 0. -1.
         11    1    1    2    0    0  0.14159470536E+02 -0.20138815607E+02 -0.14613866435E+03  0.14819774532E+03  0.00000000000E+00 0.  1.
<mgrwt>
<rscale>  0 0.95113349E+02</rscale>
<asrwt>0</asrwt>
<pdfrwt beam="1">  1        4 0.69340703E-03 0.11664776E+03</pdfrwt>
<pdfrwt beam="2">  1       -4 0.33318097E+00 0.11664776E+03</pdfrwt>
<totfact> 0.20163419E+02</totfact>
</mgrwt>
</event>
<event>
 7    1  0.5400401E-006  0.1291249E+03  0.7546771E-02  0.1244483E+00
          2   -1    0    0  501    0  0.00000000000E+00  0.00000000000E+00  0.23296532168E+02  0.23296532168E+02  0.00000000000E+00 0. -1.
         -2   -1    0    0    0  501 -0.00000000000E+00 -0.00000000000E+00 -0.58211957023E+03  0.58211957023E+03  0.00000000000E+00 0.  1.
         23    2    1    2    0    0 -0.24086438804E+02  0.21615467838E+02 -0.40735173135E+03  0.42732734672E+03  0.12500337289E+03 0.  0.
          5    1    3    3  502    0 -0.32995121866E+02  0.16513468593E+02 -0.25015705634E+02  0.44824638764E+02  0.47000000000E+01 0. -1.
         -5    1    3    3    0  502  0.89086830619E+01  0.51019992449E+01 -0.38233602572E+03  0.38250270795E+03  0.47000000000E+01 0. -1.
        -11    1    1    2    0    0 -0.14305353758E+00  0.13470632392E+02  0.61450335708E+01  0.14806749776E+02  0.00000000000E+00 0. -1.
         11    1    1    2    0    0  0.24229492342E+02 -0.35086100230E+02 -0.15761634028E+03  0.16328200591E+03  0.00000000000E+00 0.  1.
<mgrwt>
<rscale>  0 0.11916398E+03</rscale>
<asrwt>0</asrwt>
<pdfrwt beam="1">  1        2 0.35840817E-02 0.12912486E+03</pdfrwt>
<pdfrwt beam="2">  1       -2 0.89556862E-01 0.12912486E+03</pdfrwt>
<totfact> 0.25894222E+03</totfact>
</mgrwt>
</event>
<event>
 7    1  0.5400401E-006  0.1383504E+03  0.7546771E-02  0.1223853E+00
         -1   -1    0    0    0  501 -0.00000000000E+00  0.00000000000E+00  0.12548364431E+03  0.12548364431E+03  0.00000000000E+00 0.  1.
          1   -1    0    0  501    0  0.00000000000E+00 -0.00000000000E+00 -0.13739489538E+03  0.13739489538E+03  0.00000000000E+00 0. -1.
         23    2    1    2    0    0  0.12232464560E+02  0.58010444398E+02  0.25667290661E+02  0.14071115730E+03  0.12500390046E+03 0.  0.
          5    1    3    3  502    0 -0.56256153023E+02  0.29588565254E+02  0.71373871025E+01  0.64134781837E+02  0.47000000000E+01 0. -1.
         -5    1    3    3    0  502  0.68488617583E+02  0.28421879144E+02  0.18529903558E+02  0.76576375459E+02  0.47000000000E+01 0. -1.
        -11    1    1    2    0    0 -0.40183201776E+02 -0.93783685173E+01 -0.49887043618E+02  0.64740718423E+02  0.00000000000E+00 0. -1.
         11    1    1    2    0    0  0.27950737216E+02 -0.48632075881E+02  0.12308501884E+02  0.57426663964E+02  0.00000000000E+00 0.  1.
<mgrwt>
<rscale>  0 0.13245796E+03</rscale>
<asrwt>0</asrwt>
<pdfrwt beam="2">  1        1 0.21137676E-01 0.13835035E+03</pdfrwt>
<pdfrwt beam="1">  1       -1 0.19305176E-01 0.13835035E+03</pdfrwt>
<totfact> 0.48584485E+03</totfact>
</mgrwt>
</event>
<event>
 7    1  0.5400401E-006  0.1333646E+03  0.7546771E-02  0.1234934E+00
          1   -1    0    0  501    0  0.00000000000E+00  0.00000000000E+00  0.26147127979E+02  0.26147127979E+02  0.00000000000E+00 0.  1.
         -1   -1    0    0    0  501 -0.00000000000E+00 -0.00000000000E+00 -0.59741779194E+03  0.59741779194E+03  0.00000000000E+00 0. -1.
         23    2    1    2    0    0  0.11213859155E+02 -0.45141424460E+02 -0.41818808532E+03  0.43893894466E+03  0.12499049404E+03 0.  0.
          5    1    3    3  502    0  0.53499370017E+01 -0.85598369018E+02 -0.21302331088E+03  0.22968831834E+03  0.47000000000E+01 0. -1.
         -5    1    3    3    0  502  0.58639221529E+01  0.40456944558E+02 -0.20516477444E+03  0.20925062632E+03  0.47000000000E+01 0. -1.
        -11    1    1    2    0    0 -0.42417809259E+02  0.16576354024E+02 -0.30148616834E+02  0.54616711289E+02  0.00000000000E+00 0.  1.
         11    1    1    2    0    0  0.31203950104E+02  0.28565070437E+02 -0.12293396181E+03  0.13000926396E+03  0.00000000000E+00 0. -1.
<mgrwt>
<rscale>  0 0.12508689E+03</rscale>
<asrwt>0</asrwt>
<pdfrwt beam="1">  1        1 0.40226354E-02 0.13336462E+03</pdfrwt>
<pdfrwt beam="2">  1       -1 0.91910421E-01 0.13336462E+03</pdfrwt>
<totfact> 0.26428680E+03</totfact>
</mgrwt>
</event>
<event>
 7    1  0.5400401E-006  0.1251846E+03  0.7546771E-02  0.1248973E+00
          2   -1    0    0  501    0  0.00000000000E+00  0.00000000000E+00  0.27522106708E+03  0.27522106708E+03  0.00000000000E+00 0. -1.
         -2   -1    0    0    0  501 -0.00000000000E+00 -0.00000000000E+00 -0.67551987622E+02  0.67551987622E+02  0.00000000000E+00 0.  1.
         23    2    1    2    0    0 -0.48108901895E+01  0.48087618169E+01  0.12033757959E+02  0.12576164179E+03  0.12499964144E+03 0.  0.
          5    1    3    3  502    0  0.32359293766E+02  0.23393895257E+02 -0.41530641239E+02  0.57803826776E+02  0.47000000000E+01 0.  1.
         -5    1    3    3    0  502 -0.37170183955E+02 -0.18585133440E+02  0.53564399198E+02  0.67957815015E+02  0.47000000000E+01 0.  1.
        -11    1    1    2    0    0 -0.26081371413E+02 -0.73839391502E+01  0.10135771551E+02  0.28939494762E+02  0.00000000000E+00 0.  1.
         11    1    1    2    0    0  0.30892261603E+02  0.25751773333E+01  0.18549954995E+03  0.18807191815E+03  0.00000000000E+00 0. -1.
<mgrwt>
<rscale>  0 0.11650685E+03</rscale>
<asrwt>0</asrwt>
<pdfrwt beam="1">  1        2 0.42341702E-01 0.12518458E+03</pdfrwt>
<pdfrwt beam="2">  1       -2 0.10392614E-01 0.12518458E+03</pdfrwt>
<totfact> 0.70897494E+03</totfact>
</mgrwt>
</event>
<event>
 7    1  0.5400401E-006  0.1291044E+03  0.7546771E-02  0.1243537E+00
          1   -1    0    0  501    0  0.00000000000E+00  0.00000000000E+00  0.37678619301E+03  0.37678619301E+03  0.00000000000E+00 0. -1.
         -1   -1    0    0    0  501 -0.00000000000E+00 -0.00000000000E+00 -0.35361324488E+02  0.35361324488E+02  0.00000000000E+00 0.  1.
         23    2    1    2    0    0 -0.15634020614E+02  0.28272568767E+02  0.14778754944E+03  0.19623736941E+03  0.12499673852E+03 0.  0.
          5    1    3    3  502    0  0.24588088661E+02  0.64581499939E+02  0.54025088816E+02  0.87841587303E+02  0.47000000000E+01 0.  1.
         -5    1    3    3    0  502 -0.40222109275E+02 -0.36308931171E+02  0.93762460623E+02  0.10839578211E+03  0.47000000000E+01 0.  1.
        -11    1    1    2    0    0  0.29953955724E+02  0.25817178613E+02  0.81750216804E+02  0.90812246545E+02  0.00000000000E+00 0. -1.
         11    1    1    2    0    0 -0.14319935110E+02 -0.54089747380E+02  0.11188710228E+03  0.12509790154E+03  0.00000000000E+00 0.  1.
<mgrwt>
<rscale>  0 0.11973351E+03</rscale>
<asrwt>0</asrwt>
<pdfrwt beam="1">  1        1 0.57967104E-01 0.12910440E+03</pdfrwt>
<pdfrwt beam="2">  1       -1 0.54402040E-02 0.12910440E+03</pdfrwt>
<totfact> 0.95919563E+03</totfact>
</mgrwt>
</event>
<event>
 7    1  0.5400401E-006  0.1267928E+03  0.7546771E-02  0.1247605E+00
         -1   -1    0    0    0  501 -0.00000000000E+00  0.00000000000E+00  0.59963073784E+03  0.59963073784E+03  0.00000000000E+00 0.  1.
          1   -1    0    0  501    0  0.00000000000E+00 -0.00000000000E+00 -0.20776702094E+02  0.20776702094E+02  0.00000000000E+00 0. -1.
         23    2    1    2    0    0  0.19458886049E+01 -0.20286706991E+02  0.38704939395E+03  0.40728815485E+03  0.12514419987E+03 0.  0.
          5    1    3    3  502    0  0.40656804073E+02  0.35577176259E+02  0.22612566609E+03  0.23253734765E+03  0.47000000000E+01 0.  1.
         -5    1    3    3    0  502 -0.38710915468E+02 -0.55863883251E+02  0.16092372785E+03  0.17475080719E+03  0.47000000000E+01 0.  1.
        -11    1    1    2    0    0 -0.96954492030E+01 -0.27907749017E+02  0.13512589684E+03  0.13831793878E+03  0.00000000000E+00 0.  1.
         11    1    1    2    0    0  0.77495605981E+01  0.48194456009E+02  0.56678744951E+02  0.74801346302E+02  0.00000000000E+00 0. -1.
<mgrwt>
<rscale>  0 0.11730792E+03</rscale>
<asrwt>0</asrwt>
<pdfrwt beam="2">  1        1 0.31964162E-02 0.12679277E+03</pdfrwt>
<pdfrwt beam="1">  1       -1 0.92250870E-01 0.12679277E+03</pdfrwt>
<totfact> 0.35885535E+03</totfact>
</mgrwt>
</event>
<event>
 7    1  0.5400401E-006  0.1795199E+03  0.7546771E-02  0.1173398E+00
         -1   -1    0    0    0  501 -0.00000000000E+00  0.00000000000E+00  0.52969180692E+03  0.52969180692E+03  0.00000000000E+00 0.  1.
          1   -1    0    0  501    0  0.00000000000E+00 -0.00000000000E+00 -0.54389544527E+02  0.54389544527E+02  0.00000000000E+00 0. -1.
         23    2    1    2    0    0  0.39989239375E+02 -0.12249262171E+03  0.23981322785E+03  0.29956265241E+03  0.12499526720E+03 0.  0.
          5    1    3    3  502    0  0.81703484163E+02 -0.71830052932E+02  0.18143634098E+03  0.21160399727E+03  0.47000000000E+01 0.  1.
         -5    1    3    3    0  502 -0.41714244788E+02 -0.50662568778E+02  0.58376886870E+02  0.87958655140E+02  0.47000000000E+01 0.  1.
        -11    1    1    2    0    0 -0.64923324107E+02  0.88148407306E+02  0.12502367424E+03  0.16618092202E+03  0.00000000000E+00 0. -1.
         11    1    1    2    0    0  0.24934084732E+02  0.34344214404E+02  0.11046536030E+03  0.11833777702E+03  0.00000000000E+00 0.  1.
<mgrwt>
<rscale>  0 0.17433840E+03</rscale>
<asrwt>0</asrwt>
<pdfrwt beam="2">  1        1 0.83676226E-02 0.17951991E+03</pdfrwt>
<pdfrwt beam="1">  1       -1 0.81491044E-01 0.17951991E+03</pdfrwt>
<totfact> 0.12688857E+03</totfact>
</mgrwt>
</event>
<event>
 7    1  0.5400401E-006  0.1336987E+03  0.7546771E-02  0.1234934E+00
         -2   -1    0    0    0  501 -0.00000000000E+00  0.00000000000E+00  0.31451713590E+03  0.31451713590E+03  0.00000000000E+00 0.  1.
          2   -1    0    0  501    0  0.00000000000E+00 -0.00000000000E+00 -0.44546796347E+02  0.44546796347E+02  0.00000000000E+00 0. -1.
         23    2    1    2    0    0 -0.27817259013E+02 -0.38414828925E+02  0.16538766473E+03  0.21266971762E+03  0.12500332062E+03 0.  0.
          5    1    3    3  502    0 -0.40910052016E+02 -0.96316719529E+01 -0.19210832153E+01  0.42334170847E+02  0.47000000000E+01 0.  1.
         -5    1    3    3    0  502  0.13092793003E+02 -0.28783156972E+02  0.16730874795E+03  0.17033554677E+03  0.47000000000E+01 0.  1.
        -11    1    1    2    0    0  0.57415561027E+02  0.27757429796E+02  0.93219275673E+02  0.11294624790E+03  0.00000000000E+00 0.  1.
         11    1    1    2    0    0 -0.29598302015E+02  0.10657399129E+02  0.11363399148E+02  0.33447966733E+02  0.00000000000E+00 0. -1.
<mgrwt>
<rscale>  0 0.12508681E+03</rscale>
<asrwt>0</asrwt>
<pdfrwt beam="2">  1        2 0.68533535E-02 0.13369865E+03</pdfrwt>
<pdfrwt beam="1">  1       -2 0.48387250E-01 0.13369865E+03</pdfrwt>
<totfact> 0.40540323E+03</totfact>
</mgrwt>
</event>
<event>
 7    1  0.5400401E-006  0.1336128E+03  0.7546771E-02  0.1234806E+00
         -2   -1    0    0    0  501 -0.00000000000E+00  0.00000000000E+00  0.37019517244E+02  0.37019517244E+02  0.00000000000E+00 0.  1.
          2   -1    0    0  501    0  0.00000000000E+00 -0.00000000000E+00 -0.52809570654E+03  0.52809570654E+03  0.00000000000E+00 0. -1.
         23    2    1    2    0    0 -0.40018876036E+02  0.24905821233E+02 -0.11850528841E+03  0.17859420023E+03  0.12502229642E+03 0.  0.
          5    1    3    3  502    0 -0.67524828645E+02 -0.26923665947E+02 -0.80298550958E+02  0.10841786549E+03  0.47000000000E+01 0. -1.
         -5    1    3    3    0  502  0.27505952610E+02  0.51829487180E+02 -0.38206737454E+02  0.70176334738E+02  0.47000000000E+01 0. -1.
        -11    1    1    2    0    0 -0.85308820857E+01  0.16037026093E+02 -0.15598460145E+02  0.23943143360E+02  0.00000000000E+00 0.  1.
         11    1    1    2    0    0  0.48549758122E+02 -0.40942847326E+02 -0.35697244074E+03  0.36257788020E+03  0.00000000000E+00 0. -1.
<mgrwt>
<rscale>  0 0.12516853E+03</rscale>
<asrwt>0</asrwt>
<pdfrwt beam="2">  1        2 0.81245490E-01 0.13361282E+03</pdfrwt>
<pdfrwt beam="1">  1       -2 0.56953106E-02 0.13361282E+03</pdfrwt>
<totfact> 0.89491587E+03</totfact>
</mgrwt>
</event>
<event>
 7    1  0.5400401E-006  0.1292373E+03  0.7546771E-02  0.1247600E+00
         -2   -1    0    0    0  501 -0.00000000000E+00  0.00000000000E+00  0.54186698251E+02  0.54186698251E+02  0.00000000000E+00 0.  1.
          2   -1    0    0  501    0  0.00000000000E+00 -0.00000000000E+00 -0.23110831901E+03  0.23110831901E+03  0.00000000000E+00 0. -1.
         23    2    1    2    0    0 -0.21381584839E+02 -0.24901595572E+02 -0.13874180150E+03  0.18960898836E+03  0.12500007741E+03 0.  0.
          5    1    3    3  502    0 -0.62724775568E+01 -0.39482520725E+02 -0.15657260770E+03  0.16166411135E+03  0.47000000000E+01 0.  1.
         -5    1    3    3    0  502 -0.15109107282E+02  0.14580925153E+02  0.17830806201E+02  0.27944877007E+02  0.47000000000E+01 0.  1.
        -11    1    1    2    0    0  0.52051166644E+02  0.19693987411E+02 -0.17531163773E+02  0.58348254407E+02  0.00000000000E+00 0. -1.
         11    1    1    2    0    0 -0.30669581805E+02  0.52076081609E+01 -0.20648655493E+02  0.37337774498E+02  0.00000000000E+00 0.  1.
<mgrwt>
<rscale>  0 0.11731107E+03</rscale>
<asrwt>0</asrwt>
<pdfrwt beam="2">  1        2 0.35555126E-01 0.12923730E+03</pdfrwt>
<pdfrwt beam="1">  1       -2 0.83364151E-02 0.12923730E+03</pdfrwt>
<totfact> 0.12068534E+04</totfact>
</mgrwt>
</event>
<event>
 7    1  0.5400401E-006  0.3693611E+03  0.7546771E-02  0.1055871E+00
          1   -1    0    0  501    0  0.00000000000E+00  0.00000000000E+00  0.57174781961E+03  0.57174781961E+03  0.00000000000E+00 0. -1.
         -1   -1    0    0    0  501 -0.00000000000E+00 -0.00000000000E+00 -0.25394132814E+03  0.25394132814E+03  0.00000000000E+00 0.  1.
         23    2    1    2    0    0 -0.33229206094E+03  0.10190921334E+03  0.28092431097E+03  0.46405396615E+03  0.12499645386E+03 0.  0.
          5    1    3    3  502    0  0.26224070700E+01 -0.15770634847E+01  0.35919780433E+02  0.36354982801E+02  0.47000000000E+01 0. -1.
         -5    1    3    3    0  502 -0.33491446801E+03  0.10348627682E+03  0.24500453054E+03  0.42769898335E+03  0.47000000000E+01 0. -1.
        -11    1    1    2    0    0  0.15290931645E+03 -0.93183336263E+02  0.43533816477E+01  0.17911824347E+03  0.00000000000E+00 0.  1.
         11    1    1    2    0    0  0.17938274449E+03 -0.87258770763E+01  0.32528798842E+02  0.18251693813E+03  0.00000000000E+00 0. -1.
<mgrwt>
<rscale>  0 0.36693438E+03</rscale>
<asrwt>0</asrwt>
<pdfrwt beam="1">  1        1 0.87961203E-01 0.36936109E+03</pdfrwt>
<pdfrwt beam="2">  1       -1 0.39067897E-01 0.36936109E+03</pdfrwt>
<totfact> 0.24205772E+02</totfact>
</mgrwt>
</event>
<event>
 7    1  0.5400401E-006  0.1578615E+03  0.7546771E-02  0.1198939E+00
         -2   -1    0    0    0  501 -0.00000000000E+00  0.00000000000E+00  0.30138605898E+03  0.30138605898E+03  0.00000000000E+00 0.  1.
          2   -1    0    0  501    0  0.00000000000E+00 -0.00000000000E+00 -0.70983524616E+02  0.70983524616E+02  0.00000000000E+00 0. -1.
         23    2    1    2    0    0 -0.86388560273E+02  0.42808784081E+02  0.10542946897E+03  0.18983051589E+03  0.12499870597E+03 0.  0.
          5    1    3    3  502    0 -0.47988338190E+02  0.69035927928E+02  0.11458894505E+03  0.14220251853E+03  0.47000000000E+01 0. -1.
         -5    1    3    3    0  502 -0.38400222082E+02 -0.26227143847E+02 -0.91594760869E+01  0.47627997360E+02  0.47000000000E+01 0. -1.
        -11    1    1    2    0    0  0.60721524557E+01  0.20743960790E+02  0.87058031610E+00  0.21631940616E+02  0.00000000000E+00 0. -1.
         11    1    1    2    0    0  0.80316407817E+02 -0.63552744871E+02  0.12410248508E+03  0.16090712709E+03  0.00000000000E+00 0.  1.
<mgrwt>
<rscale>  0 0.15125533E+03</rscale>
<asrwt>0</asrwt>
<pdfrwt beam="2">  1        2 0.10920542E-01 0.15786150E+03</pdfrwt>
<pdfrwt beam="1">  1       -2 0.46367085E-01 0.15786150E+03</pdfrwt>
<totfact> 0.24896924E+03</totfact>
</mgrwt>
</event>
<event>
 7    1  0.5400401E-006  0.1258146E+03  0.7546771E-02  0.1248818E+00
          2   -1    0    0  501    0  0.00000000000E+00  0.00000000000E+00  0.41905929868E+02  0.41905929868E+02  0.00000000000E+00 0.  1.
         -2   -1    0    0    0  501 -0.00000000000E+00 -0.00000000000E+00 -0.30171043788E+03  0.30171043788E+03  0.00000000000E+00 0. -1.
         23    2    1    2    0    0 -0.12384363895E+02  0.16798322855E+01 -0.18828275228E+03  0.22645020820E+03  0.12519228283E+03 0.  0.
          5    1    3    3  502    0 -0.46102229848E+02 -0.20530852248E+02 -0.21970274143E+02  0.55242324688E+02  0.47000000000E+01 0.  1.
         -5    1    3    3    0  502  0.33717865953E+02  0.22210684533E+02 -0.16631247814E+03  0.17120788351E+03  0.47000000000E+01 0.  1.
        -11    1    1    2    0    0  0.34628450086E+02  0.87646248830E+01  0.56605945829E+01  0.36166151796E+02  0.00000000000E+00 0.  1.
         11    1    1    2    0    0 -0.22244086191E+02 -0.10444457169E+02 -0.77182350308E+02  0.81000007748E+02  0.00000000000E+00 0. -1.
<mgrwt>
<rscale>  0 0.11659760E+03</rscale>
<asrwt>0</asrwt>
<pdfrwt beam="1">  1        2 0.64470664E-02 0.12581455E+03</pdfrwt>
<pdfrwt beam="2">  1       -2 0.46416988E-01 0.12581455E+03</pdfrwt>
<totfact> 0.47320387E+03</totfact>
</mgrwt>
</event>
<event>
 7    1  0.5400401E-006  0.1577763E+03  0.7546771E-02  0.1199235E+00
         -1   -1    0    0    0  501 -0.00000000000E+00  0.00000000000E+00  0.17431328359E+03  0.17431328359E+03  0.00000000000E+00 0.  1.
          1   -1    0    0  501    0  0.00000000000E+00 -0.00000000000E+00 -0.13081810119E+03  0.13081810119E+03  0.00000000000E+00 0. -1.
         23    2    1    2    0    0  0.33643024967E+02 -0.90192863299E+02  0.65635057330E+02  0.17088398615E+03  0.12500708081E+03 0.  0.
          5    1    3    3  502    0 -0.30039923509E+02  0.15624208675E+02  0.14240950071E+02  0.37032520304E+02  0.47000000000E+01 0.  1.
         -5    1    3    3    0  502  0.63682948477E+02 -0.10581707197E+03  0.51394107260E+02  0.13385146585E+03  0.47000000000E+01 0.  1.
        -11    1    1    2    0    0  0.85698747175E+01 -0.97759378426E+01  0.14723037341E+02  0.19641271393E+02  0.00000000000E+00 0.  1.
         11    1    1    2    0    0 -0.42212899685E+02  0.99968801142E+02 -0.36862912272E+02  0.11460612725E+03  0.00000000000E+00 0. -1.
<mgrwt>
<rscale>  0 0.15101182E+03</rscale>
<asrwt>0</asrwt>
<pdfrwt beam="2">  1        1 0.20125862E-01 0.15777635E+03</pdfrwt>
<pdfrwt beam="1">  1       -1 0.26817428E-01 0.15777635E+03</pdfrwt>
<totfact> 0.30476219E+03</totfact>
</mgrwt>
</event>
<event>
 7    1  0.5400401E-006  0.1169420E+03  0.7546771E-02  0.1257679E+00
          2   -1    0    0  501    0  0.00000000000E+00  0.00000000000E+00  0.10177069354E+03  0.10177069354E+03  0.00000000000E+00 0. -1.
         -2   -1    0    0    0  501 -0.00000000000E+00 -0.00000000000E+00 -0.30483678047E+03  0.30483678047E+03  0.00000000000E+00 0.  1.
         23    2    1    2    0    0 -0.13806373978E+02 -0.27550717048E+02 -0.26633107909E+03  0.29087398585E+03  0.11280857231E+03 0.  0.
          5    1    3    3  502    0  0.52255558303E+00  0.41956197419E+02 -0.66586327389E+02  0.78844305827E+02  0.47000000000E+01 0. -1.
         -5    1    3    3    0  502 -0.14328929562E+02 -0.69506914467E+02 -0.19974475170E+03  0.21202968003E+03  0.47000000000E+01 0.  1.
        -11    1    1    2    0    0  0.18049639899E+01 -0.27547682661E+02  0.51048300726E+02  0.58035004281E+02  0.00000000000E+00 0.  1.
         11    1    1    2    0    0  0.12001409989E+02  0.55098399709E+02  0.12216691427E+02  0.57698483876E+02  0.00000000000E+00 0. -1.
<mgrwt>
<rscale>  0 0.11157615E+03</rscale>
<asrwt>0</asrwt>
<pdfrwt beam="1">  1        2 0.15657030E-01 0.11694200E+03</pdfrwt>
<pdfrwt beam="2">  1       -2 0.46897966E-01 0.11694200E+03</pdfrwt>
<totfact> 0.15630584E+03</totfact>
</mgrwt>
</event>
<event>
 7    1  0.5400401E-006  0.1260305E+03  0.7546771E-02  0.1248790E+00
         -3   -1    0    0    0  501 -0.00000000000E+00  0.00000000000E+00  0.12910865502E+03  0.12910865502E+03  0.00000000000E+00 0.  1.
          3   -1    0    0  501    0  0.00000000000E+00 -0.00000000000E+00 -0.92376005149E+02  0.92376005149E+02  0.00000000000E+00 0. -1.
         23    2    1    2    0    0 -0.14002930408E+02 -0.79086468919E+01  0.22064801941E+02  0.12794737564E+03  0.12500018677E+03 0.  0.
          5    1    3    3  502    0 -0.39378146155E+02 -0.25748226790E+02 -0.37683849325E+02  0.60462981050E+02  0.47000000000E+01 0.  1.
         -5    1    3    3    0  502  0.25375215747E+02  0.17839579898E+02  0.59748651266E+02  0.67484394591E+02  0.47000000000E+01 0.  1.
        -11    1    1    2    0    0  0.95748381581E+01 -0.35255934016E+02  0.30251960585E+02  0.47432473352E+02  0.00000000000E+00 0.  1.
         11    1    1    2    0    0  0.44280922499E+01  0.43164580908E+02 -0.15584112658E+02  0.46104811173E+02  0.00000000000E+00 0. -1.
<mgrwt>
<rscale>  0 0.11661414E+03</rscale>
<asrwt>0</asrwt>
<pdfrwt beam="2">  1        3 0.14211693E-01 0.12603045E+03</pdfrwt>
<pdfrwt beam="1">  1       -3 0.19862870E-01 0.12603045E+03</pdfrwt>
<totfact> 0.20923866E+03</totfact>
</mgrwt>
</event>
<event>
 7    1  0.5400401E-006  0.1832982E+03  0.7546771E-02  0.1170065E+00
          2   -1    0    0  501    0  0.00000000000E+00  0.00000000000E+00  0.11473730234E+04  0.11473730234E+04  0.00000000000E+00 0. -1.
         -2   -1    0    0    0  501 -0.00000000000E+00 -0.00000000000E+00 -0.26044572150E+02  0.26044572150E+02  0.00000000000E+00 0.  1.
         23    2    1    2    0    0 -0.71733851026E+02  0.11326656311E+03  0.62958042013E+03  0.65572077176E+03  0.12499266141E+03 0.  0.
          5    1    3    3  502    0 -0.85241677554E+02  0.88176802365E+02  0.60638009729E+03  0.61867617091E+03  0.47000000000E+01 0. -1.
         -5    1    3    3    0  502  0.13507826528E+02  0.25089760749E+02  0.23200322837E+02  0.37044600844E+02  0.47000000000E+01 0. -1.
        -11    1    1    2    0    0  0.92138783066E+02 -0.76336969154E+02  0.36327182534E+03  0.38247000835E+03  0.00000000000E+00 0.  1.
         11    1    1    2    0    0 -0.20404932040E+02 -0.36929593959E+02  0.12847620583E+03  0.13522681548E+03  0.00000000000E+00 0. -1.
<mgrwt>
<rscale>  0 0.17768207E+03</rscale>
<asrwt>0</asrwt>
<pdfrwt beam="1">  1        2 0.17651889E+00 0.18329819E+03</pdfrwt>
<pdfrwt beam="2">  1       -2 0.40068582E-02 0.18329819E+03</pdfrwt>
<totfact> 0.57991219E+03</totfact>
</mgrwt>
</event>
<event>
 7    1  0.5400401E-006  0.1395663E+03  0.7546771E-02  0.1229866E+00
         -1   -1    0    0    0  501 -0.00000000000E+00  0.00000000000E+00  0.11971929264E+04  0.11971929264E+04  0.00000000000E+00 0.  1.
          1   -1    0    0  501    0  0.00000000000E+00 -0.00000000000E+00 -0.14469848514E+02  0.14469848514E+02  0.00000000000E+00 0. -1.
         23    2    1    2    0    0  0.13837050615E+02 -0.60519843987E+02  0.92081670061E+03  0.93133352577E+03  0.12499849845E+03 0.  0.
          5    1    3    3  502    0  0.40810885060E+02 -0.18985775086E+01  0.10219749530E+03  0.11016147685E+03  0.47000000000E+01 0. -1.
         -5    1    3    3    0  502 -0.26973834444E+02 -0.58621266478E+02  0.81861920531E+03  0.82117204892E+03  0.47000000000E+01 0. -1.
        -11    1    1    2    0    0  0.10352918377E+01  0.74092670621E+02  0.23693327372E+03  0.24825022027E+03  0.00000000000E+00 0.  1.
         11    1    1    2    0    0 -0.14872342453E+02 -0.13572826634E+02  0.24973103602E+02  0.32079028919E+02  0.00000000000E+00 0. -1.
<mgrwt>
<rscale>  0 0.12838920E+03</rscale>
<asrwt>0</asrwt>
<pdfrwt beam="2">  1        1 0.22261315E-02 0.13956626E+03</pdfrwt>
<pdfrwt beam="1">  1       -1 0.18418345E+00 0.13956626E+03</pdfrwt>
<totfact> 0.10900256E+03</totfact>
</mgrwt>
</event>
<event>
 7    1  0.5400401E-006  0.1405330E+03  0.7546771E-02  0.1223447E+00
          1   -1    0    0  501    0  0.00000000000E+00  0.00000000000E+00  0.23112170649E+03  0.23112170649E+03  0.00000000000E+00 0. -1.
         -1   -1    0    0    0  501 -0.00000000000E+00 -0.00000000000E+00 -0.71373487157E+02  0.71373487157E+02  0.00000000000E+00 0.  1.
         23    2    1    2    0    0  0.63340589813E+02 -0.10571344003E+02  0.60672398148E+02  0.15307082003E+03  0.12500300962E+03 0.  0.
          5    1    3    3  502    0  0.63135356957E+01  0.51933674430E+02  0.75781737645E+01  0.53070575561E+02  0.47000000000E+01 0. -1.
         -5    1    3    3    0  502  0.57027054117E+02 -0.62505018433E+02  0.53094224383E+02  0.10000024447E+03  0.47000000000E+01 0. -1.
        -11    1    1    2    0    0  0.16081144283E+02 -0.82071300150E+01  0.52366391966E+02  0.55391327770E+02  0.00000000000E+00 0. -1.
         11    1    1    2    0    0 -0.79421734096E+02  0.18778474018E+02  0.46709429214E+02  0.94033045845E+02  0.00000000000E+00 0.  1.
<mgrwt>
<rscale>  0 0.13273885E+03</rscale>
<asrwt>0</asrwt>
<pdfrwt beam="1">  1        1 0.35557185E-01 0.14053304E+03</pdfrwt>
<pdfrwt beam="2">  1       -1 0.10980537E-01 0.14053304E+03</pdfrwt>
<totfact> 0.61381322E+03</totfact>
</mgrwt>
</event>
<event>
 7    1  0.5400401E-006  0.1254852E+03  0.7546771E-02  0.1253004E+00
         -2   -1    0    0    0  501 -0.00000000000E+00  0.00000000000E+00  0.36209645035E+03  0.36209645035E+03  0.00000000000E+00 0.  1.
          2   -1    0    0  501    0  0.00000000000E+00 -0.00000000000E+00 -0.30911370168E+02  0.30911370168E+02  0.00000000000E+00 0. -1.
         23    2    1    2    0    0 -0.90041150712E+01 -0.63852708661E+01  0.20124709414E+03  0.23716435380E+03  0.12499876815E+03 0.  0.
          5    1    3    3  502    0 -0.64741471128E+02 -0.19918904853E+02  0.10605832376E+03  0.12593124670E+03  0.47000000000E+01 0.  1.
         -5    1    3    3    0  502  0.55737356057E+02  0.13533633987E+02  0.95188770379E+02  0.11123310710E+03  0.47000000000E+01 0.  1.
        -11    1    1    2    0    0  0.80556401497E+01 -0.39366510681E+02  0.57039952894E+02  0.69772284809E+02  0.00000000000E+00 0.  1.
         11    1    1    2    0    0  0.94847492149E+00  0.45751781547E+02  0.72898033139E+02  0.86071181908E+02  0.00000000000E+00 0. -1.
<mgrwt>
<rscale>  0 0.11418857E+03</rscale>
<asrwt>0</asrwt>
<pdfrwt beam="2">  1        2 0.47555957E-02 0.12548521E+03</pdfrwt>
<pdfrwt beam="1">  1       -2 0.55707143E-01 0.12548521E+03</pdfrwt>
<totfact> 0.48837681E+03</totfact>
</mgrwt>
</event>
<event>
 7    1  0.5400401E-006  0.1370093E+03  0.7546771E-02  0.1229386E+00
          1   -1    0    0  501    0  0.00000000000E+00  0.00000000000E+00  0.31496011277E+03  0.31496011277E+03  0.00000000000E+00 0. -1.
         -1   -1    0    0    0  501 -0.00000000000E+00 -0.00000000000E+00 -0.11374893872E+03  0.11374893872E+03  0.00000000000E+00 0.  1.
         23    2    1    2    0    0  0.20641169470E+01 -0.56036643832E+02 -0.57707439853E+02  0.14866642986E+03  0.12500877058E+03 0.  0.
          5    1    3    3  502    0 -0.75537591597E+01 -0.17524337324E+02  0.39193377435E+02  0.43844868695E+02  0.47000000000E+01 0.  1.
         -5    1    3    3    0  502  0.96178761067E+01 -0.38512306508E+02 -0.96900817289E+02  0.10482156116E+03  0.47000000000E+01 0.  1.
        -11    1    1    2    0    0 -0.43213676060E+02  0.32033995433E+02  0.17994603348E+03  0.18781419975E+03  0.00000000000E+00 0. -1.
         11    1    1    2    0    0  0.41149559113E+02  0.24002648399E+02  0.78972580426E+02  0.92228421891E+02  0.00000000000E+00 0.  1.
<mgrwt>
<rscale>  0 0.12870765E+03</rscale>
<asrwt>0</asrwt>
<pdfrwt beam="1">  1        1 0.48455402E-01 0.13700934E+03</pdfrwt>
<pdfrwt beam="2">  1       -1 0.17499837E-01 0.13700934E+03</pdfrwt>
<totfact> 0.20204755E+03</totfact>
</mgrwt>
</event>
<event>
 7    1  0.5400401E-006  0.1303152E+03  0.7546771E-02  0.1247461E+00
          3   -1    0    0  501    0  0.00000000000E+00  0.00000000000E+00  0.50936054889E+03  0.50936054889E+03  0.00000000000E+00 0. -1.
         -3   -1    0    0    0  501 -0.00000000000E+00 -0.00000000000E+00 -0.23137900858E+02  0.23137900858E+02  0.00000000000E+00 0.  1.
         23    2    1    2    0    0 -0.20115802500E+02 -0.31252773894E+02  0.31754565834E+03  0.34324526004E+03  0.12490269022E+03 0.  0.
          5    1    3    3  502    0 -0.48142799582E+02 -0.27428070744E+01  0.29104671698E+03  0.29505174734E+03  0.47000000000E+01 0.  1.
         -5    1    3    3    0  502  0.28026997082E+02 -0.28509966820E+02  0.26498941356E+02  0.48193512701E+02  0.47000000000E+01 0.  1.
        -11    1    1    2    0    0  0.40268126163E+02  0.29927332749E+02  0.57737571942E+02  0.76490485969E+02  0.00000000000E+00 0.  1.
         11    1    1    2    0    0 -0.20152323662E+02  0.13254411449E+01  0.11093941775E+03  0.11276270374E+03  0.00000000000E+00 0. -1.
<mgrwt>
<rscale>  0 0.11739291E+03</rscale>
<asrwt>0</asrwt>
<pdfrwt beam="1">  1        3 0.78363153E-01 0.13031525E+03</pdfrwt>
<pdfrwt beam="2">  1       -3 0.35596774E-02 0.13031525E+03</pdfrwt>
<totfact> 0.13925471E+03</totfact>
</mgrwt>
</event>
<event>
 7    1  0.5400401E-006  0.1488273E+03  0.7546771E-02  0.1211112E+00
         -1   -1    0    0    0  501 -0.00000000000E+00  0.00000000000E+00  0.84195764252E+02  0.84195764252E+02  0.00000000000E+00 0.  1.
          1   -1    0    0  501    0  0.00000000000E+00 -0.00000000000E+00 -0.21806533504E+03  0.21806533504E+03  0.00000000000E+00 0. -1.
         23    2    1    2    0    0 -0.59070894922E+02  0.55102095174E+02 -0.72446907437E+02  0.16552380604E+03  0.12499585773E+03 0.  0.
          5    1    3    3  502    0 -0.73561986573E+02  0.45295437067E+02  0.43429080526E+01  0.86625592858E+02  0.47000000000E+01 0.  1.
         -5    1    3    3    0  502  0.14491091652E+02  0.98066581072E+01 -0.76789815490E+02  0.78898213183E+02  0.47000000000E+01 0.  1.
        -11    1    1    2    0    0  0.14625683642E+02  0.23748748739E+02 -0.10012271263E+01  0.27909069214E+02  0.00000000000E+00 0.  1.
         11    1    1    2    0    0  0.44445211280E+02 -0.78850843913E+02 -0.60421436223E+02  0.10882822404E+03  0.00000000000E+00 0. -1.
<mgrwt>
<rscale>  0 0.14166055E+03</rscale>
<asrwt>0</asrwt>
<pdfrwt beam="2">  1        1 0.33548512E-01 0.14882734E+03</pdfrwt>
<pdfrwt beam="1">  1       -1 0.12953195E-01 0.14882734E+03</pdfrwt>
<totfact> 0.51291914E+03</totfact>
</mgrwt>
</event>
<event>
 7    1  0.5400401E-006  0.4429669E+03  0.7546771E-02  0.1030476E+00
          1   -1    0    0  501    0  0.00000000000E+00  0.00000000000E+00  0.63764749430E+03  0.63764749430E+03  0.00000000000E+00 0. -1.
         -1   -1    0    0    0  501 -0.00000000000E+00 -0.00000000000E+00 -0.35301221799E+03  0.35301221799E+03  0.00000000000E+00 0.  1.
         23    2    1    2    0    0 -0.34368147585E+03 -0.24995759111E+03 -0.44815054161E+02  0.44522813142E+03  0.12499578284E+03 0.  0.
          5    1    3    3  502    0 -0.10629584741E+03 -0.15319339709E+03 -0.15390680138E+02  0.18715230996E+03  0.47000000000E+01 0. -1.
         -5    1    3    3    0  502 -0.23738562844E+03 -0.96764194024E+02 -0.29424374024E+02  0.25807582146E+03  0.47000000000E+01 0. -1.
        -11    1    1    2    0    0  0.15789798193E+03  0.76433227024E+02  0.17598296192E+03  0.24848302513E+03  0.00000000000E+00 0. -1.
         11    1    1    2    0    0  0.18578349392E+03  0.17352436409E+03  0.15346736855E+03  0.29694855574E+03  0.00000000000E+00 0.  1.
<mgrwt>
<rscale>  0 0.44088382E+03</rscale>
<asrwt>0</asrwt>
<pdfrwt beam="1">  1        1 0.98099614E-01 0.44296693E+03</pdfrwt>
<pdfrwt beam="2">  1       -1 0.54309572E-01 0.44296693E+03</pdfrwt>
<totfact> 0.11214910E+02</totfact>
</mgrwt>
</event>
<event>
 7    1  0.5400401E-006  0.1355495E+03  0.7546771E-02  0.1231205E+00
          1   -1    0    0  501    0  0.00000000000E+00  0.00000000000E+00  0.28027221054E+03  0.28027221054E+03  0.00000000000E+00 0. -1.
         -1   -1    0    0    0  501 -0.00000000000E+00 -0.00000000000E+00 -0.56460541605E+02  0.56460541605E+02  0.00000000000E+00 0.  1.
         23    2    1    2    0    0 -0.48842035484E+02  0.18959444236E+02  0.77997754497E+02  0.15638836143E+03  0.12501465885E+03 0.  0.
          5    1    3    3  502    0  0.95879730405E+01  0.55993377718E+02  0.74778831108E+01  0.57490836758E+02  0.47000000000E+01 0.  1.
         -5    1    3    3    0  502 -0.58430008524E+02 -0.37033933482E+02  0.70519871386E+02  0.98897524669E+02  0.47000000000E+01 0.  1.
        -11    1    1    2    0    0  0.39471398817E+02  0.94799472377E+01  0.10738954969E+02  0.41990306953E+02  0.00000000000E+00 0.  1.
         11    1    1    2    0    0  0.93706366668E+01 -0.28439391474E+02  0.13507495947E+03  0.13835408377E+03  0.00000000000E+00 0. -1.
<mgrwt>
<rscale>  0 0.12750504E+03</rscale>
<asrwt>0</asrwt>
<pdfrwt beam="1">  1        1 0.43118801E-01 0.13554951E+03</pdfrwt>
<pdfrwt beam="2">  1       -1 0.86862373E-02 0.13554951E+03</pdfrwt>
<totfact> 0.68973084E+03</totfact>
</mgrwt>
</event>
<event>
 7    1  0.5400401E-006  0.1422518E+03  0.7546771E-02  0.1221349E+00
         -1   -1    0    0    0  501 -0.00000000000E+00  0.00000000000E+00  0.43049098637E+02  0.43049098637E+02  0.00000000000E+00 0.  1.
          1   -1    0    0  501    0  0.00000000000E+00 -0.00000000000E+00 -0.66405987506E+03  0.66405987506E+03  0.00000000000E+00 0. -1.
         23    2    1    2    0    0  0.70918726623E+01  0.67528762374E+02 -0.99585579939E+02  0.17364577303E+03  0.12500055341E+03 0.  0.
          5    1    3    3  502    0  0.35168442750E+02  0.94478715349E+02 -0.84559105606E+02  0.13166388784E+03  0.47000000000E+01 0.  1.
         -5    1    3    3    0  502 -0.28076570088E+02 -0.26949952974E+02 -0.15026474334E+02  0.41981885190E+02  0.47000000000E+01 0.  1.
        -11    1    1    2    0    0  0.40744844766E+02 -0.20749187790E+02 -0.20340386576E+03  0.20847974428E+03  0.00000000000E+00 0. -1.
         11    1    1    2    0    0 -0.47836717429E+02 -0.46779574584E+02 -0.31802133072E+03  0.32498345639E+03  0.00000000000E+00 0.  1.
<mgrwt>
<rscale>  0 0.13420336E+03</rscale>
<asrwt>0</asrwt>
<pdfrwt beam="2">  1        1 0.10216306E+00 0.14225177E+03</pdfrwt>
<pdfrwt beam="1">  1       -1 0.66229383E-02 0.14225177E+03</pdfrwt>
<totfact> 0.34199971E+03</totfact>
</mgrwt>
</event>
<event>
 6    1  0.5400401E-006  0.1388429E+03  0.7546771E-02  0.1285960E+00
         -1   -1    0    0    0  501 -0.00000000000E+00  0.00000000000E+00  0.88236886802E+02  0.88236886802E+02  0.00000000000E+00 0.  1.
          1   -1    0    0  501    0  0.00000000000E+00 -0.00000000000E+00 -0.91695803943E+02  0.91695803943E+02  0.00000000000E+00 0. -1.
          5    1    1    2  502    0  0.46587731038E+02  0.27601201241E+01  0.44110594884E+02  0.64388426968E+02  0.47000000000E+01 0. -1.
         -5    1    1    2    0  502 -0.67065716944E+02  0.22935637942E+02 -0.25972763987E+02  0.75634174460E+02  0.47000000000E+01 0.  1.
        -11    1    1    2    0    0  0.84084790319E+01 -0.94658778469E+01 -0.45342696951E+01  0.13448604564E+02  0.00000000000E+00 0.  1.
         11    1    1    2    0    0  0.12069506875E+02 -0.16229880219E+02 -0.17062478343E+02  0.26461484753E+02  0.00000000000E+00 0. -1.
<mgrwt>
<rscale>  0 0.97354069E+02</rscale>
<asrwt>0</asrwt>
<pdfrwt beam="2">  1        1 0.14107047E-01 0.13884289E+03</pdfrwt>
<pdfrwt beam="1">  1       -1 0.13574906E-01 0.13884289E+03</pdfrwt>
<totfact> 0.14234810E+04</totfact>
</mgrwt>
</event>
<event>
 7    1  0.5400401E-006  0.2444648E+03  0.7546771E-02  0.1119725E+00
          1   -1    0    0  501    0  0.00000000000E+00  0.00000000000E+00  0.98601987412E+03  0.98601987412E+03  0.00000000000E+00 0. -1.
         -1   -1    0    0    0  501 -0.00000000000E+00 -0.00000000000E+00 -0.56608494519E+02  0.56608494519E+02  0.00000000000E+00 0.  1.
         23    2    1    2    0    0  0.17129381647E+03  0.12164055065E+03  0.50705986616E+03  0.56291448902E+03  0.12500007585E+03 0.  0.
          5    1    3    3  502    0  0.13988897828E+03  0.29494527282E+02  0.34959562173E+03  0.37772747069E+03  0.47000000000E+01 0.  1.
         -5    1    3    3    0  502  0.31404838183E+02  0.92146023371E+02  0.15746424443E+03  0.18518701833E+03  0.47000000000E+01 0.  1.
        -11    1    1    2    0    0 -0.10322416090E+03 -0.45997178847E+02  0.14209462340E+03  0.18155398606E+03  0.00000000000E+00 0.  1.
         11    1    1    2    0    0 -0.68069655562E+02 -0.75643371806E+02  0.28025689004E+03  0.29815989355E+03  0.00000000000E+00 0. -1.
<mgrwt>
<rscale>  0 0.24010175E+03</rscale>
<asrwt>0</asrwt>
<pdfrwt beam="1">  1        1 0.15169535E+00 0.24446475E+03</pdfrwt>
<pdfrwt beam="2">  1       -1 0.87089999E-02 0.24446475E+03</pdfrwt>
<totfact> 0.12390164E+03</totfact>
</mgrwt>
</event>
<event>
 7    1  0.5400401E-006  0.1286747E+03  0.7546771E-02  0.1243147E+00
          2   -1    0    0  501    0  0.00000000000E+00  0.00000000000E+00  0.52057512811E+03  0.52057512811E+03  0.00000000000E+00 0.  1.
         -2   -1    0    0    0  501 -0.00000000000E+00 -0.00000000000E+00 -0.24587313644E+02  0.24587313644E+02  0.00000000000E+00 0. -1.
         23    2    1    2    0    0  0.10556304588E+02 -0.28656558472E+02  0.26709369489E+03  0.29647297278E+03  0.12499819132E+03 0.  0.
          5    1    3    3  502    0  0.26715275420E+02  0.45214686730E+02  0.10188423629E+03  0.11471949025E+03  0.47000000000E+01 0.  1.
         -5    1    3    3    0  502 -0.16158970833E+02 -0.73871245202E+02  0.16520945859E+03  0.18175348254E+03  0.47000000000E+01 0.  1.
        -11    1    1    2    0    0 -0.41698192332E+02  0.18623385035E+02  0.19965062383E+03  0.20480708315E+03  0.00000000000E+00 0.  1.
         11    1    1    2    0    0  0.31141887744E+02  0.10033173437E+02  0.29243495748E+02  0.43882385817E+02  0.00000000000E+00 0. -1.
<mgrwt>
<rscale>  0 0.11996967E+03</rscale>
<asrwt>0</asrwt>
<pdfrwt beam="1">  1        2 0.80088473E-01 0.12867471E+03</pdfrwt>
<pdfrwt beam="2">  1       -2 0.37826640E-02 0.12867471E+03</pdfrwt>
<totfact> 0.16716631E+04</totfact>
</mgrwt>
</event>
<event>
 7    1  0.5400401E-006  0.1389570E+03  0.7546771E-02  0.1225926E+00
          4   -1    0    0  501    0  0.00000000000E+00  0.00000000000E+00  0.14290851935E+03  0.14290851935E+03  0.00000000000E+00 0. -1.
         -4   -1    0    0    0  501 -0.00000000000E+00 -0.00000000000E+00 -0.10833874882E+03  0.10833874882E+03  0.00000000000E+00 0.  1.
         23    2    1    2    0    0  0.11796200522E+02 -0.59531677806E+02  0.20868837756E+02  0.14051529667E+03  0.12500347675E+03 0.  0.
          5    1    3    3  502    0  0.59218892775E+02 -0.62358344403E+02 -0.49024085684E+01  0.86264500161E+02  0.47000000000E+01 0.  1.
         -5    1    3    3    0  502 -0.47422692253E+02  0.28266665965E+01  0.25771246324E+02  0.54250796507E+02  0.47000000000E+01 0.  1.
        -11    1    1    2    0    0 -0.42851784435E+02  0.48204605083E+02  0.33004440276E+02  0.72451725020E+02  0.00000000000E+00 0.  1.
         11    1    1    2    0    0  0.31055583913E+02  0.11327072723E+02 -0.19303507498E+02  0.38280246477E+02  0.00000000000E+00 0. -1.
<mgrwt>
<rscale>  0 0.13103611E+03</rscale>
<asrwt>0</asrwt>
<pdfrwt beam="1">  1        4 0.21985926E-01 0.13895697E+03</pdfrwt>
<pdfrwt beam="2">  1       -4 0.16667500E-01 0.13895697E+03</pdfrwt>
<totfact> 0.98558580E+02</totfact>
</mgrwt>
</event>
<event>
 7    1  0.5400401E-006  0.1399291E+03  0.7546771E-02  0.1221495E+00
          1   -1    0    0  501    0  0.00000000000E+00  0.00000000000E+00  0.16354764629E+02  0.16354764629E+02  0.00000000000E+00 0. -1.
         -1   -1    0    0    0  501 -0.00000000000E+00 -0.00000000000E+00 -0.10174008717E+04  0.10174008717E+04  0.00000000000E+00 0.  1.
         23    2    1    2    0    0 -0.55994296943E+02 -0.28609269543E+02 -0.55054269579E+03  0.56804702278E+03  0.12500523432E+03 0.  0.
          5    1    3    3  502    0 -0.51629143536E+02  0.31433502411E+02 -0.13307774953E+03  0.14623751556E+03  0.47000000000E+01 0.  1.
         -5    1    3    3    0  502 -0.43651534074E+01 -0.60042771954E+02 -0.41746494626E+03  0.42180950723E+03  0.47000000000E+01 0.  1.
        -11    1    1    2    0    0  0.60174888950E+02 -0.23753957787E+02 -0.22126907483E+03  0.23053258175E+03  0.00000000000E+00 0. -1.
         11    1    1    2    0    0 -0.41805920070E+01  0.52363227330E+02 -0.22923433642E+03  0.23517603178E+03  0.00000000000E+00 0.  1.
<mgrwt>
<rscale>  0 0.13410026E+03</rscale>
<asrwt>0</asrwt>
<pdfrwt beam="1">  1        1 0.25161177E-02 0.13992913E+03</pdfrwt>
<pdfrwt beam="2">  1       -1 0.15652321E+00 0.13992913E+03</pdfrwt>
<totfact> 0.14406443E+03</totfact>
</mgrwt>
</event>
<event>
 7    1  0.5400401E-006  0.1257389E+03  0.7546771E-02  0.1248627E+00
         -2   -1    0    0    0  501 -0.00000000000E+00  0.00000000000E+00  0.15358741105E+03  0.15358741105E+03  0.00000000000E+00 0.  1.
          2   -1    0    0  501    0  0.00000000000E+00 -0.00000000000E+00 -0.79871494220E+02  0.79871494220E+02  0.00000000000E+00 0. -1.
         23    2    1    2    0    0 -0.11727195296E+02 -0.69654387338E+01  0.59313296223E+02  0.13902639952E+03  0.12499691279E+03 0.  0.
          5    1    3    3  502    0 -0.56894815912E+02  0.30384313133E+02  0.44151540619E+02  0.78305013257E+02  0.47000000000E+01 0.  1.
         -5    1    3    3    0  502  0.45167620616E+02 -0.37349751867E+02  0.15161755604E+02  0.60721386262E+02  0.47000000000E+01 0.  1.
        -11    1    1    2    0    0  0.32378054530E+02 -0.15672467313E+02  0.40510611929E+02  0.54176326248E+02  0.00000000000E+00 0.  1.
         11    1    1    2    0    0 -0.20650859234E+02  0.22637906046E+02 -0.26107991322E+02  0.40256179503E+02  0.00000000000E+00 0. -1.
<mgrwt>
<rscale>  0 0.11670915E+03</rscale>
<asrwt>0</asrwt>
<pdfrwt beam="2">  1        2 0.12287922E-01 0.12573891E+03</pdfrwt>
<pdfrwt beam="1">  1       -2 0.23628832E-01 0.12573891E+03</pdfrwt>
<totfact> 0.73211527E+03</totfact>
</mgrwt>
</event>
<event>
 7    1  0.5400401E-006  0.1641609E+03  0.7546771E-02  0.1191309E+00
         -3   -1    0    0    0  501 -0.00000000000E+00  0.00000000000E+00  0.50376765519E+02  0.50376765519E+02  0.00000000000E+00 0.  1.
          3   -1    0    0  501    0  0.00000000000E+00 -0.00000000000E+00 -0.47085344795E+03  0.47085344795E+03  0.00000000000E+00 0. -1.
         23    2    1    2    0    0 -0.10397942318E+03  0.22569705725E+02 -0.18471637395E+03  0.24712131013E+03  0.12501076375E+03 0.  0.
          5    1    3    3  502    0 -0.80612505863E+02 -0.42241516735E+02 -0.13125849584E+03  0.15979237956E+03  0.47000000000E+01 0.  1.
         -5    1    3    3    0  502 -0.23366917314E+02  0.64811222460E+02 -0.53457878117E+02  0.87328930569E+02  0.47000000000E+01 0.  1.
        -11    1    1    2    0    0 -0.51044989031E+01  0.21434623624E+02 -0.42353927274E+02  0.47742582193E+02  0.00000000000E+00 0.  1.
         11    1    1    2    0    0  0.10908392208E+03 -0.44004329349E+02 -0.19340638120E+03  0.22636632114E+03  0.00000000000E+00 0. -1.
<mgrwt>
<rscale>  0 0.15770786E+03</rscale>
<asrwt>0</asrwt>
<pdfrwt beam="2">  1        3 0.72438989E-01 0.16416091E+03</pdfrwt>
<pdfrwt beam="1">  1       -3 0.77502719E-02 0.16416091E+03</pdfrwt>
<totfact> 0.49541294E+02</totfact>
</mgrwt>
</event>
<event>
 7    1  0.5400401E-006  0.1374433E+03  0.7546771E-02  0.1230187E+00
          1   -1    0    0  501    0  0.00000000000E+00  0.00000000000E+00  0.74873873636E+03  0.74873873636E+03  0.00000000000E+00 0. -1.
         -1   -1    0    0    0  501 -0.00000000000E+00 -0.00000000000E+00 -0.19601691843E+02  0.19601691843E+02  0.00000000000E+00 0.  1.
         23    2    1    2    0    0 -0.76503517144E+01  0.56635749197E+02  0.38214060946E+03  0.40610602925E+03  0.12499810249E+03 0.  0.
          5    1    3    3  502    0 -0.58517171737E+02  0.72346941919E+01  0.24012601886E+03  0.24730385182E+03  0.47000000000E+01 0. -1.
         -5    1    3    3    0  502  0.50866820023E+02  0.49401055005E+02  0.14201459060E+03  0.15880217743E+03  0.47000000000E+01 0. -1.
        -11    1    1    2    0    0 -0.37212974653E+02 -0.40473615584E+02  0.21390706840E+03  0.22086003022E+03  0.00000000000E+00 0.  1.
         11    1    1    2    0    0  0.44863326367E+02 -0.16162133613E+02  0.13308936666E+03  0.14137436873E+03  0.00000000000E+00 0. -1.
<mgrwt>
<rscale>  0 0.12817609E+03</rscale>
<asrwt>0</asrwt>
<pdfrwt beam="1">  1        1 0.11519055E+00 0.13744330E+03</pdfrwt>
<pdfrwt beam="2">  1       -1 0.30156455E-02 0.13744330E+03</pdfrwt>
<totfact> 0.91755828E+03</totfact>
</mgrwt>
</event>
<event>
 7    1  0.5400401E-006  0.1460240E+03  0.7546771E-02  0.1215192E+00
         -1   -1    0    0    0  501 -0.00000000000E+00  0.00000000000E+00  0.55246225009E+02  0.55246225009E+02  0.00000000000E+00 0.  1.
          1   -1    0    0  501    0  0.00000000000E+00 -0.00000000000E+00 -0.33713178186E+03  0.33713178186E+03  0.00000000000E+00 0. -1.
         23    2    1    2    0    0 -0.10475377158E+02  0.74777105919E+02 -0.10683256685E+03  0.18093149622E+03  0.12498663884E+03 0.  0.
          5    1    3    3  502    0 -0.20819605284E+02  0.10487607174E+03 -0.10298951659E+03  0.14853072718E+03  0.47000000000E+01 0.  1.
         -5    1    3    3    0  502  0.10344228126E+02 -0.30098965823E+02 -0.38430502582E+01  0.32400769041E+02  0.47000000000E+01 0.  1.
        -11    1    1    2    0    0  0.47975269505E+02 -0.61901694430E+02 -0.10557746551E+03  0.13145359440E+03  0.00000000000E+00 0.  1.
         11    1    1    2    0    0 -0.37499892346E+02 -0.12875411489E+02 -0.69475524494E+02  0.79992916253E+02  0.00000000000E+00 0. -1.
<mgrwt>
<rscale>  0 0.13862444E+03</rscale>
<asrwt>0</asrwt>
<pdfrwt beam="2">  1        1 0.51866428E-01 0.14602400E+03</pdfrwt>
<pdfrwt beam="1">  1       -1 0.84994192E-02 0.14602400E+03</pdfrwt>
<totfact> 0.56943670E+03</totfact>
</mgrwt>
</event>
<event>
 7    1  0.5400401E-006  0.1719765E+03  0.7546771E-02  0.1181765E+00
          2   -1    0    0  501    0  0.00000000000E+00  0.00000000000E+00  0.68564330350E+03  0.68564330350E+03  0.00000000000E+00 0. -1.
         -2   -1    0    0    0  501 -0.00000000000E+00 -0.00000000000E+00 -0.40578194275E+02  0.40578194275E+02  0.00000000000E+00 0.  1.
         23    2    1    2    0    0  0.13522299717E+02 -0.11733463452E+03  0.24937275536E+03  0.30292358834E+03  0.12500264079E+03 0.  0.
          5    1    3    3  502    0 -0.41099391261E+02 -0.10777360991E+03  0.15341845423E+03  0.19199901837E+03  0.47000000000E+01 0.  1.
         -5    1    3    3    0  502  0.54621690978E+02 -0.95610246099E+01  0.95954301131E+02  0.11092456997E+03  0.47000000000E+01 0.  1.
        -11    1    1    2    0    0 -0.40673042310E+02  0.13292460123E+02  0.11738387800E+03  0.12493982825E+03  0.00000000000E+00 0.  1.
         11    1    1    2    0    0  0.27150742593E+02  0.10404217440E+03  0.27830847586E+03  0.29835808119E+03  0.00000000000E+00 0. -1.
<mgrwt>
<rscale>  0 0.16629772E+03</rscale>
<asrwt>0</asrwt>
<pdfrwt beam="1">  1        2 0.10548358E+00 0.17197654E+03</pdfrwt>
<pdfrwt beam="2">  1       -2 0.62427996E-02 0.17197654E+03</pdfrwt>
<totfact> 0.58527937E+03</totfact>
</mgrwt>
</event>
<event>
 6    1  0.5400401E-006  0.1570567E+03  0.7546771E-02  0.1215329E+00
          1   -1    0    0  501    0  0.00000000000E+00  0.00000000000E+00  0.75736351077E+02  0.75736351077E+02  0.00000000000E+00 0. -1.
         -1   -1    0    0    0  501 -0.00000000000E+00 -0.00000000000E+00 -0.52175332844E+03  0.52175332844E+03  0.00000000000E+00 0.  1.
          5    1    1    2  502    0 -0.71315279607E+02 -0.20820703104E+02 -0.32009716608E+03  0.32863909767E+03  0.47000000000E+01 0. -1.
         -5    1    1    2    0  502  0.62622806016E+02  0.38696694614E+02 -0.15314410734E+03  0.16998310981E+03  0.47000000000E+01 0.  1.
        -11    1    1    2    0    0  0.33123603834E+02 -0.39495804184E+02 -0.64891079508E+01  0.51953827589E+02  0.00000000000E+00 0. -1.
         11    1    1    2    0    0 -0.24431130243E+02  0.21619812675E+02  0.33713404014E+02  0.46913644447E+02  0.00000000000E+00 0.  1.
<mgrwt>
<rscale>  0 0.13852400E+03</rscale>
<asrwt>0</asrwt>
<pdfrwt beam="1">  1        1 0.11651746E-01 0.15705669E+03</pdfrwt>
<pdfrwt beam="2">  1       -1 0.80269744E-01 0.15705669E+03</pdfrwt>
<totfact> 0.83899170E+02</totfact>
</mgrwt>
</event>
<event>
 7    1  0.5400401E-006  0.1459565E+03  0.7546771E-02  0.1215434E+00
          1   -1    0    0  501    0  0.00000000000E+00  0.00000000000E+00  0.34716576714E+03  0.34716576714E+03  0.00000000000E+00 0.  1.
         -1   -1    0    0    0  501 -0.00000000000E+00 -0.00000000000E+00 -0.55948562430E+02  0.55948562430E+02  0.00000000000E+00 0. -1.
         23    2    1    2    0    0  0.26446060958E+02 -0.70516066158E+02  0.95266944605E+02  0.17429601132E+03  0.12502559378E+03 0.  0.
          5    1    3    3  502    0 -0.88164179352E+01  0.32722181303E+02  0.37498380968E+02  0.50761096813E+02  0.47000000000E+01 0. -1.
         -5    1    3    3    0  502  0.35262478893E+02 -0.10323824746E+03  0.57768563637E+02  0.12353491450E+03  0.47000000000E+01 0. -1.
        -11    1    1    2    0    0 -0.22843481248E+02  0.15611078093E+02  0.25986255144E+01  0.27789984694E+02  0.00000000000E+00 0. -1.
         11    1    1    2    0    0 -0.36025797100E+01  0.54904988064E+02  0.19335163459E+03  0.20102833356E+03  0.00000000000E+00 0.  1.
<mgrwt>
<rscale>  0 0.13844697E+03</rscale>
<asrwt>0</asrwt>
<pdfrwt beam="1">  1        1 0.53410117E-01 0.14595653E+03</pdfrwt>
<pdfrwt beam="2">  1       -1 0.86074714E-02 0.14595653E+03</pdfrwt>
<totfact> 0.53853378E+03</totfact>
</mgrwt>
</event>
<event>
 7    1  0.5400401E-006  0.2521566E+03  0.7546771E-02  0.1114266E+00
         -1   -1    0    0    0  501 -0.00000000000E+00  0.00000000000E+00  0.10240602731E+03  0.10240602731E+03  0.00000000000E+00 0.  1.
          1   -1    0    0  501    0  0.00000000000E+00 -0.00000000000E+00 -0.63031493312E+03  0.63031493312E+03  0.00000000000E+00 0. -1.
         23    2    1    2    0    0  0.20852242800E+03 -0.66851760043E+02 -0.36823078224E+03  0.44629232944E+03  0.12502869082E+03 0.  0.
          5    1    3    3  502    0  0.28037115974E+02 -0.63130010812E+02 -0.13075533307E+03  0.14795447024E+03  0.47000000000E+01 0.  1.
         -5    1    3    3    0  502  0.18048531202E+03 -0.37217492312E+01 -0.23747544917E+03  0.29833785920E+03  0.47000000000E+01 0.  1.
        -11    1    1    2    0    0 -0.21627453149E+02  0.43940068739E+02 -0.25478665709E+02  0.55205423437E+02  0.00000000000E+00 0.  1.
         11    1    1    2    0    0 -0.18689497485E+03  0.22911691304E+02 -0.13419945786E+03  0.23122320756E+03  0.00000000000E+00 0. -1.
<mgrwt>
<rscale>  0 0.24848563E+03</rscale>
<asrwt>0</asrwt>
<pdfrwt beam="2">  1        1 0.96971529E-01 0.25215657E+03</pdfrwt>
<pdfrwt beam="1">  1       -1 0.15754773E-01 0.25215657E+03</pdfrwt>
<totfact> 0.97648720E+02</totfact>
</mgrwt>
</event>
<event>
 7    1  0.5400401E-006  0.1330244E+03  0.7546771E-02  0.1236815E+00
         -1   -1    0    0    0  501 -0.00000000000E+00  0.00000000000E+00  0.55710020570E+02  0.55710020570E+02  0.00000000000E+00 0.  1.
          1   -1    0    0  501    0  0.00000000000E+00 -0.00000000000E+00 -0.32127021766E+03  0.32127021766E+03  0.00000000000E+00 0. -1.
         23    2    1    2    0    0 -0.27197872261E+02  0.36473639764E+02 -0.55191300262E+02  0.14401937567E+03  0.12500180115E+03 0.  0.
          5    1    3    3  502    0 -0.61306935871E+02 -0.29092003395E+01  0.79015044395E+01  0.62060676800E+02  0.47000000000E+01 0. -1.
         -5    1    3    3    0  502  0.34109063610E+02  0.39382840103E+02 -0.63092804702E+02  0.81958698868E+02  0.47000000000E+01 0. -1.
        -11    1    1    2    0    0  0.53512767535E+02 -0.90427204449E+00 -0.13949617672E+03  0.14941090093E+03  0.00000000000E+00 0.  1.
         11    1    1    2    0    0 -0.26314895274E+02 -0.35569367719E+02 -0.70872720113E+02  0.83549961636E+02  0.00000000000E+00 0. -1.
<mgrwt>
<rscale>  0 0.12388927E+03</rscale>
<asrwt>0</asrwt>
<pdfrwt beam="2">  1        1 0.49426187E-01 0.13302444E+03</pdfrwt>
<pdfrwt beam="1">  1       -1 0.85707725E-02 0.13302444E+03</pdfrwt>
<totfact> 0.59372606E+03</totfact>
</mgrwt>
</event>
<event>
 7    1  0.5400401E-006  0.1650948E+03  0.7546771E-02  0.1190752E+00
         -2   -1    0    0    0  501 -0.00000000000E+00  0.00000000000E+00  0.62101898407E+02  0.62101898407E+02  0.00000000000E+00 0. -1.
          2   -1    0    0  501    0  0.00000000000E+00 -0.00000000000E+00 -0.37667270094E+03  0.37667270094E+03  0.00000000000E+00 0.  1.
         23    2    1    2    0    0 -0.10185054103E+03 -0.35469132278E+02 -0.19303451966E+03  0.25400516839E+03  0.12499883094E+03 0.  0.
          5    1    3    3  502    0 -0.67272663904E+01  0.10099301030E+02 -0.13080560162E+03  0.13145131193E+03  0.47000000000E+01 0. -1.
         -5    1    3    3    0  502 -0.95123274635E+02 -0.45568433308E+02 -0.62228918038E+02  0.12255385645E+03  0.47000000000E+01 0. -1.
        -11    1    1    2    0    0  0.10899693271E+03  0.63527164075E+01 -0.96206590890E+02  0.14552112038E+03  0.00000000000E+00 0. -1.
         11    1    1    2    0    0 -0.71463916825E+01  0.29116415870E+02 -0.25329691982E+02  0.39248310577E+02  0.00000000000E+00 0.  1.
<mgrwt>
<rscale>  0 0.15819311E+03</rscale>
<asrwt>0</asrwt>
<pdfrwt beam="2">  1        2 0.57949647E-01 0.16509482E+03</pdfrwt>
<pdfrwt beam="1">  1       -2 0.95541381E-02 0.16509482E+03</pdfrwt>
<totfact> 0.58973089E+03</totfact>
</mgrwt>
</event>
<event>
 7    1  0.5400401E-006  0.1262898E+03  0.7546771E-02  0.1248102E+00
          1   -1    0    0  501    0  0.00000000000E+00  0.00000000000E+00  0.49075170911E+02  0.49075170911E+02  0.00000000000E+00 0. -1.
         -1   -1    0    0    0  501 -0.00000000000E+00 -0.00000000000E+00 -0.24530148516E+03  0.24530148516E+03  0.00000000000E+00 0.  1.
         23    2    1    2    0    0 -0.89317839195E+00  0.17904433297E+02 -0.11640386856E+03  0.17175262504E+03  0.12501094790E+03 0.  0.
          5    1    3    3  502    0 -0.18421594537E+02  0.64466941605E+02 -0.97288355464E+02  0.11824743470E+03  0.47000000000E+01 0.  1.
         -5    1    3    3    0  502  0.17528416145E+02 -0.46562508308E+02 -0.19115513094E+02  0.53505190340E+02  0.47000000000E+01 0.  1.
        -11    1    1    2    0    0  0.29057531217E+02 -0.29571834901E+02 -0.49129858690E+01  0.41748903818E+02  0.00000000000E+00 0.  1.
         11    1    1    2    0    0 -0.28164352825E+02  0.11667401604E+02 -0.74909459826E+02  0.80875127213E+02  0.00000000000E+00 0. -1.
<mgrwt>
<rscale>  0 0.11701657E+03</rscale>
<asrwt>0</asrwt>
<pdfrwt beam="1">  1        1 0.75500262E-02 0.12628976E+03</pdfrwt>
<pdfrwt beam="2">  1       -1 0.37738690E-01 0.12628976E+03</pdfrwt>
<totfact> 0.60902099E+03</totfact>
</mgrwt>
</event>
<event>
 7    1  0.5400401E-006  0.1299836E+03  0.7546771E-02  0.1257554E+00
         -2   -1    0    0    0  501 -0.00000000000E+00  0.00000000000E+00  0.12744200920E+03  0.12744200920E+03  0.00000000000E+00 0.  1.
          2   -1    0    0  501    0  0.00000000000E+00 -0.00000000000E+00 -0.12448976053E+03  0.12448976053E+03  0.00000000000E+00 0. -1.
         23    2    1    2    0    0  0.28163865493E+02 -0.21851494265E+02  0.75730746398E+02  0.15043562580E+03  0.12500016176E+03 0.  0.
          5    1    3    3  502    0  0.61225220342E+02  0.26850631676E+02  0.58399633229E+02  0.88893707250E+02  0.47000000000E+01 0.  1.
         -5    1    3    3    0  502 -0.33061354849E+02 -0.48702125942E+02  0.17331113169E+02  0.61541918554E+02  0.47000000000E+01 0.  1.
        -11    1    1    2    0    0 -0.12218581537E+02  0.15296915192E+02 -0.80325323047E+02  0.82676761377E+02  0.00000000000E+00 0. -1.
         11    1    1    2    0    0 -0.15945283957E+02  0.65545790737E+01  0.75468253133E+01  0.18819382551E+02  0.00000000000E+00 0.  1.
<mgrwt>
<rscale>  0 0.11164499E+03</rscale>
<asrwt>0</asrwt>
<pdfrwt beam="2">  1        2 0.19152271E-01 0.12998358E+03</pdfrwt>
<pdfrwt beam="1">  1       -2 0.19606463E-01 0.12998358E+03</pdfrwt>
<totfact> 0.60167730E+03</totfact>
</mgrwt>
</event>
<event>
 7    1  0.5400401E-006  0.1626809E+03  0.7546771E-02  0.1192982E+00
          2   -1    0    0  501    0  0.00000000000E+00  0.00000000000E+00  0.50957855512E+03  0.50957855512E+03  0.00000000000E+00 0. -1.
         -2   -1    0    0    0  501 -0.00000000000E+00 -0.00000000000E+00 -0.46073273164E+02  0.46073273164E+02  0.00000000000E+00 0.  1.
         23    2    1    2    0    0 -0.87662149651E+01 -0.10374166477E+03  0.30092607966E+03  0.34208419166E+03  0.12500363685E+03 0.  0.
          5    1    3    3  502    0  0.11773441157E+02 -0.12328156291E+03  0.18518043269E+03  0.22282468517E+03  0.47000000000E+01 0.  1.
         -5    1    3    3    0  502 -0.20539656122E+02  0.19539898145E+02  0.11574564697E+03  0.11925950648E+03  0.47000000000E+01 0.  1.
        -11    1    1    2    0    0  0.15917791168E+02 -0.13591304889E+02  0.23797805331E+02  0.31692825415E+02  0.00000000000E+00 0.  1.
         11    1    1    2    0    0 -0.71515762026E+01  0.11733296966E+03  0.13878139696E+03  0.18187481121E+03  0.00000000000E+00 0. -1.
<mgrwt>
<rscale>  0 0.15626300E+03</rscale>
<asrwt>0</asrwt>
<pdfrwt beam="1">  1        2 0.78396697E-01 0.16268094E+03</pdfrwt>
<pdfrwt beam="2">  1       -2 0.70881962E-02 0.16268094E+03</pdfrwt>
<totfact> 0.67487625E+03</totfact>
</mgrwt>
</event>
<event>
 7    1  0.5400401E-006  0.1751686E+03  0.7546771E-02  0.1177371E+00
         -2   -1    0    0    0  501 -0.00000000000E+00  0.00000000000E+00  0.70399176189E+02  0.70399176189E+02  0.00000000000E+00 0. -1.
          2   -1    0    0  501    0  0.00000000000E+00 -0.00000000000E+00 -0.45125402040E+03  0.45125402040E+03  0.00000000000E+00 0.  1.
         23    2    1    2    0    0  0.67335117789E+00 -0.12271166706E+03 -0.10504193203E+03  0.20424946627E+03  0.12500172139E+03 0.  0.
          5    1    3    3  502    0 -0.78455913145E+01 -0.79081570639E+02  0.10559739980E+02  0.80305953866E+02  0.47000000000E+01 0.  1.
         -5    1    3    3    0  502  0.85189424924E+01 -0.43630096422E+02 -0.11560167201E+03  0.12394351240E+03  0.47000000000E+01 0.  1.
        -11    1    1    2    0    0 -0.94238097754E+01 -0.11460647402E+02 -0.61170906110E+01  0.16049094277E+02  0.00000000000E+00 0.  1.
         11    1    1    2    0    0  0.87504585975E+01  0.13417231446E+03 -0.26969582157E+03  0.30135463605E+03  0.00000000000E+00 0. -1.
<mgrwt>
<rscale>  0 0.17045845E+03</rscale>
<asrwt>0</asrwt>
<pdfrwt beam="2">  1        2 0.69423698E-01 0.17516860E+03</pdfrwt>
<pdfrwt beam="1">  1       -2 0.10830642E-01 0.17516860E+03</pdfrwt>
<totfact> 0.39896905E+03</totfact>
</mgrwt>
</event>
<event>
 7    1  0.5400401E-006  0.1308609E+03  0.7546771E-02  0.1239075E+00
          1   -1    0    0  501    0  0.00000000000E+00  0.00000000000E+00  0.20930490821E+03  0.20930490821E+03  0.00000000000E+00 0. -1.
         -1   -1    0    0    0  501 -0.00000000000E+00 -0.00000000000E+00 -0.67119170831E+02  0.67119170831E+02  0.00000000000E+00 0.  1.
         23    2    1    2    0    0 -0.24745493804E+02 -0.29758681755E+02  0.49882092208E+02  0.14004565680E+03  0.12500657687E+03 0.  0.
          5    1    3    3  502    0 -0.30595244238E+01 -0.68971050912E+02 -0.45949171954E+01  0.69351062124E+02  0.47000000000E+01 0. -1.
         -5    1    3    3    0  502 -0.21685969380E+02  0.39212369157E+02  0.54477009403E+02  0.70694594676E+02  0.47000000000E+01 0. -1.
        -11    1    1    2    0    0  0.16545572935E+02  0.63475635917E+02  0.63213880420E+02  0.91098337068E+02  0.00000000000E+00 0.  1.
         11    1    1    2    0    0  0.81999208685E+01 -0.33716954162E+02  0.29089764755E+02  0.45280085178E+02  0.00000000000E+00 0. -1.
<mgrwt>
<rscale>  0 0.12247151E+03</rscale>
<asrwt>0</asrwt>
<pdfrwt beam="1">  1        1 0.32200755E-01 0.13086085E+03</pdfrwt>
<pdfrwt beam="2">  1       -1 0.10326026E-01 0.13086085E+03</pdfrwt>
<totfact> 0.75893939E+03</totfact>
</mgrwt>
</event>
<event>
 7    1  0.5400401E-006  0.1446563E+03  0.7546771E-02  0.1218704E+00
         -1   -1    0    0    0  501 -0.00000000000E+00  0.00000000000E+00  0.76003236514E+02  0.76003236514E+02  0.00000000000E+00 0.  1.
          1   -1    0    0  501    0  0.00000000000E+00 -0.00000000000E+00 -0.22898545269E+03  0.22898545269E+03  0.00000000000E+00 0. -1.
         23    2    1    2    0    0  0.33573686305E+02 -0.64595975875E+02 -0.53519885473E+02  0.15423950988E+03  0.12500246300E+03 0.  0.
          5    1    3    3  502    0  0.48953658113E+02 -0.36674816289E+01  0.23580922867E+02  0.54663159325E+02  0.47000000000E+01 0. -1.
         -5    1    3    3    0  502 -0.15379971808E+02 -0.60928494246E+02 -0.77100808340E+02  0.99576350559E+02  0.47000000000E+01 0. -1.
        -11    1    1    2    0    0  0.19163415785E+02  0.21531177836E+02 -0.71596656241E+02  0.77181016503E+02  0.00000000000E+00 0. -1.
         11    1    1    2    0    0 -0.52737102089E+02  0.43064798039E+02 -0.27865674460E+02  0.73568162815E+02  0.00000000000E+00 0.  1.
<mgrwt>
<rscale>  0 0.13607934E+03</rscale>
<asrwt>0</asrwt>
<pdfrwt beam="2">  1        1 0.35228532E-01 0.14465631E+03</pdfrwt>
<pdfrwt beam="1">  1       -1 0.11692805E-01 0.14465631E+03</pdfrwt>
<totfact> 0.56467677E+03</totfact>
</mgrwt>
</event>
<event>
 7    1  0.5400401E-006  0.1585080E+03  0.7546771E-02  0.1198325E+00
         -1   -1    0    0    0  501 -0.00000000000E+00  0.00000000000E+00  0.41235494384E+02  0.41235494384E+02  0.00000000000E+00 0.  1.
          1   -1    0    0  501    0  0.00000000000E+00 -0.00000000000E+00 -0.53604973348E+03  0.53604973348E+03  0.00000000000E+00 0. -1.
         23    2    1    2    0    0  0.31450529036E+02  0.92252036405E+02 -0.32384001318E+03  0.36055115845E+03  0.12500083893E+03 0.  0.
          5    1    3    3  502    0  0.71230919199E+02  0.88955284638E+02 -0.19862232148E+03  0.22904105114E+03  0.47000000000E+01 0.  1.
         -5    1    3    3    0  502 -0.39780390163E+02  0.32967517666E+01 -0.12521769169E+03  0.13151010732E+03  0.47000000000E+01 0.  1.
        -11    1    1    2    0    0  0.14949419915E+02 -0.37840707035E+02 -0.12003390199E+02  0.42420344659E+02  0.00000000000E+00 0.  1.
         11    1    1    2    0    0 -0.46399948951E+02 -0.54411329370E+02 -0.15897083572E+03  0.17431372475E+03  0.00000000000E+00 0. -1.
<mgrwt>
<rscale>  0 0.15176166E+03</rscale>
<asrwt>0</asrwt>
<pdfrwt beam="2">  1        1 0.82469184E-01 0.15850799E+03</pdfrwt>
<pdfrwt beam="1">  1       -1 0.63439227E-02 0.15850799E+03</pdfrwt>
<totfact> 0.49095808E+03</totfact>
</mgrwt>
</event>
<event>
 7    1  0.5400401E-006  0.1511554E+03  0.7546771E-02  0.1202661E+00
          2   -1    0    0  501    0  0.00000000000E+00  0.00000000000E+00  0.35437561539E+03  0.35437561539E+03  0.00000000000E+00 0. -1.
         -2   -1    0    0    0  501 -0.00000000000E+00 -0.00000000000E+00 -0.59742251158E+02  0.59742251158E+02  0.00000000000E+00 0.  1.
         23    2    1    2    0    0  0.60218911830E+02  0.59981321695E+02  0.14920559808E+03  0.21239175914E+03  0.12499549015E+03 0.  0.
          5    1    3    3  502    0 -0.16285625912E+02  0.68898518425E+02  0.50436206926E+02  0.87052446385E+02  0.47000000000E+01 0.  1.
         -5    1    3    3    0  502  0.76504537742E+02 -0.89171967299E+01  0.98769391151E+02  0.12533931275E+03  0.47000000000E+01 0.  1.
        -11    1    1    2    0    0 -0.50522147094E+02 -0.65572912582E+02  0.16188589025E+03  0.18182226397E+03  0.00000000000E+00 0. -1.
         11    1    1    2    0    0 -0.96967647363E+01  0.55915908872E+01 -0.16458124099E+02  0.19903843444E+02  0.00000000000E+00 0.  1.
<mgrwt>
<rscale>  0 0.14823300E+03</rscale>
<asrwt>0</asrwt>
<pdfrwt beam="1">  1        2 0.54519324E-01 0.15115538E+03</pdfrwt>
<pdfrwt beam="2">  1       -2 0.91911158E-02 0.15115538E+03</pdfrwt>
<totfact> 0.66554614E+03</totfact>
</mgrwt>
</event>
<event>
 7    1  0.5400401E-006  0.1264634E+03  0.7546771E-02  0.1248696E+00
         -2   -1    0    0    0  501 -0.00000000000E+00  0.00000000000E+00  0.87458559213E+02  0.87458559213E+02  0.00000000000E+00 0.  1.
          2   -1    0    0  501    0  0.00000000000E+00 -0.00000000000E+00 -0.17696484712E+03  0.17696484712E+03  0.00000000000E+00 0. -1.
         23    2    1    2    0    0 -0.89065267483E+01 -0.16946499527E+02  0.12786158712E+02  0.12710813653E+03  0.12500592967E+03 0.  0.
          5    1    3    3  502    0 -0.52207556953E+02  0.22598054606E+02 -0.19100594392E+02  0.60193220392E+02  0.47000000000E+01 0. -1.
         -5    1    3    3    0  502  0.43301030205E+02 -0.39544554133E+02  0.31886753104E+02  0.66914916140E+02  0.47000000000E+01 0. -1.
        -11    1    1    2    0    0 -0.38785605607E+02  0.20245453680E+02 -0.46646280933E+02  0.63953710775E+02  0.00000000000E+00 0.  1.
         11    1    1    2    0    0  0.47692132356E+02 -0.32989541533E+01 -0.55646165687E+02  0.73361559026E+02  0.00000000000E+00 0. -1.
<mgrwt>
<rscale>  0 0.11666891E+03</rscale>
<asrwt>0</asrwt>
<pdfrwt beam="2">  1        2 0.27225361E-01 0.12646340E+03</pdfrwt>
<pdfrwt beam="1">  1       -2 0.13455163E-01 0.12646340E+03</pdfrwt>
<totfact> 0.75497470E+03</totfact>
</mgrwt>
</event>
<event>
 7    1  0.5400401E-006  0.1298154E+03  0.7546771E-02  0.1247839E+00
          4   -1    0    0  501    0  0.00000000000E+00  0.00000000000E+00  0.30710441187E+02  0.30710441187E+02  0.00000000000E+00 0. -1.
         -4   -1    0    0    0  501 -0.00000000000E+00 -0.00000000000E+00 -0.38741679140E+03  0.38741679140E+03  0.00000000000E+00 0.  1.
         23    2    1    2    0    0  0.34510755977E+02 -0.59345113082E+01 -0.24257259273E+03  0.27512450052E+03  0.12500326931E+03 0.  0.
          5    1    3    3  502    0 -0.42903100568E+02  0.64535807396E+01 -0.13537048740E+03  0.14223074071E+03  0.47000000000E+01 0.  1.
         -5    1    3    3    0  502  0.77413856545E+02 -0.12388092048E+02 -0.10720210533E+03  0.13289375981E+03  0.47000000000E+01 0.  1.
        -11    1    1    2    0    0  0.14534044886E+02  0.27491370065E+02 -0.55211186424E+02  0.63366308044E+02  0.00000000000E+00 0.  1.
         11    1    1    2    0    0 -0.49044800863E+02 -0.21556858757E+02 -0.58922571055E+02  0.79636424022E+02  0.00000000000E+00 0. -1.
<mgrwt>
<rscale>  0 0.11717068E+03</rscale>
<asrwt>0</asrwt>
<pdfrwt beam="1">  1        4 0.47246830E-02 0.12981536E+03</pdfrwt>
<pdfrwt beam="2">  1       -4 0.59602586E-01 0.12981536E+03</pdfrwt>
<totfact> 0.11517643E+03</totfact>
</mgrwt>
</event>
<event>
 7    1  0.5400401E-006  0.1441397E+03  0.7546771E-02  0.1218967E+00
          2   -1    0    0  501    0  0.00000000000E+00  0.00000000000E+00  0.29790436264E+03  0.29790436264E+03  0.00000000000E+00 0. -1.
         -2   -1    0    0    0  501 -0.00000000000E+00 -0.00000000000E+00 -0.56067930883E+02  0.56067930883E+02  0.00000000000E+00 0.  1.
         23    2    1    2    0    0  0.49372224692E-01  0.71778759900E+02  0.14562699480E+03  0.20489868929E+03  0.12499623373E+03 0.  0.
          5    1    3    3  502    0 -0.21986304480E+02 -0.29538660091E+02  0.20779820111E+02  0.42541990415E+02  0.47000000000E+01 0.  1.
         -5    1    3    3    0  502  0.22035676705E+02  0.10131741999E+03  0.12484717468E+03  0.16235669887E+03  0.47000000000E+01 0.  1.
        -11    1    1    2    0    0  0.34338894673E+02 -0.69194638572E+02  0.52501806856E+02  0.93399664976E+02  0.00000000000E+00 0.  1.
         11    1    1    2    0    0 -0.34388266898E+02 -0.25841213283E+01  0.43707630103E+02  0.55673939258E+02  0.00000000000E+00 0. -1.
<mgrwt>
<rscale>  0 0.13589119E+03</rscale>
<asrwt>0</asrwt>
<pdfrwt beam="1">  1        2 0.45831439E-01 0.14413969E+03</pdfrwt>
<pdfrwt beam="2">  1       -2 0.86258357E-02 0.14413969E+03</pdfrwt>
<totfact> 0.88104844E+03</totfact>
</mgrwt>
</event>
<event>
 7    1  0.5400401E-006  0.2721367E+03  0.7546771E-02  0.1101811E+00
         -2   -1    0    0    0  501 -0.00000000000E+00  0.00000000000E+00  0.17744936267E+03  0.17744936267E+03  0.00000000000E+00 0. -1.
          2   -1    0    0  501    0  0.00000000000E+00 -0.00000000000E+00 -0.48608839969E+03  0.48608839969E+03  0.00000000000E+00 0.  1.
         23    2    1    2    0    0  0.24166507204E+03  0.53249877883E+01 -0.16848837530E+02  0.27265777562E+03  0.12501206640E+03 0.  0.
          5    1    3    3  502    0  0.16930350283E+03 -0.51588958668E+02 -0.29894543861E+02  0.17955742948E+03  0.47000000000E+01 0. -1.
         -5    1    3    3    0  502  0.72361569202E+02  0.56913946457E+02  0.13045706331E+02  0.93100346145E+02  0.47000000000E+01 0. -1.
        -11    1    1    2    0    0 -0.12596277955E+03 -0.37042117152E+02 -0.20245126641E+03  0.24129909976E+03  0.00000000000E+00 0. -1.
         11    1    1    2    0    0 -0.11570229249E+03  0.31717129364E+02 -0.89338933082E+02  0.14958088697E+03  0.00000000000E+00 0.  1.
<mgrwt>
<rscale>  0 0.26907311E+03</rscale>
<asrwt>0</asrwt>
<pdfrwt beam="2">  1        2 0.74782830E-01 0.27213669E+03</pdfrwt>
<pdfrwt beam="1">  1       -2 0.27299902E-01 0.27213669E+03</pdfrwt>
<totfact> 0.78256529E+02</totfact>
</mgrwt>
</event>
<event>
 7    1  0.5400401E-006  0.2018217E+03  0.7546771E-02  0.1155891E+00
          2   -1    0    0  501    0  0.00000000000E+00  0.00000000000E+00  0.85929989247E+03  0.85929989247E+03  0.00000000000E+00 0. -1.
         -2   -1    0    0    0  501 -0.00000000000E+00 -0.00000000000E+00 -0.45331623395E+02  0.45331623395E+02  0.00000000000E+00 0.  1.
         23    2    1    2    0    0 -0.13927560628E+03  0.75559252463E+02  0.28286709312E+03  0.34748492686E+03  0.12500034756E+03 0.  0.
          5    1    3    3  502    0 -0.59856425379E+02  0.66164337683E+02  0.24113696616E+03  0.25715683481E+03  0.47000000000E+01 0.  1.
         -5    1    3    3    0  502 -0.79419180897E+02  0.93949147795E+01  0.41730126959E+02  0.90328092053E+02  0.47000000000E+01 0.  1.
        -11    1    1    2    0    0  0.80663453310E+02 -0.73084002095E+02  0.31771517522E+03  0.33584341088E+03  0.00000000000E+00 0.  1.
         11    1    1    2    0    0  0.58612152966E+02 -0.24752503674E+01  0.21338600073E+03  0.22130317812E+03  0.00000000000E+00 0. -1.
<mgrwt>
<rscale>  0 0.19287823E+03</rscale>
<asrwt>0</asrwt>
<pdfrwt beam="1">  1        2 0.13219997E+00 0.20182166E+03</pdfrwt>
<pdfrwt beam="2">  1       -2 0.69740966E-02 0.20182166E+03</pdfrwt>
<totfact> 0.37507406E+03</totfact>
</mgrwt>
</event>
<event>
 7    1  0.5400401E-006  0.1340843E+03  0.7546771E-02  0.1234357E+00
         -1   -1    0    0    0  501 -0.00000000000E+00  0.00000000000E+00  0.44608768075E+02  0.44608768075E+02  0.00000000000E+00 0.  1.
          1   -1    0    0  501    0  0.00000000000E+00 -0.00000000000E+00 -0.31464398818E+03  0.31464398818E+03  0.00000000000E+00 0. -1.
         23    2    1    2    0    0  0.42262082546E+02 -0.23787825177E+02 -0.14777347315E+03  0.19953847189E+03  0.12500663242E+03 0.  0.
          5    1    3    3  502    0 -0.43531068561E+02  0.24705063914E+01 -0.55722461821E+02  0.70909379374E+02  0.47000000000E+01 0.  1.
         -5    1    3    3    0  502  0.85793151107E+02 -0.26258331568E+02 -0.92051011334E+02  0.12862909251E+03  0.47000000000E+01 0.  1.
        -11    1    1    2    0    0 -0.51665044358E+02 -0.21636188169E+02 -0.60133848577E+02  0.82179566753E+02  0.00000000000E+00 0.  1.
         11    1    1    2    0    0  0.94029618125E+01  0.45424013346E+02 -0.62127898377E+02  0.77534717618E+02  0.00000000000E+00 0. -1.
<mgrwt>
<rscale>  0 0.12545707E+03</rscale>
<asrwt>0</asrwt>
<pdfrwt beam="2">  1        1 0.48406767E-01 0.13408431E+03</pdfrwt>
<pdfrwt beam="1">  1       -1 0.68628875E-02 0.13408431E+03</pdfrwt>
<totfact> 0.85169005E+03</totfact>
</mgrwt>
</event>
<event>
 7    1  0.5400401E-006  0.1518506E+03  0.7546771E-02  0.1203140E+00
          1   -1    0    0  501    0  0.00000000000E+00  0.00000000000E+00  0.79183690244E+03  0.79183690244E+03  0.00000000000E+00 0. -1.
         -1   -1    0    0    0  501 -0.00000000000E+00 -0.00000000000E+00 -0.26456119944E+02  0.26456119944E+02  0.00000000000E+00 0.  1.
         23    2    1    2    0    0 -0.96779257345E+01  0.85674437332E+02  0.43941119590E+03  0.46490945611E+03  0.12499932737E+03 0.  0.
          5    1    3    3  502    0  0.97844495177E+01  0.80358242466E+02  0.12000720802E+03  0.14483439703E+03  0.47000000000E+01 0. -1.
         -5    1    3    3    0  502 -0.19462375252E+02  0.53161948655E+01  0.31940398788E+03  0.32007505909E+03  0.47000000000E+01 0. -1.
        -11    1    1    2    0    0  0.26560267199E+02 -0.39024314070E+02  0.28545383271E+03  0.28933066808E+03  0.00000000000E+00 0. -1.
         11    1    1    2    0    0 -0.16882341464E+02 -0.46650123262E+02  0.40515753889E+02  0.64052898192E+02  0.00000000000E+00 0.  1.
<mgrwt>
<rscale>  0 0.14784983E+03</rscale>
<asrwt>0</asrwt>
<pdfrwt beam="1">  1        1 0.12182104E+00 0.15185060E+03</pdfrwt>
<pdfrwt beam="2">  1       -1 0.40701729E-02 0.15185060E+03</pdfrwt>
<totfact> 0.54704384E+03</totfact>
</mgrwt>
</event>
<event>
 7    1  0.5400401E-006  0.1526379E+03  0.7546771E-02  0.1205914E+00
          1   -1    0    0  501    0  0.00000000000E+00  0.00000000000E+00  0.52324613757E+03  0.52324613757E+03  0.00000000000E+00 0. -1.
         -1   -1    0    0    0  501 -0.00000000000E+00 -0.00000000000E+00 -0.38238102051E+02  0.38238102051E+02  0.00000000000E+00 0.  1.
         23    2    1    2    0    0 -0.83843046846E+02 -0.25359972787E+02  0.21954892856E+03  0.26739494814E+03  0.12500216613E+03 0.  0.
          5    1    3    3  502    0  0.14211701676E+02  0.22139641542E+02  0.56736217759E+01  0.27320618152E+02  0.47000000000E+01 0.  1.
         -5    1    3    3    0  502 -0.98054748522E+02 -0.47499614330E+02  0.21387530678E+03  0.24007432999E+03  0.47000000000E+01 0.  1.
        -11    1    1    2    0    0  0.15413614326E+02 -0.25016383976E+02  0.23443219787E+02  0.37589673153E+02  0.00000000000E+00 0.  1.
         11    1    1    2    0    0  0.68429432520E+02  0.50376356763E+02  0.24201588718E+03  0.25649961833E+03  0.00000000000E+00 0. -1.
<mgrwt>
<rscale>  0 0.14565637E+03</rscale>
<asrwt>0</asrwt>
<pdfrwt beam="1">  1        1 0.80499400E-01 0.15263789E+03</pdfrwt>
<pdfrwt beam="2">  1       -1 0.58827853E-02 0.15263789E+03</pdfrwt>
<totfact> 0.56645542E+03</totfact>
</mgrwt>
</event>
<event>
 7    1  0.5400401E-006  0.1253914E+03  0.7546771E-02  0.1249550E+00
         -1   -1    0    0    0  501 -0.00000000000E+00  0.00000000000E+00  0.28634227865E+03  0.28634227865E+03  0.00000000000E+00 0.  1.
          1   -1    0    0  501    0  0.00000000000E+00 -0.00000000000E+00 -0.42410451586E+02  0.42410451586E+02  0.00000000000E+00 0. -1.
         23    2    1    2    0    0 -0.59213831617E+01 -0.78831936245E+01  0.16501953130E+03  0.20725456858E+03  0.12500321182E+03 0.  0.
          5    1    3    3  502    0 -0.38804950825E+02  0.27683186564E+02  0.16016530858E+02  0.50505467898E+02  0.47000000000E+01 0.  1.
         -5    1    3    3    0  502  0.32883567664E+02 -0.35566380189E+02  0.14900300044E+03  0.15674910068E+03  0.47000000000E+01 0.  1.
        -11    1    1    2    0    0  0.16985704360E+01 -0.41437902348E+02  0.46608611190E+02  0.62388681101E+02  0.00000000000E+00 0. -1.
         11    1    1    2    0    0  0.42228127256E+01  0.49321095972E+02  0.32303684578E+02  0.59109480564E+02  0.00000000000E+00 0.  1.
<mgrwt>
<rscale>  0 0.11617137E+03</rscale>
<asrwt>0</asrwt>
<pdfrwt beam="2">  1        1 0.65246850E-02 0.12539143E+03</pdfrwt>
<pdfrwt beam="1">  1       -1 0.44052657E-01 0.12539143E+03</pdfrwt>
<totfact> 0.56467107E+03</totfact>
</mgrwt>
</event>
<event>
 7    1  0.5400401E-006  0.1309224E+03  0.7546771E-02  0.1237656E+00
         -1   -1    0    0    0  501 -0.00000000000E+00  0.00000000000E+00  0.56813232519E+03  0.56813232519E+03  0.00000000000E+00 0.  1.
          1   -1    0    0  501    0  0.00000000000E+00 -0.00000000000E+00 -0.26164480357E+02  0.26164480357E+02  0.00000000000E+00 0. -1.
         23    2    1    2    0    0  0.37061243809E+02  0.12066116704E+02  0.38313262402E+03  0.40488427067E+03  0.12498615156E+03 0.  0.
          5    1    3    3  502    0  0.48272899785E+02 -0.47710098422E+02  0.16749862551E+03  0.18078829025E+03  0.47000000000E+01 0. -1.
         -5    1    3    3    0  502 -0.11211655976E+02  0.59776215126E+02  0.21563399851E+03  0.22409598042E+03  0.47000000000E+01 0. -1.
        -11    1    1    2    0    0 -0.24164518328E+02  0.40534309857E+02  0.91926843449E+02  0.10333198328E+03  0.00000000000E+00 0. -1.
         11    1    1    2    0    0 -0.12896725481E+02 -0.52600426561E+02  0.66908377368E+02  0.86080551604E+02  0.00000000000E+00 0.  1.
<mgrwt>
<rscale>  0 0.12335914E+03</rscale>
<asrwt>0</asrwt>
<pdfrwt beam="2">  1        1 0.40253051E-02 0.13092236E+03</pdfrwt>
<pdfrwt beam="1">  1       -1 0.87404964E-01 0.13092236E+03</pdfrwt>
<totfact> 0.29338897E+03</totfact>
</mgrwt>
</event>
<event>
 7    1  0.5400401E-006  0.1372868E+03  0.7546771E-02  0.1226904E+00
          1   -1    0    0  501    0  0.00000000000E+00  0.00000000000E+00  0.18977017456E+03  0.18977017456E+03  0.00000000000E+00 0. -1.
         -1   -1    0    0    0  501 -0.00000000000E+00 -0.00000000000E+00 -0.92803918732E+02  0.92803918732E+02  0.00000000000E+00 0.  1.
         23    2    1    2    0    0  0.48745567707E+02 -0.29099868851E+02  0.40968144854E+01  0.13734789394E+03  0.12499890936E+03 0.  0.
          5    1    3    3  502    0  0.84010127256E+02 -0.18530827554E+02 -0.25528745936E+02  0.89860446919E+02  0.47000000000E+01 0.  1.
         -5    1    3    3    0  502 -0.35264559549E+02 -0.10569041297E+02  0.29625560421E+02  0.47487447019E+02  0.47000000000E+01 0.  1.
        -11    1    1    2    0    0 -0.32683872314E+02 -0.86204881999E+01 -0.93673362107E+01  0.35075565768E+02  0.00000000000E+00 0.  1.
         11    1    1    2    0    0 -0.16061695393E+02  0.37720357051E+02  0.10223677756E+03  0.11015063359E+03  0.00000000000E+00 0. -1.
<mgrwt>
<rscale>  0 0.13037282E+03</rscale>
<asrwt>0</asrwt>
<pdfrwt beam="1">  1        1 0.29195411E-01 0.13728678E+03</pdfrwt>
<pdfrwt beam="2">  1       -1 0.14277526E-01 0.13728678E+03</pdfrwt>
<totfact> 0.52141451E+03</totfact>
</mgrwt>
</event>
<event>
 7    1  0.5400401E-006  0.1406063E+03  0.7546771E-02  0.1223562E+00
         -1   -1    0    0    0  501 -0.00000000000E+00  0.00000000000E+00  0.97780894611E+02  0.97780894611E+02  0.00000000000E+00 0.  1.
          1   -1    0    0  501    0  0.00000000000E+00 -0.00000000000E+00 -0.18414517528E+03  0.18414517528E+03  0.00000000000E+00 0. -1.
         23    2    1    2    0    0  0.10320161070E+02 -0.63507757494E+02  0.57249769766E+00  0.14060750880E+03  0.12502160930E+03 0.  0.
          5    1    3    3  502    0  0.21547355112E+02  0.70459896255E+01 -0.48544790269E+02  0.53783093481E+02  0.47000000000E+01 0.  1.
         -5    1    3    3    0  502 -0.11227194042E+02 -0.70553747119E+02  0.49117287967E+02  0.86824415321E+02  0.47000000000E+01 0.  1.
        -11    1    1    2    0    0 -0.31534172887E+02  0.75257754954E+02 -0.83632055884E+02  0.11684371832E+03  0.00000000000E+00 0.  1.
         11    1    1    2    0    0  0.21214011817E+02 -0.11749997461E+02 -0.33047224819E+01  0.24474842765E+02  0.00000000000E+00 0. -1.
<mgrwt>
<rscale>  0 0.13265939E+03</rscale>
<asrwt>0</asrwt>
<pdfrwt beam="2">  1        1 0.28330027E-01 0.14060634E+03</pdfrwt>
<pdfrwt beam="1">  1       -1 0.15043215E-01 0.14060634E+03</pdfrwt>
<totfact> 0.49955256E+03</totfact>
</mgrwt>
</event>
<event>
 7    1  0.5400401E-006  0.1342972E+03  0.7546771E-02  0.1233384E+00
          3   -1    0    0  501    0  0.00000000000E+00  0.00000000000E+00  0.13516834245E+03  0.13516834245E+03  0.00000000000E+00 0. -1.
         -3   -1    0    0    0  501 -0.00000000000E+00 -0.00000000000E+00 -0.10965534790E+03  0.10965534790E+03  0.00000000000E+00 0.  1.
         23    2    1    2    0    0 -0.44037755871E+02  0.21419239331E+02  0.38432260691E+02  0.13968812067E+03  0.12505048836E+03 0.  0.
          5    1    3    3  502    0 -0.25656731609E+02  0.58961890694E+02  0.63686850179E+02  0.90624926575E+02  0.47000000000E+01 0.  1.
         -5    1    3    3    0  502 -0.18381024263E+02 -0.37542651363E+02 -0.25254589488E+02  0.49063194092E+02  0.47000000000E+01 0.  1.
        -11    1    1    2    0    0 -0.18773188164E+02  0.12951380906E+02 -0.23511814170E+02  0.32756316441E+02  0.00000000000E+00 0.  1.
         11    1    1    2    0    0  0.62810944035E+02 -0.34370620237E+02  0.10592548021E+02  0.72379253240E+02  0.00000000000E+00 0. -1.
<mgrwt>
<rscale>  0 0.12608447E+03</rscale>
<asrwt>0</asrwt>
<pdfrwt beam="1">  1        3 0.20795129E-01 0.13429718E+03</pdfrwt>
<pdfrwt beam="2">  1       -3 0.16870054E-01 0.13429718E+03</pdfrwt>
<totfact> 0.14546015E+03</totfact>
</mgrwt>
</event>
<event>
 7    1  0.5400401E-006  0.1252068E+03  0.7546771E-02  0.1248788E+00
         -1   -1    0    0    0  501 -0.00000000000E+00  0.00000000000E+00  0.64621940942E+03  0.64621940942E+03  0.00000000000E+00 0.  1.
          1   -1    0    0  501    0  0.00000000000E+00 -0.00000000000E+00 -0.19354742562E+02  0.19354742562E+02  0.00000000000E+00 0. -1.
         23    2    1    2    0    0 -0.50072507054E+00  0.86348342099E+01  0.41995584684E+03  0.43822328118E+03  0.12490764503E+03 0.  0.
          5    1    3    3  502    0 -0.28974106406E+02 -0.36433531706E+02  0.69980800659E+02  0.84180184933E+02  0.47000000000E+01 0.  1.
         -5    1    3    3    0  502  0.28473381335E+02  0.45068365916E+02  0.34997504618E+03  0.35404309624E+03  0.47000000000E+01 0.  1.
        -11    1    1    2    0    0  0.12001876971E+02  0.27665185942E+02  0.17526447144E+03  0.17783993509E+03  0.00000000000E+00 0.  1.
         11    1    1    2    0    0 -0.11501151901E+02 -0.36300020152E+02  0.31644348584E+02  0.49510935715E+02  0.00000000000E+00 0. -1.
<mgrwt>
<rscale>  0 0.11661517E+03</rscale>
<asrwt>0</asrwt>
<pdfrwt beam="2">  1        1 0.29776532E-02 0.12520675E+03</pdfrwt>
<pdfrwt beam="1">  1       -1 0.99418354E-01 0.12520675E+03</pdfrwt>
<totfact> 0.33641567E+03</totfact>
</mgrwt>
</event>
<event>
 7    1  0.5400401E-006  0.1356157E+03  0.7546771E-02  0.1232064E+00
         -2   -1    0    0    0  501 -0.00000000000E+00  0.00000000000E+00  0.32736232092E+02  0.32736232092E+02  0.00000000000E+00 0.  1.
          2   -1    0    0  501    0  0.00000000000E+00 -0.00000000000E+00 -0.51339048400E+03  0.51339048400E+03  0.00000000000E+00 0. -1.
         23    2    1    2    0    0  0.28022469167E+02  0.44531998258E+02 -0.16407251826E+03  0.21286475912E+03  0.12499302691E+03 0.  0.
          5    1    3    3  502    0 -0.38061363651E+02  0.31794247424E+02 -0.12579136501E+03  0.13529633802E+03  0.47000000000E+01 0.  1.
         -5    1    3    3    0  502  0.66083832818E+02  0.12737750834E+02 -0.38281153257E+02  0.77568421093E+02  0.47000000000E+01 0.  1.
        -11    1    1    2    0    0 -0.19776354638E+01 -0.65927376345E+02 -0.15940347262E+03  0.17251028107E+03  0.00000000000E+00 0.  1.
         11    1    1    2    0    0 -0.26044833703E+02  0.21395378086E+02 -0.15717826103E+03  0.16075167591E+03  0.00000000000E+00 0. -1.
<mgrwt>
<rscale>  0 0.12694301E+03</rscale>
<asrwt>0</asrwt>
<pdfrwt beam="2">  1        2 0.78983142E-01 0.13561569E+03</pdfrwt>
<pdfrwt beam="1">  1       -2 0.50363440E-02 0.13561569E+03</pdfrwt>
<totfact> 0.11122947E+04</totfact>
</mgrwt>
</event>
<event>
 7    1  0.5400401E-006  0.1639344E+03  0.7546771E-02  0.1191197E+00
          2   -1    0    0  501    0  0.00000000000E+00  0.00000000000E+00  0.35036609797E+03  0.35036609797E+03  0.00000000000E+00 0. -1.
         -2   -1    0    0    0  501 -0.00000000000E+00 -0.00000000000E+00 -0.69010553063E+02  0.69010553063E+02  0.00000000000E+00 0.  1.
         23    2    1    2    0    0  0.89928965138E+02 -0.56210473250E+02  0.10908281254E+03  0.19690995783E+03  0.12501054126E+03 0.  0.
          5    1    3    3  502    0  0.10985386510E+03 -0.73499182075E+02  0.70327227114E+02  0.14979322520E+03  0.47000000000E+01 0. -1.
         -5    1    3    3    0  502 -0.19924899964E+02  0.17288708825E+02  0.38755585430E+02  0.47116732627E+02  0.47000000000E+01 0. -1.
        -11    1    1    2    0    0 -0.24014717040E+02  0.14757931359E+02 -0.52010919829E+01  0.28662772551E+02  0.00000000000E+00 0.  1.
         11    1    1    2    0    0 -0.65914248098E+02  0.41452541892E+02  0.17747382435E+03  0.19380392065E+03  0.00000000000E+00 0. -1.
<mgrwt>
<rscale>  0 0.15780571E+03</rscale>
<asrwt>0</asrwt>
<pdfrwt beam="1">  1        2 0.53902475E-01 0.16393435E+03</pdfrwt>
<pdfrwt beam="2">  1       -2 0.10617008E-01 0.16393435E+03</pdfrwt>
<totfact> 0.53926832E+03</totfact>
</mgrwt>
</event>
<event>
 7    1  0.5400401E-006  0.1505955E+03  0.7546771E-02  0.1208877E+00
          2   -1    0    0  501    0  0.00000000000E+00  0.00000000000E+00  0.33061217010E+03  0.33061217010E+03  0.00000000000E+00 0. -1.
         -2   -1    0    0    0  501 -0.00000000000E+00 -0.00000000000E+00 -0.66008944700E+02  0.66008944700E+02  0.00000000000E+00 0.  1.
         23    2    1    2    0    0 -0.77712257517E+01 -0.83627603216E+02  0.70061324229E+02  0.16609510353E+03  0.12500010518E+03 0.  0.
          5    1    3    3  502    0 -0.30715240594E+02 -0.43608643111E+02  0.98204542233E+02  0.11185419918E+03  0.47000000000E+01 0.  1.
         -5    1    3    3    0  502  0.22944014842E+02 -0.40018960105E+02 -0.28143218005E+02  0.54240904349E+02  0.47000000000E+01 0.  1.
        -11    1    1    2    0    0 -0.31429235515E+01  0.83603925631E+02  0.20108900958E+03  0.21779872388E+03  0.00000000000E+00 0. -1.
         11    1    1    2    0    0  0.10914149303E+02  0.23677584748E-01 -0.65471084141E+01  0.12727287387E+02  0.00000000000E+00 0.  1.
<mgrwt>
<rscale>  0 0.14336068E+03</rscale>
<asrwt>0</asrwt>
<pdfrwt beam="1">  1        2 0.50863410E-01 0.15059547E+03</pdfrwt>
<pdfrwt beam="2">  1       -2 0.10155222E-01 0.15059547E+03</pdfrwt>
<totfact> 0.61255533E+03</totfact>
</mgrwt>
</event>
<event>
 7    1  0.5400401E-006  0.1278889E+03  0.7546771E-02  0.1244162E+00
          1   -1    0    0  501    0  0.00000000000E+00  0.00000000000E+00  0.28469320731E+02  0.28469320731E+02  0.00000000000E+00 0. -1.
         -1   -1    0    0    0  501 -0.00000000000E+00 -0.00000000000E+00 -0.64598619425E+03  0.64598619425E+03  0.00000000000E+00 0.  1.
         23    2    1    2    0    0  0.24109544443E+02 -0.42600325696E+00 -0.52513425628E+03  0.54048271665E+03  0.12559509653E+03 0.  0.
          5    1    3    3  502    0 -0.91411707297E+01  0.58499208643E+02 -0.27294616785E+03  0.27933388437E+03  0.47000000000E+01 0. -1.
         -5    1    3    3    0  502  0.33250715172E+02 -0.58925211899E+02 -0.25218808843E+03  0.26114883228E+03  0.47000000000E+01 0.  1.
        -11    1    1    2    0    0  0.20942893786E+02  0.78916302000E+01 -0.84771526559E+02  0.87676076227E+02  0.00000000000E+00 0.  1.
         11    1    1    2    0    0 -0.45052438229E+02 -0.74656269430E+01 -0.76110906837E+01  0.46296722102E+02  0.00000000000E+00 0. -1.
<mgrwt>
<rscale>  0 0.11935688E+03</rscale>
<asrwt>0</asrwt>
<pdfrwt beam="1">  1        1 0.43798954E-02 0.12788894E+03</pdfrwt>
<pdfrwt beam="2">  1       -1 0.99382493E-01 0.12788894E+03</pdfrwt>
<totfact> 0.19816237E+03</totfact>
</mgrwt>
</event>
<event>
 7    1  0.5400401E-006  0.1345850E+03  0.7546771E-02  0.1230828E+00
         -3   -1    0    0    0  501 -0.00000000000E+00  0.00000000000E+00  0.66648773859E+02  0.66648773859E+02  0.00000000000E+00 0.  1.
          3   -1    0    0  501    0  0.00000000000E+00 -0.00000000000E+00 -0.24516200747E+03  0.24516200747E+03  0.00000000000E+00 0. -1.
         23    2    1    2    0    0  0.12832678909E+02  0.58928371053E+02 -0.51098912345E+02  0.14395908784E+03  0.12031579101E+03 0.  0.
          5    1    3    3  502    0 -0.50459804289E+02  0.47216081961E+01 -0.15364431568E+02  0.53166165841E+02  0.47000000000E+01 0. -1.
         -5    1    3    3    0  502  0.63292483198E+02  0.54206762857E+02 -0.35734480777E+02  0.90792921999E+02  0.47000000000E+01 0.  1.
        -11    1    1    2    0    0 -0.37698558945E+02 -0.18749275900E+02 -0.10950504133E+03  0.11732037662E+03  0.00000000000E+00 0. -1.
         11    1    1    2    0    0  0.24865880036E+02 -0.40179095153E+02 -0.17909279942E+02  0.50531316877E+02  0.00000000000E+00 0.  1.
<mgrwt>
<rscale>  0 0.12775327E+03</rscale>
<asrwt>0</asrwt>
<pdfrwt beam="2">  1        3 0.37717232E-01 0.13458499E+03</pdfrwt>
<pdfrwt beam="1">  1       -3 0.10253657E-01 0.13458499E+03</pdfrwt>
<totfact> 0.11329640E+03</totfact>
</mgrwt>
</event>
<event>
 7    1  0.5400401E-006  0.1659827E+03  0.7546771E-02  0.1188814E+00
         -1   -1    0    0    0  501 -0.00000000000E+00  0.00000000000E+00  0.10924863381E+04  0.10924863381E+04  0.00000000000E+00 0.  1.
          1   -1    0    0  501    0  0.00000000000E+00 -0.00000000000E+00 -0.28277910435E+02  0.28277910435E+02  0.00000000000E+00 0. -1.
         23    2    1    2    0    0 -0.65392932329E+02  0.87464610290E+02  0.82957898708E+03  0.84602101278E+03  0.12499585836E+03 0.  0.
          5    1    3    3  502    0 -0.22675084753E+02  0.95368038122E+02  0.73861275620E+03  0.74510409728E+03  0.47000000000E+01 0.  1.
         -5    1    3    3    0  502 -0.42717847575E+02 -0.79034278319E+01  0.90966230876E+02  0.10091691549E+03  0.47000000000E+01 0.  1.
        -11    1    1    2    0    0  0.79001297690E+02 -0.34292155476E+02  0.16458300699E+03  0.18575447008E+03  0.00000000000E+00 0. -1.
         11    1    1    2    0    0 -0.13608365362E+02 -0.53172454814E+02  0.70046433629E+02  0.88988765712E+02  0.00000000000E+00 0.  1.
<mgrwt>
<rscale>  0 0.15989626E+03</rscale>
<asrwt>0</asrwt>
<pdfrwt beam="2">  1        1 0.43504486E-02 0.16598270E+03</pdfrwt>
<pdfrwt beam="1">  1       -1 0.16807479E+00 0.16598270E+03</pdfrwt>
<totfact> 0.55896457E+02</totfact>
</mgrwt>
</event>
<event>
 7    1  0.5400401E-006  0.1380599E+03  0.7546771E-02  0.1227701E+00
          2   -1    0    0  501    0  0.00000000000E+00  0.00000000000E+00  0.35306432937E+02  0.35306432937E+02  0.00000000000E+00 0. -1.
         -2   -1    0    0    0  501 -0.00000000000E+00 -0.00000000000E+00 -0.50467256721E+03  0.50467256721E+03  0.00000000000E+00 0.  1.
         23    2    1    2    0    0 -0.58554834828E+02 -0.27784581051E+01 -0.36316577563E+03  0.38852273328E+03  0.12499658065E+03 0.  0.
          5    1    3    3  502    0 -0.67653543693E+02 -0.22192439873E+02 -0.91799128642E+02  0.11626984296E+03  0.47000000000E+01 0.  1.
         -5    1    3    3    0  502  0.90987088654E+01  0.19413981768E+02 -0.27136664699E+03  0.27225289033E+03  0.47000000000E+01 0.  1.
        -11    1    1    2    0    0  0.40086905711E+02 -0.11375767480E+02 -0.11816157013E+03  0.12529375384E+03  0.00000000000E+00 0.  1.
         11    1    1    2    0    0  0.18467929117E+02  0.14154225585E+02  0.11961211488E+02  0.26162513030E+02  0.00000000000E+00 0. -1.
<mgrwt>
<rscale>  0 0.12983453E+03</rscale>
<asrwt>0</asrwt>
<pdfrwt beam="1">  1        2 0.54317591E-02 0.13805989E+03</pdfrwt>
<pdfrwt beam="2">  1       -2 0.77641930E-01 0.13805989E+03</pdfrwt>
<totfact> 0.20627830E+03</totfact>
</mgrwt>
</event>
<event>
 7    1  0.5400401E-006  0.1200838E+03  0.7546771E-02  0.1257002E+00
         -2   -1    0    0    0  501 -0.00000000000E+00  0.00000000000E+00  0.67288827497E+02  0.67288827497E+02  0.00000000000E+00 0.  1.
          2   -1    0    0  501    0  0.00000000000E+00 -0.00000000000E+00 -0.17538243852E+03  0.17538243852E+03  0.00000000000E+00 0. -1.
         23    2    1    2    0    0 -0.36919733535E+01  0.61039999142E+01 -0.31999387186E+02  0.12427416839E+03  0.11987167583E+03 0.  0.
          5    1    3    3  502    0  0.35944157305E+02  0.49124022987E+02 -0.11585127803E+02  0.62140624916E+02  0.47000000000E+01 0. -1.
         -5    1    3    3    0  502 -0.39636130659E+02 -0.43020023073E+02 -0.20414259383E+02  0.62133543476E+02  0.47000000000E+01 0.  1.
        -11    1    1    2    0    0  0.68126439226E+01 -0.25706722863E+02 -0.90204677483E+02  0.94043243019E+02  0.00000000000E+00 0. -1.
         11    1    1    2    0    0 -0.31206705691E+01  0.19602722949E+02  0.14110453649E+02  0.24353854602E+02  0.00000000000E+00 0.  1.
<mgrwt>
<rscale>  0 0.11194945E+03</rscale>
<asrwt>0</asrwt>
<pdfrwt beam="2">  1        2 0.26981914E-01 0.12008375E+03</pdfrwt>
<pdfrwt beam="1">  1       -2 0.10352127E-01 0.12008375E+03</pdfrwt>
<totfact> 0.11521823E+04</totfact>
</mgrwt>
</event>
<event>
 7    1  0.5400401E-006  0.1613612E+03  0.7546771E-02  0.1193893E+00
          2   -1    0    0  501    0  0.00000000000E+00  0.00000000000E+00  0.23313102924E+03  0.23313102924E+03  0.00000000000E+00 0. -1.
         -2   -1    0    0    0  501 -0.00000000000E+00 -0.00000000000E+00 -0.99823382138E+02  0.99823382138E+02  0.00000000000E+00 0.  1.
         23    2    1    2    0    0  0.62633931707E+02 -0.80557094355E+02  0.42596159276E+02  0.16688879676E+03  0.12499993138E+03 0.  0.
          5    1    3    3  502    0  0.77185060075E+02 -0.10147470563E+03  0.14073487271E+02  0.12835420689E+03  0.47000000000E+01 0.  1.
         -5    1    3    3    0  502 -0.14551128368E+02  0.20917611274E+02  0.28522672006E+02  0.38534589871E+02  0.47000000000E+01 0.  1.
        -11    1    1    2    0    0 -0.11859379385E+02  0.11522207351E+02 -0.20071897723E+02  0.26005522872E+02  0.00000000000E+00 0.  1.
         11    1    1    2    0    0 -0.50774552322E+02  0.69034887004E+02  0.11078338555E+03  0.14006009175E+03  0.00000000000E+00 0. -1.
<mgrwt>
<rscale>  0 0.15548277E+03</rscale>
<asrwt>0</asrwt>
<pdfrwt beam="1">  1        2 0.35866312E-01 0.16136120E+03</pdfrwt>
<pdfrwt beam="2">  1       -2 0.15357443E-01 0.16136120E+03</pdfrwt>
<totfact> 0.45884854E+03</totfact>
</mgrwt>
</event>
<event>
 7    1  0.5400401E-006  0.1821436E+03  0.7546771E-02  0.1170209E+00
         -2   -1    0    0    0  501 -0.00000000000E+00  0.00000000000E+00  0.21373205550E+03  0.21373205550E+03  0.00000000000E+00 0. -1.
          2   -1    0    0  501    0  0.00000000000E+00 -0.00000000000E+00 -0.14126291506E+03  0.14126291506E+03  0.00000000000E+00 0.  1.
         23    2    1    2    0    0  0.27358916195E+02 -0.12963053248E+03  0.51330748061E+02  0.18923827161E+03  0.12499476989E+03 0.  0.
          5    1    3    3  502    0 -0.43638814486E+02 -0.90076565852E+02  0.21100816975E+02  0.10239857578E+03  0.47000000000E+01 0.  1.
         -5    1    3    3    0  502  0.70997730680E+02 -0.39553966625E+02  0.30229931086E+02  0.86839695825E+02  0.47000000000E+01 0.  1.
        -11    1    1    2    0    0  0.11791955814E+02  0.56183979421E+02  0.51538731126E+02  0.77148756125E+02  0.00000000000E+00 0. -1.
         11    1    1    2    0    0 -0.39150872008E+02  0.73446553056E+02 -0.30400338747E+02  0.88607942820E+02  0.00000000000E+00 0.  1.
<mgrwt>
<rscale>  0 0.17753665E+03</rscale>
<asrwt>0</asrwt>
<pdfrwt beam="2">  1        2 0.21732756E-01 0.18214356E+03</pdfrwt>
<pdfrwt beam="1">  1       -2 0.32881855E-01 0.18214356E+03</pdfrwt>
<totfact> 0.21404081E+03</totfact>
</mgrwt>
</event>
<event>
 7    1  0.5400401E-006  0.1326694E+03  0.7546771E-02  0.1236907E+00
          1   -1    0    0  501    0  0.00000000000E+00  0.00000000000E+00  0.21131384168E+03  0.21131384168E+03  0.00000000000E+00 0. -1.
         -1   -1    0    0    0  501 -0.00000000000E+00 -0.00000000000E+00 -0.84144135812E+02  0.84144135812E+02  0.00000000000E+00 0.  1.
         23    2    1    2    0    0  0.28779514282E+02 -0.23452143247E+02 -0.73574780078E+00  0.13267148100E+03  0.12736921560E+03 0.  0.
          5    1    3    3  502    0  0.33985601998E+02  0.91378480807E+01  0.56327810585E+02  0.66584034543E+02  0.47000000000E+01 0. -1.
         -5    1    3    3    0  502 -0.52060877160E+01 -0.32589991328E+02 -0.57063558386E+02  0.66087446461E+02  0.47000000000E+01 0.  1.
        -11    1    1    2    0    0  0.31432246468E+02  0.47953910392E+01  0.19247889422E+02  0.37168039233E+02  0.00000000000E+00 0.  1.
         11    1    1    2    0    0 -0.60211760749E+02  0.18656752208E+02  0.10865756425E+03  0.12561845726E+03  0.00000000000E+00 0. -1.
<mgrwt>
<rscale>  0 0.12383146E+03</rscale>
<asrwt>0</asrwt>
<pdfrwt beam="1">  1        1 0.32509822E-01 0.13266944E+03</pdfrwt>
<pdfrwt beam="2">  1       -1 0.12945252E-01 0.13266944E+03</pdfrwt>
<totfact> 0.53021714E+03</totfact>
</mgrwt>
</event>
<event>
 7    1  0.5400401E-006  0.1512312E+03  0.7546771E-02  0.1208343E+00
         -2   -1    0    0    0  501 -0.00000000000E+00  0.00000000000E+00  0.86174325397E+02  0.86174325397E+02  0.00000000000E+00 0.  1.
          2   -1    0    0  501    0  0.00000000000E+00 -0.00000000000E+00 -0.22006771211E+03  0.22006771211E+03  0.00000000000E+00 0. -1.
         23    2    1    2    0    0  0.81323969441E+01 -0.84733521479E+02 -0.63102109553E+02  0.16386807661E+03  0.12499985904E+03 0.  0.
          5    1    3    3  502    0  0.50252908160E+02 -0.47162231839E+02  0.11680611641E+02  0.70058244189E+02  0.47000000000E+01 0.  1.
         -5    1    3    3    0  502 -0.42120511216E+02 -0.37571289640E+02 -0.74782721195E+02  0.93809832425E+02  0.47000000000E+01 0.  1.
        -11    1    1    2    0    0 -0.47865723686E+02  0.41241789149E+02 -0.47421355072E+02  0.78998718933E+02  0.00000000000E+00 0. -1.
         11    1    1    2    0    0  0.39733326742E+02  0.43491732330E+02 -0.23369922089E+02  0.63375241960E+02  0.00000000000E+00 0.  1.
<mgrwt>
<rscale>  0 0.14377109E+03</rscale>
<asrwt>0</asrwt>
<pdfrwt beam="2">  1        2 0.33856571E-01 0.15123118E+03</pdfrwt>
<pdfrwt beam="1">  1       -2 0.13257589E-01 0.15123118E+03</pdfrwt>
<totfact> 0.61812370E+03</totfact>
</mgrwt>
</event>
<event>
 7    1  0.5400401E-006  0.1277288E+03  0.7546771E-02  0.1247941E+00
          2   -1    0    0  501    0  0.00000000000E+00  0.00000000000E+00  0.25598225869E+03  0.25598225869E+03  0.00000000000E+00 0. -1.
         -2   -1    0    0    0  501 -0.00000000000E+00 -0.00000000000E+00 -0.46454226587E+02  0.46454226587E+02  0.00000000000E+00 0.  1.
         23    2    1    2    0    0  0.24386671738E+02 -0.97083320493E+01  0.11820943736E+03  0.17403478673E+03  0.12500269773E+03 0.  0.
          5    1    3    3  502    0  0.24952472966E+02 -0.20634610528E+02 -0.17974827196E+02  0.37330918439E+02  0.47000000000E+01 0. -1.
         -5    1    3    3    0  502 -0.56580122866E+00  0.10926278478E+02  0.13618426455E+03  0.13670386829E+03  0.47000000000E+01 0. -1.
        -11    1    1    2    0    0  0.16478964001E+02  0.37371347656E+02  0.43953816930E+02  0.60000932517E+02  0.00000000000E+00 0. -1.
         11    1    1    2    0    0 -0.40865635739E+02 -0.27663015607E+02  0.47364777817E+02  0.68400766037E+02  0.00000000000E+00 0.  1.
<mgrwt>
<rscale>  0 0.11711090E+03</rscale>
<asrwt>0</asrwt>
<pdfrwt beam="1">  1        2 0.39381885E-01 0.12772876E+03</pdfrwt>
<pdfrwt beam="2">  1       -2 0.71468042E-02 0.12772876E+03</pdfrwt>
<totfact> 0.13702152E+04</totfact>
</mgrwt>
</event>
<event>
 7    1  0.5400401E-006  0.1284695E+03  0.7546771E-02  0.1241588E+00
          2   -1    0    0  501    0  0.00000000000E+00  0.00000000000E+00  0.50997203984E+02  0.50997203984E+02  0.00000000000E+00 0. -1.
         -2   -1    0    0    0  501 -0.00000000000E+00 -0.00000000000E+00 -0.27224512242E+03  0.27224512242E+03  0.00000000000E+00 0.  1.
         23    2    1    2    0    0 -0.17411976861E+02  0.23888416358E+02 -0.16028631214E+03  0.20541693780E+03  0.12502233041E+03 0.  0.
          5    1    3    3  502    0 -0.48702842808E+02 -0.27402206337E+02 -0.34245086265E+02  0.65708931988E+02  0.47000000000E+01 0.  1.
         -5    1    3    3    0  502  0.31290865946E+02  0.51290622695E+02 -0.12604122588E+03  0.13970800582E+03  0.47000000000E+01 0.  1.
        -11    1    1    2    0    0  0.19342145609E+02 -0.42736538950E+02  0.68584288215E+01  0.47408526702E+02  0.00000000000E+00 0. -1.
         11    1    1    2    0    0 -0.19301687477E+01  0.18848122591E+02 -0.67820035111E+02  0.70416861895E+02  0.00000000000E+00 0.  1.
<mgrwt>
<rscale>  0 0.12091955E+03</rscale>
<asrwt>0</asrwt>
<pdfrwt beam="1">  1        2 0.78457238E-02 0.12846952E+03</pdfrwt>
<pdfrwt beam="2">  1       -2 0.41883864E-01 0.12846952E+03</pdfrwt>
<totfact> 0.45048719E+03</totfact>
</mgrwt>
</event>
<event>
 7    1  0.5400401E-006  0.1277303E+03  0.7546771E-02  0.1244435E+00
          2   -1    0    0  501    0  0.00000000000E+00  0.00000000000E+00  0.46992231523E+03  0.46992231523E+03  0.00000000000E+00 0.  1.
         -2   -1    0    0    0  501 -0.00000000000E+00 -0.00000000000E+00 -0.27095649146E+02  0.27095649146E+02  0.00000000000E+00 0. -1.
         23    2    1    2    0    0  0.13925300881E+02 -0.22224417016E+02  0.22732317192E+03  0.26075053898E+03  0.12500872119E+03 0.  0.
          5    1    3    3  502    0  0.55111545928E+02  0.22318649382E+01  0.42573585793E+02  0.69834546773E+02  0.47000000000E+01 0.  1.
         -5    1    3    3    0  502 -0.41186245048E+02 -0.24456281955E+02  0.18474958613E+03  0.19091599221E+03  0.47000000000E+01 0.  1.
        -11    1    1    2    0    0  0.37530347789E+02  0.74054942791E+01  0.12880875886E+03  0.13436913600E+03  0.00000000000E+00 0.  1.
         11    1    1    2    0    0 -0.51455648670E+02  0.14818922737E+02  0.86694735301E+02  0.10189828939E+03  0.00000000000E+00 0. -1.
<mgrwt>
<rscale>  0 0.11919247E+03</rscale>
<asrwt>0</asrwt>
<pdfrwt beam="1">  1        2 0.72295735E-01 0.12773026E+03</pdfrwt>
<pdfrwt beam="2">  1       -2 0.41685617E-02 0.12773026E+03</pdfrwt>
<totfact> 0.16178395E+04</totfact>
</mgrwt>
</event>
<event>
 7    1  0.5400401E-006  0.1374492E+03  0.7546771E-02  0.1228689E+00
          2   -1    0    0  501    0  0.00000000000E+00  0.00000000000E+00  0.15171558345E+03  0.15171558345E+03  0.00000000000E+00 0. -1.
         -2   -1    0    0    0  501 -0.00000000000E+00 -0.00000000000E+00 -0.11598253673E+03  0.11598253673E+03  0.00000000000E+00 0.  1.
         23    2    1    2    0    0 -0.25091672035E+02 -0.51383117702E+02 -0.31678671315E+02  0.14105255371E+03  0.12498987120E+03 0.  0.
          5    1    3    3  502    0 -0.56467090295E+02 -0.67991832082E+02 -0.49116767525E+02  0.10122237089E+03  0.47000000000E+01 0.  1.
         -5    1    3    3    0  502  0.31375418260E+02  0.16608714380E+02  0.17438096210E+02  0.39830182823E+02  0.47000000000E+01 0.  1.
        -11    1    1    2    0    0  0.51460312262E+02  0.13489500371E+02  0.12023291655E+02  0.54540717822E+02  0.00000000000E+00 0.  1.
         11    1    1    2    0    0 -0.26368640227E+02  0.37893617331E+02  0.55388426377E+02  0.72104848647E+02  0.00000000000E+00 0. -1.
<mgrwt>
<rscale>  0 0.12917223E+03</rscale>
<asrwt>0</asrwt>
<pdfrwt beam="1">  1        2 0.23340859E-01 0.13744921E+03</pdfrwt>
<pdfrwt beam="2">  1       -2 0.17843467E-01 0.13744921E+03</pdfrwt>
<totfact> 0.56643861E+03</totfact>
</mgrwt>
</event>
<event>
 7    1  0.5400401E-006  0.1344367E+03  0.7546771E-02  0.1234158E+00
         -2   -1    0    0    0  501 -0.00000000000E+00  0.00000000000E+00  0.90498167809E+02  0.90498167809E+02  0.00000000000E+00 0.  1.
          2   -1    0    0  501    0  0.00000000000E+00 -0.00000000000E+00 -0.20083527394E+03  0.20083527394E+03  0.00000000000E+00 0. -1.
         23    2    1    2    0    0 -0.10596506781E+02  0.48323223426E+02  0.82252921173E+01  0.13468806086E+03  0.12500319368E+03 0.  0.
          5    1    3    3  502    0  0.11502213016E+02 -0.13231081445E+02 -0.46095523116E+02  0.49540384251E+02  0.47000000000E+01 0.  1.
         -5    1    3    3    0  502 -0.22098719797E+02  0.61554304871E+02  0.54320815233E+02  0.85147676612E+02  0.47000000000E+01 0.  1.
        -11    1    1    2    0    0 -0.35462861659E+02 -0.41629689014E+02 -0.75590631051E+02  0.93298387269E+02  0.00000000000E+00 0. -1.
         11    1    1    2    0    0  0.46059368440E+02 -0.66935344125E+01 -0.42971767194E+02  0.63346993613E+02  0.00000000000E+00 0.  1.
<mgrwt>
<rscale>  0 0.12558485E+03</rscale>
<asrwt>0</asrwt>
<pdfrwt beam="2">  1        2 0.30897734E-01 0.13443667E+03</pdfrwt>
<pdfrwt beam="1">  1       -2 0.13922795E-01 0.13443667E+03</pdfrwt>
<totfact> 0.62546955E+03</totfact>
</mgrwt>
</event>
<event>
 7    1  0.5400401E-006  0.1583479E+03  0.7546771E-02  0.1198598E+00
         -2   -1    0    0    0  501 -0.00000000000E+00  0.00000000000E+00  0.14671247445E+03  0.14671247445E+03  0.00000000000E+00 0.  1.
          2   -1    0    0  501    0  0.00000000000E+00 -0.00000000000E+00 -0.19059558234E+03  0.19059558234E+03  0.00000000000E+00 0. -1.
         23    2    1    2    0    0 -0.93107658332E+02  0.27936046332E+02  0.59341171639E+02  0.16910185208E+03  0.12499841200E+03 0.  0.
          5    1    3    3  502    0 -0.48315214192E+02 -0.49121563900E+02  0.27598009779E+02  0.74370882112E+02  0.47000000000E+01 0.  1.
         -5    1    3    3    0  502 -0.44792444140E+02  0.77057610232E+02  0.31743161860E+02  0.94730969971E+02  0.47000000000E+01 0.  1.
        -11    1    1    2    0    0  0.74525371937E+02  0.18889747064E+02 -0.37910638946E+02  0.85720885155E+02  0.00000000000E+00 0.  1.
         11    1    1    2    0    0  0.18582286395E+02 -0.46825793396E+02 -0.65313640585E+02  0.82485319550E+02  0.00000000000E+00 0. -1.
<mgrwt>
<rscale>  0 0.15153594E+03</rscale>
<asrwt>0</asrwt>
<pdfrwt beam="2">  1        2 0.29322397E-01 0.15834791E+03</pdfrwt>
<pdfrwt beam="1">  1       -2 0.22571150E-01 0.15834791E+03</pdfrwt>
<totfact> 0.29811978E+03</totfact>
</mgrwt>
</event>
<event>
 7    1  0.5400401E-006  0.1656581E+03  0.7546771E-02  0.1189366E+00
         -2   -1    0    0    0  501 -0.00000000000E+00  0.00000000000E+00  0.22938808497E+03  0.22938808497E+03  0.00000000000E+00 0.  1.
          2   -1    0    0  501    0  0.00000000000E+00 -0.00000000000E+00 -0.11702013948E+03  0.11702013948E+03  0.00000000000E+00 0. -1.
         23    2    1    2    0    0 -0.19932802249E+01 -0.10871955869E+03  0.11938510580E+03  0.20419450862E+03  0.12497471046E+03 0.  0.
          5    1    3    3  502    0 -0.30213836362E+02  0.18081610412E+02  0.29205287854E+02  0.45987600301E+02  0.47000000000E+01 0.  1.
         -5    1    3    3    0  502  0.28220556137E+02 -0.12680116911E+03  0.90179817946E+02  0.15820690832E+03  0.47000000000E+01 0.  1.
        -11    1    1    2    0    0 -0.38275264189E+02  0.29942307305E+02  0.15341098646E+02  0.50959659763E+02  0.00000000000E+00 0.  1.
         11    1    1    2    0    0  0.40268544414E+02  0.78777251389E+02 -0.22358258958E+02  0.91254056070E+02  0.00000000000E+00 0. -1.
<mgrwt>
<rscale>  0 0.15940887E+03</rscale>
<asrwt>0</asrwt>
<pdfrwt beam="2">  1        2 0.18003098E-01 0.16565806E+03</pdfrwt>
<pdfrwt beam="1">  1       -2 0.35290475E-01 0.16565806E+03</pdfrwt>
<totfact> 0.23190721E+03</totfact>
</mgrwt>
</event>
<event>
 7    1  0.5400401E-006  0.1419816E+03  0.7546771E-02  0.1220839E+00
         -2   -1    0    0    0  501 -0.00000000000E+00  0.00000000000E+00  0.14274328442E+03  0.14274328442E+03  0.00000000000E+00 0.  1.
          2   -1    0    0  501    0  0.00000000000E+00 -0.00000000000E+00 -0.12182827530E+03  0.12182827530E+03  0.00000000000E+00 0. -1.
         23    2    1    2    0    0 -0.55361272563E+02 -0.38348436496E+02  0.42073418907E+02  0.14808428691E+03  0.12499324129E+03 0.  0.
          5    1    3    3  502    0 -0.18741468336E+02 -0.63985625676E+02 -0.21512169641E+02  0.70215855554E+02  0.47000000000E+01 0. -1.
         -5    1    3    3    0  502 -0.36619804226E+02  0.25637189180E+02  0.63585588548E+02  0.77868431355E+02  0.47000000000E+01 0. -1.
        -11    1    1    2    0    0  0.29067115829E+02 -0.63507558291E+01  0.30977264055E+02  0.42951370299E+02  0.00000000000E+00 0.  1.
         11    1    1    2    0    0  0.26294156733E+02  0.44699192325E+02 -0.52135673841E+02  0.73535902521E+02  0.00000000000E+00 0. -1.
<mgrwt>
<rscale>  0 0.13456202E+03</rscale>
<asrwt>0</asrwt>
<pdfrwt beam="2">  1        2 0.18742812E-01 0.14198163E+03</pdfrwt>
<pdfrwt beam="1">  1       -2 0.21960505E-01 0.14198163E+03</pdfrwt>
<totfact> 0.51149637E+03</totfact>
</mgrwt>
</event>
<event>
 7    1  0.7699349E-006  0.2801469E+03  0.7546771E-02  0.1097547E+00
         -3   -1    0    0    0  501 -0.00000000000E+00  0.00000000000E+00  0.76926074072E+03  0.76926074072E+03  0.00000000000E+00 0.  1.
          3   -1    0    0  501    0  0.00000000000E+00 -0.00000000000E+00 -0.11777177324E+03  0.11777177324E+03  0.00000000000E+00 0. -1.
         23    2    1    2    0    0 -0.10739523126E+03 -0.22654757438E+03  0.51852788586E+03  0.58936700529E+03  0.12499903743E+03 0.  0.
          5    1    3    3  502    0 -0.96950229976E+02 -0.21132569549E+03  0.52062510188E+03  0.57020214256E+03  0.47000000000E+01 0.  1.
         -5    1    3    3    0  502 -0.10445001282E+02 -0.15221878886E+02 -0.20972160217E+01  0.19164862735E+02  0.47000000000E+01 0.  1.
        -11    1    1    2    0    0  0.50080347601E+02  0.10423897606E+03  0.11197582828E+03  0.16097326320E+03  0.00000000000E+00 0.  1.
         11    1    1    2    0    0  0.57314883657E+02  0.12230859832E+03  0.20985253340E+02  0.13669224546E+03  0.00000000000E+00 0. -1.
<mgrwt>
<rscale>  0 0.27662419E+03</rscale>
<asrwt>0</asrwt>
<pdfrwt beam="2">  1        3 0.18118735E-01 0.28014692E+03</pdfrwt>
<pdfrwt beam="1">  1       -3 0.11834780E+00 0.28014692E+03</pdfrwt>
<totfact> 0.40744721E+01</totfact>
</mgrwt>
</event>
<event>
 7    1  0.5400401E-006  0.1257364E+03  0.7546771E-02  0.1248892E+00
         -1   -1    0    0    0  501 -0.00000000000E+00  0.00000000000E+00  0.60828759810E+02  0.60828759810E+02  0.00000000000E+00 0.  1.
          1   -1    0    0  501    0  0.00000000000E+00 -0.00000000000E+00 -0.29786513011E+03  0.29786513011E+03  0.00000000000E+00 0. -1.
         23    2    1    2    0    0 -0.31068283068E+01 -0.13277562356E+02 -0.26361552354E+02  0.12847009371E+03  0.12499474985E+03 0.  0.
          5    1    3    3  502    0 -0.57891162472E+02  0.48367791887E+01  0.11350742001E+02  0.59377693364E+02  0.47000000000E+01 0. -1.
         -5    1    3    3    0  502  0.54784334165E+02 -0.18114341544E+02 -0.37712294356E+02  0.69092400343E+02  0.47000000000E+01 0. -1.
        -11    1    1    2    0    0 -0.24766933291E+02  0.30563793724E+02 -0.18338383258E+03  0.18755579576E+03  0.00000000000E+00 0. -1.
         11    1    1    2    0    0  0.27873761598E+02 -0.17286231369E+02 -0.27290985370E+02  0.42668000457E+02  0.00000000000E+00 0.  1.
<mgrwt>
<rscale>  0 0.11655436E+03</rscale>
<asrwt>0</asrwt>
<pdfrwt beam="2">  1        1 0.45825406E-01 0.12573637E+03</pdfrwt>
<pdfrwt beam="1">  1       -1 0.93582704E-02 0.12573637E+03</pdfrwt>
<totfact> 0.56864129E+03</totfact>
</mgrwt>
</event>
<event>
 7    1  0.5400401E-006  0.2145666E+03  0.7546771E-02  0.1141583E+00
         -2   -1    0    0    0  501 -0.00000000000E+00  0.00000000000E+00  0.62379624758E+02  0.62379624758E+02  0.00000000000E+00 0.  1.
          2   -1    0    0  501    0  0.00000000000E+00 -0.00000000000E+00 -0.80518405013E+03  0.80518405013E+03  0.00000000000E+00 0. -1.
         23    2    1    2    0    0 -0.93663994182E+02  0.14710801224E+03 -0.21277120186E+03  0.30217610080E+03  0.12500040194E+03 0.  0.
          5    1    3    3  502    0  0.60760332021E+01  0.10491523102E+03 -0.11916252430E+03  0.15895257493E+03  0.47000000000E+01 0. -1.
         -5    1    3    3    0  502 -0.99740027384E+02  0.42192781218E+02 -0.93608677556E+02  0.14322352587E+03  0.47000000000E+01 0. -1.
        -11    1    1    2    0    0  0.68483277256E+02 -0.26287496543E+02 -0.20171021828E+03  0.21463458225E+03  0.00000000000E+00 0. -1.
         11    1    1    2    0    0  0.25180716927E+02 -0.12082051569E+03 -0.32832300523E+03  0.35075299184E+03  0.00000000000E+00 0.  1.
<mgrwt>
<rscale>  0 0.20997835E+03</rscale>
<asrwt>0</asrwt>
<pdfrwt beam="2">  1        2 0.12387446E+00 0.21456657E+03</pdfrwt>
<pdfrwt beam="1">  1       -2 0.95968657E-02 0.21456657E+03</pdfrwt>
<totfact> 0.24793640E+03</totfact>
</mgrwt>
</event>
<event>
 7    1  0.5400401E-006  0.1316934E+03  0.7546771E-02  0.1235052E+00
          1   -1    0    0  501    0  0.00000000000E+00  0.00000000000E+00  0.12286673181E+02  0.12286673181E+02  0.00000000000E+00 0. -1.
         -1   -1    0    0    0  501 -0.00000000000E+00 -0.00000000000E+00 -0.13560404873E+04  0.13560404873E+04  0.00000000000E+00 0.  1.
         23    2    1    2    0    0  0.41390236527E+02 -0.23295341858E+01 -0.99129980619E+03  0.10000092333E+04  0.12499833005E+03 0.  0.
          5    1    3    3  502    0  0.66847684574E+02  0.23873492356E+02 -0.32511384780E+03  0.33280574004E+03  0.47000000000E+01 0.  1.
         -5    1    3    3    0  502 -0.25457448047E+02 -0.26203026542E+02 -0.66618595838E+03  0.66720349325E+03  0.47000000000E+01 0.  1.
        -11    1    1    2    0    0 -0.57874974833E+02  0.98004276489E+01 -0.34283135877E+03  0.34782021455E+03  0.00000000000E+00 0.  1.
         11    1    1    2    0    0  0.16484738306E+02 -0.74708934631E+01 -0.96226491490E+01  0.20497712624E+02  0.00000000000E+00 0. -1.
<mgrwt>
<rscale>  0 0.12501126E+03</rscale>
<asrwt>0</asrwt>
<pdfrwt beam="1">  1        1 0.18902565E-02 0.13169344E+03</pdfrwt>
<pdfrwt beam="2">  1       -1 0.20862172E+00 0.13169344E+03</pdfrwt>
<totfact> 0.94091305E+02</totfact>
</mgrwt>
</event>
<event>
 7    1  0.5400401E-006  0.1134852E+03  0.7546771E-02  0.1263046E+00
         -2   -1    0    0    0  501 -0.00000000000E+00  0.00000000000E+00  0.46470317969E+02  0.46470317969E+02  0.00000000000E+00 0.  1.
          2   -1    0    0  501    0  0.00000000000E+00 -0.00000000000E+00 -0.26794719732E+03  0.26794719732E+03  0.00000000000E+00 0. -1.
         23    2    1    2    0    0 -0.20240430762E+02 -0.38519907752E+00 -0.64014816851E+02  0.13029497169E+03  0.11166494282E+03 0.  0.
          5    1    3    3  502    0  0.42521178199E+02 -0.75938558493E+01 -0.50336975534E+01  0.43739517066E+02  0.47000000000E+01 0. -1.
         -5    1    3    3    0  502 -0.62761608962E+02  0.72086567718E+01 -0.58981119297E+02  0.86555454626E+02  0.47000000000E+01 0.  1.
        -11    1    1    2    0    0  0.38313212496E+02 -0.27880234324E+02 -0.40147326678E+02  0.62104891572E+02  0.00000000000E+00 0. -1.
         11    1    1    2    0    0 -0.18072781734E+02  0.28265433401E+02 -0.11731473582E+03  0.12201765202E+03  0.00000000000E+00 0.  1.
<mgrwt>
<rscale>  0 0.10867386E+03</rscale>
<asrwt>0</asrwt>
<pdfrwt beam="2">  1        2 0.41222646E-01 0.11348517E+03</pdfrwt>
<pdfrwt beam="1">  1       -2 0.71492796E-02 0.11348517E+03</pdfrwt>
<totfact> 0.12916512E+04</totfact>
</mgrwt>
</event>
<event>
 7    1  0.5400401E-006  0.1347914E+03  0.7546771E-02  0.1226799E+00
          2   -1    0    0  501    0  0.00000000000E+00  0.00000000000E+00  0.40416052323E+03  0.40416052323E+03  0.00000000000E+00 0. -1.
         -2   -1    0    0    0  501 -0.00000000000E+00 -0.00000000000E+00 -0.41053470082E+02  0.41053470082E+02  0.00000000000E+00 0.  1.
         23    2    1    2    0    0  0.75093470105E+02  0.87192701991E+01  0.15120362597E+03  0.20256174293E+03  0.11159600470E+03 0.  0.
          5    1    3    3  502    0  0.79641511941E+02 -0.33542861680E+02  0.72119145148E+02  0.11265502692E+03  0.47000000000E+01 0. -1.
         -5    1    3    3    0  502 -0.45480418362E+01  0.42262131879E+02  0.79084480824E+02  0.89906716004E+02  0.47000000000E+01 0.  1.
        -11    1    1    2    0    0 -0.42619189346E+02  0.17013707553E+02  0.27171269669E+02  0.53330473846E+02  0.00000000000E+00 0.  1.
         11    1    1    2    0    0 -0.32474280759E+02 -0.25732977752E+02  0.18473215750E+03  0.18932177654E+03  0.00000000000E+00 0. -1.
<mgrwt>
<rscale>  0 0.13044385E+03</rscale>
<asrwt>0</asrwt>
<pdfrwt beam="1">  1        2 0.62178539E-01 0.13479141E+03</pdfrwt>
<pdfrwt beam="2">  1       -2 0.63159188E-02 0.13479141E+03</pdfrwt>
<totfact> 0.10235801E+04</totfact>
</mgrwt>
</event>
<event>
 7    1  0.5400401E-006  0.1361091E+03  0.7546771E-02  0.1218923E+00
          2   -1    0    0  501    0  0.00000000000E+00  0.00000000000E+00  0.73598007798E+02  0.73598007798E+02  0.00000000000E+00 0. -1.
         -2   -1    0    0    0  501 -0.00000000000E+00 -0.00000000000E+00 -0.25060633677E+03  0.25060633677E+03  0.00000000000E+00 0.  1.
         23    2    1    2    0    0  0.23932377814E+02 -0.48239139664E+02 -0.83450738001E+02  0.15965497038E+03  0.12500364230E+03 0.  0.
          5    1    3    3  502    0  0.20491335062E+02  0.68958483153E+01  0.27695562660E+02  0.35448296541E+02  0.47000000000E+01 0. -1.
         -5    1    3    3    0  502  0.34410427524E+01 -0.55134987979E+02 -0.11114630066E+03  0.12420667384E+03  0.47000000000E+01 0. -1.
        -11    1    1    2    0    0  0.21731267715E+01  0.26527091514E+02  0.27826235959E+02  0.38505953719E+02  0.00000000000E+00 0. -1.
         11    1    1    2    0    0 -0.26105504586E+02  0.21712048150E+02 -0.12138382693E+03  0.12604342047E+03  0.00000000000E+00 0.  1.
<mgrwt>
<rscale>  0 0.13592249E+03</rscale>
<asrwt>0</asrwt>
<pdfrwt beam="1">  1        2 0.11322771E-01 0.13610909E+03</pdfrwt>
<pdfrwt beam="2">  1       -2 0.38554820E-01 0.13610909E+03</pdfrwt>
<totfact> 0.33646672E+03</totfact>
</mgrwt>
</event>
<event>
 7    1  0.5400401E-006  0.1256532E+03  0.7546771E-02  0.1248692E+00
          1   -1    0    0  501    0  0.00000000000E+00  0.00000000000E+00  0.37580290294E+03  0.37580290294E+03  0.00000000000E+00 0. -1.
         -1   -1    0    0    0  501 -0.00000000000E+00 -0.00000000000E+00 -0.32862308104E+02  0.32862308104E+02  0.00000000000E+00 0.  1.
         23    2    1    2    0    0 -0.12728542715E+02 -0.12673226885E+01  0.16177022082E+03  0.20483730734E+03  0.12500038491E+03 0.  0.
          5    1    3    3  502    0  0.19783892380E+02 -0.57244358016E+02  0.78312209274E+02  0.99112113506E+02  0.47000000000E+01 0.  1.
         -5    1    3    3    0  502 -0.32512435095E+02  0.55977035327E+02  0.83458011548E+02  0.10572519383E+03  0.47000000000E+01 0.  1.
        -11    1    1    2    0    0  0.42405815812E+02 -0.21321392595E+02  0.56985022692E+02  0.74162981386E+02  0.00000000000E+00 0. -1.
         11    1    1    2    0    0 -0.29677273097E+02  0.22588715284E+02  0.12418535133E+03  0.12966492232E+03  0.00000000000E+00 0.  1.
<mgrwt>
<rscale>  0 0.11667129E+03</rscale>
<asrwt>0</asrwt>
<pdfrwt beam="1">  1        1 0.57815828E-01 0.12565317E+03</pdfrwt>
<pdfrwt beam="2">  1       -1 0.50557400E-02 0.12565317E+03</pdfrwt>
<totfact> 0.10703312E+04</totfact>
</mgrwt>
</event>
<event>
 7    1  0.5400401E-006  0.1383181E+03  0.7546771E-02  0.1226369E+00
          1   -1    0    0  501    0  0.00000000000E+00  0.00000000000E+00  0.31212358465E+03  0.31212358465E+03  0.00000000000E+00 0. -1.
         -1   -1    0    0    0  501 -0.00000000000E+00 -0.00000000000E+00 -0.50995537512E+02  0.50995537512E+02  0.00000000000E+00 0.  1.
         23    2    1    2    0    0 -0.18256926471E+02  0.56332783745E+02  0.11437347670E+03  0.17948033210E+03  0.12500079819E+03 0.  0.
          5    1    3    3  502    0 -0.52693054094E+01 -0.22539812378E+02  0.93908896448E+02  0.96833772794E+02  0.47000000000E+01 0. -1.
         -5    1    3    3    0  502 -0.12987621062E+02  0.78872596124E+02  0.20464580253E+02  0.82646559306E+02  0.47000000000E+01 0. -1.
        -11    1    1    2    0    0  0.14925807037E+02 -0.28100794631E+02  0.15151075181E+03  0.15481583346E+03  0.00000000000E+00 0. -1.
         11    1    1    2    0    0  0.33311194343E+01 -0.28231989115E+02 -0.47561813755E+01  0.28822956603E+02  0.00000000000E+00 0.  1.
<mgrwt>
<rscale>  0 0.13073542E+03</rscale>
<asrwt>0</asrwt>
<pdfrwt beam="1">  1        1 0.48019012E-01 0.13831810E+03</pdfrwt>
<pdfrwt beam="2">  1       -1 0.78454675E-02 0.13831810E+03</pdfrwt>
<totfact> 0.70501323E+03</totfact>
</mgrwt>
</event>
<event>
 7    1  0.5400401E-006  0.1283763E+03  0.7546771E-02  0.1245622E+00
          1   -1    0    0  501    0  0.00000000000E+00  0.00000000000E+00  0.60473390149E+02  0.60473390149E+02  0.00000000000E+00 0. -1.
         -1   -1    0    0    0  501 -0.00000000000E+00 -0.00000000000E+00 -0.20298232838E+03  0.20298232838E+03  0.00000000000E+00 0.  1.
         23    2    1    2    0    0 -0.10273402568E+02  0.27073895470E+02 -0.85704131912E+02  0.15435571028E+03  0.12506777544E+03 0.  0.
          5    1    3    3  502    0  0.25598062930E+02  0.65974562390E+02 -0.68277103791E+02  0.98446719653E+02  0.47000000000E+01 0.  1.
         -5    1    3    3    0  502 -0.35871465497E+02 -0.38900666920E+02 -0.17427028121E+02  0.55908990626E+02  0.47000000000E+01 0.  1.
        -11    1    1    2    0    0  0.28181334513E+02  0.23313052181E+02 -0.37136507007E+02  0.52122990797E+02  0.00000000000E+00 0. -1.
         11    1    1    2    0    0 -0.17907931945E+02 -0.50386947651E+02 -0.19668299313E+02  0.56977017454E+02  0.00000000000E+00 0.  1.
<mgrwt>
<rscale>  0 0.11848241E+03</rscale>
<asrwt>0</asrwt>
<pdfrwt beam="1">  1        1 0.93035984E-02 0.12837635E+03</pdfrwt>
<pdfrwt beam="2">  1       -1 0.31228051E-01 0.12837635E+03</pdfrwt>
<totfact> 0.63762558E+03</totfact>
</mgrwt>
</event>
<event>
 6    1  0.5400401E-006  0.2895951E+03  0.7546771E-02  0.1128258E+00
         -2   -1    0    0    0  501 -0.00000000000E+00  0.00000000000E+00  0.38689957981E+02  0.38689957981E+02  0.00000000000E+00 0.  1.
          2   -1    0    0  501    0  0.00000000000E+00 -0.00000000000E+00 -0.10381062361E+04  0.10381062361E+04  0.00000000000E+00 0. -1.
          5    1    1    2  502    0 -0.94127113699E+02  0.55680786605E+02 -0.69870409367E+03  0.70722681231E+03  0.47000000000E+01 0. -1.
         -5    1    1    2    0  502  0.45331127789E+02 -0.16751012730E+02  0.60195901939E+00  0.48558829565E+02  0.47000000000E+01 0.  1.
        -11    1    1    2    0    0  0.75005161727E+02 -0.32551231622E+02 -0.25011441019E+03  0.26313983953E+03  0.00000000000E+00 0.  1.
         11    1    1    2    0    0 -0.26209175818E+02 -0.63785422527E+01 -0.51199733299E+02  0.57870712699E+02  0.00000000000E+00 0. -1.
<mgrwt>
<rscale>  0 0.22771622E+03</rscale>
<asrwt>0</asrwt>
<pdfrwt beam="2">  1        2 0.15970868E+00 0.28959514E+03</pdfrwt>
<pdfrwt beam="1">  1       -2 0.59523004E-02 0.28959514E+03</pdfrwt>
<totfact> 0.37255712E+03</totfact>
</mgrwt>
</event>
<event>
 7    1  0.5400401E-006  0.1500527E+03  0.7546771E-02  0.1206504E+00
          2   -1    0    0  501    0  0.00000000000E+00  0.00000000000E+00  0.51674518774E+03  0.51674518774E+03  0.00000000000E+00 0. -1.
         -2   -1    0    0    0  501 -0.00000000000E+00 -0.00000000000E+00 -0.39121291750E+02  0.39121291750E+02  0.00000000000E+00 0.  1.
         23    2    1    2    0    0  0.72592161576E+02 -0.40242178044E+02  0.21563042271E+03  0.26270192721E+03  0.12500707397E+03 0.  0.
          5    1    3    3  502    0  0.33070488957E+02  0.25141474789E+02  0.16668129394E+03  0.17184439107E+03  0.47000000000E+01 0. -1.
         -5    1    3    3    0  502  0.39521672619E+02 -0.65383652833E+02  0.48949128775E+02  0.90857536133E+02  0.47000000000E+01 0. -1.
        -11    1    1    2    0    0 -0.65339546852E+02 -0.18049145564E+02  0.17967548078E+03  0.19203725272E+03  0.00000000000E+00 0. -1.
         11    1    1    2    0    0 -0.72526147236E+01  0.58291323608E+02  0.82317992489E+02  0.10112729956E+03  0.00000000000E+00 0.  1.
<mgrwt>
<rscale>  0 0.14519578E+03</rscale>
<asrwt>0</asrwt>
<pdfrwt beam="1">  1        2 0.79499255E-01 0.15005274E+03</pdfrwt>
<pdfrwt beam="2">  1       -2 0.60186606E-02 0.15005274E+03</pdfrwt>
<totfact> 0.84933446E+03</totfact>
</mgrwt>
</event>
<event>
 7    1  0.5400401E-006  0.1378390E+03  0.7546771E-02  0.1227475E+00
          2   -1    0    0  501    0  0.00000000000E+00  0.00000000000E+00  0.61381960349E+03  0.61381960349E+03  0.00000000000E+00 0. -1.
         -2   -1    0    0    0  501 -0.00000000000E+00 -0.00000000000E+00 -0.27150912529E+02  0.27150912529E+02  0.00000000000E+00 0.  1.
         23    2    1    2    0    0  0.43904658806E+02 -0.38032794867E+02  0.23129967884E+03  0.26925664826E+03  0.12500195458E+03 0.  0.
          5    1    3    3  502    0  0.14705729452E+02 -0.70228746247E+02  0.63746349903E+02  0.96093820842E+02  0.47000000000E+01 0. -1.
         -5    1    3    3    0  502  0.29198929354E+02  0.32195951380E+02  0.16755332894E+03  0.17316282742E+03  0.47000000000E+01 0. -1.
        -11    1    1    2    0    0  0.67875937949E+01  0.51904789489E+02  0.12679609890E+03  0.13717663539E+03  0.00000000000E+00 0.  1.
         11    1    1    2    0    0 -0.50692252601E+02 -0.13871994622E+02  0.22857291321E+03  0.23453723236E+03  0.00000000000E+00 0. -1.
<mgrwt>
<rscale>  0 0.12998697E+03</rscale>
<asrwt>0</asrwt>
<pdfrwt beam="1">  1        2 0.94433775E-01 0.13783904E+03</pdfrwt>
<pdfrwt beam="2">  1       -2 0.41770639E-02 0.13783904E+03</pdfrwt>
<totfact> 0.12054330E+04</totfact>
</mgrwt>
</event>
<event>
 7    1  0.5400401E-006  0.1555531E+03  0.7546771E-02  0.1202193E+00
         -2   -1    0    0    0  501 -0.00000000000E+00  0.00000000000E+00  0.20288578200E+03  0.20288578200E+03  0.00000000000E+00 0.  1.
          2   -1    0    0  501    0  0.00000000000E+00 -0.00000000000E+00 -0.11174556213E+03  0.11174556213E+03  0.00000000000E+00 0. -1.
         23    2    1    2    0    0 -0.66171626605E+01  0.92329082121E+02  0.99711793469E+02  0.18476797274E+03  0.12501326228E+03 0.  0.
          5    1    3    3  502    0  0.37345571092E+02  0.98962700211E+02  0.90126587242E+02  0.13904387596E+03  0.47000000000E+01 0.  1.
         -5    1    3    3    0  502 -0.43962733752E+02 -0.66336180894E+01  0.95852062265E+01  0.45724096780E+02  0.47000000000E+01 0.  1.
        -11    1    1    2    0    0  0.44896161703E+02 -0.32206916115E+02  0.10135519078E+02  0.56175435274E+02  0.00000000000E+00 0.  1.
         11    1    1    2    0    0 -0.38278999042E+02 -0.60122166007E+02 -0.18707092675E+02  0.73687936118E+02  0.00000000000E+00 0. -1.
<mgrwt>
<rscale>  0 0.14860849E+03</rscale>
<asrwt>0</asrwt>
<pdfrwt beam="2">  1        2 0.17191625E-01 0.15555308E+03</pdfrwt>
<pdfrwt beam="1">  1       -2 0.31213197E-01 0.15555308E+03</pdfrwt>
<totfact> 0.30549226E+03</totfact>
</mgrwt>
</event>
<event>
 7    1  0.5400401E-006  0.1312742E+03  0.7546771E-02  0.1236215E+00
         -1   -1    0    0    0  501 -0.00000000000E+00  0.00000000000E+00  0.29508481759E+02  0.29508481759E+02  0.00000000000E+00 0.  1.
          1   -1    0    0  501    0  0.00000000000E+00 -0.00000000000E+00 -0.57237026624E+03  0.57237026624E+03  0.00000000000E+00 0. -1.
         23    2    1    2    0    0 -0.25184764732E+02 -0.31207103043E+02 -0.17228559639E+03  0.21659924160E+03  0.12499899633E+03 0.  0.
          5    1    3    3  502    0  0.17951136096E+02  0.42142357666E+02 -0.59586295829E+02  0.75304968278E+02  0.47000000000E+01 0.  1.
         -5    1    3    3    0  502 -0.43135900828E+02 -0.73349460709E+02 -0.11269930056E+03  0.14129427332E+03  0.47000000000E+01 0.  1.
        -11    1    1    2    0    0  0.52507054191E+02  0.47359135692E+02 -0.29405131976E+03  0.30243355820E+03  0.00000000000E+00 0.  1.
         11    1    1    2    0    0 -0.27322289459E+02 -0.16152032649E+02 -0.76524868334E+02  0.82845948202E+02  0.00000000000E+00 0. -1.
<mgrwt>
<rscale>  0 0.12426998E+03</rscale>
<asrwt>0</asrwt>
<pdfrwt beam="2">  1        1 0.88056963E-01 0.13127416E+03</pdfrwt>
<pdfrwt beam="1">  1       -1 0.45397665E-02 0.13127416E+03</pdfrwt>
<totfact> 0.73192798E+03</totfact>
</mgrwt>
</event>
<event>
 7    1  0.5400401E-006  0.3069939E+03  0.7546771E-02  0.1083253E+00
         -3   -1    0    0    0  501 -0.00000000000E+00  0.00000000000E+00  0.63387396325E+03  0.63387396325E+03  0.00000000000E+00 0.  1.
          3   -1    0    0  501    0  0.00000000000E+00 -0.00000000000E+00 -0.19715720586E+03  0.19715720586E+03  0.00000000000E+00 0. -1.
         23    2    1    2    0    0 -0.22216976648E+03 -0.17105837149E+03  0.43911649411E+03  0.53578780773E+03  0.12499963167E+03 0.  0.
          5    1    3    3  502    0 -0.16199656634E+03 -0.15330116492E+03  0.40934216733E+03  0.46618369193E+03  0.47000000000E+01 0. -1.
         -5    1    3    3    0  502 -0.60173200140E+02 -0.17757206571E+02  0.29774326780E+02  0.69604115794E+02  0.47000000000E+01 0. -1.
        -11    1    1    2    0    0  0.11429178530E+03  0.61629750582E+02  0.39941945119E+02  0.13585358782E+03  0.00000000000E+00 0. -1.
         11    1    1    2    0    0  0.10787798118E+03  0.10942862091E+03 -0.42341681837E+02  0.15938977357E+03  0.00000000000E+00 0.  1.
<mgrwt>
<rscale>  0 0.30401065E+03</rscale>
<asrwt>0</asrwt>
<pdfrwt beam="2">  1        3 0.30331878E-01 0.30699394E+03</pdfrwt>
<pdfrwt beam="1">  1       -3 0.97519071E-01 0.30699394E+03</pdfrwt>
<totfact> 0.25188503E+01</totfact>
</mgrwt>
</event>
<event>
 7    1  0.5400401E-006  0.1287272E+03  0.7546771E-02  0.1243428E+00
          1   -1    0    0  501    0  0.00000000000E+00  0.00000000000E+00  0.12793073892E+03  0.12793073892E+03  0.00000000000E+00 0. -1.
         -1   -1    0    0    0  501 -0.00000000000E+00 -0.00000000000E+00 -0.99384284601E+02  0.99384284601E+02  0.00000000000E+00 0.  1.
         23    2    1    2    0    0  0.14450142829E+02 -0.27150700037E+02  0.11289478051E+02  0.12922125629E+03  0.12499885448E+03 0.  0.
          5    1    3    3  502    0  0.31997372264E+02  0.36472275055E+02  0.33815286730E+02  0.59326404713E+02  0.47000000000E+01 0. -1.
         -5    1    3    3    0  502 -0.17547229435E+02 -0.63622975092E+02 -0.22525808680E+02  0.69894851578E+02  0.47000000000E+01 0. -1.
        -11    1    1    2    0    0 -0.42698680421E+02  0.30259052969E+02 -0.15640811915E+02  0.54620715792E+02  0.00000000000E+00 0.  1.
         11    1    1    2    0    0  0.28248537592E+02 -0.31083529324E+01  0.32897788182E+02  0.43473051438E+02  0.00000000000E+00 0. -1.
<mgrwt>
<rscale>  0 0.11979986E+03</rscale>
<asrwt>0</asrwt>
<pdfrwt beam="1">  1        1 0.19681652E-01 0.12872716E+03</pdfrwt>
<pdfrwt beam="2">  1       -1 0.15289890E-01 0.12872716E+03</pdfrwt>
<totfact> 0.76570841E+03</totfact>
</mgrwt>
</event>
<event>
 7    1  0.5400401E-006  0.1256087E+03  0.7546771E-02  0.1249114E+00
          1   -1    0    0  501    0  0.00000000000E+00  0.00000000000E+00  0.15901900589E+03  0.15901900589E+03  0.00000000000E+00 0. -1.
         -1   -1    0    0    0  501 -0.00000000000E+00 -0.00000000000E+00 -0.75088223895E+02  0.75088223895E+02  0.00000000000E+00 0.  1.
         23    2    1    2    0    0 -0.11470428734E+02  0.46282236071E+01  0.53532011483E+02  0.13654019708E+03  0.12499823190E+03 0.  0.
          5    1    3    3  502    0 -0.52975809875E+02 -0.21497552169E+01  0.72685272944E+02  0.90090492186E+02  0.47000000000E+01 0. -1.
         -5    1    3    3    0  502  0.41505381141E+02  0.67779788240E+01 -0.19153261461E+02  0.46449704898E+02  0.47000000000E+01 0. -1.
        -11    1    1    2    0    0  0.25433147608E+02  0.18749487442E+02  0.53316658762E+02  0.61976240432E+02  0.00000000000E+00 0. -1.
         11    1    1    2    0    0 -0.13962718874E+02 -0.23377711049E+02 -0.22917888252E+02  0.35590792266E+02  0.00000000000E+00 0.  1.
<mgrwt>
<rscale>  0 0.11642522E+03</rscale>
<asrwt>0</asrwt>
<pdfrwt beam="1">  1        1 0.24464462E-01 0.12560871E+03</pdfrwt>
<pdfrwt beam="2">  1       -1 0.11552034E-01 0.12560871E+03</pdfrwt>
<totfact> 0.89715599E+03</totfact>
</mgrwt>
</event>
<event>
 7    1  0.5400401E-006  0.1410807E+03  0.7546771E-02  0.1222098E+00
         -1   -1    0    0    0  501 -0.00000000000E+00  0.00000000000E+00  0.32961265693E+03  0.32961265693E+03  0.00000000000E+00 0.  1.
          1   -1    0    0  501    0  0.00000000000E+00 -0.00000000000E+00 -0.50282449491E+02  0.50282449491E+02  0.00000000000E+00 0. -1.
         23    2    1    2    0    0  0.34451280020E+02 -0.55586786672E+02  0.18152126394E+03  0.22989942463E+03  0.12500797828E+03 0.  0.
          5    1    3    3  502    0  0.85987202050E+00 -0.41466773571E+02  0.18801235238E+03  0.19259015379E+03  0.47000000000E+01 0. -1.
         -5    1    3    3    0  502  0.33591407999E+02 -0.14120013101E+02 -0.64910884345E+01  0.37309270837E+02  0.47000000000E+01 0. -1.
        -11    1    1    2    0    0  0.22627882141E+02  0.20151696221E+02  0.71838054099E+02  0.77966774510E+02  0.00000000000E+00 0.  1.
         11    1    1    2    0    0 -0.57079162161E+02  0.35435090452E+02  0.25970889394E+02  0.72028907282E+02  0.00000000000E+00 0. -1.
<mgrwt>
<rscale>  0 0.13367786E+03</rscale>
<asrwt>0</asrwt>
<pdfrwt beam="2">  1        1 0.77357616E-02 0.14108074E+03</pdfrwt>
<pdfrwt beam="1">  1       -1 0.50709638E-01 0.14108074E+03</pdfrwt>
<totfact> 0.35088626E+03</totfact>
</mgrwt>
</event>
<event>
 7    1  0.5400401E-006  0.1302359E+03  0.7546771E-02  0.1240901E+00
          1   -1    0    0  501    0  0.00000000000E+00  0.00000000000E+00  0.54302016896E+02  0.54302016896E+02  0.00000000000E+00 0. -1.
         -1   -1    0    0    0  501 -0.00000000000E+00 -0.00000000000E+00 -0.24061478631E+03  0.24061478631E+03  0.00000000000E+00 0.  1.
         23    2    1    2    0    0 -0.89073669765E+01 -0.35466338078E+02 -0.11286783776E+03  0.17233843948E+03  0.12499674635E+03 0.  0.
          5    1    3    3  502    0 -0.25295826501E+02 -0.24483445486E+01 -0.12919144539E+03  0.13175125347E+03  0.47000000000E+01 0. -1.
         -5    1    3    3    0  502  0.16388459525E+02 -0.33017993529E+02  0.16323607627E+02  0.40587186010E+02  0.47000000000E+01 0. -1.
        -11    1    1    2    0    0 -0.34814422782E+02  0.16017162881E+02 -0.44028164010E+01  0.38574322193E+02  0.00000000000E+00 0. -1.
         11    1    1    2    0    0  0.43721789758E+02  0.19449175196E+02 -0.69042115253E+02  0.84004041534E+02  0.00000000000E+00 0.  1.
<mgrwt>
<rscale>  0 0.12134130E+03</rscale>
<asrwt>0</asrwt>
<pdfrwt beam="1">  1        1 0.83541562E-02 0.13023590E+03</pdfrwt>
<pdfrwt beam="2">  1       -1 0.37017660E-01 0.13023590E+03</pdfrwt>
<totfact> 0.55111966E+03</totfact>
</mgrwt>
</event>
<event>
 7    1  0.5400401E-006  0.2659541E+03  0.7546771E-02  0.1105588E+00
         -2   -1    0    0    0  501 -0.00000000000E+00  0.00000000000E+00  0.10050717742E+03  0.10050717742E+03  0.00000000000E+00 0.  1.
          2   -1    0    0  501    0  0.00000000000E+00 -0.00000000000E+00 -0.87171314882E+03  0.87171314882E+03  0.00000000000E+00 0. -1.
         23    2    1    2    0    0 -0.21470359313E+03  0.94915561568E+02 -0.15897708394E+03  0.30984721481E+03  0.12499994631E+03 0.  0.
          5    1    3    3  502    0 -0.22235464293E+03  0.64685766502E+02 -0.12389333739E+03  0.26267372284E+03  0.47000000000E+01 0.  1.
         -5    1    3    3    0  502  0.76510498023E+01  0.30229795066E+02 -0.35083746551E+02  0.47173491973E+02  0.47000000000E+01 0.  1.
        -11    1    1    2    0    0  0.10426900608E+03 -0.93167009449E+02 -0.38779606803E+03  0.41223525766E+03  0.00000000000E+00 0.  1.
         11    1    1    2    0    0  0.11043458705E+03 -0.17485521185E+01 -0.22443281943E+03  0.25013785377E+03  0.00000000000E+00 0. -1.
<mgrwt>
<rscale>  0 0.26260589E+03</rscale>
<asrwt>0</asrwt>
<pdfrwt beam="2">  1        2 0.13410971E+00 0.26595410E+03</pdfrwt>
<pdfrwt beam="1">  1       -2 0.15462643E-01 0.26595410E+03</pdfrwt>
<totfact> 0.10336978E+03</totfact>
</mgrwt>
</event>
<event>
 7    1  0.5400401E-006  0.1393379E+03  0.7546771E-02  0.1225391E+00
         -2   -1    0    0    0  501 -0.00000000000E+00  0.00000000000E+00  0.36318071809E+03  0.36318071809E+03  0.00000000000E+00 0.  1.
          2   -1    0    0  501    0  0.00000000000E+00 -0.00000000000E+00 -0.43416942122E+02  0.43416942122E+02  0.00000000000E+00 0. -1.
         23    2    1    2    0    0  0.51396736143E+02 -0.33874369237E+02  0.15553810016E+03  0.20882325052E+03  0.12500380785E+03 0.  0.
          5    1    3    3  502    0  0.78028556354E+02 -0.62335011312E+02  0.10813266387E+03  0.14727142370E+03  0.47000000000E+01 0. -1.
         -5    1    3    3    0  502 -0.26631820211E+02  0.28460642074E+02  0.47405436285E+02  0.61551826817E+02  0.47000000000E+01 0. -1.
        -11    1    1    2    0    0 -0.22019184771E+02  0.44235450570E+02  0.15860026957E+03  0.16611943021E+03  0.00000000000E+00 0.  1.
         11    1    1    2    0    0 -0.29377551372E+02 -0.10361081333E+02  0.56254062381E+01  0.31654979487E+02  0.00000000000E+00 0. -1.
<mgrwt>
<rscale>  0 0.13140141E+03</rscale>
<asrwt>0</asrwt>
<pdfrwt beam="2">  1        2 0.66795298E-02 0.13933790E+03</pdfrwt>
<pdfrwt beam="1">  1       -2 0.55873955E-01 0.13933790E+03</pdfrwt>
<totfact> 0.31530253E+03</totfact>
</mgrwt>
</event>
<event>
 7    1  0.5400401E-006  0.1696233E+03  0.7546771E-02  0.1184717E+00
          2   -1    0    0  501    0  0.00000000000E+00  0.00000000000E+00  0.14077903206E+04  0.14077903206E+04  0.00000000000E+00 0. -1.
         -2   -1    0    0    0  501 -0.00000000000E+00 -0.00000000000E+00 -0.17810002417E+02  0.17810002417E+02  0.00000000000E+00 0.  1.
         23    2    1    2    0    0  0.11460483504E+03 -0.54473081970E+01  0.71105119599E+03  0.73100333684E+03  0.12493251684E+03 0.  0.
          5    1    3    3  502    0  0.21788851228E+02  0.52093469450E+02  0.17582046870E+03  0.18472523058E+03  0.47000000000E+01 0. -1.
         -5    1    3    3    0  502  0.92815983814E+02 -0.57540777647E+02  0.53523072729E+03  0.54627810626E+03  0.47000000000E+01 0.  1.
        -11    1    1    2    0    0 -0.37369904139E+01  0.15967975763E+02  0.17997475056E+02  0.24348520606E+02  0.00000000000E+00 0.  1.
         11    1    1    2    0    0 -0.11086784463E+03 -0.10520667566E+02  0.66093164713E+03  0.67024846556E+03  0.00000000000E+00 0. -1.
<mgrwt>
<rscale>  0 0.16357617E+03</rscale>
<asrwt>0</asrwt>
<pdfrwt beam="1">  1        2 0.21658304E+00 0.16962333E+03</pdfrwt>
<pdfrwt beam="2">  1       -2 0.27400015E-02 0.16962333E+03</pdfrwt>
<totfact> 0.73161240E+03</totfact>
</mgrwt>
</event>
<event>
 7    1  0.5400401E-006  0.1764815E+03  0.7546771E-02  0.1177170E+00
         -2   -1    0    0    0  501 -0.00000000000E+00  0.00000000000E+00  0.10366616779E+03  0.10366616779E+03  0.00000000000E+00 0.  1.
          2   -1    0    0  501    0  0.00000000000E+00 -0.00000000000E+00 -0.26540843437E+03  0.26540843437E+03  0.00000000000E+00 0. -1.
         23    2    1    2    0    0 -0.89315871349E+02  0.86863136045E+02 -0.72187545527E+02  0.19067451969E+03  0.12499280560E+03 0.  0.
          5    1    3    3  502    0 -0.29448190886E+02  0.90460194806E+02 -0.86689148675E+02  0.12879185257E+03  0.47000000000E+01 0.  1.
         -5    1    3    3    0  502 -0.59867680463E+02 -0.35970587612E+01  0.14501603149E+02  0.61882667118E+02  0.47000000000E+01 0.  1.
        -11    1    1    2    0    0  0.45261253070E+01 -0.58922543122E+02 -0.12351000546E+02  0.60372999865E+02  0.00000000000E+00 0.  1.
         11    1    1    2    0    0  0.84789746042E+02 -0.27940592923E+02 -0.77203720511E+02  0.11802708260E+03  0.00000000000E+00 0. -1.
<mgrwt>
<rscale>  0 0.17065204E+03</rscale>
<asrwt>0</asrwt>
<pdfrwt beam="2">  1        2 0.40832066E-01 0.17648153E+03</pdfrwt>
<pdfrwt beam="1">  1       -2 0.15948641E-01 0.17648153E+03</pdfrwt>
<totfact> 0.37679600E+03</totfact>
</mgrwt>
</event>
<event>
 7    1  0.5400401E-006  0.1664620E+03  0.7546771E-02  0.1188332E+00
          2   -1    0    0  501    0  0.00000000000E+00  0.00000000000E+00  0.17268272275E+03  0.17268272275E+03  0.00000000000E+00 0. -1.
         -2   -1    0    0    0  501 -0.00000000000E+00 -0.00000000000E+00 -0.17472329000E+03  0.17472329000E+03  0.00000000000E+00 0.  1.
         23    2    1    2    0    0 -0.98442778093E+02  0.48916839600E+02 -0.79608771880E+02  0.18451866959E+03  0.12500298041E+03 0.  0.
          5    1    3    3  502    0 -0.37006885569E+02  0.41248186422E+02 -0.10389763404E+03  0.11784621683E+03  0.47000000000E+01 0.  1.
         -5    1    3    3    0  502 -0.61435892524E+02  0.76686531782E+01  0.24288862157E+02  0.66672452757E+02  0.47000000000E+01 0.  1.
        -11    1    1    2    0    0  0.15446926169E+02 -0.51018911422E+02  0.55561970284E+02  0.76997853168E+02  0.00000000000E+00 0. -1.
         11    1    1    2    0    0  0.82995851924E+02  0.21020718215E+01  0.22006234345E+02  0.85889490001E+02  0.00000000000E+00 0.  1.
<mgrwt>
<rscale>  0 0.16032321E+03</rscale>
<asrwt>0</asrwt>
<pdfrwt beam="1">  1        2 0.26566573E-01 0.16646196E+03</pdfrwt>
<pdfrwt beam="2">  1       -2 0.26880506E-01 0.16646196E+03</pdfrwt>
<totfact> 0.24522730E+03</totfact>
</mgrwt>
</event>
<event>
 7    1  0.1057914E-005  0.1681657E+03  0.7546771E-02  0.1186341E+00
         -1   -1    0    0    0  501 -0.00000000000E+00  0.00000000000E+00  0.26453424661E+02  0.26453424661E+02  0.00000000000E+00 0.  1.
          1   -1    0    0  501    0  0.00000000000E+00 -0.00000000000E+00 -0.92900660981E+03  0.92900660981E+03  0.00000000000E+00 0. -1.
         23    2    1    2    0    0  0.11123203158E+03  0.16796801487E+02 -0.49977682622E+03  0.52731070614E+03  0.12500002959E+03 0.  0.
          5    1    3    3  502    0 -0.17495665866E+02 -0.10107806295E+01 -0.10319140641E+02  0.20873300294E+02  0.47000000000E+01 0. -1.
         -5    1    3    3    0  502  0.12872769745E+03  0.17807582116E+02 -0.48945768557E+03  0.50643740585E+03  0.47000000000E+01 0. -1.
        -11    1    1    2    0    0 -0.79665658899E+02 -0.25017292328E+02 -0.37819933088E+03  0.38730765033E+03  0.00000000000E+00 0. -1.
         11    1    1    2    0    0 -0.31566372686E+02  0.82204908414E+01 -0.24577028051E+02  0.40841678002E+02  0.00000000000E+00 0.  1.
<mgrwt>
<rscale>  0 0.16210438E+03</rscale>
<asrwt>0</asrwt>
<pdfrwt beam="2">  1        1 0.14292408E+00 0.16816571E+03</pdfrwt>
<pdfrwt beam="1">  1       -1 0.40697581E-02 0.16816571E+03</pdfrwt>
<totfact> 0.42768972E+03</totfact>
</mgrwt>
</event>
<event>
 6    1  0.5400401E-006  0.2469651E+03  0.7546771E-02  0.1141278E+00
          1   -1    0    0  501    0  0.00000000000E+00  0.00000000000E+00  0.11398706264E+03  0.11398706264E+03  0.00000000000E+00 0. -1.
         -1   -1    0    0    0  501 -0.00000000000E+00 -0.00000000000E+00 -0.65082033037E+03  0.65082033037E+03  0.00000000000E+00 0.  1.
          5    1    1    2  502    0  0.39337490786E+02 -0.14776167063E+03 -0.33693904653E+03  0.37004183624E+03  0.47000000000E+01 0. -1.
         -5    1    1    2    0  502 -0.29734349812E+02  0.88378561297E+02 -0.24096625931E+03  0.25842161245E+03  0.47000000000E+01 0.  1.
        -11    1    1    2    0    0 -0.30387479397E+02  0.82687645593E+02  0.53123662105E+02  0.10287258679E+03  0.00000000000E+00 0.  1.
         11    1    1    2    0    0  0.20784338423E+02 -0.23304536256E+02 -0.12051624000E+02  0.33471357529E+02  0.00000000000E+00 0. -1.
<mgrwt>
<rscale>  0 0.21036399E+03</rscale>
<asrwt>0</asrwt>
<pdfrwt beam="1">  1        1 0.17536471E-01 0.24696511E+03</pdfrwt>
<pdfrwt beam="2">  1       -1 0.10012621E+00 0.24696511E+03</pdfrwt>
<totfact> 0.30618473E+02</totfact>
</mgrwt>
</event>
<event>
 7    1  0.5400401E-006  0.1428676E+03  0.7546771E-02  0.1219190E+00
          1   -1    0    0  501    0  0.00000000000E+00  0.00000000000E+00  0.56490925673E+03  0.56490925673E+03  0.00000000000E+00 0. -1.
         -1   -1    0    0    0  501 -0.00000000000E+00 -0.00000000000E+00 -0.29827725885E+02  0.29827725885E+02  0.00000000000E+00 0.  1.
         23    2    1    2    0    0 -0.61047892656E+02  0.32547201137E+02  0.27936438768E+03  0.31377636676E+03  0.12499992695E+03 0.  0.
          5    1    3    3  502    0  0.32185536047E+02 -0.87049761671E+01  0.11914644252E+03  0.12381296421E+03  0.47000000000E+01 0.  1.
         -5    1    3    3    0  502 -0.93233428703E+02  0.41252177304E+02  0.16021794515E+03  0.18996340255E+03  0.47000000000E+01 0.  1.
        -11    1    1    2    0    0  0.61933816015E+02  0.18806432185E+02  0.13237650645E+03  0.14735338109E+03  0.00000000000E+00 0. -1.
         11    1    1    2    0    0 -0.88592335853E+00 -0.51353633322E+02  0.12334063672E+03  0.13360723477E+03  0.00000000000E+00 0.  1.
<mgrwt>
<rscale>  0 0.13573227E+03</rscale>
<asrwt>0</asrwt>
<pdfrwt beam="1">  1        1 0.86909109E-01 0.14286759E+03</pdfrwt>
<pdfrwt beam="2">  1       -1 0.45888813E-02 0.14286759E+03</pdfrwt>
<totfact> 0.73690169E+03</totfact>
</mgrwt>
</event>
<event>
 7    1  0.5400401E-006  0.1275739E+03  0.7546771E-02  0.1245135E+00
         -2   -1    0    0    0  501 -0.00000000000E+00  0.00000000000E+00  0.50317020051E+02  0.50317020051E+02  0.00000000000E+00 0.  1.
          2   -1    0    0  501    0  0.00000000000E+00 -0.00000000000E+00 -0.24810782302E+03  0.24810782302E+03  0.00000000000E+00 0. -1.
         23    2    1    2    0    0 -0.29752244061E+01  0.25291579979E+02 -0.11008947884E+03  0.16850757131E+03  0.12500636887E+03 0.  0.
          5    1    3    3  502    0 -0.59542584114E+02 -0.76706668104E+01 -0.66500306454E+02  0.89713651195E+02  0.47000000000E+01 0.  1.
         -5    1    3    3    0  502  0.56567359708E+02  0.32962246790E+02 -0.43589172389E+02  0.78793920116E+02  0.47000000000E+01 0.  1.
        -11    1    1    2    0    0  0.29440428396E+02  0.79444675650E+01  0.21072983130E+01  0.30566224746E+02  0.00000000000E+00 0.  1.
         11    1    1    2    0    0 -0.26465203990E+02 -0.33236047544E+02 -0.89808622441E+02  0.99351047017E+02  0.00000000000E+00 0. -1.
<mgrwt>
<rscale>  0 0.11877308E+03</rscale>
<asrwt>0</asrwt>
<pdfrwt beam="2">  1        2 0.38170434E-01 0.12757393E+03</pdfrwt>
<pdfrwt beam="1">  1       -2 0.77410800E-02 0.12757393E+03</pdfrwt>
<totfact> 0.12529980E+04</totfact>
</mgrwt>
</event>
<event>
 7    1  0.5400401E-006  0.1174796E+03  0.7546771E-02  0.1255714E+00
         -2   -1    0    0    0  501 -0.00000000000E+00  0.00000000000E+00  0.34717198140E+03  0.34717198140E+03  0.00000000000E+00 0.  1.
          2   -1    0    0  501    0  0.00000000000E+00 -0.00000000000E+00 -0.40450136297E+02  0.40450136297E+02  0.00000000000E+00 0. -1.
         23    2    1    2    0    0 -0.21858495838E+02 -0.30791195957E+02  0.24206744678E+03  0.26906894181E+03  0.11124547212E+03 0.  0.
          5    1    3    3  502    0 -0.46294144540E+02  0.23270297791E+02  0.71558946933E+02  0.88472749839E+02  0.47000000000E+01 0. -1.
         -5    1    3    3    0  502  0.24435648702E+02 -0.54061493748E+02  0.17050849985E+03  0.18059619197E+03  0.47000000000E+01 0.  1.
        -11    1    1    2    0    0  0.42068505420E+02 -0.10674840925E+02  0.58186119968E+01  0.43790040221E+02  0.00000000000E+00 0.  1.
         11    1    1    2    0    0 -0.20210009582E+02  0.41466036882E+02  0.58835786320E+02  0.74763135661E+02  0.00000000000E+00 0. -1.
<mgrwt>
<rscale>  0 0.11266448E+03</rscale>
<asrwt>0</asrwt>
<pdfrwt beam="2">  1        2 0.62230981E-02 0.11747956E+03</pdfrwt>
<pdfrwt beam="1">  1       -2 0.53411072E-01 0.11747956E+03</pdfrwt>
<totfact> 0.37345770E+03</totfact>
</mgrwt>
</event>
<event>
 7    1  0.5400401E-006  0.1404733E+03  0.7546771E-02  0.1223227E+00
          1   -1    0    0  501    0  0.00000000000E+00  0.00000000000E+00  0.29957881914E+03  0.29957881914E+03  0.00000000000E+00 0. -1.
         -1   -1    0    0    0  501 -0.00000000000E+00 -0.00000000000E+00 -0.65940416840E+02  0.65940416840E+02  0.00000000000E+00 0.  1.
         23    2    1    2    0    0  0.41540884700E+02  0.48809891980E+02  0.48005469105E+02  0.14844956842E+03  0.12499879457E+03 0.  0.
          5    1    3    3  502    0 -0.37425873683E+02 -0.12233433896E+02  0.21342623468E+02  0.45032771426E+02  0.47000000000E+01 0.  1.
         -5    1    3    3    0  502  0.78966758383E+02  0.61043325876E+02  0.26662845637E+02  0.10341679700E+03  0.47000000000E+01 0.  1.
        -11    1    1    2    0    0  0.17605405587E+02 -0.31150096998E+02  0.21571543503E+02  0.41780501888E+02  0.00000000000E+00 0.  1.
         11    1    1    2    0    0 -0.59146290287E+02 -0.17659794982E+02  0.16406138969E+03  0.17528916567E+03  0.00000000000E+00 0. -1.
<mgrwt>
<rscale>  0 0.13289177E+03</rscale>
<asrwt>0</asrwt>
<pdfrwt beam="1">  1        1 0.46089048E-01 0.14047330E+03</pdfrwt>
<pdfrwt beam="2">  1       -1 0.10144680E-01 0.14047330E+03</pdfrwt>
<totfact> 0.50263358E+03</totfact>
</mgrwt>
</event>
<event>
 7    1  0.5400401E-006  0.1582080E+03  0.7546771E-02  0.1199792E+00
         -3   -1    0    0    0  501 -0.00000000000E+00  0.00000000000E+00  0.10541138454E+03  0.10541138454E+03  0.00000000000E+00 0.  1.
          3   -1    0    0  501    0  0.00000000000E+00 -0.00000000000E+00 -0.23778531106E+03  0.23778531106E+03  0.00000000000E+00 0. -1.
         23    2    1    2    0    0  0.88746472167E+02 -0.39120631490E+02 -0.51879806917E+00  0.15820884872E+03  0.12499364196E+03 0.  0.
          5    1    3    3  502    0  0.25596048862E+02  0.43737498218E+02 -0.14672413339E+02  0.52966934789E+02  0.47000000000E+01 0.  1.
         -5    1    3    3    0  502  0.63150423306E+02 -0.82858129708E+02  0.14153615270E+02  0.10524191393E+03  0.47000000000E+01 0.  1.
        -11    1    1    2    0    0 -0.53195576945E+02 -0.11064206580E+02 -0.21069392279E+02  0.58276113158E+02  0.00000000000E+00 0.  1.
         11    1    1    2    0    0 -0.35550895222E+02  0.50184838070E+02 -0.11078573617E+03  0.12671173372E+03  0.00000000000E+00 0. -1.
<mgrwt>
<rscale>  0 0.15055566E+03</rscale>
<asrwt>0</asrwt>
<pdfrwt beam="2">  1        3 0.36582355E-01 0.15820800E+03</pdfrwt>
<pdfrwt beam="1">  1       -3 0.16217136E-01 0.15820800E+03</pdfrwt>
<totfact> 0.56677585E+02</totfact>
</mgrwt>
</event>
<event>
 6    1  0.5400401E-006  0.1575542E+03  0.7546771E-02  0.1211118E+00
          1   -1    0    0  501    0  0.00000000000E+00  0.00000000000E+00  0.76357711046E+03  0.76357711046E+03  0.00000000000E+00 0. -1.
         -1   -1    0    0    0  501 -0.00000000000E+00 -0.00000000000E+00 -0.27507209756E+02  0.27507209756E+02  0.00000000000E+00 0.  1.
          5    1    1    2  502    0  0.16512310457E+02 -0.51513786213E+02  0.16699785578E+03  0.17560381659E+03  0.47000000000E+01 0. -1.
         -5    1    1    2    0  502 -0.60238250922E+02  0.64725182948E+02  0.93026336792E+02  0.12842891232E+03  0.47000000000E+01 0.  1.
        -11    1    1    2    0    0 -0.10989572849E+02 -0.40391434551E+02  0.19264782932E+03  0.19714315823E+03  0.00000000000E+00 0.  1.
         11    1    1    2    0    0  0.54715513315E+02  0.27180037815E+02  0.28339787881E+03  0.28990843307E+03  0.00000000000E+00 0. -1.
<mgrwt>
<rscale>  0 0.14165579E+03</rscale>
<asrwt>0</asrwt>
<pdfrwt beam="1">  1        1 0.11747339E+00 0.15755418E+03</pdfrwt>
<pdfrwt beam="2">  1       -1 0.42318790E-02 0.15755418E+03</pdfrwt>
<totfact> 0.54626358E+03</totfact>
</mgrwt>
</event>
<event>
 7    1  0.5400401E-006  0.1345238E+03  0.7546771E-02  0.1232854E+00
          2   -1    0    0  501    0  0.00000000000E+00  0.00000000000E+00  0.70737405605E+02  0.70737405605E+02  0.00000000000E+00 0. -1.
         -2   -1    0    0    0  501 -0.00000000000E+00 -0.00000000000E+00 -0.20594738584E+03  0.20594738584E+03  0.00000000000E+00 0.  1.
         23    2    1    2    0    0  0.76108655669E+00  0.49688610362E+02 -0.93124424589E+02  0.16361180758E+03  0.12500851120E+03 0.  0.
          5    1    3    3  502    0  0.28762937105E+02 -0.32945099347E+02 -0.15206809079E+02  0.46540553975E+02  0.47000000000E+01 0. -1.
         -5    1    3    3    0  502 -0.28001850549E+02  0.82633709708E+02 -0.77917615510E+02  0.11707125361E+03  0.47000000000E+01 0. -1.
        -11    1    1    2    0    0  0.20056488364E+02 -0.13465926621E+02  0.24537679617E+02  0.34433873239E+02  0.00000000000E+00 0. -1.
         11    1    1    2    0    0 -0.20817574921E+02 -0.36222683741E+02 -0.66623235261E+02  0.78639110624E+02  0.00000000000E+00 0.  1.
<mgrwt>
<rscale>  0 0.12642824E+03</rscale>
<asrwt>0</asrwt>
<pdfrwt beam="1">  1        2 0.10882678E-01 0.13452385E+03</pdfrwt>
<pdfrwt beam="2">  1       -2 0.31684213E-01 0.13452385E+03</pdfrwt>
<totfact> 0.50681950E+03</totfact>
</mgrwt>
</event>
<event>
 7    1  0.5400401E-006  0.1534014E+03  0.7546771E-02  0.1204229E+00
         -4   -1    0    0    0  501 -0.00000000000E+00  0.00000000000E+00  0.53786314873E+02  0.53786314873E+02  0.00000000000E+00 0.  1.
          4   -1    0    0  501    0  0.00000000000E+00 -0.00000000000E+00 -0.38206919374E+03  0.38206919374E+03  0.00000000000E+00 0. -1.
         23    2    1    2    0    0 -0.47971264479E+02  0.74851613143E+02 -0.14156536492E+03  0.20874083661E+03  0.12501191190E+03 0.  0.
          5    1    3    3  502    0 -0.83396084558E+02  0.30231540730E+02 -0.53343856114E+02  0.10361713159E+03  0.47000000000E+01 0. -1.
         -5    1    3    3    0  502  0.35424820079E+02  0.44620072413E+02 -0.88221508805E+02  0.10512370501E+03  0.47000000000E+01 0. -1.
        -11    1    1    2    0    0 -0.19260976920E+02 -0.12898590249E+02 -0.50281764193E+01  0.23720063668E+02  0.00000000000E+00 0.  1.
         11    1    1    2    0    0  0.67232241399E+02 -0.61953022895E+02 -0.18168933753E+03  0.20339460834E+03  0.00000000000E+00 0. -1.
<mgrwt>
<rscale>  0 0.14698359E+03</rscale>
<asrwt>0</asrwt>
<pdfrwt beam="2">  1        4 0.58779878E-01 0.15340138E+03</pdfrwt>
<pdfrwt beam="1">  1       -4 0.82748174E-02 0.15340138E+03</pdfrwt>
<totfact> 0.49139158E+02</totfact>
</mgrwt>
</event>
<event>
 7    1  0.5400401E-006  0.1614442E+03  0.7546771E-02  0.1194695E+00
          2   -1    0    0  501    0  0.00000000000E+00  0.00000000000E+00  0.25405011853E+03  0.25405011853E+03  0.00000000000E+00 0. -1.
         -2   -1    0    0    0  501 -0.00000000000E+00 -0.00000000000E+00 -0.93119639106E+02  0.93119639106E+02  0.00000000000E+00 0.  1.
         23    2    1    2    0    0  0.52862825491E+02 -0.87411876624E+02  0.43674403269E+02  0.16724738108E+03  0.12501567296E+03 0.  0.
          5    1    3    3  502    0 -0.40251700206E+02 -0.14754877313E+02  0.88879331574E+01  0.44033976993E+02  0.47000000000E+01 0.  1.
         -5    1    3    3    0  502  0.93114525698E+02 -0.72656999311E+02  0.34786470111E+02  0.12321340409E+03  0.47000000000E+01 0.  1.
        -11    1    1    2    0    0  0.69335406206E+01  0.65417134066E+02  0.31093213222E+02  0.72761688569E+02  0.00000000000E+00 0.  1.
         11    1    1    2    0    0 -0.59796366112E+02  0.21994742558E+02  0.86162862935E+02  0.10716068799E+03  0.00000000000E+00 0. -1.
<mgrwt>
<rscale>  0 0.15480083E+03</rscale>
<asrwt>0</asrwt>
<pdfrwt beam="1">  1        2 0.39084633E-01 0.16144421E+03</pdfrwt>
<pdfrwt beam="2">  1       -2 0.14326098E-01 0.16144421E+03</pdfrwt>
<totfact> 0.46892704E+03</totfact>
</mgrwt>
</event>
<event>
 7    1  0.5400401E-006  0.1269936E+03  0.7546771E-02  0.1247223E+00
         -2   -1    0    0    0  501 -0.00000000000E+00  0.00000000000E+00  0.36155041175E+02  0.36155041175E+02  0.00000000000E+00 0.  1.
          2   -1    0    0  501    0  0.00000000000E+00 -0.00000000000E+00 -0.33640611127E+03  0.33640611127E+03  0.00000000000E+00 0. -1.
         23    2    1    2    0    0 -0.79680768794E+01  0.20920595844E+02 -0.18421952333E+03  0.22375034264E+03  0.12500488581E+03 0.  0.
          5    1    3    3  502    0  0.27626493722E+02  0.58804263755E+02 -0.14335898894E+03  0.15746445408E+03  0.47000000000E+01 0. -1.
         -5    1    3    3    0  502 -0.35594570602E+02 -0.37883667910E+02 -0.40860534397E+02  0.66285888557E+02  0.47000000000E+01 0. -1.
        -11    1    1    2    0    0 -0.31883321977E+02  0.45059458139E+01 -0.11683143621E+02  0.34254132785E+02  0.00000000000E+00 0.  1.
         11    1    1    2    0    0  0.39851398856E+02 -0.25426541658E+02 -0.10434840314E+03  0.11455667702E+03  0.00000000000E+00 0. -1.
<mgrwt>
<rscale>  0 0.11753299E+03</rscale>
<asrwt>0</asrwt>
<pdfrwt beam="2">  1        2 0.51754785E-01 0.12699363E+03</pdfrwt>
<pdfrwt beam="1">  1       -2 0.55623142E-02 0.12699363E+03</pdfrwt>
<totfact> 0.15007846E+04</totfact>
</mgrwt>
</event>
<event>
 7    1  0.5400401E-006  0.1489121E+03  0.7546771E-02  0.1210130E+00
         -2   -1    0    0    0  501 -0.00000000000E+00  0.00000000000E+00  0.10020940750E+03  0.10020940750E+03  0.00000000000E+00 0.  1.
          2   -1    0    0  501    0  0.00000000000E+00 -0.00000000000E+00 -0.26940543381E+03  0.26940543381E+03  0.00000000000E+00 0. -1.
         23    2    1    2    0    0 -0.80652203656E+02  0.75380978373E+01  0.12389699660E+02  0.14942667380E+03  0.12495289237E+03 0.  0.
          5    1    3    3  502    0  0.94431947954E+01  0.36006884400E+02 -0.27743002734E+02  0.46662981612E+02  0.47000000000E+01 0.  1.
         -5    1    3    3    0  502 -0.90095398451E+02 -0.28468786563E+02  0.40132702394E+02  0.10276369219E+03  0.47000000000E+01 0.  1.
        -11    1    1    2    0    0  0.27307916676E+02 -0.33184687259E+02 -0.14351717019E+03  0.14981363063E+03  0.00000000000E+00 0. -1.
         11    1    1    2    0    0  0.53344286980E+02  0.25646589421E+02 -0.38068555784E+02  0.70374536885E+02  0.00000000000E+00 0.  1.
<mgrwt>
<rscale>  0 0.14240399E+03</rscale>
<asrwt>0</asrwt>
<pdfrwt beam="2">  1        2 0.41446989E-01 0.14891214E+03</pdfrwt>
<pdfrwt beam="1">  1       -2 0.15416832E-01 0.14891214E+03</pdfrwt>
<totfact> 0.38893720E+03</totfact>
</mgrwt>
</event>
<event>
 7    1  0.5400401E-006  0.1248049E+03  0.7546771E-02  0.1249543E+00
          2   -1    0    0  501    0  0.00000000000E+00  0.00000000000E+00  0.39205055041E+03  0.39205055041E+03  0.00000000000E+00 0. -1.
         -2   -1    0    0    0  501 -0.00000000000E+00 -0.00000000000E+00 -0.32700500725E+02  0.32700500725E+02  0.00000000000E+00 0.  1.
         23    2    1    2    0    0 -0.23788419733E+02 -0.11966115585E+02  0.14826070656E+03  0.19379758541E+03  0.12193108778E+03 0.  0.
          5    1    3    3  502    0  0.47821800070E+02  0.31949548947E+01  0.37889417525E+02  0.61276669778E+02  0.47000000000E+01 0. -1.
         -5    1    3    3    0  502 -0.71610219802E+02 -0.15161070480E+02  0.11037128903E+03  0.13252091563E+03  0.47000000000E+01 0.  1.
        -11    1    1    2    0    0  0.18868159433E+02  0.39448582823E+02  0.19251732501E+03  0.19742117048E+03  0.00000000000E+00 0. -1.
         11    1    1    2    0    0  0.49202602996E+01 -0.27482467238E+02  0.18572018123E+02  0.33532295240E+02  0.00000000000E+00 0.  1.
<mgrwt>
<rscale>  0 0.11617575E+03</rscale>
<asrwt>0</asrwt>
<pdfrwt beam="1">  1        2 0.60315466E-01 0.12480492E+03</pdfrwt>
<pdfrwt beam="2">  1       -2 0.50308465E-02 0.12480492E+03</pdfrwt>
<totfact> 0.14814533E+04</totfact>
</mgrwt>
</event>
<event>
 7    1  0.5400401E-006  0.1515585E+03  0.7546771E-02  0.1206127E+00
         -2   -1    0    0    0  501 -0.00000000000E+00  0.00000000000E+00  0.28619021494E+02  0.28619021494E+02  0.00000000000E+00 0.  1.
          2   -1    0    0  501    0  0.00000000000E+00 -0.00000000000E+00 -0.69549311885E+03  0.69549311885E+03  0.00000000000E+00 0. -1.
         23    2    1    2    0    0 -0.74676105767E+02 -0.42013067268E+02 -0.31843007712E+03  0.35265801886E+03  0.12501338191E+03 0.  0.
          5    1    3    3  502    0 -0.82136040296E+02 -0.51309082880E+02 -0.32435874775E+03  0.33854045304E+03  0.47000000000E+01 0.  1.
         -5    1    3    3    0  502  0.74599345283E+01  0.92960156122E+01  0.59286706256E+01  0.14117565825E+02  0.47000000000E+01 0.  1.
        -11    1    1    2    0    0  0.41797799036E+02 -0.20052703345E+02 -0.67658319989E+02  0.82017163931E+02  0.00000000000E+00 0.  1.
         11    1    1    2    0    0  0.32878306731E+02  0.62065770612E+02 -0.28078570025E+03  0.28943695755E+03  0.00000000000E+00 0. -1.
<mgrwt>
<rscale>  0 0.14549023E+03</rscale>
<asrwt>0</asrwt>
<pdfrwt beam="2">  1        2 0.10699894E+00 0.15155845E+03</pdfrwt>
<pdfrwt beam="1">  1       -2 0.44029263E-02 0.15155845E+03</pdfrwt>
<totfact> 0.96910648E+03</totfact>
</mgrwt>
</event>
<event>
 7    1  0.5400401E-006  0.2239858E+03  0.7546771E-02  0.1134069E+00
         -2   -1    0    0    0  501 -0.00000000000E+00  0.00000000000E+00  0.79153300229E+02  0.79153300229E+02  0.00000000000E+00 0.  1.
          2   -1    0    0  501    0  0.00000000000E+00 -0.00000000000E+00 -0.62921805649E+03  0.62921805649E+03  0.00000000000E+00 0. -1.
         23    2    1    2    0    0  0.17938134070E+03  0.48665433245E+02 -0.19434805717E+03  0.29654811491E+03  0.12499450927E+03 0.  0.
          5    1    3    3  502    0  0.13694092635E+03  0.19918053249E+02 -0.20159505458E+03  0.24456533316E+03  0.47000000000E+01 0.  1.
         -5    1    3    3    0  502  0.42440414353E+02  0.28747379996E+02  0.72469974092E+01  0.51982781751E+02  0.47000000000E+01 0.  1.
        -11    1    1    2    0    0 -0.12372569956E+03 -0.58073617518E+02 -0.17235416095E+03  0.21996943101E+03  0.00000000000E+00 0.  1.
         11    1    1    2    0    0 -0.55655641142E+02  0.94081842733E+01 -0.18336253814E+03  0.19185381079E+03  0.00000000000E+00 0. -1.
<mgrwt>
<rscale>  0 0.21975037E+03</rscale>
<asrwt>0</asrwt>
<pdfrwt beam="2">  1        2 0.96802776E-01 0.22398575E+03</pdfrwt>
<pdfrwt beam="1">  1       -2 0.12177431E-01 0.22398575E+03</pdfrwt>
<totfact> 0.22895881E+03</totfact>
</mgrwt>
</event>
<event>
 7    1  0.5400401E-006  0.1366016E+03  0.7546771E-02  0.1229869E+00
         -1   -1    0    0    0  501 -0.00000000000E+00  0.00000000000E+00  0.23776873890E+02  0.23776873890E+02  0.00000000000E+00 0.  1.
          1   -1    0    0  501    0  0.00000000000E+00 -0.00000000000E+00 -0.69710526958E+03  0.69710526958E+03  0.00000000000E+00 0. -1.
         23    2    1    2    0    0  0.47518345481E+01 -0.54869823858E+02 -0.25610361879E+03  0.29025690703E+03  0.12500692390E+03 0.  0.
          5    1    3    3  502    0 -0.11305195821E+02 -0.42580156387E+02 -0.12866915437E+02  0.46135937006E+02  0.47000000000E+01 0. -1.
         -5    1    3    3    0  502  0.16057030369E+02 -0.12289667471E+02 -0.24323670335E+03  0.24412097003E+03  0.47000000000E+01 0. -1.
        -11    1    1    2    0    0 -0.47975281814E+02  0.26439204776E+02 -0.22273679631E+03  0.22937379895E+03  0.00000000000E+00 0.  1.
         11    1    1    2    0    0  0.43223447266E+02  0.28430619082E+02 -0.19448798059E+03  0.20125143748E+03  0.00000000000E+00 0. -1.
<mgrwt>
<rscale>  0 0.12838722E+03</rscale>
<asrwt>0</asrwt>
<pdfrwt beam="2">  1        1 0.10724697E+00 0.13660164E+03</pdfrwt>
<pdfrwt beam="1">  1       -1 0.36579803E-02 0.13660164E+03</pdfrwt>
<totfact> 0.76712800E+03</totfact>
</mgrwt>
</event>
<event>
 7    1  0.5400401E-006  0.1309196E+03  0.7546771E-02  0.1237762E+00
         -2   -1    0    0    0  501 -0.00000000000E+00  0.00000000000E+00  0.62922212647E+02  0.62922212647E+02  0.00000000000E+00 0.  1.
          2   -1    0    0  501    0  0.00000000000E+00 -0.00000000000E+00 -0.21999604573E+03  0.21999604573E+03  0.00000000000E+00 0. -1.
         23    2    1    2    0    0 -0.94342830957E+01 -0.37758282838E+02 -0.72435105096E+02  0.14962211817E+03  0.12500096070E+03 0.  0.
          5    1    3    3  502    0 -0.22964019611E+02 -0.73971430173E+02 -0.13168033006E+02  0.78705817902E+02  0.47000000000E+01 0.  1.
         -5    1    3    3    0  502  0.13529736515E+02  0.36213147335E+02 -0.59267072091E+02  0.70916300272E+02  0.47000000000E+01 0.  1.
        -11    1    1    2    0    0 -0.40543985175E+02  0.17641025479E+02 -0.18342090030E+02  0.47869121367E+02  0.00000000000E+00 0.  1.
         11    1    1    2    0    0  0.49978268270E+02  0.20117257359E+02 -0.66296637959E+02  0.85427018839E+02  0.00000000000E+00 0. -1.
<mgrwt>
<rscale>  0 0.12329285E+03</rscale>
<asrwt>0</asrwt>
<pdfrwt beam="2">  1        2 0.33845545E-01 0.13091957E+03</pdfrwt>
<pdfrwt beam="1">  1       -2 0.96803404E-02 0.13091957E+03</pdfrwt>
<totfact> 0.10092744E+04</totfact>
</mgrwt>
</event>
<event>
 7    1  0.5400401E-006  0.1428574E+03  0.7546771E-02  0.1219605E+00
         -1   -1    0    0    0  501 -0.00000000000E+00  0.00000000000E+00  0.46187319691E+02  0.46187319691E+02  0.00000000000E+00 0.  1.
          1   -1    0    0  501    0  0.00000000000E+00 -0.00000000000E+00 -0.43412567833E+03  0.43412567833E+03  0.00000000000E+00 0. -1.
         23    2    1    2    0    0 -0.17075126321E+02 -0.67024345589E+02 -0.11303612547E+03  0.18216860137E+03  0.12499764327E+03 0.  0.
          5    1    3    3  502    0  0.14302210541E+02  0.33839489386E+02 -0.26616628291E+02  0.45609200496E+02  0.47000000000E+01 0.  1.
         -5    1    3    3    0  502 -0.31377336862E+02 -0.10086383497E+03 -0.86419497178E+02  0.13655940087E+03  0.47000000000E+01 0.  1.
        -11    1    1    2    0    0  0.14711048486E+02  0.90473728245E+02 -0.22509224791E+03  0.24303997720E+03  0.00000000000E+00 0. -1.
         11    1    1    2    0    0  0.23640778357E+01 -0.23449382656E+02 -0.49809985256E+02  0.55104419443E+02  0.00000000000E+00 0.  1.
<mgrwt>
<rscale>  0 0.13543638E+03</rscale>
<asrwt>0</asrwt>
<pdfrwt beam="2">  1        1 0.66788566E-01 0.14285739E+03</pdfrwt>
<pdfrwt beam="1">  1       -1 0.71057415E-02 0.14285739E+03</pdfrwt>
<totfact> 0.54197762E+03</totfact>
</mgrwt>
</event>
<event>
 7    1  0.5400401E-006  0.1476145E+03  0.7546771E-02  0.1212912E+00
         -2   -1    0    0    0  501 -0.00000000000E+00  0.00000000000E+00  0.50396429681E+02  0.50396429681E+02  0.00000000000E+00 0.  1.
          2   -1    0    0  501    0  0.00000000000E+00 -0.00000000000E+00 -0.39213785930E+03  0.39213785930E+03  0.00000000000E+00 0. -1.
         23    2    1    2    0    0 -0.68403956823E+02  0.38563020061E+02 -0.25289731948E+03  0.29282606668E+03  0.12499537312E+03 0.  0.
          5    1    3    3  502    0  0.27055719542E+01  0.69262548468E+02 -0.10697650003E+03  0.12755658470E+03  0.47000000000E+01 0.  1.
         -5    1    3    3    0  502 -0.71109528777E+02 -0.30699528407E+02 -0.14592081945E+03  0.16526948198E+03  0.47000000000E+01 0.  1.
        -11    1    1    2    0    0  0.63808330041E+02  0.15389856928E+02 -0.40557741664E+02  0.77157508304E+02  0.00000000000E+00 0.  1.
         11    1    1    2    0    0  0.45956267819E+01 -0.53952876989E+02 -0.48286368473E+02  0.72550713995E+02  0.00000000000E+00 0. -1.
<mgrwt>
<rscale>  0 0.14031043E+03</rscale>
<asrwt>0</asrwt>
<pdfrwt beam="2">  1        2 0.60328898E-01 0.14761454E+03</pdfrwt>
<pdfrwt beam="1">  1       -2 0.77532974E-02 0.14761454E+03</pdfrwt>
<totfact> 0.77691652E+03</totfact>
</mgrwt>
</event>
<event>
 7    1  0.5400401E-006  0.1660165E+03  0.7546771E-02  0.1189127E+00
          1   -1    0    0  501    0  0.00000000000E+00  0.00000000000E+00  0.45722752362E+03  0.45722752362E+03  0.00000000000E+00 0.  1.
         -1   -1    0    0    0  501 -0.00000000000E+00 -0.00000000000E+00 -0.68493380475E+02  0.68493380475E+02  0.00000000000E+00 0. -1.
         23    2    1    2    0    0  0.30412504796E+02  0.10493719690E+03  0.76554338545E+02  0.18281692946E+03  0.12499890882E+03 0.  0.
          5    1    3    3  502    0 -0.32143799220E+02  0.13843908157E+02 -0.15836448622E+02  0.38700913766E+02  0.47000000000E+01 0.  1.
         -5    1    3    3    0  502  0.62556304015E+02  0.91093288746E+02  0.92390787167E+02  0.14411601570E+03  0.47000000000E+01 0.  1.
        -11    1    1    2    0    0  0.29846642036E+02 -0.14737245428E+02  0.67809354256E+02  0.75538844102E+02  0.00000000000E+00 0.  1.
         11    1    1    2    0    0 -0.60259146832E+02 -0.90199951475E+02  0.24437045035E+03  0.26736513054E+03  0.00000000000E+00 0. -1.
<mgrwt>
<rscale>  0 0.15961933E+03</rscale>
<asrwt>0</asrwt>
<pdfrwt beam="1">  1        1 0.70342694E-01 0.16601645E+03</pdfrwt>
<pdfrwt beam="2">  1       -1 0.10537443E-01 0.16601645E+03</pdfrwt>
<totfact> 0.28049854E+03</totfact>
</mgrwt>
</event>
<event>
 7    1  0.5400401E-006  0.1523062E+03  0.7546771E-02  0.1206630E+00
         -1   -1    0    0    0  501 -0.00000000000E+00  0.00000000000E+00  0.21138315685E+03  0.21138315685E+03  0.00000000000E+00 0.  1.
          1   -1    0    0  501    0  0.00000000000E+00 -0.00000000000E+00 -0.92270555666E+02  0.92270555666E+02  0.00000000000E+00 0. -1.
         23    2    1    2    0    0 -0.15056949678E+02  0.85719702504E+02  0.81178267876E+02  0.17258939047E+03  0.12499042921E+03 0.  0.
          5    1    3    3  502    0 -0.39988392537E+02  0.42465950150E+02 -0.18193361344E+02  0.61282271962E+02  0.47000000000E+01 0. -1.
         -5    1    3    3    0  502  0.24931442859E+02  0.43253752354E+02  0.99371629220E+02  0.11130711850E+03  0.47000000000E+01 0. -1.
        -11    1    1    2    0    0 -0.85560336411E+01 -0.98255590612E+02  0.27762585671E+02  0.10246037264E+03  0.00000000000E+00 0.  1.
         11    1    1    2    0    0  0.23612983319E+02  0.12535888108E+02  0.10171747636E+02  0.28603949411E+02  0.00000000000E+00 0. -1.
<mgrwt>
<rscale>  0 0.14509747E+03</rscale>
<asrwt>0</asrwt>
<pdfrwt beam="2">  1        1 0.14195470E-01 0.15230623E+03</pdfrwt>
<pdfrwt beam="1">  1       -1 0.32520485E-01 0.15230623E+03</pdfrwt>
<totfact> 0.34500670E+03</totfact>
</mgrwt>
</event>
<event>
 7    1  0.5400401E-006  0.1267426E+03  0.7546771E-02  0.1247530E+00
         -3   -1    0    0    0  501 -0.00000000000E+00  0.00000000000E+00  0.11900503904E+03  0.11900503904E+03  0.00000000000E+00 0.  1.
          3   -1    0    0  501    0  0.00000000000E+00 -0.00000000000E+00 -0.11508158580E+03  0.11508158580E+03  0.00000000000E+00 0. -1.
         23    2    1    2    0    0 -0.95386687309E+01 -0.18506623138E+02  0.41901590186E+02  0.13348943061E+03  0.12502081236E+03 0.  0.
          5    1    3    3  502    0  0.20452242694E+02  0.47326719665E+02  0.46386249804E+01  0.51978067174E+02  0.47000000000E+01 0.  1.
         -5    1    3    3    0  502 -0.29990911425E+02 -0.65833342803E+02  0.37262965206E+02  0.81511363432E+02  0.47000000000E+01 0.  1.
        -11    1    1    2    0    0  0.49331929151E+02  0.34377491833E+00 -0.18081543619E+02  0.52542360383E+02  0.00000000000E+00 0.  1.
         11    1    1    2    0    0 -0.39793260420E+02  0.18162848219E+02 -0.19896593323E+02  0.48054833848E+02  0.00000000000E+00 0. -1.
<mgrwt>
<rscale>  0 0.11735214E+03</rscale>
<asrwt>0</asrwt>
<pdfrwt beam="2">  1        3 0.17704859E-01 0.12674259E+03</pdfrwt>
<pdfrwt beam="1">  1       -3 0.18308467E-01 0.12674259E+03</pdfrwt>
<totfact> 0.16562708E+03</totfact>
</mgrwt>
</event>
<event>
 7    1  0.5400401E-006  0.1776083E+03  0.7546771E-02  0.1179238E+00
          1   -1    0    0  501    0  0.00000000000E+00  0.00000000000E+00  0.15454422192E+03  0.15454422192E+03  0.00000000000E+00 0. -1.
         -1   -1    0    0    0  501 -0.00000000000E+00 -0.00000000000E+00 -0.21545900125E+03  0.21545900125E+03  0.00000000000E+00 0.  1.
         23    2    1    2    0    0  0.10528824384E+03 -0.69536590158E+02 -0.11953277093E+03  0.21408595102E+03  0.12499503765E+03 0.  0.
          5    1    3    3  502    0  0.67005490845E+02 -0.93922457845E+02 -0.12251718003E+03  0.16835591256E+03  0.47000000000E+01 0. -1.
         -5    1    3    3    0  502  0.38282752998E+02  0.24385867688E+02  0.29844091046E+01  0.45730038462E+02  0.47000000000E+01 0. -1.
        -11    1    1    2    0    0 -0.10000893642E+03  0.38472582513E+02  0.62691415792E+02  0.12414564263E+03  0.00000000000E+00 0. -1.
         11    1    1    2    0    0 -0.52793074247E+01  0.31064007645E+02 -0.40734241941E+01  0.31771629522E+02  0.00000000000E+00 0.  1.
<mgrwt>
<rscale>  0 0.16867414E+03</rscale>
<asrwt>0</asrwt>
<pdfrwt beam="1">  1        1 0.23776034E-01 0.17760831E+03</pdfrwt>
<pdfrwt beam="2">  1       -1 0.33147539E-01 0.17760831E+03</pdfrwt>
<totfact> 0.17318461E+03</totfact>
</mgrwt>
</event>
<event>
 7    1  0.5400401E-006  0.1820342E+03  0.7546771E-02  0.1172003E+00
          1   -1    0    0  501    0  0.00000000000E+00  0.00000000000E+00  0.96886662063E+02  0.96886662063E+02  0.00000000000E+00 0. -1.
         -1   -1    0    0    0  501 -0.00000000000E+00 -0.00000000000E+00 -0.29893340202E+03  0.29893340202E+03  0.00000000000E+00 0.  1.
         23    2    1    2    0    0  0.64889099632E+02 -0.11533230936E+03 -0.11558831138E+03  0.21563189217E+03  0.12499727341E+03 0.  0.
          5    1    3    3  502    0  0.68116177157E+02 -0.11702904465E+03 -0.42067700657E+02  0.14187104116E+03  0.47000000000E+01 0.  1.
         -5    1    3    3    0  502 -0.32270775257E+01  0.16967352896E+01 -0.73520610719E+02  0.73760851002E+02  0.47000000000E+01 0.  1.
        -11    1    1    2    0    0 -0.18828653379E+02  0.72172860454E+02 -0.90092934696E+02  0.11696228818E+03  0.00000000000E+00 0.  1.
         11    1    1    2    0    0 -0.46060446252E+02  0.43159448908E+02  0.36345061198E+01  0.63225883733E+02  0.00000000000E+00 0. -1.
<mgrwt>
<rscale>  0 0.17572820E+03</rscale>
<asrwt>0</asrwt>
<pdfrwt beam="1">  1        1 0.14905641E-01 0.18203421E+03</pdfrwt>
<pdfrwt beam="2">  1       -1 0.45989753E-01 0.18203421E+03</pdfrwt>
<totfact> 0.17764963E+03</totfact>
</mgrwt>
</event>
<event>
 6    1  0.5400401E-006  0.1985866E+03  0.7546771E-02  0.1160804E+00
         -2   -1    0    0    0  501 -0.00000000000E+00  0.00000000000E+00  0.10182812917E+03  0.10182812917E+03  0.00000000000E+00 0.  1.
          2   -1    0    0  501    0  0.00000000000E+00 -0.00000000000E+00 -0.42502738639E+03  0.42502738639E+03  0.00000000000E+00 0. -1.
          5    1    1    2  502    0 -0.39876689040E+02 -0.95444286007E+02  0.18767642668E+02  0.10523343799E+03  0.47000000000E+01 0. -1.
         -5    1    1    2    0  502  0.72396025409E+02 -0.27955474609E+02 -0.58475958969E+02  0.97284227051E+02  0.47000000000E+01 0.  1.
        -11    1    1    2    0    0 -0.21281858464E+02  0.92362930910E+02 -0.99538117442E+02  0.13744695460E+03  0.00000000000E+00 0.  1.
         11    1    1    2    0    0 -0.11237477904E+02  0.31036829706E+02 -0.18395282348E+03  0.18689089591E+03  0.00000000000E+00 0. -1.
<mgrwt>
<rscale>  0 0.18742611E+03</rscale>
<asrwt>0</asrwt>
<pdfrwt beam="2">  1        2 0.65388829E-01 0.19858664E+03</pdfrwt>
<pdfrwt beam="1">  1       -2 0.15665866E-01 0.19858664E+03</pdfrwt>
<totfact> 0.23506471E+03</totfact>
</mgrwt>
</event>
<event>
 7    1  0.5400401E-006  0.2933759E+03  0.7546771E-02  0.1089990E+00
          2   -1    0    0  501    0  0.00000000000E+00  0.00000000000E+00  0.12252724785E+04  0.12252724785E+04  0.00000000000E+00 0. -1.
         -2   -1    0    0    0  501 -0.00000000000E+00 -0.00000000000E+00 -0.67995295491E+02  0.67995295491E+02  0.00000000000E+00 0.  1.
         23    2    1    2    0    0 -0.18313853703E+03  0.19209557094E+03  0.54886152971E+03  0.62234907331E+03  0.12501583153E+03 0.  0.
          5    1    3    3  502    0 -0.16749769761E+03  0.15944360036E+03  0.53576685683E+03  0.58356315449E+03  0.47000000000E+01 0. -1.
         -5    1    3    3    0  502 -0.15640839419E+02  0.32651970586E+02  0.13094672878E+02  0.38785918819E+02  0.47000000000E+01 0. -1.
        -11    1    1    2    0    0  0.10681980632E+03 -0.16075933858E+03  0.48956845779E+03  0.52624263493E+03  0.00000000000E+00 0. -1.
         11    1    1    2    0    0  0.76318730714E+02 -0.31336232358E+02  0.11884719547E+03  0.14467606571E+03  0.00000000000E+00 0.  1.
<mgrwt>
<rscale>  0 0.29068922E+03</rscale>
<asrwt>0</asrwt>
<pdfrwt beam="1">  1        2 0.18850344E+00 0.29337585E+03</pdfrwt>
<pdfrwt beam="2">  1       -2 0.10460816E-01 0.29337585E+03</pdfrwt>
<totfact> 0.11935710E+03</totfact>
</mgrwt>
</event>
<event>
 7    1  0.7860015E-006  0.1382055E+03  0.7546771E-02  0.1227482E+00
          1   -1    0    0  501    0  0.00000000000E+00  0.00000000000E+00  0.13308320797E+04  0.13308320797E+04  0.00000000000E+00 0. -1.
         -1   -1    0    0    0  501 -0.00000000000E+00 -0.00000000000E+00 -0.11496626352E+02  0.11496626352E+02  0.00000000000E+00 0.  1.
         23    2    1    2    0    0 -0.54621020866E+02 -0.22194194087E+02  0.67824020527E+03  0.69217810235E+03  0.12499884460E+03 0.  0.
          5    1    3    3  502    0 -0.30135015689E+02 -0.29696830201E+01  0.29049546507E+02  0.42224451922E+02  0.47000000000E+01 0. -1.
         -5    1    3    3    0  502 -0.24486005176E+02 -0.19224511067E+02  0.64919065877E+03  0.64995365043E+03  0.47000000000E+01 0. -1.
        -11    1    1    2    0    0 -0.81737147897E+01  0.41606796500E+02  0.25405297540E+03  0.25756717461E+03  0.00000000000E+00 0.  1.
         11    1    1    2    0    0  0.62794735656E+02 -0.19412602413E+02  0.38704227270E+03  0.39258342912E+03  0.00000000000E+00 0. -1.
<mgrwt>
<rscale>  0 0.12998200E+03</rscale>
<asrwt>0</asrwt>
<pdfrwt beam="1">  1        1 0.20474327E+00 0.13820546E+03</pdfrwt>
<pdfrwt beam="2">  1       -1 0.17687128E-02 0.13820546E+03</pdfrwt>
<totfact> 0.74453199E+03</totfact>
</mgrwt>
</event>
<event>
 7    1  0.5400401E-006  0.1900439E+03  0.7546771E-02  0.1163074E+00
         -2   -1    0    0    0  501 -0.00000000000E+00  0.00000000000E+00  0.31008320791E+02  0.31008320791E+02  0.00000000000E+00 0.  1.
          2   -1    0    0  501    0  0.00000000000E+00 -0.00000000000E+00 -0.11007008147E+04  0.11007008147E+04  0.00000000000E+00 0. -1.
         23    2    1    2    0    0  0.76064366961E+02 -0.12126062970E+03 -0.68553145248E+03  0.71138599907E+03  0.12500695620E+03 0.  0.
          5    1    3    3  502    0  0.10219854193E+03 -0.72606665955E+02 -0.36153580522E+03  0.38268328729E+03  0.47000000000E+01 0.  1.
         -5    1    3    3    0  502 -0.26134174971E+02 -0.48653963742E+02 -0.32399564725E+03  0.32870271177E+03  0.47000000000E+01 0.  1.
        -11    1    1    2    0    0 -0.55257661656E+02  0.13312615940E+03 -0.35076507847E+03  0.37922568975E+03  0.00000000000E+00 0.  1.
         11    1    1    2    0    0 -0.20806705305E+02 -0.11865529705E+02 -0.33395962937E+02  0.41097446652E+02  0.00000000000E+00 0. -1.
<mgrwt>
<rscale>  0 0.18497446E+03</rscale>
<asrwt>0</asrwt>
<pdfrwt beam="2">  1        2 0.16933855E+00 0.19004386E+03</pdfrwt>
<pdfrwt beam="1">  1       -2 0.47705119E-02 0.19004386E+03</pdfrwt>
<totfact> 0.47507568E+03</totfact>
</mgrwt>
</event>
<event>
 7    1  0.5400401E-006  0.2584020E+03  0.7546771E-02  0.1109241E+00
         -2   -1    0    0    0  501 -0.00000000000E+00  0.00000000000E+00  0.60540324884E+02  0.60540324884E+02  0.00000000000E+00 0.  1.
          2   -1    0    0  501    0  0.00000000000E+00 -0.00000000000E+00 -0.12047316093E+04  0.12047316093E+04  0.00000000000E+00 0. -1.
         23    2    1    2    0    0 -0.18717158070E+03  0.12694394332E+03 -0.36923369019E+03  0.45067187000E+03  0.12499460414E+03 0.  0.
          5    1    3    3  502    0 -0.18775217271E+03  0.14014551439E+03 -0.36840923632E+03  0.43662237570E+03  0.47000000000E+01 0. -1.
         -5    1    3    3    0  502  0.58059200828E+00 -0.13201571066E+02 -0.82445387570E+00  0.14049494293E+02  0.47000000000E+01 0. -1.
        -11    1    1    2    0    0  0.19537487686E+03 -0.98213900689E+02 -0.63841334847E+03  0.67482510052E+03  0.00000000000E+00 0.  1.
         11    1    1    2    0    0 -0.82032961602E+01 -0.28730042635E+02 -0.13654424580E+03  0.13977496371E+03  0.00000000000E+00 0. -1.
<mgrwt>
<rscale>  0 0.25653793E+03</rscale>
<asrwt>0</asrwt>
<pdfrwt beam="2">  1        2 0.18534330E+00 0.25840204E+03</pdfrwt>
<pdfrwt beam="1">  1       -2 0.93138975E-02 0.25840204E+03</pdfrwt>
<totfact> 0.14773216E+03</totfact>
</mgrwt>
</event>
<event>
 7    1  0.5400401E-006  0.1765823E+03  0.7546771E-02  0.1172966E+00
          1   -1    0    0  501    0  0.00000000000E+00  0.00000000000E+00  0.48311128407E+03  0.48311128407E+03  0.00000000000E+00 0. -1.
         -1   -1    0    0    0  501 -0.00000000000E+00 -0.00000000000E+00 -0.88004285011E+02  0.88004285011E+02  0.00000000000E+00 0.  1.
         23    2    1    2    0    0 -0.10197082767E+03  0.51809836416E+02  0.39344793276E+02  0.17394046204E+03  0.12499985093E+03 0.  0.
          5    1    3    3  502    0 -0.12181700052E+03  0.10501224443E+02  0.36919123391E+02  0.12780754673E+03  0.47000000000E+01 0.  1.
         -5    1    3    3    0  502  0.19846172852E+02  0.41308611972E+02  0.24256698848E+01  0.46132915303E+02  0.47000000000E+01 0.  1.
        -11    1    1    2    0    0  0.69022768511E+02 -0.96324092057E+01  0.33090337673E+03  0.33816263929E+03  0.00000000000E+00 0. -1.
         11    1    1    2    0    0  0.32948059155E+02 -0.42177427210E+02  0.24858829045E+02  0.59012467747E+02  0.00000000000E+00 0.  1.
<mgrwt>
<rscale>  0 0.17476699E+03</rscale>
<asrwt>0</asrwt>
<pdfrwt beam="1">  1        1 0.74324811E-01 0.17658233E+03</pdfrwt>
<pdfrwt beam="2">  1       -1 0.13539121E-01 0.17658233E+03</pdfrwt>
<totfact> 0.17728926E+03</totfact>
</mgrwt>
</event>
<event>
 7    1  0.5400401E-006  0.1627619E+03  0.7546771E-02  0.1193859E+00
         -1   -1    0    0    0  501 -0.00000000000E+00  0.00000000000E+00  0.34988797224E+03  0.34988797224E+03  0.00000000000E+00 0.  1.
          1   -1    0    0  501    0  0.00000000000E+00 -0.00000000000E+00 -0.63772346081E+02  0.63772346081E+02  0.00000000000E+00 0. -1.
         23    2    1    2    0    0 -0.65206912693E+02 -0.81330922456E+02  0.16596605106E+03  0.23245682137E+03  0.12499913315E+03 0.  0.
          5    1    3    3  502    0 -0.48030403539E+02  0.16903233810E+02  0.18507373968E+02  0.54380620340E+02  0.47000000000E+01 0.  1.
         -5    1    3    3    0  502 -0.17176509154E+02 -0.98234156266E+02  0.14745867709E+03  0.17807620103E+03  0.47000000000E+01 0.  1.
        -11    1    1    2    0    0  0.44248134168E+02  0.44650719760E+02  0.12375389674E+03  0.13880421863E+03  0.00000000000E+00 0.  1.
         11    1    1    2    0    0  0.20958778526E+02  0.36680202696E+02 -0.36043216403E+01  0.42399278314E+02  0.00000000000E+00 0. -1.
<mgrwt>
<rscale>  0 0.15551177E+03</rscale>
<asrwt>0</asrwt>
<pdfrwt beam="2">  1        1 0.98111303E-02 0.16276192E+03</pdfrwt>
<pdfrwt beam="1">  1       -1 0.53828918E-01 0.16276192E+03</pdfrwt>
<totfact> 0.23021936E+03</totfact>
</mgrwt>
</event>
<event>
 7    1  0.5400401E-006  0.1791722E+03  0.7546771E-02  0.1173910E+00
         -2   -1    0    0    0  501 -0.00000000000E+00  0.00000000000E+00  0.35655417558E+02  0.35655417558E+02  0.00000000000E+00 0.  1.
          2   -1    0    0  501    0  0.00000000000E+00 -0.00000000000E+00 -0.99902190547E+03  0.99902190547E+03  0.00000000000E+00 0. -1.
         23    2    1    2    0    0 -0.46444402993E+02  0.11966428782E+03 -0.27482026700E+03  0.32806836717E+03  0.12500420007E+03 0.  0.
          5    1    3    3  502    0  0.32190942012E+02  0.10535377741E+02 -0.19293906135E+02  0.39263160159E+02  0.47000000000E+01 0.  1.
         -5    1    3    3    0  502 -0.78635345004E+02  0.10912891008E+03 -0.25552636087E+03  0.28880520701E+03  0.47000000000E+01 0.  1.
        -11    1    1    2    0    0  0.43400656931E+00 -0.11101937460E+03 -0.51727031136E+03  0.52905015350E+03  0.00000000000E+00 0. -1.
         11    1    1    2    0    0  0.46010396424E+02 -0.86449132199E+01 -0.17127590954E+03  0.17755880236E+03  0.00000000000E+00 0.  1.
<mgrwt>
<rscale>  0 0.17383159E+03</rscale>
<asrwt>0</asrwt>
<pdfrwt beam="2">  1        2 0.15369569E+00 0.17917219E+03</pdfrwt>
<pdfrwt beam="1">  1       -2 0.54854485E-02 0.17917219E+03</pdfrwt>
<totfact> 0.44094529E+03</totfact>
</mgrwt>
</event>
<event>
 7    1  0.5400401E-006  0.2072836E+03  0.7546771E-02  0.1147611E+00
          1   -1    0    0  501    0  0.00000000000E+00  0.00000000000E+00  0.12186692537E+03  0.12186692537E+03  0.00000000000E+00 0. -1.
         -1   -1    0    0    0  501 -0.00000000000E+00 -0.00000000000E+00 -0.32871090473E+03  0.32871090473E+03  0.00000000000E+00 0.  1.
         23    2    1    2    0    0  0.57005513312E+02  0.15524210030E+03 -0.14003956702E+03  0.25015505953E+03  0.12496693652E+03 0.  0.
          5    1    3    3  502    0  0.38017384991E+02  0.11004398491E+03 -0.17165293449E+02  0.11777834043E+03  0.47000000000E+01 0.  1.
         -5    1    3    3    0  502  0.18988128321E+02  0.45198115393E+02 -0.12287427358E+03  0.13237671910E+03  0.47000000000E+01 0.  1.
        -11    1    1    2    0    0 -0.71756102082E+02 -0.66114804321E+02 -0.45219400952E+02  0.10754022391E+03  0.00000000000E+00 0.  1.
         11    1    1    2    0    0  0.14750588770E+02 -0.89127295980E+02 -0.21585011386E+02  0.92882546662E+02  0.00000000000E+00 0. -1.
<mgrwt>
<rscale>  0 0.20254288E+03</rscale>
<asrwt>0</asrwt>
<pdfrwt beam="1">  1        1 0.18748758E-01 0.20728356E+03</pdfrwt>
<pdfrwt beam="2">  1       -1 0.50570908E-01 0.20728356E+03</pdfrwt>
<totfact> 0.11122305E+03</totfact>
</mgrwt>
</event>
<event>
 7    1  0.5400401E-006  0.1633866E+03  0.7546771E-02  0.1192011E+00
         -2   -1    0    0    0  501 -0.00000000000E+00  0.00000000000E+00  0.18949962563E+03  0.18949962563E+03  0.00000000000E+00 0.  1.
          2   -1    0    0  501    0  0.00000000000E+00 -0.00000000000E+00 -0.16256612796E+03  0.16256612796E+03  0.00000000000E+00 0. -1.
         23    2    1    2    0    0  0.79287010709E+02  0.69165333848E+02  0.10290035927E+03  0.19308981814E+03  0.12499968184E+03 0.  0.
          5    1    3    3  502    0  0.67390825708E+02  0.46905767662E+02 -0.47901085239E+01  0.82381488025E+02  0.47000000000E+01 0. -1.
         -5    1    3    3    0  502  0.11896185001E+02  0.22259566186E+02  0.10769046779E+03  0.11070833012E+03  0.47000000000E+01 0. -1.
        -11    1    1    2    0    0 -0.22392054565E+02 -0.55497925326E+02  0.38956028269E+01  0.59971656177E+02  0.00000000000E+00 0.  1.
         11    1    1    2    0    0 -0.56894956144E+02 -0.13667408522E+02 -0.79862464424E+02  0.99004279272E+02  0.00000000000E+00 0. -1.
<mgrwt>
<rscale>  0 0.15709898E+03</rscale>
<asrwt>0</asrwt>
<pdfrwt beam="2">  1        2 0.25010174E-01 0.16338664E+03</pdfrwt>
<pdfrwt beam="1">  1       -2 0.29153789E-01 0.16338664E+03</pdfrwt>
<totfact> 0.22661745E+03</totfact>
</mgrwt>
</event>
<event>
 7    1  0.5400401E-006  0.1389745E+03  0.7546771E-02  0.1225906E+00
         -3   -1    0    0    0  501 -0.00000000000E+00  0.00000000000E+00  0.83093163400E+02  0.83093163400E+02  0.00000000000E+00 0.  1.
          3   -1    0    0  501    0  0.00000000000E+00 -0.00000000000E+00 -0.18727484151E+03  0.18727484151E+03  0.00000000000E+00 0. -1.
         23    2    1    2    0    0  0.21582928006E+02 -0.56761861422E+02 -0.67675532632E+02  0.15457644491E+03  0.12500467155E+03 0.  0.
          5    1    3    3  502    0  0.18469881255E+02  0.27604576556E+02  0.14613309932E+02  0.36589451863E+02  0.47000000000E+01 0. -1.
         -5    1    3    3    0  502  0.31130467502E+01 -0.84366437978E+02 -0.82288842564E+02  0.11798699304E+03  0.47000000000E+01 0. -1.
        -11    1    1    2    0    0 -0.10040601139E+01  0.57550100194E+02 -0.60947424530E+02  0.83830845910E+02  0.00000000000E+00 0. -1.
         11    1    1    2    0    0 -0.20578867892E+02 -0.78823877212E+00  0.24441279048E+02  0.31960714097E+02  0.00000000000E+00 0.  1.
<mgrwt>
<rscale>  0 0.13105001E+03</rscale>
<asrwt>0</asrwt>
<pdfrwt beam="2">  1        3 0.28811514E-01 0.13897446E+03</pdfrwt>
<pdfrwt beam="1">  1       -3 0.12783564E-01 0.13897446E+03</pdfrwt>
<totfact> 0.13048768E+03</totfact>
</mgrwt>
</event>
<event>
 7    1  0.5400401E-006  0.1375057E+03  0.7546771E-02  0.1228572E+00
          3   -1    0    0  501    0  0.00000000000E+00  0.00000000000E+00  0.11234655495E+04  0.11234655495E+04  0.00000000000E+00 0. -1.
         -3   -1    0    0    0  501 -0.00000000000E+00 -0.00000000000E+00 -0.13340391827E+02  0.13340391827E+02  0.00000000000E+00 0.  1.
         23    2    1    2    0    0  0.48985888040E+02 -0.28789932919E+02  0.62374929214E+03  0.63872607023E+03  0.12521715494E+03 0.  0.
          5    1    3    3  502    0 -0.14186006325E+02 -0.42759915597E+02  0.46548387388E+03  0.46768256328E+03  0.47000000000E+01 0.  1.
         -5    1    3    3    0  502  0.63171894365E+02  0.13969982677E+02  0.15826541826E+03  0.17104350695E+03  0.47000000000E+01 0.  1.
        -11    1    1    2    0    0  0.14457183510E+02 -0.17835716197E+02  0.55362884258E+02  0.59934730171E+02  0.00000000000E+00 0. -1.
         11    1    1    2    0    0 -0.63443071550E+02  0.46625649117E+02  0.43101298129E+03  0.43814514093E+03  0.00000000000E+00 0.  1.
<mgrwt>
<rscale>  0 0.12925038E+03</rscale>
<asrwt>0</asrwt>
<pdfrwt beam="1">  1        3 0.17284078E+00 0.13750568E+03</pdfrwt>
<pdfrwt beam="2">  1       -3 0.20523689E-02 0.13750568E+03</pdfrwt>
<totfact> 0.51086152E+02</totfact>
</mgrwt>
</event>
<event>
 7    1  0.5400401E-006  0.2251438E+03  0.7546771E-02  0.1133767E+00
         -2   -1    0    0    0  501 -0.00000000000E+00  0.00000000000E+00  0.18573561648E+03  0.18573561648E+03  0.00000000000E+00 0. -1.
          2   -1    0    0  501    0  0.00000000000E+00 -0.00000000000E+00 -0.25362797066E+03  0.25362797066E+03  0.00000000000E+00 0.  1.
         23    2    1    2    0    0 -0.55918496260E+02  0.17870841590E+03 -0.92754811003E+01  0.22533481385E+03  0.12500467049E+03 0.  0.
          5    1    3    3  502    0  0.37218565637E+02  0.82397914556E+02 -0.11445544592E+02  0.91256388501E+02  0.47000000000E+01 0. -1.
         -5    1    3    3    0  502 -0.93137061897E+02  0.96310501346E+02  0.21700634922E+01  0.13407842535E+03  0.47000000000E+01 0. -1.
        -11    1    1    2    0    0  0.34964249058E+01 -0.14133080547E+03 -0.37354833623E+02  0.14622587034E+03  0.00000000000E+00 0. -1.
         11    1    1    2    0    0  0.52422071355E+02 -0.37377610435E+02 -0.21262039457E+02  0.67802902953E+02  0.00000000000E+00 0.  1.
<mgrwt>
<rscale>  0 0.22015593E+03</rscale>
<asrwt>0</asrwt>
<pdfrwt beam="2">  1        2 0.39019688E-01 0.22514383E+03</pdfrwt>
<pdfrwt beam="1">  1       -2 0.28574710E-01 0.22514383E+03</pdfrwt>
<totfact> 0.14602231E+03</totfact>
</mgrwt>
</event>
<event>
 7    1  0.5400401E-006  0.1449474E+03  0.7546771E-02  0.1216462E+00
          1   -1    0    0  501    0  0.00000000000E+00  0.00000000000E+00  0.13868044054E+03  0.13868044054E+03  0.00000000000E+00 0. -1.
         -1   -1    0    0    0  501 -0.00000000000E+00 -0.00000000000E+00 -0.12687107781E+03  0.12687107781E+03  0.00000000000E+00 0.  1.
         23    2    1    2    0    0  0.71112223123E+02 -0.18110447864E+02 -0.10828540048E+02  0.14535128508E+03  0.12499920878E+03 0.  0.
          5    1    3    3  502    0 -0.11229618647E+02  0.19016551445E+02  0.36766121006E+02  0.43145929329E+02  0.47000000000E+01 0. -1.
         -5    1    3    3    0  502  0.82341841771E+02 -0.37126999308E+02 -0.47594661054E+02  0.10220535575E+03  0.47000000000E+01 0. -1.
        -11    1    1    2    0    0  0.21919402044E+02  0.98158838448E+01 -0.32152719737E+00  0.24019057878E+02  0.00000000000E+00 0.  1.
         11    1    1    2    0    0 -0.93031625167E+02  0.82945640190E+01  0.22959429980E+02  0.96181175386E+02  0.00000000000E+00 0. -1.
<mgrwt>
<rscale>  0 0.13769670E+03</rscale>
<asrwt>0</asrwt>
<pdfrwt beam="1">  1        1 0.21335452E-01 0.14494737E+03</pdfrwt>
<pdfrwt beam="2">  1       -1 0.19518627E-01 0.14494737E+03</pdfrwt>
<totfact> 0.47306299E+03</totfact>
</mgrwt>
</event>
<event>
 7    1  0.5400401E-006  0.1872475E+03  0.7546771E-02  0.1166130E+00
         -2   -1    0    0    0  501 -0.00000000000E+00  0.00000000000E+00  0.11134588481E+03  0.11134588481E+03  0.00000000000E+00 0.  1.
          2   -1    0    0  501    0  0.00000000000E+00 -0.00000000000E+00 -0.55264852138E+03  0.55264852138E+03  0.00000000000E+00 0. -1.
         23    2    1    2    0    0  0.68662782916E+02  0.12133476819E+03  0.54632845304E+01  0.18732716758E+03  0.12499966601E+03 0.  0.
          5    1    3    3  502    0  0.31716883724E+02  0.12904709852E+03  0.36886067677E+02  0.13799197925E+03  0.47000000000E+01 0. -1.
         -5    1    3    3    0  502  0.36945899192E+02 -0.77123303248E+01 -0.31422783147E+02  0.49335188323E+02  0.47000000000E+01 0. -1.
        -11    1    1    2    0    0 -0.72126983638E+02 -0.38347295868E+02 -0.19045100477E+03  0.20723031170E+03  0.00000000000E+00 0.  1.
         11    1    1    2    0    0  0.34642007223E+01 -0.82987472327E+02 -0.25631491633E+03  0.26943692691E+03  0.00000000000E+00 0. -1.
<mgrwt>
<rscale>  0 0.18173935E+03</rscale>
<asrwt>0</asrwt>
<pdfrwt beam="2">  1        2 0.85022849E-01 0.18724748E+03</pdfrwt>
<pdfrwt beam="1">  1       -2 0.17130136E-01 0.18724748E+03</pdfrwt>
<totfact> 0.15125491E+03</totfact>
</mgrwt>
</event>
<event>
 7    1  0.5400401E-006  0.1157392E+03  0.7546771E-02  0.1261404E+00
         -3   -1    0    0    0  501 -0.00000000000E+00  0.00000000000E+00  0.59012356585E+02  0.59012356585E+02  0.00000000000E+00 0.  1.
          3   -1    0    0  501    0  0.00000000000E+00 -0.00000000000E+00 -0.18477347677E+03  0.18477347677E+03  0.00000000000E+00 0. -1.
         23    2    1    2    0    0  0.22403910183E+02  0.98080863177E+00 -0.75086918907E+02  0.13796232389E+03  0.11354585085E+03 0.  0.
          5    1    3    3  502    0  0.36099283604E+02  0.47574364272E+02 -0.64515452918E+02  0.88038696479E+02  0.47000000000E+01 0. -1.
         -5    1    3    3    0  502 -0.13695373421E+02 -0.46593555641E+02 -0.10571465989E+02  0.49923627407E+02  0.47000000000E+01 0.  1.
        -11    1    1    2    0    0 -0.89140938180E+01 -0.34550440926E+02 -0.58766408214E+02  0.68750889239E+02  0.00000000000E+00 0.  1.
         11    1    1    2    0    0 -0.13489816365E+02  0.33569632294E+02  0.80922069321E+01  0.37072620233E+02  0.00000000000E+00 0. -1.
<mgrwt>
<rscale>  0 0.10955099E+03</rscale>
<asrwt>0</asrwt>
<pdfrwt beam="2">  1        3 0.28426689E-01 0.11573918E+03</pdfrwt>
<pdfrwt beam="1">  1       -3 0.90788241E-02 0.11573918E+03</pdfrwt>
<totfact> 0.22861459E+03</totfact>
</mgrwt>
</event>
<event>
 7    1  0.5400401E-006  0.1470959E+03  0.7546771E-02  0.1213995E+00
          1   -1    0    0  501    0  0.00000000000E+00  0.00000000000E+00  0.85047082805E+02  0.85047082805E+02  0.00000000000E+00 0. -1.
         -1   -1    0    0    0  501 -0.00000000000E+00 -0.00000000000E+00 -0.26322555850E+03  0.26322555850E+03  0.00000000000E+00 0.  1.
         23    2    1    2    0    0 -0.64106340622E+02 -0.43618324249E+02 -0.17582750427E+03  0.22924335697E+03  0.12500009735E+03 0.  0.
          5    1    3    3  502    0  0.18446260583E+02  0.30400932608E+02 -0.37355064551E+02  0.51787759949E+02  0.47000000000E+01 0.  1.
         -5    1    3    3    0  502 -0.82552601205E+02 -0.74019256857E+02 -0.13847243972E+03  0.17745559702E+03  0.47000000000E+01 0.  1.
        -11    1    1    2    0    0  0.51214472921E+02  0.55297730295E+02 -0.34178352653E+02  0.82758208067E+02  0.00000000000E+00 0.  1.
         11    1    1    2    0    0  0.12891867701E+02 -0.11679406045E+02  0.31827381226E+02  0.36271076274E+02  0.00000000000E+00 0. -1.
<mgrwt>
<rscale>  0 0.13950594E+03</rscale>
<asrwt>0</asrwt>
<pdfrwt beam="1">  1        1 0.13084167E-01 0.14709591E+03</pdfrwt>
<pdfrwt beam="2">  1       -1 0.40496240E-01 0.14709591E+03</pdfrwt>
<totfact> 0.26211420E+03</totfact>
</mgrwt>
</event>
<event>
 6    1  0.5400401E-006  0.1835602E+03  0.7546771E-02  0.1174077E+00
         -2   -1    0    0    0  501 -0.00000000000E+00  0.00000000000E+00  0.35976166269E+03  0.35976166269E+03  0.00000000000E+00 0.  1.
          2   -1    0    0  501    0  0.00000000000E+00 -0.00000000000E+00 -0.26844433680E+03  0.26844433680E+03  0.00000000000E+00 0. -1.
          5    1    1    2  502    0 -0.59676547606E+02  0.12050418361E+03  0.22531091612E+03  0.26243027174E+03  0.47000000000E+01 0. -1.
         -5    1    1    2    0  502 -0.24974818051E+02 -0.41840586326E+02  0.87287667623E+02  0.10007798519E+03  0.47000000000E+01 0.  1.
        -11    1    1    2    0    0  0.32690620606E+02 -0.72208771059E+02 -0.70487121903E+02  0.10607175707E+03  0.00000000000E+00 0.  1.
         11    1    1    2    0    0  0.51960745051E+02 -0.64548262227E+01 -0.15079413595E+03  0.15962598549E+03  0.00000000000E+00 0. -1.
<mgrwt>
<rscale>  0 0.17366639E+03</rscale>
<asrwt>0</asrwt>
<pdfrwt beam="2">  1        2 0.41299128E-01 0.18356024E+03</pdfrwt>
<pdfrwt beam="1">  1       -2 0.55347948E-01 0.18356024E+03</pdfrwt>
<totfact> 0.38790235E+02</totfact>
</mgrwt>
</event>
<event>
 7    1  0.5400401E-006  0.1484637E+03  0.7546771E-02  0.1211452E+00
          4   -1    0    0  501    0  0.00000000000E+00  0.00000000000E+00  0.13733346933E+03  0.13733346933E+03  0.00000000000E+00 0. -1.
         -4   -1    0    0    0  501 -0.00000000000E+00 -0.00000000000E+00 -0.14153636250E+03  0.14153636250E+03  0.00000000000E+00 0.  1.
         23    2    1    2    0    0 -0.33106900347E+02 -0.72947031288E+02 -0.35705588911E+02  0.15269695780E+03  0.12499654242E+03 0.  0.
          5    1    3    3  502    0 -0.43384578885E+02 -0.66406351413E+02  0.30576241201E+02  0.85141186972E+02  0.47000000000E+01 0. -1.
         -5    1    3    3    0  502  0.10277678538E+02 -0.65406798757E+01 -0.66281830113E+02  0.67555770830E+02  0.47000000000E+01 0. -1.
        -11    1    1    2    0    0  0.24282201632E+02 -0.16581417706E+02 -0.35619186825E+01  0.29618507625E+02  0.00000000000E+00 0.  1.
         11    1    1    2    0    0  0.88246987144E+01  0.89528448994E+02  0.35064614420E+02  0.96554366401E+02  0.00000000000E+00 0. -1.
<mgrwt>
<rscale>  0 0.14140424E+03</rscale>
<asrwt>0</asrwt>
<pdfrwt beam="1">  1        4 0.21128226E-01 0.14846371E+03</pdfrwt>
<pdfrwt beam="2">  1       -4 0.21774825E-01 0.14846371E+03</pdfrwt>
<totfact> 0.66500701E+02</totfact>
</mgrwt>
</event>
<event>
 6    1  0.5400401E-006  0.5277496E+03  0.7546771E-02  0.1057565E+00
         -2   -1    0    0    0  501 -0.00000000000E+00  0.00000000000E+00  0.51920364447E+03  0.51920364447E+03  0.00000000000E+00 0.  1.
          2   -1    0    0  501    0  0.00000000000E+00 -0.00000000000E+00 -0.27841653832E+03  0.27841653832E+03  0.00000000000E+00 0. -1.
          5    1    1    2  502    0 -0.29089694146E+03  0.92182870418E+01  0.12204397650E+03  0.31563084381E+03  0.47000000000E+01 0. -1.
         -5    1    1    2    0  502  0.21992968061E+03  0.14239625476E+02  0.23108307548E+03  0.31936391330E+03  0.47000000000E+01 0.  1.
        -11    1    1    2    0    0 -0.14520672806E+01 -0.40780500495E+02 -0.25014299480E+02  0.47863064031E+02  0.00000000000E+00 0.  1.
         11    1    1    2    0    0  0.72419328131E+02  0.17322587977E+02 -0.87325646346E+02  0.11476236165E+03  0.00000000000E+00 0. -1.
<mgrwt>
<rscale>  0 0.36258598E+03</rscale>
<asrwt>0</asrwt>
<pdfrwt beam="2">  1        2 0.42833314E-01 0.52774959E+03</pdfrwt>
<pdfrwt beam="1">  1       -2 0.79877484E-01 0.52774959E+03</pdfrwt>
<totfact> 0.16842067E+02</totfact>
</mgrwt>
</event>
<event>
 7    1  0.5400401E-006  0.1176654E+03  0.7546771E-02  0.1256370E+00
          1   -1    0    0  501    0  0.00000000000E+00  0.00000000000E+00  0.61977014160E+03  0.61977014160E+03  0.00000000000E+00 0. -1.
         -1   -1    0    0    0  501 -0.00000000000E+00 -0.00000000000E+00 -0.18735521721E+02  0.18735521721E+02  0.00000000000E+00 0.  1.
         23    2    1    2    0    0 -0.29043240407E+02 -0.15845723347E+02  0.31394395778E+03  0.33526998283E+03  0.11291835990E+03 0.  0.
          5    1    3    3  502    0 -0.39688771535E+02 -0.90956256195E+01  0.31845419760E+03  0.32108113455E+03  0.47000000000E+01 0. -1.
         -5    1    3    3    0  502  0.10645531128E+02 -0.67500977274E+01 -0.45102398260E+01  0.14188848284E+02  0.47000000000E+01 0.  1.
        -11    1    1    2    0    0 -0.31951333455E+02  0.15917238717E+02  0.12692042033E+03  0.13184475452E+03  0.00000000000E+00 0.  1.
         11    1    1    2    0    0  0.60994573862E+02 -0.71515370000E-01  0.16017024177E+03  0.17139092597E+03  0.00000000000E+00 0. -1.
<mgrwt>
<rscale>  0 0.11229954E+03</rscale>
<asrwt>0</asrwt>
<pdfrwt beam="1">  1        1 0.95349237E-01 0.11766543E+03</pdfrwt>
<pdfrwt beam="2">  1       -1 0.28823884E-02 0.11766543E+03</pdfrwt>
<totfact> 0.12663147E+04</totfact>
</mgrwt>
</event>
<event>
 7    1  0.5400401E-006  0.1447330E+03  0.7546771E-02  0.1216882E+00
          2   -1    0    0  501    0  0.00000000000E+00  0.00000000000E+00  0.54306645292E+03  0.54306645292E+03  0.00000000000E+00 0. -1.
         -2   -1    0    0    0  501 -0.00000000000E+00 -0.00000000000E+00 -0.36977632466E+02  0.36977632466E+02  0.00000000000E+00 0.  1.
         23    2    1    2    0    0 -0.67907151602E+02 -0.26671736930E+02  0.16607857334E+03  0.22029467306E+03  0.12499955067E+03 0.  0.
          5    1    3    3  502    0  0.31902188537E+02 -0.28109303866E+02  0.67574428445E+02  0.79976721469E+02  0.47000000000E+01 0.  1.
         -5    1    3    3    0  502 -0.99809340139E+02  0.14375669360E+01  0.98504144897E+02  0.14031795159E+03  0.47000000000E+01 0.  1.
        -11    1    1    2    0    0  0.11819080092E+02  0.39076147842E+02  0.52228839898E+02  0.66290932272E+02  0.00000000000E+00 0.  1.
         11    1    1    2    0    0  0.56088071510E+02 -0.12404410912E+02  0.28778140721E+03  0.29345848005E+03  0.00000000000E+00 0. -1.
<mgrwt>
<rscale>  0 0.13739169E+03</rscale>
<asrwt>0</asrwt>
<pdfrwt beam="1">  1        2 0.83548679E-01 0.14473303E+03</pdfrwt>
<pdfrwt beam="2">  1       -2 0.56888669E-02 0.14473303E+03</pdfrwt>
<totfact> 0.87342376E+03</totfact>
</mgrwt>
</event>
<event>
 7    1  0.5400401E-006  0.1274416E+03  0.7546771E-02  0.1249743E+00
         -1   -1    0    0    0  501 -0.00000000000E+00  0.00000000000E+00  0.37656969760E+02  0.37656969760E+02  0.00000000000E+00 0.  1.
          1   -1    0    0  501    0  0.00000000000E+00 -0.00000000000E+00 -0.33523812433E+03  0.33523812433E+03  0.00000000000E+00 0. -1.
         23    2    1    2    0    0  0.24415738736E+02 -0.52815651139E+01 -0.12090395316E+03  0.17566762862E+03  0.12496930274E+03 0.  0.
          5    1    3    3  502    0  0.74039738169E+02  0.10744487333E+02 -0.67417162581E+02  0.10081909862E+03  0.47000000000E+01 0. -1.
         -5    1    3    3    0  502 -0.49623999433E+02 -0.16026052447E+02 -0.53486790575E+02  0.74848529997E+02  0.47000000000E+01 0. -1.
        -11    1    1    2    0    0 -0.50478218183E+02 -0.39775281190E+01 -0.66221823955E+02  0.83361869034E+02  0.00000000000E+00 0.  1.
         11    1    1    2    0    0  0.26062479447E+02  0.92590932329E+01 -0.11045537746E+03  0.11386559644E+03  0.00000000000E+00 0. -1.
<mgrwt>
<rscale>  0 0.11605947E+03</rscale>
<asrwt>0</asrwt>
<pdfrwt beam="2">  1        1 0.51575096E-01 0.12744155E+03</pdfrwt>
<pdfrwt beam="1">  1       -1 0.57933800E-02 0.12744155E+03</pdfrwt>
<totfact> 0.10097228E+04</totfact>
</mgrwt>
</event>
<event>
 7    1  0.5400401E-006  0.1309871E+03  0.7546771E-02  0.1244889E+00
         -1   -1    0    0    0  501 -0.00000000000E+00  0.00000000000E+00  0.61901757958E+02  0.61901757958E+02  0.00000000000E+00 0.  1.
          1   -1    0    0  501    0  0.00000000000E+00 -0.00000000000E+00 -0.23592477037E+03  0.23592477037E+03  0.00000000000E+00 0. -1.
         23    2    1    2    0    0 -0.35739874867E+02 -0.15971799664E+02 -0.40016140348E+02  0.13696319326E+03  0.12500075112E+03 0.  0.
          5    1    3    3  502    0 -0.63832703583E+02  0.24591692202E+02  0.66470835731E+01  0.68888599145E+02  0.47000000000E+01 0.  1.
         -5    1    3    3    0  502  0.28092828716E+02 -0.40563491866E+02 -0.46663223921E+02  0.68074594118E+02  0.47000000000E+01 0.  1.
        -11    1    1    2    0    0  0.38393635109E+02 -0.23221583445E+02 -0.44877523027E+02  0.63461052841E+02  0.00000000000E+00 0.  1.
         11    1    1    2    0    0 -0.26537602418E+01  0.39193383109E+02 -0.89129349038E+02  0.97402282226E+02  0.00000000000E+00 0. -1.
<mgrwt>
<rscale>  0 0.11892041E+03</rscale>
<asrwt>0</asrwt>
<pdfrwt beam="2">  1        1 0.36296118E-01 0.13098712E+03</pdfrwt>
<pdfrwt beam="1">  1       -1 0.95233475E-02 0.13098712E+03</pdfrwt>
<totfact> 0.74037023E+03</totfact>
</mgrwt>
</event>
<event>
 7    1  0.5400401E-006  0.1264788E+03  0.7546771E-02  0.1247940E+00
         -4   -1    0    0    0  501 -0.00000000000E+00  0.00000000000E+00  0.57544397917E+02  0.57544397917E+02  0.00000000000E+00 0.  1.
          4   -1    0    0  501    0  0.00000000000E+00 -0.00000000000E+00 -0.21464605527E+03  0.21464605527E+03  0.00000000000E+00 0. -1.
         23    2    1    2    0    0 -0.11382296945E+02  0.15574652378E+02 -0.68849064372E+02  0.14400376868E+03  0.12499906099E+03 0.  0.
          5    1    3    3  502    0  0.30772347349E+02 -0.19528446061E+02 -0.79811917103E+02  0.87865406609E+02  0.47000000000E+01 0. -1.
         -5    1    3    3    0  502 -0.42154644294E+02  0.35103098439E+02  0.10962852731E+02  0.56138362067E+02  0.47000000000E+01 0. -1.
        -11    1    1    2    0    0  0.87637877970E+01  0.37071963697E+02 -0.50926565498E+02  0.63597559248E+02  0.00000000000E+00 0. -1.
         11    1    1    2    0    0  0.26185091480E+01 -0.52646616075E+02 -0.37326027479E+02  0.64589125259E+02  0.00000000000E+00 0.  1.
<mgrwt>
<rscale>  0 0.11711117E+03</rscale>
<asrwt>0</asrwt>
<pdfrwt beam="2">  1        4 0.33022470E-01 0.12647882E+03</pdfrwt>
<pdfrwt beam="1">  1       -4 0.88529843E-02 0.12647882E+03</pdfrwt>
<totfact> 0.13378353E+03</totfact>
</mgrwt>
</event>
<event>
 7    1  0.5400401E-006  0.1565335E+03  0.7546771E-02  0.1200843E+00
          2   -1    0    0  501    0  0.00000000000E+00  0.00000000000E+00  0.79728003033E+03  0.79728003033E+03  0.00000000000E+00 0. -1.
         -2   -1    0    0    0  501 -0.00000000000E+00 -0.00000000000E+00 -0.28430797592E+02  0.28430797592E+02  0.00000000000E+00 0.  1.
         23    2    1    2    0    0  0.39464564896E+02  0.85562803823E+02  0.29319483012E+03  0.33236418472E+03  0.12499719034E+03 0.  0.
          5    1    3    3  502    0  0.14692283231E+02 -0.16447887730E+02  0.18230143934E+01  0.22623208853E+02  0.47000000000E+01 0. -1.
         -5    1    3    3    0  502  0.24772281665E+02  0.10201069155E+03  0.29137181573E+03  0.30974097586E+03  0.47000000000E+01 0. -1.
        -11    1    1    2    0    0 -0.47176350901E+02 -0.59340259398E+02  0.44834426852E+03  0.45470810151E+03  0.00000000000E+00 0.  1.
         11    1    1    2    0    0  0.77117860045E+01 -0.26222544425E+02  0.27310134103E+02  0.38638541694E+02  0.00000000000E+00 0. -1.
<mgrwt>
<rscale>  0 0.14969900E+03</rscale>
<asrwt>0</asrwt>
<pdfrwt beam="1">  1        2 0.12265845E+00 0.15653352E+03</pdfrwt>
<pdfrwt beam="2">  1       -2 0.43739695E-02 0.15653352E+03</pdfrwt>
<totfact> 0.83019042E+03</totfact>
</mgrwt>
</event>
<event>
 7    1  0.5400401E-006  0.1252926E+03  0.7546771E-02  0.1252019E+00
         -4   -1    0    0    0  501 -0.00000000000E+00  0.00000000000E+00  0.11219307614E+03  0.11219307614E+03  0.00000000000E+00 0.  1.
          4   -1    0    0  501    0  0.00000000000E+00 -0.00000000000E+00 -0.10217797017E+03  0.10217797017E+03  0.00000000000E+00 0. -1.
         23    2    1    2    0    0  0.46340692835E+01 -0.71580682626E+01 -0.26170992224E+01  0.12531991583E+03  0.12500207820E+03 0.  0.
          5    1    3    3  502    0 -0.45311733770E+01 -0.15941675602E+02  0.59397471520E+02  0.61845114408E+02  0.47000000000E+01 0.  1.
         -5    1    3    3    0  502  0.91652426605E+01  0.87836073393E+01 -0.62014570742E+02  0.63474801419E+02  0.47000000000E+01 0.  1.
        -11    1    1    2    0    0  0.24871006201E+02  0.11900659523E+02 -0.27548557083E+02  0.38975834101E+02  0.00000000000E+00 0. -1.
         11    1    1    2    0    0 -0.29505075484E+02 -0.47425912608E+01  0.40180762272E+02  0.50075296384E+02  0.00000000000E+00 0.  1.
<mgrwt>
<rscale>  0 0.11474939E+03</rscale>
<asrwt>0</asrwt>
<pdfrwt beam="2">  1        4 0.15719688E-01 0.12529259E+03</pdfrwt>
<pdfrwt beam="1">  1       -4 0.17260473E-01 0.12529259E+03</pdfrwt>
<totfact> 0.16483382E+03</totfact>
</mgrwt>
</event>
<event>
 7    1  0.5400401E-006  0.1974050E+03  0.7546771E-02  0.1156456E+00
          1   -1    0    0  501    0  0.00000000000E+00  0.00000000000E+00  0.46903355204E+03  0.46903355204E+03  0.00000000000E+00 0. -1.
         -1   -1    0    0    0  501 -0.00000000000E+00 -0.00000000000E+00 -0.89038054901E+02  0.89038054901E+02  0.00000000000E+00 0.  1.
         23    2    1    2    0    0 -0.82941590914E+02 -0.12832934209E+03  0.87541370494E+02  0.21594496501E+03  0.12498403426E+03 0.  0.
          5    1    3    3  502    0 -0.76098805685E+02 -0.93675963410E+02 -0.69596751045E+00  0.12078405821E+03  0.47000000000E+01 0. -1.
         -5    1    3    3    0  502 -0.68427852295E+01 -0.34653378680E+02  0.88237338004E+02  0.95160906793E+02  0.47000000000E+01 0. -1.
        -11    1    1    2    0    0  0.10964757958E+02  0.97174911466E+02  0.18275658641E+03  0.20727556347E+03  0.00000000000E+00 0.  1.
         11    1    1    2    0    0  0.71976832957E+02  0.31154430624E+02  0.10969754024E+03  0.13485107847E+03  0.00000000000E+00 0. -1.
<mgrwt>
<rscale>  0 0.19224011E+03</rscale>
<asrwt>0</asrwt>
<pdfrwt beam="1">  1        1 0.72159007E-01 0.19740501E+03</pdfrwt>
<pdfrwt beam="2">  1       -1 0.13698163E-01 0.19740501E+03</pdfrwt>
<totfact> 0.18136269E+03</totfact>
</mgrwt>
</event>
<event>
 7    1  0.5400401E-006  0.1308252E+03  0.7546771E-02  0.1239761E+00
         -1   -1    0    0    0  501 -0.00000000000E+00  0.00000000000E+00  0.42225289709E+02  0.42225289709E+02  0.00000000000E+00 0.  1.
          1   -1    0    0  501    0  0.00000000000E+00 -0.00000000000E+00 -0.31566100545E+03  0.31566100545E+03  0.00000000000E+00 0. -1.
         23    2    1    2    0    0  0.31032436302E+02 -0.22947066221E+02 -0.13901439347E+03  0.19089327691E+03  0.12500264648E+03 0.  0.
          5    1    3    3  502    0  0.27564215892E+02 -0.72447762336E+02 -0.10479998850E+03  0.13043616008E+03  0.47000000000E+01 0.  1.
         -5    1    3    3    0  502  0.34682204097E+01  0.49500696116E+02 -0.34214404971E+02  0.60457116837E+02  0.47000000000E+01 0.  1.
        -11    1    1    2    0    0 -0.34664180868E+02 -0.28399714684E+02 -0.82470462175E+02  0.93859077135E+02  0.00000000000E+00 0.  1.
         11    1    1    2    0    0  0.36317445662E+01  0.51346780904E+02 -0.51950860087E+02  0.73133941105E+02  0.00000000000E+00 0. -1.
<mgrwt>
<rscale>  0 0.12204477E+03</rscale>
<asrwt>0</asrwt>
<pdfrwt beam="2">  1        1 0.48563233E-01 0.13082523E+03</pdfrwt>
<pdfrwt beam="1">  1       -1 0.64961982E-02 0.13082523E+03</pdfrwt>
<totfact> 0.91924182E+03</totfact>
</mgrwt>
</event>
<event>
 7    1  0.5400401E-006  0.1435006E+03  0.7546771E-02  0.1218832E+00
          3   -1    0    0  501    0  0.00000000000E+00  0.00000000000E+00  0.52817897096E+02  0.52817897096E+02  0.00000000000E+00 0. -1.
         -3   -1    0    0    0  501 -0.00000000000E+00 -0.00000000000E+00 -0.33716425307E+03  0.33716425307E+03  0.00000000000E+00 0.  1.
         23    2    1    2    0    0  0.55607191285E+01  0.70215751085E+02 -0.20269180938E+03  0.24834734708E+03  0.12502504514E+03 0.  0.
          5    1    3    3  502    0  0.17329642869E+02 -0.51384140517E+00 -0.16727599812E+03  0.16823771902E+03  0.47000000000E+01 0.  1.
         -5    1    3    3    0  502 -0.11768923740E+02  0.70729592490E+02 -0.35415811263E+02  0.80109628056E+02  0.47000000000E+01 0.  1.
        -11    1    1    2    0    0  0.24044340406E+02  0.39771799381E+01 -0.50163264012E+02  0.55770075508E+02  0.00000000000E+00 0.  1.
         11    1    1    2    0    0 -0.29605059534E+02 -0.74192931023E+02 -0.31491282578E+02  0.85864727579E+02  0.00000000000E+00 0. -1.
<mgrwt>
<rscale>  0 0.13598779E+03</rscale>
<asrwt>0</asrwt>
<pdfrwt beam="1">  1        3 0.81258302E-02 0.14350065E+03</pdfrwt>
<pdfrwt beam="2">  1       -3 0.51871424E-01 0.14350065E+03</pdfrwt>
<totfact> 0.89807632E+02</totfact>
</mgrwt>
</event>
<event>
 7    1  0.5400401E-006  0.1755823E+03  0.7546771E-02  0.1177480E+00
         -1   -1    0    0    0  501 -0.00000000000E+00  0.00000000000E+00  0.13569980324E+03  0.13569980324E+03  0.00000000000E+00 0.  1.
          1   -1    0    0  501    0  0.00000000000E+00 -0.00000000000E+00 -0.20206235964E+03  0.20206235964E+03  0.00000000000E+00 0. -1.
         23    2    1    2    0    0  0.10683222986E+02 -0.12284068720E+03 -0.33520007073E+02  0.17875329374E+03  0.12500073385E+03 0.  0.
          5    1    3    3  502    0 -0.42536273029E+01 -0.13286229496E+03  0.80074752717E+01  0.13325423981E+03  0.47000000000E+01 0.  1.
         -5    1    3    3    0  502  0.14936850289E+02  0.10021607758E+02 -0.41527482345E+02  0.45499053930E+02  0.47000000000E+01 0.  1.
        -11    1    1    2    0    0 -0.36440629418E+01  0.13842821429E+03 -0.29076998113E+02  0.14149601240E+03  0.00000000000E+00 0.  1.
         11    1    1    2    0    0 -0.70391600442E+01 -0.15587527089E+02 -0.37655512141E+01  0.17512856729E+02  0.00000000000E+00 0. -1.
<mgrwt>
<rscale>  0 0.17035274E+03</rscale>
<asrwt>0</asrwt>
<pdfrwt beam="2">  1        1 0.31086517E-01 0.17558231E+03</pdfrwt>
<pdfrwt beam="1">  1       -1 0.20876893E-01 0.17558231E+03</pdfrwt>
<totfact> 0.26668681E+03</totfact>
</mgrwt>
</event>
<event>
 7    1  0.5400401E-006  0.1338485E+03  0.7546771E-02  0.1234597E+00
          1   -1    0    0  501    0  0.00000000000E+00  0.00000000000E+00  0.16705164464E+03  0.16705164464E+03  0.00000000000E+00 0. -1.
         -1   -1    0    0    0  501 -0.00000000000E+00 -0.00000000000E+00 -0.86766670676E+02  0.86766670676E+02  0.00000000000E+00 0.  1.
         23    2    1    2    0    0 -0.47610198407E+02  0.50620709217E+01  0.22002865520E+02  0.13564494017E+03  0.12499227235E+03 0.  0.
          5    1    3    3  502    0  0.40344250255E+02  0.78279673047E+01  0.23372303592E+02  0.47510947959E+02  0.47000000000E+01 0. -1.
         -5    1    3    3    0  502 -0.87954448662E+02 -0.27658963830E+01 -0.13694380726E+01  0.88133992210E+02  0.47000000000E+01 0. -1.
        -11    1    1    2    0    0 -0.72807547481E+01  0.71097041633E+01 -0.19619348965E+02  0.22101496257E+02  0.00000000000E+00 0.  1.
         11    1    1    2    0    0  0.54890953155E+02 -0.12171775085E+02  0.77901457411E+02  0.96071878891E+02  0.00000000000E+00 0. -1.
<mgrwt>
<rscale>  0 0.12530257E+03</rscale>
<asrwt>0</asrwt>
<pdfrwt beam="1">  1        1 0.25700253E-01 0.13384851E+03</pdfrwt>
<pdfrwt beam="2">  1       -1 0.13348719E-01 0.13384851E+03</pdfrwt>
<totfact> 0.67787268E+03</totfact>
</mgrwt>
</event>
<event>
 6    1  0.5400401E-006  0.2897703E+03  0.7546771E-02  0.1107905E+00
          3   -1    0    0  501    0  0.00000000000E+00  0.00000000000E+00  0.67635980355E+03  0.67635980355E+03  0.00000000000E+00 0. -1.
         -3   -1    0    0    0  501 -0.00000000000E+00 -0.00000000000E+00 -0.10817357718E+03  0.10817357718E+03  0.00000000000E+00 0.  1.
          5    1    1    2  502    0 -0.11314703743E+03 -0.41840550687E+02  0.83559735483E+02  0.14682371455E+03  0.47000000000E+01 0. -1.
         -5    1    1    2    0  502  0.11712281402E+03 -0.11816108479E+03  0.63636755614E+02  0.17818956812E+03  0.47000000000E+01 0.  1.
        -11    1    1    2    0    0 -0.15322174233E+02  0.23209003598E+02  0.16412955634E+02  0.32292599522E+02  0.00000000000E+00 0.  1.
         11    1    1    2    0    0  0.11346397648E+02  0.13679263188E+03  0.40457677964E+03  0.42722749853E+03  0.00000000000E+00 0. -1.
<mgrwt>
<rscale>  0 0.25873642E+03</rscale>
<asrwt>0</asrwt>
<pdfrwt beam="1">  1        3 0.10405535E+00 0.28977030E+03</pdfrwt>
<pdfrwt beam="2">  1       -3 0.16642089E-01 0.28977030E+03</pdfrwt>
<totfact> 0.64361739E+01</totfact>
</mgrwt>
</event>
<event>
 7    1  0.5400401E-006  0.1684992E+03  0.7546771E-02  0.1186278E+00
         -1   -1    0    0    0  501 -0.00000000000E+00  0.00000000000E+00  0.66328561901E+03  0.66328561901E+03  0.00000000000E+00 0.  1.
          1   -1    0    0  501    0  0.00000000000E+00 -0.00000000000E+00 -0.37359374012E+02  0.37359374012E+02  0.00000000000E+00 0. -1.
         23    2    1    2    0    0  0.83626888370E+01 -0.11268078216E+03  0.37386085939E+03  0.41007796144E+03  0.12500039616E+03 0.  0.
          5    1    3    3  502    0  0.40165001468E+02 -0.18969222606E+02  0.34180637427E+02  0.56244686186E+02  0.47000000000E+01 0. -1.
         -5    1    3    3    0  502 -0.31802312631E+02 -0.93711559558E+02  0.33968022196E+03  0.35383327525E+03  0.47000000000E+01 0. -1.
        -11    1    1    2    0    0 -0.35949883461E+02  0.84579068621E+02  0.22425942947E+03  0.24235986606E+03  0.00000000000E+00 0.  1.
         11    1    1    2    0    0  0.27587194624E+02  0.28101713544E+02  0.27805956140E+02  0.48207165527E+02  0.00000000000E+00 0. -1.
<mgrwt>
<rscale>  0 0.16216106E+03</rscale>
<asrwt>0</asrwt>
<pdfrwt beam="2">  1        1 0.57475965E-02 0.16849924E+03</pdfrwt>
<pdfrwt beam="1">  1       -1 0.10204393E+00 0.16849924E+03</pdfrwt>
<totfact> 0.13024541E+03</totfact>
</mgrwt>
</event>
<event>
 7    1  0.5400401E-006  0.2191863E+03  0.7546771E-02  0.1137787E+00
          2   -1    0    0  501    0  0.00000000000E+00  0.00000000000E+00  0.17672109114E+03  0.17672109114E+03  0.00000000000E+00 0.  1.
         -2   -1    0    0    0  501 -0.00000000000E+00 -0.00000000000E+00 -0.31481687427E+03  0.31481687427E+03  0.00000000000E+00 0. -1.
         23    2    1    2    0    0 -0.15363247158E+03  0.93886628837E+02 -0.18153628777E+03  0.28460157982E+03  0.12500000023E+03 0.  0.
          5    1    3    3  502    0 -0.70215479893E+02  0.85445174839E+02 -0.16550444539E+03  0.19911027840E+03  0.47000000000E+01 0.  1.
         -5    1    3    3    0  502 -0.83416991686E+02  0.84414539980E+01 -0.16031842376E+02  0.85491301415E+02  0.47000000000E+01 0.  1.
        -11    1    1    2    0    0  0.78297335230E+02 -0.43475104617E+02 -0.25426605259E+02  0.93097098132E+02  0.00000000000E+00 0. -1.
         11    1    1    2    0    0  0.75335136349E+02 -0.50411524220E+02  0.68867109905E+02  0.11383928746E+03  0.00000000000E+00 0.  1.
<mgrwt>
<rscale>  0 0.21484373E+03</rscale>
<asrwt>0</asrwt>
<pdfrwt beam="1">  1        2 0.27187861E-01 0.21918630E+03</pdfrwt>
<pdfrwt beam="2">  1       -2 0.48433365E-01 0.21918630E+03</pdfrwt>
<totfact> 0.80003175E+02</totfact>
</mgrwt>
</event>
<event>
 7    1  0.6236253E-006  0.2023105E+03  0.7546771E-02  0.1151935E+00
          1   -1    0    0  501    0  0.00000000000E+00  0.00000000000E+00  0.60355680602E+03  0.60355680602E+03  0.00000000000E+00 0. -1.
         -1   -1    0    0    0  501 -0.00000000000E+00 -0.00000000000E+00 -0.69081574556E+02  0.69081574556E+02  0.00000000000E+00 0.  1.
         23    2    1    2    0    0 -0.15881124320E+03  0.91688113017E+01  0.16861172962E+03  0.26336182586E+03  0.12499783153E+03 0.  0.
          5    1    3    3  502    0 -0.15907886282E+03  0.11177223050E+02  0.87250772943E+02  0.18184004589E+03  0.47000000000E+01 0. -1.
         -5    1    3    3    0  502  0.26761961871E+00 -0.20084117479E+01  0.81360956676E+02  0.81521779969E+02  0.47000000000E+01 0. -1.
        -11    1    1    2    0    0  0.13610847334E+03 -0.34561616041E+02  0.23237537107E+03  0.27151120584E+03  0.00000000000E+00 0.  1.
         11    1    1    2    0    0  0.22702769864E+02  0.25392804739E+02  0.13348813077E+03  0.13776534887E+03  0.00000000000E+00 0. -1.
<mgrwt>
<rscale>  0 0.19741897E+03</rscale>
<asrwt>0</asrwt>
<pdfrwt beam="1">  1        1 0.92854890E-01 0.20231049E+03</pdfrwt>
<pdfrwt beam="2">  1       -1 0.10627935E-01 0.20231049E+03</pdfrwt>
<totfact> 0.19215947E+03</totfact>
</mgrwt>
</event>
<event>
 7    1  0.5400401E-006  0.1503658E+03  0.7546771E-02  0.1208765E+00
         -2   -1    0    0    0  501 -0.00000000000E+00  0.00000000000E+00  0.68824165897E+02  0.68824165897E+02  0.00000000000E+00 0.  1.
          2   -1    0    0  501    0  0.00000000000E+00 -0.00000000000E+00 -0.28101544519E+03  0.28101544519E+03  0.00000000000E+00 0. -1.
         23    2    1    2    0    0  0.48622935396E+02 -0.67995225587E+02 -0.14231618012E+03  0.20703564194E+03  0.12498928498E+03 0.  0.
          5    1    3    3  502    0  0.56858172740E+02  0.72509404629E+01 -0.15991183345E+02  0.59692846219E+02  0.47000000000E+01 0.  1.
         -5    1    3    3    0  502 -0.82352373438E+01 -0.75246166050E+02 -0.12632499678E+03  0.14734279572E+03  0.47000000000E+01 0.  1.
        -11    1    1    2    0    0 -0.55698135416E+02  0.20559035536E+02 -0.16328300142E+01  0.59393790625E+02  0.00000000000E+00 0.  1.
         11    1    1    2    0    0  0.70752000197E+01  0.47436190052E+02 -0.68242269155E+02  0.83410178524E+02  0.00000000000E+00 0. -1.
<mgrwt>
<rscale>  0 0.14344643E+03</rscale>
<asrwt>0</asrwt>
<pdfrwt beam="2">  1        2 0.43233146E-01 0.15036576E+03</pdfrwt>
<pdfrwt beam="1">  1       -2 0.10588333E-01 0.15036576E+03</pdfrwt>
<totfact> 0.68155547E+03</totfact>
</mgrwt>
</event>
<event>
 6    1  0.5400401E-006  0.4136303E+03  0.7546771E-02  0.1046971E+00
         -1   -1    0    0    0  501 -0.00000000000E+00  0.00000000000E+00  0.36038835005E+03  0.36038835005E+03  0.00000000000E+00 0.  1.
          1   -1    0    0  501    0  0.00000000000E+00 -0.00000000000E+00 -0.40653450721E+03  0.40653450721E+03  0.00000000000E+00 0. -1.
          5    1    1    2  502    0  0.21019908287E+03  0.30195595451E+02 -0.70335751333E+02  0.22375128232E+03  0.47000000000E+01 0. -1.
         -5    1    1    2    0  502  0.99516599026E+02 -0.98796473256E+02  0.13536120328E+03  0.19495907766E+03  0.47000000000E+01 0.  1.
        -11    1    1    2    0    0 -0.12012255986E+02  0.22412520958E+02 -0.23057661270E+02  0.34325954216E+02  0.00000000000E+00 0.  1.
         11    1    1    2    0    0 -0.29770342591E+03  0.46188356847E+02 -0.88113947831E+02  0.31388654306E+03  0.00000000000E+00 0. -1.
<mgrwt>
<rscale>  0 0.39091667E+03</rscale>
<asrwt>0</asrwt>
<pdfrwt beam="2">  1        1 0.62543770E-01 0.41363034E+03</pdfrwt>
<pdfrwt beam="1">  1       -1 0.55444362E-01 0.41363034E+03</pdfrwt>
<totfact> 0.19977957E+02</totfact>
</mgrwt>
</event>
<event>
 7    1  0.5400401E-006  0.1421798E+03  0.7546771E-02  0.1220520E+00
         -1   -1    0    0    0  501 -0.00000000000E+00  0.00000000000E+00  0.14908365348E+03  0.14908365348E+03  0.00000000000E+00 0.  1.
          1   -1    0    0  501    0  0.00000000000E+00 -0.00000000000E+00 -0.11083433976E+03  0.11083433976E+03  0.00000000000E+00 0. -1.
         23    2    1    2    0    0  0.40197342129E+02 -0.54565638464E+02  0.18109999395E+02  0.14332857197E+03  0.12498748837E+03 0.  0.
          5    1    3    3  502    0 -0.50206245522E+01 -0.53903740166E+02  0.60391455850E+02  0.81240616778E+02  0.47000000000E+01 0. -1.
         -5    1    3    3    0  502  0.45217966681E+02 -0.66189829813E+00 -0.42281456455E+02  0.62087955193E+02  0.47000000000E+01 0. -1.
        -11    1    1    2    0    0 -0.33529713673E+02 -0.18101766688E+00 -0.27768618192E+02  0.43535854450E+02  0.00000000000E+00 0. -1.
         11    1    1    2    0    0 -0.66676284557E+01  0.54746656131E+02  0.47907932512E+02  0.73053566815E+02  0.00000000000E+00 0.  1.
<mgrwt>
<rscale>  0 0.13478726E+03</rscale>
<asrwt>0</asrwt>
<pdfrwt beam="2">  1        1 0.17051437E-01 0.14217984E+03</pdfrwt>
<pdfrwt beam="1">  1       -1 0.22935947E-01 0.14217984E+03</pdfrwt>
<totfact> 0.48466723E+03</totfact>
</mgrwt>
</event>
<event>
 7    1  0.5400401E-006  0.1145467E+03  0.7546771E-02  0.1260575E+00
          4   -1    0    0  501    0  0.00000000000E+00  0.00000000000E+00  0.11309891456E+03  0.11309891456E+03  0.00000000000E+00 0. -1.
         -4   -1    0    0    0  501 -0.00000000000E+00 -0.00000000000E+00 -0.99319168617E+02  0.99319168617E+02  0.00000000000E+00 0.  1.
         23    2    1    2    0    0  0.18478294344E+01  0.28528609956E+02  0.60340880382E+01  0.11470549858E+03  0.11092179735E+03 0.  0.
          5    1    3    3  502    0  0.30751045373E+01  0.65805320517E+02  0.27358091970E+02  0.71486723750E+02  0.47000000000E+01 0. -1.
         -5    1    3    3    0  502 -0.12272751029E+01 -0.37276710562E+02 -0.21324003931E+02  0.43218774834E+02  0.47000000000E+01 0.  1.
        -11    1    1    2    0    0 -0.36273027650E+02 -0.33495939709E+02 -0.19949748088E+02  0.53251318863E+02  0.00000000000E+00 0.  1.
         11    1    1    2    0    0  0.34425198215E+02  0.49673297533E+01  0.27695405989E+02  0.44461265726E+02  0.00000000000E+00 0. -1.
<mgrwt>
<rscale>  0 0.10999737E+03</rscale>
<asrwt>0</asrwt>
<pdfrwt beam="1">  1        4 0.17399833E-01 0.11454668E+03</pdfrwt>
<pdfrwt beam="2">  1       -4 0.15279872E-01 0.11454668E+03</pdfrwt>
<totfact> 0.16727218E+03</totfact>
</mgrwt>
</event>
<event>
 7    1  0.5400401E-006  0.1569993E+03  0.7546771E-02  0.1199294E+00
         -1   -1    0    0    0  501 -0.00000000000E+00  0.00000000000E+00  0.21561421524E+02  0.21561421524E+02  0.00000000000E+00 0.  1.
          1   -1    0    0  501    0  0.00000000000E+00 -0.00000000000E+00 -0.11039987162E+04  0.11039987162E+04  0.00000000000E+00 0. -1.
         23    2    1    2    0    0  0.67018476179E+02  0.67320379444E+02 -0.39335218228E+03  0.42352651016E+03  0.12500102346E+03 0.  0.
          5    1    3    3  502    0  0.98102551101E+02  0.21516867756E+02 -0.27441291452E+03  0.29225267114E+03  0.47000000000E+01 0. -1.
         -5    1    3    3    0  502 -0.31084074922E+02  0.45803511688E+02 -0.11893926776E+03  0.13127383902E+03  0.47000000000E+01 0. -1.
        -11    1    1    2    0    0  0.22465747777E+02 -0.39642291311E+00 -0.11429433450E+03  0.11648202382E+03  0.00000000000E+00 0. -1.
         11    1    1    2    0    0 -0.89484223957E+02 -0.66923956531E+02 -0.57479077790E+03  0.58555160375E+03  0.00000000000E+00 0.  1.
<mgrwt>
<rscale>  0 0.15096324E+03</rscale>
<asrwt>0</asrwt>
<pdfrwt beam="2">  1        1 0.16984599E+00 0.15699925E+03</pdfrwt>
<pdfrwt beam="1">  1       -1 0.33171412E-02 0.15699925E+03</pdfrwt>
<totfact> 0.42910563E+03</totfact>
</mgrwt>
</event>
<event>
 7    1  0.5400401E-006  0.1735106E+03  0.7546771E-02  0.1180302E+00
         -1   -1    0    0    0  501 -0.00000000000E+00  0.00000000000E+00  0.11042890724E+03  0.11042890724E+03  0.00000000000E+00 0.  1.
          1   -1    0    0  501    0  0.00000000000E+00 -0.00000000000E+00 -0.36610845287E+03  0.36610845287E+03  0.00000000000E+00 0. -1.
         23    2    1    2    0    0  0.73511641471E+02  0.95247028559E+02  0.67264350580E+01  0.17364095074E+03  0.12501990627E+03 0.  0.
          5    1    3    3  502    0 -0.31992961216E+02  0.40820226243E+01 -0.73699828348E+01  0.33415851374E+02  0.47000000000E+01 0.  1.
         -5    1    3    3    0  502  0.10550460269E+03  0.91165005935E+02  0.14096417893E+02  0.14022509937E+03  0.47000000000E+01 0.  1.
        -11    1    1    2    0    0  0.67508853849E+01 -0.39600281103E+02 -0.28025791860E+02  0.48981646831E+02  0.00000000000E+00 0.  1.
         11    1    1    2    0    0 -0.80262526855E+02 -0.55646747456E+02 -0.23438018883E+03  0.25391476254E+03  0.00000000000E+00 0. -1.
<mgrwt>
<rscale>  0 0.16766742E+03</rscale>
<asrwt>0</asrwt>
<pdfrwt beam="2">  1        1 0.56324376E-01 0.17351062E+03</pdfrwt>
<pdfrwt beam="1">  1       -1 0.16989063E-01 0.17351062E+03</pdfrwt>
<totfact> 0.17666866E+03</totfact>
</mgrwt>
</event>
<event>
 7    1  0.5400401E-006  0.1288553E+03  0.7546771E-02  0.1243591E+00
          1   -1    0    0  501    0  0.00000000000E+00  0.00000000000E+00  0.58919867753E+02  0.58919867753E+02  0.00000000000E+00 0. -1.
         -1   -1    0    0    0  501 -0.00000000000E+00 -0.00000000000E+00 -0.25489150978E+03  0.25489150978E+03  0.00000000000E+00 0.  1.
         23    2    1    2    0    0  0.52001010562E+01  0.30849605085E+02 -0.17198122912E+03  0.21489820971E+03  0.12499983272E+03 0.  0.
          5    1    3    3  502    0  0.66538797994E+01  0.41030146324E+01 -0.18466527059E+03  0.18489040270E+03  0.47000000000E+01 0. -1.
         -5    1    3    3    0  502 -0.14537787433E+01  0.26746590453E+02  0.12684041471E+02  0.30007807010E+02  0.47000000000E+01 0. -1.
        -11    1    1    2    0    0 -0.45137169462E+02 -0.31895849598E+02 -0.19945073783E+02  0.58758108009E+02  0.00000000000E+00 0. -1.
         11    1    1    2    0    0  0.39937068406E+02  0.10462445125E+01 -0.40453391204E+01  0.40155059818E+02  0.00000000000E+00 0.  1.
<mgrwt>
<rscale>  0 0.11970136E+03</rscale>
<asrwt>0</asrwt>
<pdfrwt beam="1">  1        1 0.90645949E-02 0.12885534E+03</pdfrwt>
<pdfrwt beam="2">  1       -1 0.39214079E-01 0.12885534E+03</pdfrwt>
<totfact> 0.44687974E+03</totfact>
</mgrwt>
</event>
<event>
 7    1  0.5400401E-006  0.2172105E+03  0.7546771E-02  0.1139482E+00
          1   -1    0    0  501    0  0.00000000000E+00  0.00000000000E+00  0.35951999753E+03  0.35951999753E+03  0.00000000000E+00 0. -1.
         -1   -1    0    0    0  501 -0.00000000000E+00 -0.00000000000E+00 -0.13806309796E+03  0.13806309796E+03  0.00000000000E+00 0.  1.
         23    2    1    2    0    0 -0.85512036431E+01 -0.17743042754E+03  0.26870023208E+02  0.21886612171E+03  0.12500280551E+03 0.  0.
          5    1    3    3  502    0 -0.43742934618E+02 -0.19506780166E+02 -0.17203232376E+02  0.51107729411E+02  0.47000000000E+01 0. -1.
         -5    1    3    3    0  502  0.35191730975E+02 -0.15792364737E+03  0.44073255584E+02  0.16775839230E+03  0.47000000000E+01 0. -1.
        -11    1    1    2    0    0  0.25466916828E+02  0.17717260539E+03  0.15942869366E+03  0.23970023846E+03  0.00000000000E+00 0.  1.
         11    1    1    2    0    0 -0.16915713185E+02  0.25782214882E+00  0.35158182694E+02  0.39016735322E+02  0.00000000000E+00 0. -1.
<mgrwt>
<rscale>  0 0.21265322E+03</rscale>
<asrwt>0</asrwt>
<pdfrwt beam="1">  1        1 0.55310768E-01 0.21721045E+03</pdfrwt>
<pdfrwt beam="2">  1       -1 0.21240477E-01 0.21721045E+03</pdfrwt>
<totfact> 0.12665873E+03</totfact>
</mgrwt>
</event>
<event>
 7    1  0.5400401E-006  0.1335365E+03  0.7546771E-02  0.1232580E+00
          2   -1    0    0  501    0  0.00000000000E+00  0.00000000000E+00  0.26014868508E+03  0.26014868508E+03  0.00000000000E+00 0. -1.
         -2   -1    0    0    0  501 -0.00000000000E+00 -0.00000000000E+00 -0.61022468607E+02  0.61022468607E+02  0.00000000000E+00 0.  1.
         23    2    1    2    0    0  0.10296354685E+02 -0.45734849127E+02  0.63516433267E+02  0.14787269948E+03  0.12503722091E+03 0.  0.
          5    1    3    3  502    0  0.32619629637E+02 -0.83234798440E+02  0.39644142233E+02  0.97907200565E+02  0.47000000000E+01 0. -1.
         -5    1    3    3    0  502 -0.22323274952E+02  0.37499949313E+02  0.23872291034E+02  0.49965498919E+02  0.47000000000E+01 0. -1.
        -11    1    1    2    0    0 -0.26472728579E+01  0.55227983526E+02  0.14672716690E+03  0.15679923381E+03  0.00000000000E+00 0. -1.
         11    1    1    2    0    0 -0.76490818273E+01 -0.94931343992E+01 -0.11117383690E+02  0.16499220394E+02  0.00000000000E+00 0.  1.
<mgrwt>
<rscale>  0 0.12660622E+03</rscale>
<asrwt>0</asrwt>
<pdfrwt beam="1">  1        2 0.40022874E-01 0.13353650E+03</pdfrwt>
<pdfrwt beam="2">  1       -2 0.93880723E-02 0.13353650E+03</pdfrwt>
<totfact> 0.88671589E+03</totfact>
</mgrwt>
</event>
<event>
 7    1  0.5400401E-006  0.1745681E+03  0.7546771E-02  0.1178595E+00
         -1   -1    0    0    0  501 -0.00000000000E+00  0.00000000000E+00  0.77997195686E+03  0.77997195686E+03  0.00000000000E+00 0.  1.
          1   -1    0    0  501    0  0.00000000000E+00 -0.00000000000E+00 -0.36690613232E+02  0.36690613232E+02  0.00000000000E+00 0. -1.
         23    2    1    2    0    0 -0.11988997786E+03 -0.21818124821E+02  0.48856122828E+03  0.51881219680E+03  0.12499753757E+03 0.  0.
          5    1    3    3  502    0 -0.26397002804E+02 -0.59001224063E+02  0.27723102717E+03  0.28470524868E+03  0.47000000000E+01 0. -1.
         -5    1    3    3    0  502 -0.93492975061E+02  0.37183099243E+02  0.21133020111E+03  0.23410694812E+03  0.47000000000E+01 0. -1.
        -11    1    1    2    0    0  0.34231912551E+02  0.48938162283E+02  0.67116302276E+02  0.89840779136E+02  0.00000000000E+00 0. -1.
         11    1    1    2    0    0  0.85658065314E+02 -0.27120037462E+02  0.18760381307E+03  0.20800959416E+03  0.00000000000E+00 0.  1.
<mgrwt>
<rscale>  0 0.16928555E+03</rscale>
<asrwt>0</asrwt>
<pdfrwt beam="2">  1        1 0.56447103E-02 0.17456810E+03</pdfrwt>
<pdfrwt beam="1">  1       -1 0.11999567E+00 0.17456810E+03</pdfrwt>
<totfact> 0.92172286E+02</totfact>
</mgrwt>
</event>
<event>
 7    1  0.5400401E-006  0.1307402E+03  0.7546771E-02  0.1240160E+00
         -1   -1    0    0    0  501 -0.00000000000E+00  0.00000000000E+00  0.39324290607E+02  0.39324290607E+02  0.00000000000E+00 0.  1.
          1   -1    0    0  501    0  0.00000000000E+00 -0.00000000000E+00 -0.36128292002E+03  0.36128292002E+03  0.00000000000E+00 0. -1.
         23    2    1    2    0    0  0.24645528200E+02 -0.29320096767E+02 -0.12741089862E+03  0.18255556807E+03  0.12500371279E+03 0.  0.
          5    1    3    3  502    0 -0.47593181289E+01  0.43403712142E+02 -0.78627757602E+02  0.90060799476E+02  0.47000000000E+01 0.  1.
         -5    1    3    3    0  502  0.29404846329E+02 -0.72723808910E+02 -0.48783141020E+02  0.92494768597E+02  0.47000000000E+01 0.  1.
        -11    1    1    2    0    0  0.17164868934E+02  0.49252015561E+02 -0.10356530920E+03  0.11595760877E+03  0.00000000000E+00 0.  1.
         11    1    1    2    0    0 -0.41810397134E+02 -0.19931918794E+02 -0.90982421590E+02  0.10209403378E+03  0.00000000000E+00 0. -1.
<mgrwt>
<rscale>  0 0.12179808E+03</rscale>
<asrwt>0</asrwt>
<pdfrwt beam="2">  1        1 0.55581990E-01 0.13074019E+03</pdfrwt>
<pdfrwt beam="1">  1       -1 0.60498906E-02 0.13074019E+03</pdfrwt>
<totfact> 0.86418552E+03</totfact>
</mgrwt>
</event>
<event>
 7    1  0.5400401E-006  0.1484399E+03  0.7546771E-02  0.1212008E+00
          2   -1    0    0  501    0  0.00000000000E+00  0.00000000000E+00  0.34432660123E+03  0.34432660123E+03  0.00000000000E+00 0. -1.
         -2   -1    0    0    0  501 -0.00000000000E+00 -0.00000000000E+00 -0.54886172816E+02  0.54886172816E+02  0.00000000000E+00 0.  1.
         23    2    1    2    0    0  0.79075440004E+02  0.12165521385E+02  0.11871116413E+03  0.19007034581E+03  0.12503387839E+03 0.  0.
          5    1    3    3  502    0 -0.28336250850E+02  0.45396109685E+01 -0.85617003642E+00  0.29092511186E+02  0.47000000000E+01 0. -1.
         -5    1    3    3    0  502  0.10741169085E+03  0.76259104163E+01  0.11956733416E+03  0.16097783462E+03  0.47000000000E+01 0. -1.
        -11    1    1    2    0    0 -0.50226579452E+00  0.28149159611E+02  0.20310062362E+02  0.34714926053E+02  0.00000000000E+00 0.  1.
         11    1    1    2    0    0 -0.78573174210E+02 -0.40314680995E+02  0.15041920192E+03  0.17442750218E+03  0.00000000000E+00 0. -1.
<mgrwt>
<rscale>  0 0.14098651E+03</rscale>
<asrwt>0</asrwt>
<pdfrwt beam="1">  1        2 0.52973322E-01 0.14843987E+03</pdfrwt>
<pdfrwt beam="2">  1       -2 0.84440268E-02 0.14843987E+03</pdfrwt>
<totfact> 0.78235057E+03</totfact>
</mgrwt>
</event>
<event>
 7    1  0.5400401E-006  0.1345055E+03  0.7546771E-02  0.1232583E+00
          1   -1    0    0  501    0  0.00000000000E+00  0.00000000000E+00  0.13003002345E+03  0.13003002345E+03  0.00000000000E+00 0. -1.
         -1   -1    0    0    0  501 -0.00000000000E+00 -0.00000000000E+00 -0.12839356726E+03  0.12839356726E+03  0.00000000000E+00 0.  1.
         23    2    1    2    0    0  0.40384194813E+02 -0.28909437442E+02 -0.46599116539E+02  0.14234892007E+03  0.12500039448E+03 0.  0.
          5    1    3    3  502    0 -0.39552876220E+02 -0.22095692196E+02  0.65230231539E+01  0.46014013756E+02  0.47000000000E+01 0. -1.
         -5    1    3    3    0  502  0.79937071033E+02 -0.68137452460E+01 -0.53122139693E+02  0.96334906317E+02  0.47000000000E+01 0. -1.
        -11    1    1    2    0    0 -0.13625554564E+02  0.65125604500E+01  0.72187606973E+02  0.73750388347E+02  0.00000000000E+00 0. -1.
         11    1    1    2    0    0 -0.26758640249E+02  0.22396876992E+02 -0.23952034247E+02  0.42324282292E+02  0.00000000000E+00 0.  1.
<mgrwt>
<rscale>  0 0.12660422E+03</rscale>
<asrwt>0</asrwt>
<pdfrwt beam="1">  1        1 0.20004619E-01 0.13450553E+03</pdfrwt>
<pdfrwt beam="2">  1       -1 0.19752856E-01 0.13450553E+03</pdfrwt>
<totfact> 0.50138189E+03</totfact>
</mgrwt>
</event>
<event>
 6    1  0.5400401E-006  0.3039320E+03  0.7546771E-02  0.1107076E+00
         -1   -1    0    0    0  501 -0.00000000000E+00  0.00000000000E+00  0.92744326903E+02  0.92744326903E+02  0.00000000000E+00 0.  1.
          1   -1    0    0  501    0  0.00000000000E+00 -0.00000000000E+00 -0.63982620493E+03  0.63982620493E+03  0.00000000000E+00 0. -1.
          5    1    1    2  502    0  0.15952181729E+03 -0.48355290881E+02 -0.23220345125E+03  0.28587755616E+03  0.47000000000E+01 0. -1.
         -5    1    1    2    0  502 -0.34276979655E+02  0.10008101733E+03 -0.17190175758E+02  0.10727867219E+03  0.47000000000E+01 0.  1.
        -11    1    1    2    0    0 -0.96917351668E+02 -0.76712949476E+01 -0.12151598659E+03  0.15562119655E+03  0.00000000000E+00 0.  1.
         11    1    1    2    0    0 -0.28327485964E+02 -0.44054431505E+02 -0.17617226444E+03  0.18379310692E+03  0.00000000000E+00 0. -1.
<mgrwt>
<rscale>  0 0.26011139E+03</rscale>
<asrwt>0</asrwt>
<pdfrwt beam="2">  1        1 0.98434802E-01 0.30393196E+03</pdfrwt>
<pdfrwt beam="1">  1       -1 0.14268358E-01 0.30393196E+03</pdfrwt>
<totfact> 0.11194567E+03</totfact>
</mgrwt>
</event>
<event>
 7    1  0.5400401E-006  0.1948718E+03  0.7546771E-02  0.1158276E+00
         -1   -1    0    0    0  501 -0.00000000000E+00  0.00000000000E+00  0.17380742831E+03  0.17380742831E+03  0.00000000000E+00 0. -1.
          1   -1    0    0  501    0  0.00000000000E+00 -0.00000000000E+00 -0.22469505055E+03  0.22469505055E+03  0.00000000000E+00 0.  1.
         23    2    1    2    0    0  0.14865564353E+03  0.15789781766E+02  0.41076003392E+02  0.19915382143E+03  0.12500875560E+03 0.  0.
          5    1    3    3  502    0  0.15604681924E+03 -0.17912909163E+02  0.19896525188E+02  0.15839647668E+03  0.47000000000E+01 0.  1.
         -5    1    3    3    0  502 -0.73911757142E+01  0.33702690929E+02  0.21179478204E+02  0.40757344753E+02  0.47000000000E+01 0.  1.
        -11    1    1    2    0    0 -0.27541302347E+02  0.22806144943E+02 -0.57384697549E+02  0.67613956362E+02  0.00000000000E+00 0.  1.
         11    1    1    2    0    0 -0.12111434118E+03 -0.38595926709E+02 -0.34578928082E+02  0.13173470107E+03  0.00000000000E+00 0. -1.
<mgrwt>
<rscale>  0 0.19020613E+03</rscale>
<asrwt>0</asrwt>
<pdfrwt beam="2">  1        1 0.34568469E-01 0.19487177E+03</pdfrwt>
<pdfrwt beam="1">  1       -1 0.26739605E-01 0.19487177E+03</pdfrwt>
<totfact> 0.15590389E+03</totfact>
</mgrwt>
</event>
<event>
 7    1  0.5400401E-006  0.1664522E+03  0.7546771E-02  0.1187717E+00
         -1   -1    0    0    0  501 -0.00000000000E+00  0.00000000000E+00  0.16802605320E+03  0.16802605320E+03  0.00000000000E+00 0.  1.
          1   -1    0    0  501    0  0.00000000000E+00 -0.00000000000E+00 -0.14467842765E+03  0.14467842765E+03  0.00000000000E+00 0. -1.
         23    2    1    2    0    0  0.18955413356E+02 -0.10825069991E+03  0.17356460976E+02  0.16735461272E+03  0.12501519082E+03 0.  0.
          5    1    3    3  502    0 -0.49366231143E+02 -0.46974095313E+02 -0.14992419594E+02  0.69931774273E+02  0.47000000000E+01 0.  1.
         -5    1    3    3    0  502  0.68321644498E+02 -0.61276604593E+02  0.32348880570E+02  0.97422838450E+02  0.47000000000E+01 0.  1.
        -11    1    1    2    0    0 -0.36486788634E+02  0.99189065336E+02  0.34058160679E+02  0.11103924863E+03  0.00000000000E+00 0.  1.
         11    1    1    2    0    0  0.17531375279E+02  0.90616345699E+01 -0.28066996101E+02  0.34310619498E+02  0.00000000000E+00 0. -1.
<mgrwt>
<rscale>  0 0.16087124E+03</rscale>
<asrwt>0</asrwt>
<pdfrwt beam="2">  1        1 0.22258220E-01 0.16645215E+03</pdfrwt>
<pdfrwt beam="1">  1       -1 0.25850162E-01 0.16645215E+03</pdfrwt>
<totfact> 0.28561986E+03</totfact>
</mgrwt>
</event>
<event>
 7    1  0.5400401E-006  0.1549170E+03  0.7546771E-02  0.1203352E+00
          1   -1    0    0  501    0  0.00000000000E+00  0.00000000000E+00  0.41759552477E+03  0.41759552477E+03  0.00000000000E+00 0. -1.
         -1   -1    0    0    0  501 -0.00000000000E+00 -0.00000000000E+00 -0.54683975691E+02  0.54683975691E+02  0.00000000000E+00 0.  1.
         23    2    1    2    0    0  0.90555768572E+02  0.13145331839E+02  0.11375704045E+03  0.19219762623E+03  0.12500446514E+03 0.  0.
          5    1    3    3  502    0  0.32474864835E+02  0.54900232853E+02  0.10075560296E+03  0.11934166892E+03  0.47000000000E+01 0. -1.
         -5    1    3    3    0  502  0.58080903738E+02 -0.41754901014E+02  0.13001437489E+02  0.72855957303E+02  0.47000000000E+01 0. -1.
        -11    1    1    2    0    0  0.11322154452E+02 -0.12368649401E+02  0.86826830798E+02  0.88431177850E+02  0.00000000000E+00 0. -1.
         11    1    1    2    0    0 -0.10187792302E+03 -0.77668243769E+00  0.16232767783E+03  0.19165069639E+03  0.00000000000E+00 0.  1.
<mgrwt>
<rscale>  0 0.14768055E+03</rscale>
<asrwt>0</asrwt>
<pdfrwt beam="1">  1        1 0.64245463E-01 0.15491696E+03</pdfrwt>
<pdfrwt beam="2">  1       -1 0.84129196E-02 0.15491696E+03</pdfrwt>
<totfact> 0.44317486E+03</totfact>
</mgrwt>
</event>
<event>
 7    1  0.5400401E-006  0.1611375E+03  0.7546771E-02  0.1194152E+00
         -2   -1    0    0    0  501 -0.00000000000E+00  0.00000000000E+00  0.60473308529E+02  0.60473308529E+02  0.00000000000E+00 0.  1.
          2   -1    0    0  501    0  0.00000000000E+00 -0.00000000000E+00 -0.44912843925E+03  0.44912843925E+03  0.00000000000E+00 0. -1.
         23    2    1    2    0    0  0.84417442975E+02 -0.56857916260E+02 -0.10101006769E+03  0.19017973607E+03  0.12492466096E+03 0.  0.
          5    1    3    3  502    0  0.45395846462E+02  0.13512076656E+02 -0.98662573495E+02  0.10954338182E+03  0.47000000000E+01 0. -1.
         -5    1    3    3    0  502  0.39021596513E+02 -0.70369992915E+02 -0.23474941973E+01  0.80636354248E+02  0.47000000000E+01 0. -1.
        -11    1    1    2    0    0 -0.58003779195E+02 -0.12383478616E+02 -0.17323781158E+03  0.18310960735E+03  0.00000000000E+00 0. -1.
         11    1    1    2    0    0 -0.26413663780E+02  0.69241394876E+02 -0.11440725145E+03  0.13631240437E+03  0.00000000000E+00 0.  1.
<mgrwt>
<rscale>  0 0.15526233E+03</rscale>
<asrwt>0</asrwt>
<pdfrwt beam="2">  1        2 0.69096682E-01 0.16113751E+03</pdfrwt>
<pdfrwt beam="1">  1       -2 0.93035861E-02 0.16113751E+03</pdfrwt>
<totfact> 0.50793931E+03</totfact>
</mgrwt>
</event>
<event>
 7    1  0.5400401E-006  0.1297423E+03  0.7546771E-02  0.1240764E+00
         -2   -1    0    0    0  501 -0.00000000000E+00  0.00000000000E+00  0.16690067023E+03  0.16690067023E+03  0.00000000000E+00 0. -1.
          2   -1    0    0  501    0  0.00000000000E+00 -0.00000000000E+00 -0.88358012884E+02  0.88358012884E+02  0.00000000000E+00 0.  1.
         23    2    1    2    0    0 -0.33538062896E+02 -0.14063163950E+02  0.85654536755E+02  0.15546632072E+03  0.12454116978E+03 0.  0.
          5    1    3    3  502    0  0.16396093773E+02  0.14372040914E+02 -0.23264467012E+02  0.32229068810E+02  0.47000000000E+01 0. -1.
         -5    1    3    3    0  502 -0.49934156670E+02 -0.28435204863E+02  0.10891900377E+03  0.12323725191E+03  0.47000000000E+01 0. -1.
        -11    1    1    2    0    0  0.43750886473E+02 -0.91904822268E+01 -0.38791226133E+02  0.59189224151E+02  0.00000000000E+00 0.  1.
         11    1    1    2    0    0 -0.10212823577E+02  0.23253646177E+02  0.31679346721E+02  0.40603138236E+02  0.00000000000E+00 0. -1.
<mgrwt>
<rscale>  0 0.12142531E+03</rscale>
<asrwt>0</asrwt>
<pdfrwt beam="2">  1        2 0.13593541E-01 0.12974235E+03</pdfrwt>
<pdfrwt beam="1">  1       -2 0.25677026E-01 0.12974235E+03</pdfrwt>
<totfact> 0.56316208E+03</totfact>
</mgrwt>
</event>
<event>
 7    1  0.5400401E-006  0.1505325E+03  0.7546771E-02  0.1208787E+00
         -2   -1    0    0    0  501 -0.00000000000E+00  0.00000000000E+00  0.24161867789E+03  0.24161867789E+03  0.00000000000E+00 0.  1.
          2   -1    0    0  501    0  0.00000000000E+00 -0.00000000000E+00 -0.78047021090E+02  0.78047021090E+02  0.00000000000E+00 0. -1.
         23    2    1    2    0    0 -0.73148096610E+02 -0.41015918885E+02  0.92483367867E+02  0.17667256407E+03  0.12500828742E+03 0.  0.
          5    1    3    3  502    0 -0.73525280287E+02 -0.21411471664E+02 -0.52289004278E+01  0.76901556289E+02  0.47000000000E+01 0. -1.
         -5    1    3    3    0  502  0.37718367642E+00 -0.19604447220E+02  0.97712268295E+02  0.99771007781E+02  0.47000000000E+01 0. -1.
        -11    1    1    2    0    0  0.59493903993E+02 -0.33312365007E+01  0.75727585337E+02  0.96360204078E+02  0.00000000000E+00 0.  1.
         11    1    1    2    0    0  0.13654192617E+02  0.44347155385E+02 -0.46392964044E+01  0.46632930831E+02  0.00000000000E+00 0. -1.
<mgrwt>
<rscale>  0 0.14342992E+03</rscale>
<asrwt>0</asrwt>
<pdfrwt beam="2">  1        2 0.12007234E-01 0.15053246E+03</pdfrwt>
<pdfrwt beam="1">  1       -2 0.37172104E-01 0.15053246E+03</pdfrwt>
<totfact> 0.33764988E+03</totfact>
</mgrwt>
</event>
<event>
 7    1  0.5400401E-006  0.1315083E+03  0.7546771E-02  0.1238323E+00
          2   -1    0    0  501    0  0.00000000000E+00  0.00000000000E+00  0.64731654344E+03  0.64731654344E+03  0.00000000000E+00 0. -1.
         -2   -1    0    0    0  501 -0.00000000000E+00 -0.00000000000E+00 -0.21033287348E+02  0.21033287348E+02  0.00000000000E+00 0.  1.
         23    2    1    2    0    0 -0.17312424508E+01  0.40828800330E+02  0.31814674323E+03  0.34425541583E+03  0.12499781185E+03 0.  0.
          5    1    3    3  502    0 -0.25198432748E+02  0.51922574022E+02  0.55237753351E+02  0.80026333799E+02  0.47000000000E+01 0.  1.
         -5    1    3    3    0  502  0.23467190297E+02 -0.11093773692E+02  0.26290898988E+03  0.26422908203E+03  0.47000000000E+01 0.  1.
        -11    1    1    2    0    0 -0.38141212277E+02 -0.38588658305E+02  0.23037126442E+03  0.23667436721E+03  0.00000000000E+00 0. -1.
         11    1    1    2    0    0  0.39872454727E+02 -0.22401420250E+01  0.77765248451E+02  0.87420047751E+02  0.00000000000E+00 0.  1.
<mgrwt>
<rscale>  0 0.12294090E+03</rscale>
<asrwt>0</asrwt>
<pdfrwt beam="1">  1        2 0.99587145E-01 0.13150833E+03</pdfrwt>
<pdfrwt beam="2">  1       -2 0.32358909E-02 0.13150833E+03</pdfrwt>
<totfact> 0.16490584E+04</totfact>
</mgrwt>
</event>
<event>
 7    1  0.5400401E-006  0.1263468E+03  0.7546771E-02  0.1247910E+00
         -3   -1    0    0    0  501 -0.00000000000E+00  0.00000000000E+00  0.61969478848E+03  0.61969478848E+03  0.00000000000E+00 0.  1.
          3   -1    0    0  501    0  0.00000000000E+00 -0.00000000000E+00 -0.22678396188E+02  0.22678396188E+02  0.00000000000E+00 0. -1.
         23    2    1    2    0    0  0.18119649300E+02  0.39688354872E+01  0.45673725275E+03  0.47389075042E+03  0.12497780578E+03 0.  0.
          5    1    3    3  502    0  0.23939719771E+02 -0.56949593560E+02  0.17793279053E+03  0.18841054730E+03  0.47000000000E+01 0.  1.
         -5    1    3    3    0  502 -0.58200704711E+01  0.60918429047E+02  0.27880446222E+03  0.28548020312E+03  0.47000000000E+01 0.  1.
        -11    1    1    2    0    0 -0.12348913346E+02 -0.26116507567E+02  0.14258251044E+03  0.14547968900E+03  0.00000000000E+00 0.  1.
         11    1    1    2    0    0 -0.57707359537E+01  0.22147672080E+02 -0.23033708856E+01  0.23002745259E+02  0.00000000000E+00 0. -1.
<mgrwt>
<rscale>  0 0.11712880E+03</rscale>
<asrwt>0</asrwt>
<pdfrwt beam="2">  1        3 0.34889845E-02 0.12634685E+03</pdfrwt>
<pdfrwt beam="1">  1       -3 0.95337647E-01 0.12634685E+03</pdfrwt>
<totfact> 0.92721368E+02</totfact>
</mgrwt>
</event>
<event>
 7    1  0.5400401E-006  0.1459703E+03  0.7546771E-02  0.1215347E+00
         -2   -1    0    0    0  501 -0.00000000000E+00  0.00000000000E+00  0.36272781474E+02  0.36272781474E+02  0.00000000000E+00 0.  1.
          2   -1    0    0  501    0  0.00000000000E+00 -0.00000000000E+00 -0.51209174805E+03  0.51209174805E+03  0.00000000000E+00 0. -1.
         23    2    1    2    0    0 -0.61318003373E+02  0.43924036069E+02 -0.19462138632E+03  0.24327928771E+03  0.12497243430E+03 0.  0.
          5    1    3    3  502    0 -0.29483002067E+02  0.45686415852E+02 -0.20281166125E+03  0.21002656009E+03  0.47000000000E+01 0. -1.
         -5    1    3    3    0  502 -0.31835001306E+02 -0.17623797830E+01  0.81902749322E+01  0.33252727619E+02  0.47000000000E+01 0. -1.
        -11    1    1    2    0    0  0.17941187761E+02  0.27048248880E+02 -0.52409843134E+02  0.61646456858E+02  0.00000000000E+00 0.  1.
         11    1    1    2    0    0  0.43376815612E+02 -0.70972284949E+02 -0.22878773712E+03  0.24343878496E+03  0.00000000000E+00 0. -1.
<mgrwt>
<rscale>  0 0.13851075E+03</rscale>
<asrwt>0</asrwt>
<pdfrwt beam="2">  1        2 0.78783346E-01 0.14597030E+03</pdfrwt>
<pdfrwt beam="1">  1       -2 0.55804279E-02 0.14597030E+03</pdfrwt>
<totfact> 0.96039091E+03</totfact>
</mgrwt>
</event>
<event>
 7    1  0.5400401E-006  0.1271770E+03  0.7546771E-02  0.1245619E+00
          2   -1    0    0  501    0  0.00000000000E+00  0.00000000000E+00  0.38395846579E+03  0.38395846579E+03  0.00000000000E+00 0.  1.
         -2   -1    0    0    0  501 -0.00000000000E+00 -0.00000000000E+00 -0.39460146398E+02  0.39460146398E+02  0.00000000000E+00 0. -1.
         23    2    1    2    0    0 -0.22740162375E+02 -0.57147659583E+01  0.10315382979E+03  0.16375195069E+03  0.12499686084E+03 0.  0.
          5    1    3    3  502    0 -0.32417842202E+02 -0.15457350465E+02 -0.18888294687E+02  0.40849771757E+02  0.47000000000E+01 0.  1.
         -5    1    3    3    0  502  0.96776798266E+01  0.97425845071E+01  0.12204212447E+03  0.12290217893E+03  0.47000000000E+01 0.  1.
        -11    1    1    2    0    0  0.35627937423E+02 -0.35605667621E+02  0.10207754083E+03  0.11382854578E+03  0.00000000000E+00 0.  1.
         11    1    1    2    0    0 -0.12887775048E+02  0.41320433579E+02  0.13926694877E+03  0.14583811572E+03  0.00000000000E+00 0. -1.
<mgrwt>
<rscale>  0 0.11848394E+03</rscale>
<asrwt>0</asrwt>
<pdfrwt beam="1">  1        2 0.59070531E-01 0.12717700E+03</pdfrwt>
<pdfrwt beam="2">  1       -2 0.60707920E-02 0.12717700E+03</pdfrwt>
<totfact> 0.11430205E+04</totfact>
</mgrwt>
</event>
<event>
 7    1  0.5400401E-006  0.1302052E+03  0.7546771E-02  0.1241428E+00
         -1   -1    0    0    0  501 -0.00000000000E+00  0.00000000000E+00  0.10956369634E+03  0.10956369634E+03  0.00000000000E+00 0.  1.
          1   -1    0    0  501    0  0.00000000000E+00 -0.00000000000E+00 -0.12788952951E+03  0.12788952951E+03  0.00000000000E+00 0. -1.
         23    2    1    2    0    0 -0.35508703657E+02 -0.82514448352E+01  0.22364499363E+02  0.13211195909E+03  0.12499777808E+03 0.  0.
          5    1    3    3  502    0 -0.22190487295E+02  0.57686877806E+02  0.17954297556E+02  0.64534025120E+02  0.47000000000E+01 0. -1.
         -5    1    3    3    0  502 -0.13318216362E+02 -0.65938322641E+02  0.44102018074E+01  0.67577933971E+02  0.47000000000E+01 0. -1.
        -11    1    1    2    0    0 -0.11017273837E+02  0.39516849895E+02 -0.15011192484E+02  0.43684066297E+02  0.00000000000E+00 0.  1.
         11    1    1    2    0    0  0.46525977494E+02 -0.31265405060E+02 -0.25679140049E+02  0.61657200463E+02  0.00000000000E+00 0. -1.
<mgrwt>
<rscale>  0 0.12101773E+03</rscale>
<asrwt>0</asrwt>
<pdfrwt beam="2">  1        1 0.19675312E-01 0.13020522E+03</pdfrwt>
<pdfrwt beam="1">  1       -1 0.16855953E-01 0.13020522E+03</pdfrwt>
<totfact> 0.65762901E+03</totfact>
</mgrwt>
</event>
<event>
 7    1  0.5400401E-006  0.1251748E+03  0.7546771E-02  0.1250484E+00
          2   -1    0    0  501    0  0.00000000000E+00  0.00000000000E+00  0.44858138591E+03  0.44858138591E+03  0.00000000000E+00 0. -1.
         -2   -1    0    0    0  501 -0.00000000000E+00 -0.00000000000E+00 -0.28135301127E+02  0.28135301127E+02  0.00000000000E+00 0.  1.
         23    2    1    2    0    0  0.63934184805E+01  0.16254654547E+01  0.17718818452E+03  0.21694328711E+03  0.12500087660E+03 0.  0.
          5    1    3    3  502    0  0.10423809013E+02  0.34404453777E+02  0.17986024105E+03  0.18347784210E+03  0.47000000000E+01 0. -1.
         -5    1    3    3    0  502 -0.40303905330E+01 -0.32778988323E+02 -0.26720565260E+01  0.33465445005E+02  0.47000000000E+01 0. -1.
        -11    1    1    2    0    0  0.31580149444E+02  0.33872031988E+01  0.32055181064E+02  0.45125531769E+02  0.00000000000E+00 0.  1.
         11    1    1    2    0    0 -0.37973567924E+02 -0.50126686535E+01  0.21120271920E+03  0.21464786816E+03  0.00000000000E+00 0. -1.
<mgrwt>
<rscale>  0 0.11563082E+03</rscale>
<asrwt>0</asrwt>
<pdfrwt beam="1">  1        2 0.69012515E-01 0.12517483E+03</pdfrwt>
<pdfrwt beam="2">  1       -2 0.43285082E-02 0.12517483E+03</pdfrwt>
<totfact> 0.16058438E+04</totfact>
</mgrwt>
</event>
<event>
 7    1  0.5400401E-006  0.1643141E+03  0.7546771E-02  0.1190899E+00
         -1   -1    0    0    0  501 -0.00000000000E+00  0.00000000000E+00  0.98396687797E+02  0.98396687797E+02  0.00000000000E+00 0.  1.
          1   -1    0    0  501    0  0.00000000000E+00 -0.00000000000E+00 -0.52467661120E+03  0.52467661120E+03  0.00000000000E+00 0. -1.
         23    2    1    2    0    0 -0.65737445083E+02 -0.83968934804E+02  0.10045520363E+02  0.16462089899E+03  0.12500773658E+03 0.  0.
          5    1    3    3  502    0  0.25768658095E+02 -0.22322479467E+02 -0.31476323001E+02  0.46638672143E+02  0.47000000000E+01 0. -1.
         -5    1    3    3    0  502 -0.91506103179E+02 -0.61646455337E+02  0.41521843364E+02  0.11798222684E+03  0.47000000000E+01 0. -1.
        -11    1    1    2    0    0  0.15413080688E+02  0.57320452313E+02 -0.92247227699E+02  0.10969388464E+03  0.00000000000E+00 0.  1.
         11    1    1    2    0    0  0.50324364395E+02  0.26648482491E+02 -0.34407821607E+03  0.34875851537E+03  0.00000000000E+00 0. -1.
<mgrwt>
<rscale>  0 0.15806502E+03</rscale>
<asrwt>0</asrwt>
<pdfrwt beam="2">  1        1 0.80719477E-01 0.16431411E+03</pdfrwt>
<pdfrwt beam="1">  1       -1 0.15137952E-01 0.16431411E+03</pdfrwt>
<totfact> 0.13329083E+03</totfact>
</mgrwt>
</event>
<event>
 7    1  0.5400401E-006  0.1363644E+03  0.7546771E-02  0.1232058E+00
         -2   -1    0    0    0  501 -0.00000000000E+00  0.00000000000E+00  0.26228623773E+02  0.26228623773E+02  0.00000000000E+00 0.  1.
          2   -1    0    0  501    0  0.00000000000E+00 -0.00000000000E+00 -0.54360044249E+03  0.54360044249E+03  0.00000000000E+00 0. -1.
         23    2    1    2    0    0  0.41442397418E+02  0.35520081455E+02 -0.29982593600E+03  0.32937946880E+03  0.12496437124E+03 0.  0.
          5    1    3    3  502    0 -0.81311117734E+01 -0.18657036011E+02 -0.24017898271E+00  0.20888936242E+02  0.47000000000E+01 0.  1.
         -5    1    3    3    0  502  0.49573509192E+02  0.54177117466E+02 -0.29958575701E+03  0.30849053255E+03  0.47000000000E+01 0.  1.
        -11    1    1    2    0    0  0.18307155258E+02  0.13913610252E+02 -0.71289508940E+02  0.74906171767E+02  0.00000000000E+00 0. -1.
         11    1    1    2    0    0 -0.59749552676E+02 -0.49433691707E+02 -0.14625637378E+03  0.16554342570E+03  0.00000000000E+00 0.  1.
<mgrwt>
<rscale>  0 0.12694675E+03</rscale>
<asrwt>0</asrwt>
<pdfrwt beam="2">  1        2 0.83630836E-01 0.13636437E+03</pdfrwt>
<pdfrwt beam="1">  1       -2 0.40351729E-02 0.13636437E+03</pdfrwt>
<totfact> 0.14544135E+04</totfact>
</mgrwt>
</event>
<event>
 7    1  0.5400401E-006  0.1267734E+03  0.7546771E-02  0.1247769E+00
          2   -1    0    0  501    0  0.00000000000E+00  0.00000000000E+00  0.29282815633E+03  0.29282815633E+03  0.00000000000E+00 0. -1.
         -2   -1    0    0    0  501 -0.00000000000E+00 -0.00000000000E+00 -0.45092506563E+02  0.45092506563E+02  0.00000000000E+00 0.  1.
         23    2    1    2    0    0 -0.13979651283E+02  0.15887192184E+02  0.91720524448E+02  0.15647414856E+03  0.12499468403E+03 0.  0.
          5    1    3    3  502    0  0.48490326248E+02  0.56984198116E+01  0.54214913886E+01  0.49348417369E+02  0.47000000000E+01 0. -1.
         -5    1    3    3    0  502 -0.62469977531E+02  0.10188772373E+02  0.86299033060E+02  0.10712573119E+03  0.47000000000E+01 0. -1.
        -11    1    1    2    0    0  0.41250042641E+02 -0.38981262969E+02  0.10069891122E+03  0.11559141664E+03  0.00000000000E+00 0.  1.
         11    1    1    2    0    0 -0.27270391358E+02  0.23094070784E+02  0.55316214103E+02  0.65855097698E+02  0.00000000000E+00 0. -1.
<mgrwt>
<rscale>  0 0.11721158E+03</rscale>
<asrwt>0</asrwt>
<pdfrwt beam="1">  1        2 0.45050484E-01 0.12677344E+03</pdfrwt>
<pdfrwt beam="2">  1       -2 0.69373089E-02 0.12677344E+03</pdfrwt>
<totfact> 0.12429175E+04</totfact>
</mgrwt>
</event>
<event>
 7    1  0.5400401E-006  0.1480424E+03  0.7546771E-02  0.1212710E+00
          3   -1    0    0  501    0  0.00000000000E+00  0.00000000000E+00  0.27632157904E+03  0.27632157904E+03  0.00000000000E+00 0. -1.
         -3   -1    0    0    0  501 -0.00000000000E+00 -0.00000000000E+00 -0.81829700436E+02  0.81829700436E+02  0.00000000000E+00 0.  1.
         23    2    1    2    0    0 -0.57834880373E+02  0.54280536810E+02  0.24448530082E+02  0.15004764155E+03  0.12500125618E+03 0.  0.
          5    1    3    3  502    0 -0.49770293914E+02  0.24336375250E+02 -0.46495487386E+02  0.72479387855E+02  0.47000000000E+01 0. -1.
         -5    1    3    3    0  502 -0.80645864596E+01  0.29944161561E+02  0.70944017469E+02  0.77568253693E+02  0.47000000000E+01 0. -1.
        -11    1    1    2    0    0  0.14906330434E+02 -0.43088760704E+02  0.15451408297E+03  0.16110071950E+03  0.00000000000E+00 0. -1.
         11    1    1    2    0    0  0.42928549940E+02 -0.11191776106E+02  0.15529265547E+02  0.47002918428E+02  0.00000000000E+00 0.  1.
<mgrwt>
<rscale>  0 0.14046117E+03</rscale>
<asrwt>0</asrwt>
<pdfrwt beam="1">  1        3 0.42511012E-01 0.14804244E+03</pdfrwt>
<pdfrwt beam="2">  1       -3 0.12589185E-01 0.14804244E+03</pdfrwt>
<totfact> 0.64775286E+02</totfact>
</mgrwt>
</event>
<event>
 7    1  0.5400401E-006  0.1271470E+03  0.7546771E-02  0.1246756E+00
         -1   -1    0    0    0  501 -0.00000000000E+00  0.00000000000E+00  0.76467480568E+02  0.76467480568E+02  0.00000000000E+00 0.  1.
          1   -1    0    0  501    0  0.00000000000E+00 -0.00000000000E+00 -0.15979291835E+03  0.15979291835E+03  0.00000000000E+00 0. -1.
         23    2    1    2    0    0  0.23022760052E+02 -0.32925574814E+01 -0.42739741710E+02  0.13413812720E+03  0.12500185292E+03 0.  0.
          5    1    3    3  502    0 -0.15215777902E+02 -0.57963685396E+02 -0.23521889154E+02  0.64549810157E+02  0.47000000000E+01 0.  1.
         -5    1    3    3    0  502  0.38238537954E+02  0.54671127915E+02 -0.19217852555E+02  0.69588317045E+02  0.47000000000E+01 0.  1.
        -11    1    1    2    0    0  0.32094455542E+02 -0.78671977405E+00  0.22717611188E+01  0.32184373586E+02  0.00000000000E+00 0.  1.
         11    1    1    2    0    0 -0.55117215594E+02  0.40792772555E+01 -0.42857457190E+02  0.69937898128E+02  0.00000000000E+00 0. -1.
<mgrwt>
<rscale>  0 0.11780866E+03</rscale>
<asrwt>0</asrwt>
<pdfrwt beam="2">  1        1 0.24583526E-01 0.12714697E+03</pdfrwt>
<pdfrwt beam="1">  1       -1 0.11764228E-01 0.12714697E+03</pdfrwt>
<totfact> 0.86794301E+03</totfact>
</mgrwt>
</event>
<event>
 7    1  0.5400401E-006  0.2757263E+03  0.7546771E-02  0.1099247E+00
          2   -1    0    0  501    0  0.00000000000E+00  0.00000000000E+00  0.16138510496E+03  0.16138510496E+03  0.00000000000E+00 0. -1.
         -2   -1    0    0    0  501 -0.00000000000E+00 -0.00000000000E+00 -0.61188753933E+03  0.61188753933E+03  0.00000000000E+00 0.  1.
         23    2    1    2    0    0  0.17584324679E+03  0.18002046019E+03 -0.42257314956E+03  0.50457218192E+03  0.11268010696E+03 0.  0.
          5    1    3    3  502    0  0.19138133382E+02  0.37616776545E+02 -0.14612368299E+02  0.44909924675E+02  0.47000000000E+01 0. -1.
         -5    1    3    3    0  502  0.15670511341E+03  0.14240368364E+03 -0.40796078127E+03  0.45966225724E+03  0.47000000000E+01 0.  1.
        -11    1    1    2    0    0 -0.53350880572E+02 -0.54420704021E+01 -0.10400448593E+00  0.53627823050E+02  0.00000000000E+00 0.  1.
         11    1    1    2    0    0 -0.12249236622E+03 -0.17457838978E+03 -0.27825280322E+02  0.21507263932E+03  0.00000000000E+00 0. -1.
<mgrwt>
<rscale>  0 0.27358111E+03</rscale>
<asrwt>0</asrwt>
<pdfrwt beam="1">  1        2 0.24828478E-01 0.27572635E+03</pdfrwt>
<pdfrwt beam="2">  1       -2 0.94136545E-01 0.27572635E+03</pdfrwt>
<totfact> 0.21485343E+02</totfact>
</mgrwt>
</event>
<event>
 6    1  0.5400401E-006  0.1361374E+03  0.7546771E-02  0.1232155E+00
         -2   -1    0    0    0  501 -0.00000000000E+00  0.00000000000E+00  0.46060972362E+02  0.46060972362E+02  0.00000000000E+00 0.  1.
          2   -1    0    0  501    0  0.00000000000E+00 -0.00000000000E+00 -0.42031386324E+03  0.42031386324E+03  0.00000000000E+00 0. -1.
          5    1    1    2  502    0 -0.38393823528E+02 -0.47909860968E+02  0.10540023737E+01  0.61584424850E+02  0.47000000000E+01 0. -1.
         -5    1    1    2    0  502 -0.72956540538E+01  0.46075033921E+02 -0.88693091675E+02  0.10032292774E+03  0.47000000000E+01 0.  1.
        -11    1    1    2    0    0 -0.65632861865E+01  0.38396755891E+02 -0.10865780400E+03  0.11542922489E+03  0.00000000000E+00 0.  1.
         11    1    1    2    0    0  0.52252763768E+02 -0.36561928843E+02 -0.17795599758E+03  0.18903825813E+03  0.00000000000E+00 0. -1.
<mgrwt>
<rscale>  0 0.12688342E+03</rscale>
<asrwt>0</asrwt>
<pdfrwt beam="2">  1        2 0.64663670E-01 0.13613736E+03</pdfrwt>
<pdfrwt beam="1">  1       -2 0.70863036E-02 0.13613736E+03</pdfrwt>
<totfact> 0.82393752E+03</totfact>
</mgrwt>
</event>
<event>
 7    1  0.5400401E-006  0.1282182E+03  0.7546771E-02  0.1248225E+00
         -2   -1    0    0    0  501 -0.00000000000E+00  0.00000000000E+00  0.43142661626E+02  0.43142661626E+02  0.00000000000E+00 0.  1.
          2   -1    0    0  501    0  0.00000000000E+00 -0.00000000000E+00 -0.31508943696E+03  0.31508943696E+03  0.00000000000E+00 0. -1.
         23    2    1    2    0    0 -0.13239743881E+02 -0.25250588566E+02 -0.92675112180E+02  0.15820426189E+03  0.12500811582E+03 0.  0.
          5    1    3    3  502    0  0.53220589573E+02  0.37472620757E+00 -0.22091134437E+02  0.57815912991E+02  0.47000000000E+01 0.  1.
         -5    1    3    3    0  502 -0.66460333454E+02 -0.25625314773E+02 -0.70583977743E+02  0.10038834890E+03  0.47000000000E+01 0.  1.
        -11    1    1    2    0    0  0.29118495338E+02 -0.23417465243E+02 -0.81794841490E+02  0.89925861372E+02  0.00000000000E+00 0.  1.
         11    1    1    2    0    0 -0.15878751457E+02  0.48668053809E+02 -0.97476821667E+02  0.11010197533E+03  0.00000000000E+00 0. -1.
<mgrwt>
<rscale>  0 0.11694415E+03</rscale>
<asrwt>0</asrwt>
<pdfrwt beam="2">  1        2 0.48475299E-01 0.12821822E+03</pdfrwt>
<pdfrwt beam="1">  1       -2 0.66373324E-02 0.12821822E+03</pdfrwt>
<totfact> 0.12316514E+04</totfact>
</mgrwt>
</event>
<event>
 7    1  0.5400401E-006  0.1325392E+03  0.7546771E-02  0.1235690E+00
         -1   -1    0    0    0  501 -0.00000000000E+00  0.00000000000E+00  0.42057185602E+03  0.42057185602E+03  0.00000000000E+00 0.  1.
          1   -1    0    0  501    0  0.00000000000E+00 -0.00000000000E+00 -0.15822177141E+03  0.15822177141E+03  0.00000000000E+00 0. -1.
         23    2    1    2    0    0 -0.41241696402E+02 -0.15551572214E+02  0.39146497063E+03  0.41329343990E+03  0.12499566116E+03 0.  0.
          5    1    3    3  502    0  0.30731506867E+02 -0.20177417432E+02  0.26543728504E+03  0.26801230565E+03  0.47000000000E+01 0.  1.
         -5    1    3    3    0  502 -0.71973203269E+02  0.46258452186E+01  0.12602768559E+03  0.14528113425E+03  0.47000000000E+01 0.  1.
        -11    1    1    2    0    0  0.59362879904E+02  0.38378897180E+02 -0.69448661624E+02  0.99095952797E+02  0.00000000000E+00 0.  1.
         11    1    1    2    0    0 -0.18121183502E+02 -0.22827324966E+02 -0.59666224401E+02  0.66404234737E+02  0.00000000000E+00 0. -1.
<mgrwt>
<rscale>  0 0.12460369E+03</rscale>
<asrwt>0</asrwt>
<pdfrwt beam="2">  1        1 0.24341811E-01 0.13253922E+03</pdfrwt>
<pdfrwt beam="1">  1       -1 0.64703362E-01 0.13253922E+03</pdfrwt>
<totfact> 0.49838342E+02</totfact>
</mgrwt>
</event>
<event>
 6    1  0.5400401E-006  0.2839209E+03  0.7546771E-02  0.1137245E+00
          2   -1    0    0  501    0  0.00000000000E+00  0.00000000000E+00  0.42930108466E+03  0.42930108466E+03  0.00000000000E+00 0. -1.
         -2   -1    0    0    0  501 -0.00000000000E+00 -0.00000000000E+00 -0.83316671305E+02  0.83316671305E+02  0.00000000000E+00 0.  1.
          5    1    1    2  502    0  0.12190257580E+02  0.12266121565E+03  0.20505783720E+03  0.23930144755E+03  0.47000000000E+01 0. -1.
         -5    1    1    2    0  502  0.65095802119E+01 -0.13412970123E+03  0.53239673023E+02  0.14453270969E+03  0.47000000000E+01 0.  1.
        -11    1    1    2    0    0  0.27113359872E+02  0.14942326547E+02  0.13555782747E+01  0.30987820166E+02  0.00000000000E+00 0.  1.
         11    1    1    2    0    0 -0.45813197664E+02 -0.34738409660E+01  0.86331324865E+02  0.97795778560E+02  0.00000000000E+00 0. -1.
<mgrwt>
<rscale>  0 0.21555033E+03</rscale>
<asrwt>0</asrwt>
<pdfrwt beam="1">  1        2 0.66046320E-01 0.28392086E+03</pdfrwt>
<pdfrwt beam="2">  1       -2 0.12817950E-01 0.28392086E+03</pdfrwt>
<totfact> 0.32684464E+03</totfact>
</mgrwt>
</event>
<event>
 7    1  0.5400401E-006  0.1378211E+03  0.7546771E-02  0.1228314E+00
          1   -1    0    0  501    0  0.00000000000E+00  0.00000000000E+00  0.88484116030E+02  0.88484116030E+02  0.00000000000E+00 0. -1.
         -1   -1    0    0    0  501 -0.00000000000E+00 -0.00000000000E+00 -0.18559107754E+03  0.18559107754E+03  0.00000000000E+00 0.  1.
         23    2    1    2    0    0 -0.33286818837E+02  0.47548565906E+02 -0.14154714041E+02  0.13854601546E+03  0.12500305613E+03 0.  0.
          5    1    3    3  502    0  0.13492383118E+02  0.53509339511E+02  0.38693168132E+02  0.67561417075E+02  0.47000000000E+01 0.  1.
         -5    1    3    3    0  502 -0.46779201955E+02 -0.59607736049E+01 -0.52847882173E+02  0.70984598384E+02  0.47000000000E+01 0.  1.
        -11    1    1    2    0    0  0.61690422258E+02 -0.18300600169E+02 -0.63323024657E+02  0.90279707668E+02  0.00000000000E+00 0. -1.
         11    1    1    2    0    0 -0.28403603421E+02 -0.29247965736E+02 -0.19629222808E+02  0.45249470439E+02  0.00000000000E+00 0.  1.
<mgrwt>
<rscale>  0 0.12942343E+03</rscale>
<asrwt>0</asrwt>
<pdfrwt beam="1">  1        1 0.13612941E-01 0.13782105E+03</pdfrwt>
<pdfrwt beam="2">  1       -1 0.28552473E-01 0.13782105E+03</pdfrwt>
<totfact> 0.45120211E+03</totfact>
</mgrwt>
</event>
<event>
 7    1  0.5400401E-006  0.1394306E+03  0.7546771E-02  0.1228820E+00
          1   -1    0    0  501    0  0.00000000000E+00  0.00000000000E+00  0.19079693652E+03  0.19079693652E+03  0.00000000000E+00 0. -1.
         -1   -1    0    0    0  501 -0.00000000000E+00 -0.00000000000E+00 -0.76669596494E+02  0.76669596494E+02  0.00000000000E+00 0.  1.
         23    2    1    2    0    0 -0.55530605910E+02  0.27055913555E+02  0.63560119946E+02  0.15323440290E+03  0.12500089094E+03 0.  0.
          5    1    3    3  502    0 -0.67902329577E+02  0.18707110117E+02 -0.15809096602E+02  0.72337402955E+02  0.47000000000E+01 0.  1.
         -5    1    3    3    0  502  0.12371723667E+02  0.83488034384E+01  0.79369216548E+02  0.80896999949E+02  0.47000000000E+01 0.  1.
        -11    1    1    2    0    0  0.38349249822E+02 -0.34768102649E+02 -0.83007313356E+01  0.52425070953E+02  0.00000000000E+00 0.  1.
         11    1    1    2    0    0  0.17181356087E+02  0.77121890941E+01  0.58867951412E+02  0.61807059152E+02  0.00000000000E+00 0. -1.
<mgrwt>
<rscale>  0 0.12908493E+03</rscale>
<asrwt>0</asrwt>
<pdfrwt beam="1">  1        1 0.29353375E-01 0.13943060E+03</pdfrwt>
<pdfrwt beam="2">  1       -1 0.11795323E-01 0.13943060E+03</pdfrwt>
<totfact> 0.69727084E+03</totfact>
</mgrwt>
</event>
<event>
 7    1  0.5400401E-006  0.1377624E+03  0.7546771E-02  0.1227750E+00
          1   -1    0    0  501    0  0.00000000000E+00  0.00000000000E+00  0.35210577950E+02  0.35210577950E+02  0.00000000000E+00 0. -1.
         -1   -1    0    0    0  501 -0.00000000000E+00 -0.00000000000E+00 -0.45168786275E+03  0.45168786275E+03  0.00000000000E+00 0.  1.
         23    2    1    2    0    0  0.16579513656E+02  0.55348004444E+02 -0.28370596241E+03  0.31538475122E+03  0.12506073053E+03 0.  0.
          5    1    3    3  502    0  0.33650843834E+02 -0.16433575302E+02 -0.20073666864E+03  0.20425411091E+03  0.47000000000E+01 0. -1.
         -5    1    3    3    0  502 -0.17071330177E+02  0.71781579746E+02 -0.82969293771E+02  0.11113064030E+03  0.47000000000E+01 0. -1.
        -11    1    1    2    0    0  0.20780828303E+02  0.14680199848E+02 -0.53978089318E+02  0.59673991144E+02  0.00000000000E+00 0.  1.
         11    1    1    2    0    0 -0.37360341960E+02 -0.70028204292E+02 -0.78793233068E+02  0.11183969834E+03  0.00000000000E+00 0. -1.
<mgrwt>
<rscale>  0 0.12980197E+03</rscale>
<asrwt>0</asrwt>
<pdfrwt beam="1">  1        1 0.54170115E-02 0.13776236E+03</pdfrwt>
<pdfrwt beam="2">  1       -1 0.69490446E-01 0.13776236E+03</pdfrwt>
<totfact> 0.31228122E+03</totfact>
</mgrwt>
</event>
<event>
 7    1  0.5400401E-006  0.1654397E+03  0.7546771E-02  0.1186499E+00
         -2   -1    0    0    0  501 -0.00000000000E+00  0.00000000000E+00  0.21514477903E+02  0.21514477903E+02  0.00000000000E+00 0. -1.
          2   -1    0    0  501    0  0.00000000000E+00 -0.00000000000E+00 -0.11710026905E+04  0.11710026905E+04  0.00000000000E+00 0.  1.
         23    2    1    2    0    0  0.48435630613E+02  0.96956049747E+02 -0.58903690965E+03  0.61182903758E+03  0.12499521752E+03 0.  0.
          5    1    3    3  502    0  0.16688410826E+02  0.12289317756E+03 -0.44940238442E+03  0.46622508435E+03  0.47000000000E+01 0. -1.
         -5    1    3    3    0  502  0.31747219786E+02 -0.25937127810E+02 -0.13963452522E+03  0.14560395323E+03  0.47000000000E+01 0. -1.
        -11    1    1    2    0    0 -0.53180223822E+02 -0.85049458813E+02 -0.55883922626E+03  0.56777004804E+03  0.00000000000E+00 0.  1.
         11    1    1    2    0    0  0.47445932094E+01 -0.11906590934E+02 -0.16120767322E+01  0.12918082822E+02  0.00000000000E+00 0. -1.
<mgrwt>
<rscale>  0 0.16196267E+03</rscale>
<asrwt>0</asrwt>
<pdfrwt beam="2">  1        2 0.18015431E+00 0.16543969E+03</pdfrwt>
<pdfrwt beam="1">  1       -2 0.33099189E-02 0.16543969E+03</pdfrwt>
<totfact> 0.74475224E+03</totfact>
</mgrwt>
</event>
<event>
 7    1  0.5400401E-006  0.1364739E+03  0.7546771E-02  0.1230599E+00
          1   -1    0    0  501    0  0.00000000000E+00  0.00000000000E+00  0.64370150098E+03  0.64370150098E+03  0.00000000000E+00 0. -1.
         -1   -1    0    0    0  501 -0.00000000000E+00 -0.00000000000E+00 -0.23153295201E+02  0.23153295201E+02  0.00000000000E+00 0.  1.
         23    2    1    2    0    0 -0.21628544708E+02  0.50250161960E+02  0.39574888597E+03  0.41861953779E+03  0.12502905243E+03 0.  0.
          5    1    3    3  502    0 -0.26767361368E+02  0.90679514372E+02  0.25458952123E+03  0.27161955062E+03  0.47000000000E+01 0. -1.
         -5    1    3    3    0  502  0.51388166602E+01 -0.40429352412E+02  0.14115936474E+03  0.14699998717E+03  0.47000000000E+01 0. -1.
        -11    1    1    2    0    0 -0.22285956709E+02 -0.25224645068E+02  0.24433652802E+02  0.41592667317E+02  0.00000000000E+00 0.  1.
         11    1    1    2    0    0  0.43914501417E+02 -0.25025516892E+02  0.20036566701E+03  0.20664259108E+03  0.00000000000E+00 0. -1.
<mgrwt>
<rscale>  0 0.12790402E+03</rscale>
<asrwt>0</asrwt>
<pdfrwt beam="1">  1        1 0.99030986E-01 0.13647394E+03</pdfrwt>
<pdfrwt beam="2">  1       -1 0.35620459E-02 0.13647394E+03</pdfrwt>
<totfact> 0.89226611E+03</totfact>
</mgrwt>
</event>
<event>
 7    1  0.5400401E-006  0.2611463E+03  0.7546771E-02  0.1108616E+00
         -1   -1    0    0    0  501 -0.00000000000E+00  0.00000000000E+00  0.15645621791E+03  0.15645621791E+03  0.00000000000E+00 0.  1.
          1   -1    0    0  501    0  0.00000000000E+00 -0.00000000000E+00 -0.43156293238E+03  0.43156293238E+03  0.00000000000E+00 0. -1.
         23    2    1    2    0    0 -0.22041554429E+03  0.63153911296E+02 -0.20251480424E+03  0.33046880741E+03  0.12500383218E+03 0.  0.
          5    1    3    3  502    0 -0.12835963898E+03  0.94235159989E+02 -0.95010028522E+02  0.18548708261E+03  0.47000000000E+01 0.  1.
         -5    1    3    3    0  502 -0.92055905315E+02 -0.31081248693E+02 -0.10750477572E+03  0.14498172480E+03  0.47000000000E+01 0.  1.
        -11    1    1    2    0    0  0.14110365735E+03 -0.85048622733E+02 -0.45374565732E+02  0.17088698476E+03  0.00000000000E+00 0.  1.
         11    1    1    2    0    0  0.79311886941E+02  0.21894711437E+02 -0.27217344489E+02  0.86663358117E+02  0.00000000000E+00 0. -1.
<mgrwt>
<rscale>  0 0.25756379E+03</rscale>
<asrwt>0</asrwt>
<pdfrwt beam="2">  1        1 0.66394297E-01 0.26114629E+03</pdfrwt>
<pdfrwt beam="1">  1       -1 0.24070188E-01 0.26114629E+03</pdfrwt>
<totfact> 0.81648045E+02</totfact>
</mgrwt>
</event>
<event>
 7    1  0.5400401E-006  0.1349628E+03  0.7546771E-02  0.1231043E+00
          1   -1    0    0  501    0  0.00000000000E+00  0.00000000000E+00  0.37812570085E+03  0.37812570085E+03  0.00000000000E+00 0. -1.
         -1   -1    0    0    0  501 -0.00000000000E+00 -0.00000000000E+00 -0.38998770772E+02  0.38998770772E+02  0.00000000000E+00 0.  1.
         23    2    1    2    0    0 -0.13140553739E+02  0.49155771466E+02  0.19184834522E+03  0.23456503399E+03  0.12500401428E+03 0.  0.
          5    1    3    3  502    0  0.34867125781E+02  0.80890961254E+01  0.39992132966E+01  0.36321256081E+02  0.47000000000E+01 0. -1.
         -5    1    3    3    0  502 -0.48007679520E+02  0.41066675340E+02  0.18784913192E+03  0.19824377791E+03  0.47000000000E+01 0. -1.
        -11    1    1    2    0    0 -0.30951746181E+02 -0.78399161928E+01  0.10248176186E+03  0.10734051608E+03  0.00000000000E+00 0. -1.
         11    1    1    2    0    0  0.44092299920E+02 -0.41315855273E+02  0.44796823005E+02  0.75218921559E+02  0.00000000000E+00 0.  1.
<mgrwt>
<rscale>  0 0.12761174E+03</rscale>
<asrwt>0</asrwt>
<pdfrwt beam="1">  1        1 0.58173182E-01 0.13496284E+03</pdfrwt>
<pdfrwt beam="2">  1       -1 0.59998111E-02 0.13496284E+03</pdfrwt>
<totfact> 0.82828851E+03</totfact>
</mgrwt>
</event>
<event>
 7    1  0.5400401E-006  0.1261924E+03  0.7546771E-02  0.1248640E+00
         -2   -1    0    0    0  501 -0.00000000000E+00  0.00000000000E+00  0.27584836773E+03  0.27584836773E+03  0.00000000000E+00 0. -1.
          2   -1    0    0  501    0  0.00000000000E+00 -0.00000000000E+00 -0.50461301169E+02  0.50461301169E+02  0.00000000000E+00 0.  1.
         23    2    1    2    0    0 -0.17211188640E+02  0.12921602374E+01  0.18865416660E+03  0.22696897155E+03  0.12500649893E+03 0.  0.
          5    1    3    3  502    0  0.28605508799E+02  0.48761152390E+02  0.61671790053E+02  0.83793942528E+02  0.47000000000E+01 0. -1.
         -5    1    3    3    0  502 -0.45816697439E+02 -0.47468992152E+02  0.12698237655E+03  0.14317502902E+03  0.47000000000E+01 0. -1.
        -11    1    1    2    0    0 -0.27916780056E+02  0.12950146398E+01 -0.14112353009E+02  0.31307861298E+02  0.00000000000E+00 0.  1.
         11    1    1    2    0    0  0.45127968696E+02 -0.25871748772E+01  0.50845252962E+02  0.68032836051E+02  0.00000000000E+00 0. -1.
<mgrwt>
<rscale>  0 0.11670116E+03</rscale>
<asrwt>0</asrwt>
<pdfrwt beam="2">  1        2 0.77632772E-02 0.12619239E+03</pdfrwt>
<pdfrwt beam="1">  1       -2 0.42438210E-01 0.12619239E+03</pdfrwt>
<totfact> 0.44460234E+03</totfact>
</mgrwt>
</event>
<event>
 7    1  0.5400401E-006  0.1367578E+03  0.7546771E-02  0.1228172E+00
         -2   -1    0    0    0  501 -0.00000000000E+00  0.00000000000E+00  0.76423495521E+02  0.76423495521E+02  0.00000000000E+00 0.  1.
          2   -1    0    0  501    0  0.00000000000E+00 -0.00000000000E+00 -0.23310077580E+03  0.23310077580E+03  0.00000000000E+00 0. -1.
         23    2    1    2    0    0  0.15570488360E+02 -0.53199222714E+02 -0.26883876942E+02  0.13937521487E+03  0.12502043943E+03 0.  0.
          5    1    3    3  502    0  0.13891173748E+02 -0.71622101182E+02  0.30263711665E+02  0.79124410454E+02  0.47000000000E+01 0.  1.
         -5    1    3    3    0  502  0.16793146123E+01  0.18422878469E+02 -0.57147588607E+02  0.60250804412E+02  0.47000000000E+01 0.  1.
        -11    1    1    2    0    0 -0.37465673888E+02  0.21198800462E+02 -0.12360224874E+03  0.13088384833E+03  0.00000000000E+00 0. -1.
         11    1    1    2    0    0  0.21895185528E+02  0.32000422251E+02 -0.61911545973E+01  0.39265208122E+02  0.00000000000E+00 0.  1.
<mgrwt>
<rscale>  0 0.12951855E+03</rscale>
<asrwt>0</asrwt>
<pdfrwt beam="2">  1        2 0.35861658E-01 0.13675784E+03</pdfrwt>
<pdfrwt beam="1">  1       -2 0.11757461E-01 0.13675784E+03</pdfrwt>
<totfact> 0.70004361E+03</totfact>
</mgrwt>
</event>
<event>
 7    1  0.5400401E-006  0.2008098E+03  0.7546771E-02  0.1152905E+00
         -1   -1    0    0    0  501 -0.00000000000E+00  0.00000000000E+00  0.74538947208E+02  0.74538947208E+02  0.00000000000E+00 0.  1.
          1   -1    0    0  501    0  0.00000000000E+00 -0.00000000000E+00 -0.51923440001E+03  0.51923440001E+03  0.00000000000E+00 0. -1.
         23    2    1    2    0    0  0.86294813943E+02  0.13134128320E+03 -0.16785061929E+03  0.26172201074E+03  0.12500901136E+03 0.  0.
          5    1    3    3  502    0  0.72621969627E+02  0.12661549869E+03 -0.68664605586E+02  0.16137643273E+03  0.47000000000E+01 0.  1.
         -5    1    3    3    0  502  0.13672844316E+02  0.47257845132E+01 -0.99186013701E+02  0.10034557800E+03  0.47000000000E+01 0.  1.
        -11    1    1    2    0    0 -0.39859490654E+02 -0.13032741974E+03 -0.21783121261E+03  0.25695223781E+03  0.00000000000E+00 0. -1.
         11    1    1    2    0    0 -0.46435323289E+02 -0.10138634683E+01 -0.59013620901E+02  0.75099098663E+02  0.00000000000E+00 0.  1.
<mgrwt>
<rscale>  0 0.19629326E+03</rscale>
<asrwt>0</asrwt>
<pdfrwt beam="2">  1        1 0.79882213E-01 0.20080981E+03</pdfrwt>
<pdfrwt beam="1">  1       -1 0.11467531E-01 0.20080981E+03</pdfrwt>
<totfact> 0.20944317E+03</totfact>
</mgrwt>
</event>
<event>
 7    1  0.6474482E-006  0.1529294E+03  0.7546771E-02  0.1205492E+00
          1   -1    0    0  501    0  0.00000000000E+00  0.00000000000E+00  0.84117627814E+02  0.84117627814E+02  0.00000000000E+00 0. -1.
         -1   -1    0    0    0  501 -0.00000000000E+00 -0.00000000000E+00 -0.23726197110E+03  0.23726197110E+03  0.00000000000E+00 0.  1.
         23    2    1    2    0    0 -0.85529170802E+02 -0.21141242756E+02 -0.10527315038E+03  0.18566057313E+03  0.12500088407E+03 0.  0.
          5    1    3    3  502    0  0.77596552377E+01  0.24277781118E+02 -0.72116701135E+02  0.76632444096E+02  0.47000000000E+01 0.  1.
         -5    1    3    3    0  502 -0.93288826040E+02 -0.45419023874E+02 -0.33156449249E+02  0.10902812903E+03  0.47000000000E+01 0.  1.
        -11    1    1    2    0    0 -0.47319411626E+01  0.33190709645E+02 -0.15726284550E+01  0.33563188677E+02  0.00000000000E+00 0. -1.
         11    1    1    2    0    0  0.90261111965E+02 -0.12049466888E+02 -0.46298564443E+02  0.10215583711E+03  0.00000000000E+00 0.  1.
<mgrwt>
<rscale>  0 0.14598757E+03</rscale>
<asrwt>0</asrwt>
<pdfrwt beam="1">  1        1 0.12941173E-01 0.15292944E+03</pdfrwt>
<pdfrwt beam="2">  1       -1 0.36501842E-01 0.15292944E+03</pdfrwt>
<totfact> 0.31936846E+03</totfact>
</mgrwt>
</event>
<event>
 7    1  0.5400401E-006  0.1250048E+03  0.7546771E-02  0.1250974E+00
         -2   -1    0    0    0  501 -0.00000000000E+00  0.00000000000E+00  0.61669036256E+02  0.61669036256E+02  0.00000000000E+00 0.  1.
          2   -1    0    0  501    0  0.00000000000E+00 -0.00000000000E+00 -0.25562232372E+03  0.25562232372E+03  0.00000000000E+00 0. -1.
         23    2    1    2    0    0 -0.39404637518E+00  0.86977442880E+00 -0.27846139882E+02  0.12806878641E+03  0.12500117906E+03 0.  0.
          5    1    3    3  502    0  0.31021225816E+02 -0.29050585314E+02 -0.60132878545E+02  0.73785540863E+02  0.47000000000E+01 0. -1.
         -5    1    3    3    0  502 -0.31415272191E+02  0.29920359743E+02  0.32286738664E+02  0.54283245551E+02  0.47000000000E+01 0. -1.
        -11    1    1    2    0    0 -0.41469555933E+02  0.11277270949E+02 -0.54505240459E+02  0.69409813044E+02  0.00000000000E+00 0. -1.
         11    1    1    2    0    0  0.41863602308E+02 -0.12147045378E+02 -0.11160190712E+03  0.11981276052E+03  0.00000000000E+00 0.  1.
<mgrwt>
<rscale>  0 0.11534845E+03</rscale>
<asrwt>0</asrwt>
<pdfrwt beam="2">  1        2 0.39326511E-01 0.12500483E+03</pdfrwt>
<pdfrwt beam="1">  1       -2 0.94875441E-02 0.12500483E+03</pdfrwt>
<totfact> 0.88424058E+03</totfact>
</mgrwt>
</event>
<event>
 7    1  0.5400401E-006  0.1447044E+03  0.7546771E-02  0.1216866E+00
          2   -1    0    0  501    0  0.00000000000E+00  0.00000000000E+00  0.14072347663E+03  0.14072347663E+03  0.00000000000E+00 0.  1.
         -2   -1    0    0    0  501 -0.00000000000E+00 -0.00000000000E+00 -0.12685257868E+03  0.12685257868E+03  0.00000000000E+00 0. -1.
         23    2    1    2    0    0 -0.72493274738E+02 -0.76207570892E+01 -0.17681178711E+02  0.14578063717E+03  0.12500407702E+03 0.  0.
          5    1    3    3  502    0  0.15015100673E+02  0.37998971911E+02 -0.22473114488E+02  0.46866896519E+02  0.47000000000E+01 0.  1.
         -5    1    3    3    0  502 -0.87508375411E+02 -0.45619729001E+02  0.47919357761E+01  0.98913740651E+02  0.47000000000E+01 0.  1.
        -11    1    1    2    0    0  0.12259014052E+02  0.35229667002E+02  0.40353873483E+02  0.54953143383E+02  0.00000000000E+00 0.  1.
         11    1    1    2    0    0  0.60234260686E+02 -0.27608909912E+02 -0.88017968252E+01  0.66842274754E+02  0.00000000000E+00 0. -1.
<mgrwt>
<rscale>  0 0.13740351E+03</rscale>
<asrwt>0</asrwt>
<pdfrwt beam="1">  1        2 0.21649766E-01 0.14470442E+03</pdfrwt>
<pdfrwt beam="2">  1       -2 0.19515781E-01 0.14470442E+03</pdfrwt>
<totfact> 0.53182719E+03</totfact>
</mgrwt>
</event>
<event>
 7    1  0.5400401E-006  0.1409229E+03  0.7546771E-02  0.1241093E+00
         -1   -1    0    0    0  501 -0.00000000000E+00  0.00000000000E+00  0.10306764658E+03  0.10306764658E+03  0.00000000000E+00 0.  1.
          1   -1    0    0  501    0  0.00000000000E+00 -0.00000000000E+00 -0.11543687616E+03  0.11543687616E+03  0.00000000000E+00 0. -1.
         23    2    1    2    0    0 -0.84925478611E+01  0.64515219772E+02 -0.10640955320E+02  0.14132412063E+03  0.12499976077E+03 0.  0.
          5    1    3    3  502    0  0.54457726312E+02  0.89211983400E+01  0.55608275324E+01  0.55661876879E+02  0.47000000000E+01 0.  1.
         -5    1    3    3    0  502 -0.62950274173E+02  0.55594021432E+02 -0.16201782853E+02  0.85662243755E+02  0.47000000000E+01 0.  1.
        -11    1    1    2    0    0  0.19914748927E+02 -0.52708076035E+02  0.96928657093E+01  0.57172459715E+02  0.00000000000E+00 0.  1.
         11    1    1    2    0    0 -0.11422201066E+02 -0.11807143737E+02 -0.11421139969E+02  0.20007942388E+02  0.00000000000E+00 0. -1.
<mgrwt>
<rscale>  0 0.12122322E+03</rscale>
<asrwt>0</asrwt>
<pdfrwt beam="2">  1        1 0.17759519E-01 0.14092295E+03</pdfrwt>
<pdfrwt beam="1">  1       -1 0.15856561E-01 0.14092295E+03</pdfrwt>
<totfact> 0.83008915E+03</totfact>
</mgrwt>
</event>
<event>
 7    1  0.5400401E-006  0.1156569E+03  0.7546771E-02  0.1264825E+00
          1   -1    0    0  501    0  0.00000000000E+00  0.00000000000E+00  0.34873535766E+03  0.34873535766E+03  0.00000000000E+00 0. -1.
         -1   -1    0    0    0  501 -0.00000000000E+00 -0.00000000000E+00 -0.37429607692E+02  0.37429607692E+02  0.00000000000E+00 0.  1.
         23    2    1    2    0    0  0.21000847775E+02  0.10068058798E+02  0.84551766669E+02  0.14326730999E+03  0.11328777273E+03 0.  0.
          5    1    3    3  502    0  0.58144160570E+02 -0.18652597783E+02  0.22353259813E+02  0.65195253176E+02  0.47000000000E+01 0. -1.
         -5    1    3    3    0  502 -0.37143312795E+02  0.28720656582E+02  0.62198506856E+02  0.78072056813E+02  0.47000000000E+01 0.  1.
        -11    1    1    2    0    0 -0.34395156391E+02 -0.37997528988E+02  0.17716376716E+03  0.18442841264E+03  0.00000000000E+00 0. -1.
         11    1    1    2    0    0  0.13394308615E+02  0.27929470190E+02  0.49590216133E+02  0.58469242722E+02  0.00000000000E+00 0.  1.
<mgrwt>
<rscale>  0 0.10773355E+03</rscale>
<asrwt>0</asrwt>
<pdfrwt beam="1">  1        1 0.53651591E-01 0.11565691E+03</pdfrwt>
<pdfrwt beam="2">  1       -1 0.57584014E-02 0.11565691E+03</pdfrwt>
<totfact> 0.96291402E+03</totfact>
</mgrwt>
</event>
<event>
 7    1  0.9719764E-006  0.2356880E+03  0.7546771E-02  0.1125628E+00
          2   -1    0    0  501    0  0.00000000000E+00  0.00000000000E+00  0.13653359097E+04  0.13653359097E+04  0.00000000000E+00 0. -1.
         -2   -1    0    0    0  501 -0.00000000000E+00 -0.00000000000E+00 -0.37939289641E+02  0.37939289641E+02  0.00000000000E+00 0.  1.
         23    2    1    2    0    0  0.30623211821E+02  0.19744958607E+03  0.66061096171E+03  0.70139552314E+03  0.12499886804E+03 0.  0.
          5    1    3    3  502    0 -0.45161222792E+02  0.83837236751E+02  0.21242412816E+03  0.23283968419E+03  0.47000000000E+01 0.  1.
         -5    1    3    3    0  502  0.75784434613E+02  0.11361234932E+03  0.44818683355E+03  0.46855583895E+03  0.47000000000E+01 0.  1.
        -11    1    1    2    0    0 -0.14695010454E+02 -0.49413247926E+02  0.70816353340E+02  0.87593197813E+02  0.00000000000E+00 0.  1.
         11    1    1    2    0    0 -0.15928201368E+02 -0.14803633815E+03  0.59596930497E+03  0.61428647835E+03  0.00000000000E+00 0. -1.
<mgrwt>
<rscale>  0 0.23144319E+03</rscale>
<asrwt>0</asrwt>
<pdfrwt beam="1">  1        2 0.21005164E+00 0.23568801E+03</pdfrwt>
<pdfrwt beam="2">  1       -2 0.58368148E-02 0.23568801E+03</pdfrwt>
<totfact> 0.24921066E+03</totfact>
</mgrwt>
</event>
<event>
 7    1  0.5400401E-006  0.1300756E+03  0.7546771E-02  0.1240990E+00
         -1   -1    0    0    0  501 -0.00000000000E+00  0.00000000000E+00  0.72593035459E+02  0.72593035459E+02  0.00000000000E+00 0.  1.
          1   -1    0    0  501    0  0.00000000000E+00 -0.00000000000E+00 -0.18007798992E+03  0.18007798992E+03  0.00000000000E+00 0. -1.
         23    2    1    2    0    0  0.33443482276E+02 -0.13265150729E+02 -0.55123698747E+02  0.14127376223E+03  0.12500089199E+03 0.  0.
          5    1    3    3  502    0 -0.34474729355E+02 -0.34649308634E+02 -0.49450183531E+02  0.69688537107E+02  0.47000000000E+01 0.  1.
         -5    1    3    3    0  502  0.67918211631E+02  0.21384157905E+02 -0.56735152163E+01  0.71585225119E+02  0.47000000000E+01 0.  1.
        -11    1    1    2    0    0 -0.34990063829E+02 -0.29573582373E+02 -0.28425975124E+01  0.45901870351E+02  0.00000000000E+00 0.  1.
         11    1    1    2    0    0  0.15465815532E+01  0.42838733102E+02 -0.49518658205E+02  0.65495392805E+02  0.00000000000E+00 0. -1.
<mgrwt>
<rscale>  0 0.12128635E+03</rscale>
<asrwt>0</asrwt>
<pdfrwt beam="2">  1        1 0.27704306E-01 0.13007557E+03</pdfrwt>
<pdfrwt beam="1">  1       -1 0.11168159E-01 0.13007557E+03</pdfrwt>
<totfact> 0.81106053E+03</totfact>
</mgrwt>
</event>
<event>
 7    1  0.5400401E-006  0.1561418E+03  0.7546771E-02  0.1200984E+00
         -3   -1    0    0    0  501 -0.00000000000E+00  0.00000000000E+00  0.64322250973E+02  0.64322250973E+02  0.00000000000E+00 0.  1.
          3   -1    0    0  501    0  0.00000000000E+00 -0.00000000000E+00 -0.39308912408E+03  0.39308912408E+03  0.00000000000E+00 0. -1.
         23    2    1    2    0    0  0.92574764080E+02 -0.13629569164E+02 -0.78669688246E+02  0.17484042211E+03  0.12499760500E+03 0.  0.
          5    1    3    3  502    0 -0.56977676647E+00 -0.76949658319E+01  0.30106982265E+02  0.31433382348E+02  0.47000000000E+01 0. -1.
         -5    1    3    3    0  502  0.93144540846E+02 -0.59346033317E+01 -0.10877667051E+03  0.14340703976E+03  0.47000000000E+01 0. -1.
        -11    1    1    2    0    0  0.12322300702E+02  0.15890494238E+02 -0.81894189555E+02  0.84326776202E+02  0.00000000000E+00 0. -1.
         11    1    1    2    0    0 -0.10489706478E+03 -0.22609250744E+01 -0.16820299531E+03  0.19824417674E+03  0.00000000000E+00 0.  1.
<mgrwt>
<rscale>  0 0.14958499E+03</rscale>
<asrwt>0</asrwt>
<pdfrwt beam="2">  1        3 0.60475249E-01 0.15614177E+03</pdfrwt>
<pdfrwt beam="1">  1       -3 0.98957310E-02 0.15614177E+03</pdfrwt>
<totfact> 0.48134926E+02</totfact>
</mgrwt>
</event>
<event>
 7    1  0.5400401E-006  0.1431911E+03  0.7546771E-02  0.1219681E+00
          2   -1    0    0  501    0  0.00000000000E+00  0.00000000000E+00  0.64337823727E+03  0.64337823727E+03  0.00000000000E+00 0. -1.
         -2   -1    0    0    0  501 -0.00000000000E+00 -0.00000000000E+00 -0.27802687901E+02  0.27802687901E+02  0.00000000000E+00 0.  1.
         23    2    1    2    0    0 -0.63985401193E+02 -0.27999740850E+02  0.24983562699E+03  0.28796101257E+03  0.12500234875E+03 0.  0.
          5    1    3    3  502    0 -0.61800872634E+02  0.40621874925E+02  0.13833642433E+03  0.15693483003E+03  0.47000000000E+01 0. -1.
         -5    1    3    3    0  502 -0.21845285592E+01 -0.68621615775E+02  0.11149920266E+03  0.13102618254E+03  0.47000000000E+01 0. -1.
        -11    1    1    2    0    0  0.10065479896E+02  0.53506871487E+02  0.18900157076E+03  0.19668729734E+03  0.00000000000E+00 0. -1.
         11    1    1    2    0    0  0.53919921297E+02 -0.25507130637E+02  0.17673835161E+03  0.18653261526E+03  0.00000000000E+00 0.  1.
<mgrwt>
<rscale>  0 0.13538236E+03</rscale>
<asrwt>0</asrwt>
<pdfrwt beam="1">  1        2 0.98981256E-01 0.14319115E+03</pdfrwt>
<pdfrwt beam="2">  1       -2 0.42773371E-02 0.14319115E+03</pdfrwt>
<totfact> 0.11049739E+04</totfact>
</mgrwt>
</event>
<event>
 7    1  0.5400401E-006  0.1886078E+03  0.7546771E-02  0.1164210E+00
         -1   -1    0    0    0  501 -0.00000000000E+00  0.00000000000E+00  0.17635599726E+03  0.17635599726E+03  0.00000000000E+00 0.  1.
          1   -1    0    0  501    0  0.00000000000E+00 -0.00000000000E+00 -0.18721736410E+03  0.18721736410E+03  0.00000000000E+00 0. -1.
         23    2    1    2    0    0  0.14122635638E+03 -0.20449831487E+01  0.23831025251E+02  0.19010743082E+03  0.12499540710E+03 0.  0.
          5    1    3    3  502    0  0.87760550904E+02  0.57088026775E+02 -0.57215349779E+01  0.10495610063E+03  0.47000000000E+01 0.  1.
         -5    1    3    3    0  502  0.53465805474E+02 -0.59133009923E+02  0.29552560229E+02  0.85151330193E+02  0.47000000000E+01 0.  1.
        -11    1    1    2    0    0 -0.48880521963E+02 -0.39526331717E+02  0.83744230618E+01  0.63417405245E+02  0.00000000000E+00 0. -1.
         11    1    1    2    0    0 -0.92345834415E+02  0.41571314866E+02 -0.43066815145E+02  0.11004852530E+03  0.00000000000E+00 0.  1.
<mgrwt>
<rscale>  0 0.18376270E+03</rscale>
<asrwt>0</asrwt>
<pdfrwt beam="2">  1        1 0.28802671E-01 0.18860784E+03</pdfrwt>
<pdfrwt beam="1">  1       -1 0.27131692E-01 0.18860784E+03</pdfrwt>
<totfact> 0.19112558E+03</totfact>
</mgrwt>
</event>
<event>
 7    1  0.5400401E-006  0.1360007E+03  0.7546771E-02  0.1231284E+00
         -1   -1    0    0    0  501 -0.00000000000E+00  0.00000000000E+00  0.29541866608E+02  0.29541866608E+02  0.00000000000E+00 0.  1.
          1   -1    0    0  501    0  0.00000000000E+00 -0.00000000000E+00 -0.49378281166E+03  0.49378281166E+03  0.00000000000E+00 0. -1.
         23    2    1    2    0    0  0.49358532304E+02 -0.20820994235E+02 -0.24285556024E+03  0.27834332786E+03  0.12500562592E+03 0.  0.
          5    1    3    3  502    0  0.76225013066E+02 -0.50959656979E+02 -0.13668102562E+03  0.16465397663E+03  0.47000000000E+01 0. -1.
         -5    1    3    3    0  502 -0.26866480762E+02  0.30138662745E+02 -0.10617453462E+03  0.11368935123E+03  0.47000000000E+01 0. -1.
        -11    1    1    2    0    0 -0.10181054469E+02  0.38009376761E+01  0.68084979070E+01  0.12824064920E+02  0.00000000000E+00 0.  1.
         11    1    1    2    0    0 -0.39177477835E+02  0.17020056559E+02 -0.22819388272E+03  0.23215728549E+03  0.00000000000E+00 0. -1.
<mgrwt>
<rscale>  0 0.12745341E+03</rscale>
<asrwt>0</asrwt>
<pdfrwt beam="2">  1        1 0.75966585E-01 0.13600068E+03</pdfrwt>
<pdfrwt beam="1">  1       -1 0.45449026E-02 0.13600068E+03</pdfrwt>
<totfact> 0.89008145E+03</totfact>
</mgrwt>
</event>
<event>
 7    1  0.5400401E-006  0.1681399E+03  0.7546771E-02  0.1185831E+00
          2   -1    0    0  501    0  0.00000000000E+00  0.00000000000E+00  0.15497495564E+03  0.15497495564E+03  0.00000000000E+00 0. -1.
         -2   -1    0    0    0  501 -0.00000000000E+00 -0.00000000000E+00 -0.23237039953E+03  0.23237039953E+03  0.00000000000E+00 0.  1.
         23    2    1    2    0    0  0.22120692319E+02 -0.11562795720E+03 -0.14830899800E+03  0.22420207165E+03  0.12004940870E+03 0.  0.
          5    1    3    3  502    0  0.14318120869E+02 -0.90645506969E+02 -0.21149708181E+02  0.94292187773E+02  0.47000000000E+01 0. -1.
         -5    1    3    3    0  502  0.78025714504E+01 -0.24982450228E+02 -0.12715928982E+03  0.12990988387E+03  0.47000000000E+01 0.  1.
        -11    1    1    2    0    0 -0.34782115720E+02  0.66268724438E+02 -0.11890547806E+01  0.74851541492E+02  0.00000000000E+00 0. -1.
         11    1    1    2    0    0  0.12661423401E+02  0.49359232760E+02  0.72102608888E+02  0.88291742024E+02  0.00000000000E+00 0.  1.
<mgrwt>
<rscale>  0 0.16256499E+03</rscale>
<asrwt>0</asrwt>
<pdfrwt beam="1">  1        2 0.23842301E-01 0.16813985E+03</pdfrwt>
<pdfrwt beam="2">  1       -2 0.35749292E-01 0.16813985E+03</pdfrwt>
<totfact> 0.16478071E+03</totfact>
</mgrwt>
</event>
<event>
 7    1  0.5400401E-006  0.1594797E+03  0.7546771E-02  0.1198479E+00
         -2   -1    0    0    0  501 -0.00000000000E+00  0.00000000000E+00  0.42492845949E+02  0.42492845949E+02  0.00000000000E+00 0.  1.
          2   -1    0    0  501    0  0.00000000000E+00 -0.00000000000E+00 -0.51950045791E+03  0.51950045791E+03  0.00000000000E+00 0. -1.
         23    2    1    2    0    0  0.34821513616E+02  0.89855191531E+02 -0.19957063202E+03  0.25546471103E+03  0.12707198024E+03 0.  0.
          5    1    3    3  502    0  0.44152384666E+01  0.15916892778E+02 -0.16880149304E+03  0.16967284951E+03  0.47000000000E+01 0.  1.
         -5    1    3    3    0  502  0.30406275149E+02  0.73938298752E+02 -0.30769138977E+02  0.85791861526E+02  0.47000000000E+01 0.  1.
        -11    1    1    2    0    0 -0.14344637776E+02 -0.98767512982E+02 -0.17294363631E+03  0.19967546568E+03  0.00000000000E+00 0.  1.
         11    1    1    2    0    0 -0.20476875840E+02  0.89123214513E+01 -0.10449334363E+03  0.10685312714E+03  0.00000000000E+00 0. -1.
<mgrwt>
<rscale>  0 0.15163466E+03</rscale>
<asrwt>0</asrwt>
<pdfrwt beam="2">  1        2 0.79923144E-01 0.15947972E+03</pdfrwt>
<pdfrwt beam="1">  1       -2 0.65373612E-02 0.15947972E+03</pdfrwt>
<totfact> 0.74706007E+03</totfact>
</mgrwt>
</event>
<event>
 7    1  0.5400401E-006  0.1467119E+03  0.7546771E-02  0.1214131E+00
          1   -1    0    0  501    0  0.00000000000E+00  0.00000000000E+00  0.96187217128E+02  0.96187217128E+02  0.00000000000E+00 0. -1.
         -1   -1    0    0    0  501 -0.00000000000E+00 -0.00000000000E+00 -0.20663062509E+03  0.20663062509E+03  0.00000000000E+00 0.  1.
         23    2    1    2    0    0 -0.54319319379E+02 -0.54311206628E+02 -0.10974563856E+03  0.18321703329E+03  0.12499632186E+03 0.  0.
          5    1    3    3  502    0 -0.76783045465E+02 -0.72650719093E+02 -0.50836789918E+02  0.11738923402E+03  0.47000000000E+01 0.  1.
         -5    1    3    3    0  502  0.22463726086E+02  0.18339512465E+02 -0.58908848643E+02  0.65827799262E+02  0.47000000000E+01 0.  1.
        -11    1    1    2    0    0  0.19618418986E+02  0.37384259757E+02 -0.44412229297E+02  0.61277331471E+02  0.00000000000E+00 0.  1.
         11    1    1    2    0    0  0.34700900393E+02  0.16926946871E+02  0.43714459900E+02  0.58323477458E+02  0.00000000000E+00 0. -1.
<mgrwt>
<rscale>  0 0.13940574E+03</rscale>
<asrwt>0</asrwt>
<pdfrwt beam="1">  1        1 0.14798034E-01 0.14671188E+03</pdfrwt>
<pdfrwt beam="2">  1       -1 0.31789326E-01 0.14671188E+03</pdfrwt>
<totfact> 0.33905686E+03</totfact>
</mgrwt>
</event>
<event>
 7    1  0.5400401E-006  0.1347353E+03  0.7546771E-02  0.1231878E+00
         -1   -1    0    0    0  501 -0.00000000000E+00  0.00000000000E+00  0.19410395152E+03  0.19410395152E+03  0.00000000000E+00 0.  1.
          1   -1    0    0  501    0  0.00000000000E+00 -0.00000000000E+00 -0.75233092856E+02  0.75233092856E+02  0.00000000000E+00 0. -1.
         23    2    1    2    0    0  0.45940286818E+02  0.20468036579E+02  0.73821854870E+02  0.15363354122E+03  0.12499659298E+03 0.  0.
          5    1    3    3  502    0  0.82621507243E+02  0.34358213525E+02  0.70456339839E+02  0.11398678046E+03  0.47000000000E+01 0. -1.
         -5    1    3    3    0  502 -0.36681220425E+02 -0.13890176946E+02  0.33655150310E+01  0.39646760762E+02  0.47000000000E+01 0. -1.
        -11    1    1    2    0    0  0.22546592975E+02 -0.27043132097E+02  0.36281598751E+01  0.35395527860E+02  0.00000000000E+00 0.  1.
         11    1    1    2    0    0 -0.68486879793E+02  0.65750955184E+01  0.41420843917E+02  0.80307975293E+02  0.00000000000E+00 0. -1.
<mgrwt>
<rscale>  0 0.12706420E+03</rscale>
<asrwt>0</asrwt>
<pdfrwt beam="2">  1        1 0.11574322E-01 0.13473529E+03</pdfrwt>
<pdfrwt beam="1">  1       -1 0.29862146E-01 0.13473529E+03</pdfrwt>
<totfact> 0.51684163E+03</totfact>
</mgrwt>
</event>
<event>
 7    1  0.5400401E-006  0.1772782E+03  0.7546771E-02  0.1177426E+00
          2   -1    0    0  501    0  0.00000000000E+00  0.00000000000E+00  0.26741439737E+02  0.26741439737E+02  0.00000000000E+00 0. -1.
         -2   -1    0    0    0  501 -0.00000000000E+00 -0.00000000000E+00 -0.10118182325E+04  0.10118182325E+04  0.00000000000E+00 0.  1.
         23    2    1    2    0    0 -0.12410820669E+03  0.19976015029E+02 -0.55558075012E+03  0.58317882192E+03  0.12500272114E+03 0.  0.
          5    1    3    3  502    0 -0.88589901763E+02 -0.33992451622E+02 -0.19601786089E+03  0.21782733816E+03  0.47000000000E+01 0. -1.
         -5    1    3    3    0  502 -0.35518304925E+02  0.53968466651E+02 -0.35956288922E+03  0.36535148376E+03  0.47000000000E+01 0. -1.
        -11    1    1    2    0    0  0.46514068525E+02 -0.21745135647E+02 -0.30034591359E+03  0.30470326107E+03  0.00000000000E+00 0.  1.
         11    1    1    2    0    0  0.77594138163E+02  0.17691206184E+01 -0.12915012901E+03  0.15067758921E+03  0.00000000000E+00 0. -1.
<mgrwt>
<rscale>  0 0.17040507E+03</rscale>
<asrwt>0</asrwt>
<pdfrwt beam="1">  1        2 0.41140685E-02 0.17727822E+03</pdfrwt>
<pdfrwt beam="2">  1       -2 0.15566431E+00 0.17727822E+03</pdfrwt>
<totfact> 0.57980429E+02</totfact>
</mgrwt>
</event>
<event>
 7    1  0.5400401E-006  0.1258515E+03  0.7546771E-02  0.1249614E+00
         -1   -1    0    0    0  501 -0.00000000000E+00  0.00000000000E+00  0.43228184423E+02  0.43228184423E+02  0.00000000000E+00 0.  1.
          1   -1    0    0  501    0  0.00000000000E+00 -0.00000000000E+00 -0.27869397602E+03  0.27869397602E+03  0.00000000000E+00 0. -1.
         23    2    1    2    0    0  0.52146371502E+01 -0.13632815665E+02 -0.11258319614E+03  0.16885960338E+03  0.12500217397E+03 0.  0.
          5    1    3    3  502    0  0.37300050415E+02 -0.28481222729E+02 -0.12297605860E+03  0.13171057208E+03  0.47000000000E+01 0. -1.
         -5    1    3    3    0  502 -0.32085413265E+02  0.14848407064E+02  0.10392862453E+02  0.37149031302E+02  0.47000000000E+01 0. -1.
        -11    1    1    2    0    0 -0.37772245829E+02  0.34184731934E+02 -0.84684932330E+02  0.98827507386E+02  0.00000000000E+00 0. -1.
         11    1    1    2    0    0  0.32557608679E+02 -0.20551916269E+02 -0.38197663120E+02  0.54235049673E+02  0.00000000000E+00 0.  1.
<mgrwt>
<rscale>  0 0.11613453E+03</rscale>
<asrwt>0</asrwt>
<pdfrwt beam="2">  1        1 0.42875994E-01 0.12585146E+03</pdfrwt>
<pdfrwt beam="1">  1       -1 0.66504903E-02 0.12585146E+03</pdfrwt>
<totfact> 0.10321156E+04</totfact>
</mgrwt>
</event>
<event>
 7    1  0.5400401E-006  0.1700116E+03  0.7546771E-02  0.1184506E+00
          2   -1    0    0  501    0  0.00000000000E+00  0.00000000000E+00  0.51058496444E+03  0.51058496444E+03  0.00000000000E+00 0. -1.
         -2   -1    0    0    0  501 -0.00000000000E+00 -0.00000000000E+00 -0.49031842030E+02  0.49031842030E+02  0.00000000000E+00 0.  1.
         23    2    1    2    0    0 -0.29549676050E+02  0.11137992994E+03  0.25319993134E+03  0.30498220892E+03  0.12500108150E+03 0.  0.
          5    1    3    3  502    0 -0.35084946472E+01 -0.33348095206E+01  0.14477848640E+03  0.14493560851E+03  0.47000000000E+01 0. -1.
         -5    1    3    3    0  502 -0.26041181403E+02  0.11471473947E+03  0.10842144494E+03  0.16004660041E+03  0.47000000000E+01 0. -1.
        -11    1    1    2    0    0  0.48819236314E+01 -0.89981807570E+02  0.20224509389E+03  0.22141282003E+03  0.00000000000E+00 0.  1.
         11    1    1    2    0    0  0.24667752419E+02 -0.21398122375E+02  0.61080971827E+01  0.33221777523E+02  0.00000000000E+00 0. -1.
<mgrwt>
<rscale>  0 0.16376871E+03</rscale>
<asrwt>0</asrwt>
<pdfrwt beam="1">  1        2 0.78551529E-01 0.17001160E+03</pdfrwt>
<pdfrwt beam="2">  1       -2 0.75433607E-02 0.17001160E+03</pdfrwt>
<totfact> 0.61316529E+03</totfact>
</mgrwt>
</event>
<event>
 7    1  0.5400401E-006  0.3307781E+03  0.7546771E-02  0.1072120E+00
         -1   -1    0    0    0  501 -0.00000000000E+00  0.00000000000E+00  0.64293846897E+02  0.64293846897E+02  0.00000000000E+00 0.  1.
          1   -1    0    0  501    0  0.00000000000E+00 -0.00000000000E+00 -0.18914575838E+04  0.18914575838E+04  0.00000000000E+00 0. -1.
         23    2    1    2    0    0 -0.27769432359E+03  0.12913636322E+03 -0.57262885471E+03  0.66130021243E+03  0.12499531211E+03 0.  0.
          5    1    3    3  502    0 -0.28557162340E+03  0.13574163002E+03 -0.52974109753E+03  0.61694786054E+03  0.47000000000E+01 0. -1.
         -5    1    3    3    0  502  0.78772998118E+01 -0.66052668057E+01 -0.42887757181E+02  0.44352351887E+02  0.47000000000E+01 0. -1.
        -11    1    1    2    0    0  0.10831533390E+03 -0.23538882533E+02 -0.60023143587E+03  0.61038026439E+03  0.00000000000E+00 0.  1.
         11    1    1    2    0    0  0.16937898969E+03 -0.10559748069E+03 -0.65430344636E+03  0.68407095392E+03  0.00000000000E+00 0. -1.
<mgrwt>
<rscale>  0 0.32778747E+03</rscale>
<asrwt>0</asrwt>
<pdfrwt beam="2">  1        1 0.29099350E+00 0.33077812E+03</pdfrwt>
<pdfrwt beam="1">  1       -1 0.98913603E-02 0.33077812E+03</pdfrwt>
<totfact> 0.24385497E+02</totfact>
</mgrwt>
</event>
<event>
 7    1  0.5400401E-006  0.1439225E+03  0.7546771E-02  0.1217255E+00
         -2   -1    0    0    0  501 -0.00000000000E+00  0.00000000000E+00  0.58551729185E+02  0.58551729185E+02  0.00000000000E+00 0.  1.
          2   -1    0    0  501    0  0.00000000000E+00 -0.00000000000E+00 -0.29588850008E+03  0.29588850008E+03  0.00000000000E+00 0. -1.
         23    2    1    2    0    0 -0.50910061375E+02 -0.49977020764E+02 -0.11686304747E+03  0.18539324013E+03  0.12499657863E+03 0.  0.
          5    1    3    3  502    0 -0.83747188303E+02 -0.45166995200E+02 -0.43484775074E+02  0.10472184427E+03  0.47000000000E+01 0.  1.
         -5    1    3    3    0  502  0.32837126928E+02 -0.48100255646E+01 -0.73378272396E+02  0.80671395864E+02  0.47000000000E+01 0.  1.
        -11    1    1    2    0    0 -0.87351225663E+01  0.16630893008E+02 -0.93847169139E+02  0.95708829916E+02  0.00000000000E+00 0. -1.
         11    1    1    2    0    0  0.59645183942E+02  0.33346127757E+02 -0.26626554286E+02  0.73338159214E+02  0.00000000000E+00 0.  1.
<mgrwt>
<rscale>  0 0.13712167E+03</rscale>
<asrwt>0</asrwt>
<pdfrwt beam="2">  1        2 0.45521308E-01 0.14392248E+03</pdfrwt>
<pdfrwt beam="1">  1       -2 0.90079583E-02 0.14392248E+03</pdfrwt>
<totfact> 0.82939744E+03</totfact>
</mgrwt>
</event>
<event>
 7    1  0.5400401E-006  0.1251111E+03  0.7546771E-02  0.1250778E+00
          1   -1    0    0  501    0  0.00000000000E+00  0.00000000000E+00  0.59830908799E+02  0.59830908799E+02  0.00000000000E+00 0. -1.
         -1   -1    0    0    0  501 -0.00000000000E+00 -0.00000000000E+00 -0.19722574367E+03  0.19722574367E+03  0.00000000000E+00 0.  1.
         23    2    1    2    0    0  0.41482062765E+01 -0.34207645351E+01 -0.93846424208E+02  0.15639677410E+03  0.12499556139E+03 0.  0.
          5    1    3    3  502    0  0.13763454684E+02  0.57675811542E+02 -0.64623568387E+02  0.87830675239E+02  0.47000000000E+01 0. -1.
         -5    1    3    3    0  502 -0.96152484073E+01 -0.61096576078E+02 -0.29222855821E+02  0.68566098859E+02  0.47000000000E+01 0. -1.
        -11    1    1    2    0    0  0.11039429912E+02  0.45078014752E+02 -0.21894959209E+02  0.51315549939E+02  0.00000000000E+00 0.  1.
         11    1    1    2    0    0 -0.15187636188E+02 -0.41657250217E+02 -0.21653451454E+02  0.49344328433E+02  0.00000000000E+00 0. -1.
<mgrwt>
<rscale>  0 0.11546124E+03</rscale>
<asrwt>0</asrwt>
<pdfrwt beam="1">  1        1 0.92047553E-02 0.12511115E+03</pdfrwt>
<pdfrwt beam="2">  1       -1 0.30342422E-01 0.12511115E+03</pdfrwt>
<totfact> 0.67748623E+03</totfact>
</mgrwt>
</event>
<event>
 7    1  0.5400401E-006  0.3571293E+03  0.7546771E-02  0.1059726E+00
          1   -1    0    0  501    0  0.00000000000E+00  0.00000000000E+00  0.10411323934E+03  0.10411323934E+03  0.00000000000E+00 0. -1.
         -1   -1    0    0    0  501 -0.00000000000E+00 -0.00000000000E+00 -0.30625629979E+03  0.30625629979E+03  0.00000000000E+00 0.  1.
         23    2    1    2    0    0  0.73865286619E+02  0.66275218081E+02 -0.10669131264E+03  0.19198221904E+03  0.12500260450E+03 0.  0.
          5    1    3    3  502    0  0.29117646588E+02  0.73471269355E+02 -0.12066766043E+03  0.14432130486E+03  0.47000000000E+01 0.  1.
         -5    1    3    3    0  502  0.44747640031E+02 -0.71960512741E+01  0.13976347786E+02  0.47660914172E+02  0.47000000000E+01 0.  1.
        -11    1    1    2    0    0 -0.78622066206E+02  0.33231267780E+02 -0.81095724791E+02  0.11773811206E+03  0.00000000000E+00 0.  1.
         11    1    1    2    0    0  0.47567795866E+01 -0.99506485861E+02 -0.14356023019E+02  0.10064920803E+03  0.00000000000E+00 0. -1.
<mgrwt>
<rscale>  0 0.35712931E+03</rscale>
<asrwt>0</asrwt>
<pdfrwt beam="1">  1        1 0.16017421E-01 0.35712931E+03</pdfrwt>
<pdfrwt beam="2">  1       -1 0.47116354E-01 0.35712931E+03</pdfrwt>
<totfact> 0.15728639E+03</totfact>
</mgrwt>
</event>
<event>
 7    1  0.5400401E-006  0.1294566E+03  0.7546771E-02  0.1242014E+00
         -3   -1    0    0    0  501 -0.00000000000E+00  0.00000000000E+00  0.13866398960E+03  0.13866398960E+03  0.00000000000E+00 0.  1.
          3   -1    0    0  501    0  0.00000000000E+00 -0.00000000000E+00 -0.94230861494E+02  0.94230861494E+02  0.00000000000E+00 0. -1.
         23    2    1    2    0    0  0.14474546623E+02 -0.30399542064E+02  0.38330194514E+02  0.13501193957E+03  0.12500150142E+03 0.  0.
          5    1    3    3  502    0  0.60513173900E+02 -0.49603741365E+02  0.15289822389E+02  0.79863909506E+02  0.47000000000E+01 0.  1.
         -5    1    3    3    0  502 -0.46038627278E+02  0.19204199301E+02  0.23040372125E+02  0.55148030065E+02  0.47000000000E+01 0.  1.
        -11    1    1    2    0    0 -0.94998182183E+01  0.14274307871E+02 -0.42823160205E+02  0.46128358537E+02  0.00000000000E+00 0. -1.
         11    1    1    2    0    0 -0.49747284044E+01  0.16125234193E+02  0.48926093794E+02  0.51754552982E+02  0.00000000000E+00 0.  1.
<mgrwt>
<rscale>  0 0.12065866E+03</rscale>
<asrwt>0</asrwt>
<pdfrwt beam="2">  1        3 0.14497055E-01 0.12945663E+03</pdfrwt>
<pdfrwt beam="1">  1       -3 0.21332922E-01 0.12945663E+03</pdfrwt>
<totfact> 0.17920109E+03</totfact>
</mgrwt>
</event>
<event>
 7    1  0.5400401E-006  0.1433976E+03  0.7546771E-02  0.1219762E+00
          2   -1    0    0  501    0  0.00000000000E+00  0.00000000000E+00  0.23988258022E+03  0.23988258022E+03  0.00000000000E+00 0. -1.
         -2   -1    0    0    0  501 -0.00000000000E+00 -0.00000000000E+00 -0.70971746702E+02  0.70971746702E+02  0.00000000000E+00 0.  1.
         23    2    1    2    0    0 -0.12065633965E+02  0.69214786332E+02  0.67557994591E+02  0.15851483158E+03  0.12500641194E+03 0.  0.
          5    1    3    3  502    0 -0.43317319059E+01 -0.32953756049E+02  0.40176811439E+02  0.52354370557E+02  0.47000000000E+01 0.  1.
         -5    1    3    3    0  502 -0.77339020592E+01  0.10216854238E+03  0.27381183151E+02  0.10616046102E+03  0.47000000000E+01 0.  1.
        -11    1    1    2    0    0 -0.19784099675E+02 -0.58752435556E+02  0.10135992816E+03  0.11881537914E+03  0.00000000000E+00 0. -1.
         11    1    1    2    0    0  0.31849733640E+02 -0.10462350775E+02 -0.70892379812E-02  0.33524116200E+02  0.00000000000E+00 0.  1.
<mgrwt>
<rscale>  0 0.13532464E+03</rscale>
<asrwt>0</asrwt>
<pdfrwt beam="1">  1        2 0.36905012E-01 0.14339759E+03</pdfrwt>
<pdfrwt beam="2">  1       -2 0.10918730E-01 0.14339759E+03</pdfrwt>
<totfact> 0.76607868E+03</totfact>
</mgrwt>
</event>
<event>
 7    1  0.5400401E-006  0.2172932E+03  0.7546771E-02  0.1139417E+00
          1   -1    0    0  501    0  0.00000000000E+00  0.00000000000E+00  0.33560191134E+03  0.33560191134E+03  0.00000000000E+00 0. -1.
         -1   -1    0    0    0  501 -0.00000000000E+00 -0.00000000000E+00 -0.15169553892E+03  0.15169553892E+03  0.00000000000E+00 0.  1.
         23    2    1    2    0    0  0.17604828554E+03 -0.24531604775E+02  0.21270515621E+01  0.21730364764E+03  0.12498620906E+03 0.  0.
          5    1    3    3  502    0  0.14255568608E+03 -0.62943750253E+02 -0.27286455073E+02  0.15827406597E+03  0.47000000000E+01 0.  1.
         -5    1    3    3    0  502  0.33492599458E+02  0.38412145478E+02  0.29413506635E+02  0.59029581662E+02  0.47000000000E+01 0.  1.
        -11    1    1    2    0    0 -0.12686185453E+03  0.42733998633E+02  0.16975399413E+03  0.21618636242E+03  0.00000000000E+00 0.  1.
         11    1    1    2    0    0 -0.49186431011E+02 -0.18202393858E+02  0.12025326734E+02  0.53807440200E+02  0.00000000000E+00 0. -1.
<mgrwt>
<rscale>  0 0.21273659E+03</rscale>
<asrwt>0</asrwt>
<pdfrwt beam="1">  1        1 0.51631063E-01 0.21729324E+03</pdfrwt>
<pdfrwt beam="2">  1       -1 0.23337775E-01 0.21729324E+03</pdfrwt>
<totfact> 0.11840071E+03</totfact>
</mgrwt>
</event>
<event>
 7    1  0.5400401E-006  0.1565081E+03  0.7546771E-02  0.1200940E+00
         -1   -1    0    0    0  501 -0.00000000000E+00  0.00000000000E+00  0.60700272165E+02  0.60700272165E+02  0.00000000000E+00 0.  1.
          1   -1    0    0  501    0  0.00000000000E+00 -0.00000000000E+00 -0.35098496828E+03  0.35098496828E+03  0.00000000000E+00 0. -1.
         23    2    1    2    0    0  0.44236121734E+02  0.83132113826E+02 -0.12113923177E+03  0.19791289102E+03  0.12500806431E+03 0.  0.
          5    1    3    3  502    0  0.48683377202E-01  0.43415829474E+02 -0.13047352598E+03  0.13758767241E+03  0.47000000000E+01 0. -1.
         -5    1    3    3    0  502  0.44187438357E+02  0.39716284352E+02  0.93342942071E+01  0.60325218604E+02  0.47000000000E+01 0. -1.
        -11    1    1    2    0    0  0.77999603291E+01 -0.53761606363E+02 -0.29358519944E+02  0.61750080106E+02  0.00000000000E+00 0.  1.
         11    1    1    2    0    0 -0.52036082063E+02 -0.29370507464E+02 -0.13978694440E+03  0.15202226933E+03  0.00000000000E+00 0. -1.
<mgrwt>
<rscale>  0 0.14962028E+03</rscale>
<asrwt>0</asrwt>
<pdfrwt beam="2">  1        1 0.53997688E-01 0.15650814E+03</pdfrwt>
<pdfrwt beam="1">  1       -1 0.93385034E-02 0.15650814E+03</pdfrwt>
<totfact> 0.47104029E+03</totfact>
</mgrwt>
</event>
<event>
 7    1  0.5400401E-006  0.1347849E+03  0.7546771E-02  0.1233842E+00
         -2   -1    0    0    0  501 -0.00000000000E+00  0.00000000000E+00  0.15354191290E+03  0.15354191290E+03  0.00000000000E+00 0. -1.
          2   -1    0    0  501    0  0.00000000000E+00 -0.00000000000E+00 -0.21127053343E+03  0.21127053343E+03  0.00000000000E+00 0.  1.
         23    2    1    2    0    0  0.12787469603E+02 -0.48818304820E+02  0.10621047245E+03  0.17160312274E+03  0.12498088258E+03 0.  0.
          5    1    3    3  502    0  0.10289598266E+02 -0.90687411596E+02  0.61727189654E+02  0.11028335503E+03  0.47000000000E+01 0. -1.
         -5    1    3    3    0  502  0.24978713372E+01  0.41869106776E+02  0.44483282796E+02  0.61319767708E+02  0.47000000000E+01 0. -1.
        -11    1    1    2    0    0 -0.33771328473E+02  0.60657362736E+02 -0.15021307882E+03  0.16548047416E+03  0.00000000000E+00 0.  1.
         11    1    1    2    0    0  0.20983858870E+02 -0.11839057916E+02 -0.13726014158E+02  0.27728849419E+02  0.00000000000E+00 0. -1.
<mgrwt>
<rscale>  0 0.12578831E+03</rscale>
<asrwt>0</asrwt>
<pdfrwt beam="2">  1        2 0.32503159E-01 0.13478489E+03</pdfrwt>
<pdfrwt beam="1">  1       -2 0.23621833E-01 0.13478489E+03</pdfrwt>
<totfact> 0.24469028E+03</totfact>
</mgrwt>
</event>
<event>
 7    1  0.5400401E-006  0.1391444E+03  0.7546771E-02  0.1225497E+00
          2   -1    0    0  501    0  0.00000000000E+00  0.00000000000E+00  0.84836851017E+02  0.84836851017E+02  0.00000000000E+00 0. -1.
         -2   -1    0    0    0  501 -0.00000000000E+00 -0.00000000000E+00 -0.20854653202E+03  0.20854653202E+03  0.00000000000E+00 0.  1.
         23    2    1    2    0    0 -0.60612973486E+02  0.80389264989E+01 -0.11862688476E+03  0.18284832233E+03  0.12499045683E+03 0.  0.
          5    1    3    3  502    0 -0.82030520389E+01 -0.14478875416E+02  0.23761166260E+02  0.29387257751E+02  0.47000000000E+01 0.  1.
         -5    1    3    3    0  502 -0.52409921448E+02  0.22517801915E+02 -0.14238805102E+03  0.15346106458E+03  0.47000000000E+01 0.  1.
        -11    1    1    2    0    0  0.30450108569E+02 -0.46404545451E+02 -0.20786630728E+02  0.59267824049E+02  0.00000000000E+00 0.  1.
         11    1    1    2    0    0  0.30162864917E+02  0.38365618952E+02  0.15703834479E+02  0.51267236662E+02  0.00000000000E+00 0. -1.
<mgrwt>
<rscale>  0 0.13132864E+03</rscale>
<asrwt>0</asrwt>
<pdfrwt beam="1">  1        2 0.13051823E-01 0.13914443E+03</pdfrwt>
<pdfrwt beam="2">  1       -2 0.32084082E-01 0.13914443E+03</pdfrwt>
<totfact> 0.39895552E+03</totfact>
</mgrwt>
</event>
<event>
 7    1  0.5400401E-006  0.1399285E+03  0.7546771E-02  0.1224236E+00
          2   -1    0    0  501    0  0.00000000000E+00  0.00000000000E+00  0.26933389975E+03  0.26933389975E+03  0.00000000000E+00 0. -1.
         -2   -1    0    0    0  501 -0.00000000000E+00 -0.00000000000E+00 -0.11381524148E+03  0.11381524148E+03  0.00000000000E+00 0.  1.
         23    2    1    2    0    0  0.62884330929E+02 -0.93982395187E+00 -0.50621438115E+02  0.14880362203E+03  0.12499866234E+03 0.  0.
          5    1    3    3  502    0  0.95660061654E+02 -0.22676425474E+02 -0.24726923293E+02  0.10148191171E+03  0.47000000000E+01 0. -1.
         -5    1    3    3    0  502 -0.32775730725E+02  0.21736601523E+02 -0.25894514822E+02  0.47321710326E+02  0.47000000000E+01 0. -1.
        -11    1    1    2    0    0 -0.64003256088E+01 -0.16673690838E+02 -0.19886317168E+01  0.17970275183E+02  0.00000000000E+00 0.  1.
         11    1    1    2    0    0 -0.56484005320E+02  0.17613514790E+02  0.20812872811E+03  0.21637524402E+03  0.00000000000E+00 0. -1.
<mgrwt>
<rscale>  0 0.13219429E+03</rscale>
<asrwt>0</asrwt>
<pdfrwt beam="1">  1        2 0.41435984E-01 0.13992851E+03</pdfrwt>
<pdfrwt beam="2">  1       -2 0.17510037E-01 0.13992851E+03</pdfrwt>
<totfact> 0.31425512E+03</totfact>
</mgrwt>
</event>
<event>
 7    1  0.5400401E-006  0.1259786E+03  0.7546771E-02  0.1248327E+00
          1   -1    0    0  501    0  0.00000000000E+00  0.00000000000E+00  0.51585697705E+03  0.51585697705E+03  0.00000000000E+00 0. -1.
         -1   -1    0    0    0  501 -0.00000000000E+00 -0.00000000000E+00 -0.24049923472E+02  0.24049923472E+02  0.00000000000E+00 0.  1.
         23    2    1    2    0    0  0.60228523707E+01 -0.14500461273E+02  0.23465728776E+03  0.26633561332E+03  0.12499631234E+03 0.  0.
          5    1    3    3  502    0 -0.98459330806E+01 -0.50072125849E+02  0.21760277723E+03  0.22355585173E+03  0.47000000000E+01 0. -1.
         -5    1    3    3    0  502  0.15868785451E+02  0.35571664576E+02  0.17054510525E+02  0.42779761590E+02  0.47000000000E+01 0. -1.
        -11    1    1    2    0    0  0.35495972990E+02  0.32442488411E+02  0.12863503175E+03  0.13732971472E+03  0.00000000000E+00 0.  1.
         11    1    1    2    0    0 -0.41518825360E+02 -0.17942027139E+02  0.12851473407E+03  0.13624157247E+03  0.00000000000E+00 0. -1.
<mgrwt>
<rscale>  0 0.11688469E+03</rscale>
<asrwt>0</asrwt>
<pdfrwt beam="1">  1        1 0.79362604E-01 0.12597863E+03</pdfrwt>
<pdfrwt beam="2">  1       -1 0.36999886E-02 0.12597863E+03</pdfrwt>
<totfact> 0.11308666E+04</totfact>
</mgrwt>
</event>
<event>
 7    1  0.5400401E-006  0.1835616E+03  0.7546771E-02  0.1170168E+00
          2   -1    0    0  501    0  0.00000000000E+00  0.00000000000E+00  0.26370080238E+03  0.26370080238E+03  0.00000000000E+00 0. -1.
         -2   -1    0    0    0  501 -0.00000000000E+00 -0.00000000000E+00 -0.11508894913E+03  0.11508894913E+03  0.00000000000E+00 0.  1.
         23    2    1    2    0    0  0.10943716482E+03  0.78062088883E+02  0.50245200778E+02  0.19031402597E+03  0.12499866205E+03 0.  0.
          5    1    3    3  502    0  0.12344883840E+03  0.39033610725E+02  0.63015613863E+01  0.12971136475E+03  0.47000000000E+01 0.  1.
         -5    1    3    3    0  502 -0.14011673585E+02  0.39028478158E+02  0.43943639392E+02  0.60602661220E+02  0.47000000000E+01 0.  1.
        -11    1    1    2    0    0 -0.74592445309E+02 -0.10142178496E+02  0.17531976525E+02  0.77293381882E+02  0.00000000000E+00 0.  1.
         11    1    1    2    0    0 -0.34844719509E+02 -0.67919910386E+02  0.80834675948E+02  0.11118234365E+03  0.00000000000E+00 0. -1.
<mgrwt>
<rscale>  0 0.17757744E+03</rscale>
<asrwt>0</asrwt>
<pdfrwt beam="1">  1        2 0.40569354E-01 0.18356157E+03</pdfrwt>
<pdfrwt beam="2">  1       -2 0.17705992E-01 0.18356157E+03</pdfrwt>
<totfact> 0.31934015E+03</totfact>
</mgrwt>
</event>
<event>
 7    1  0.5400401E-006  0.1154349E+03  0.7546771E-02  0.1261965E+00
         -2   -1    0    0    0  501 -0.00000000000E+00  0.00000000000E+00  0.66711934762E+03  0.66711934762E+03  0.00000000000E+00 0.  1.
          2   -1    0    0  501    0  0.00000000000E+00 -0.00000000000E+00 -0.22776393047E+02  0.22776393047E+02  0.00000000000E+00 0. -1.
         23    2    1    2    0    0  0.17371858058E+02 -0.25218881125E+02  0.53160778975E+03  0.54399638436E+03  0.11129892482E+03 0.  0.
          5    1    3    3  502    0  0.53981230540E+02 -0.46983349607E+02  0.29954711073E+03  0.30801293794E+03  0.47000000000E+01 0. -1.
         -5    1    3    3    0  502 -0.36609372482E+02  0.21764468482E+02  0.23206067901E+03  0.23598344642E+03  0.47000000000E+01 0.  1.
        -11    1    1    2    0    0 -0.27212672510E+02 -0.45906418100E+01  0.11108766638E+03  0.11446428770E+03  0.00000000000E+00 0.  1.
         11    1    1    2    0    0  0.98408144515E+01  0.29809522935E+02  0.16474984448E+01  0.31435068599E+02  0.00000000000E+00 0. -1.
<mgrwt>
<rscale>  0 0.10925025E+03</rscale>
<asrwt>0</asrwt>
<pdfrwt beam="2">  1        2 0.35040610E-02 0.11543493E+03</pdfrwt>
<pdfrwt beam="1">  1       -2 0.10263373E+00 0.11543493E+03</pdfrwt>
<totfact> 0.19412521E+03</totfact>
</mgrwt>
</event>
<event>
 7    1  0.5400401E-006  0.1533336E+03  0.7546771E-02  0.1205603E+00
         -2   -1    0    0    0  501 -0.00000000000E+00  0.00000000000E+00  0.22676570892E+03  0.22676570892E+03  0.00000000000E+00 0.  1.
          2   -1    0    0  501    0  0.00000000000E+00 -0.00000000000E+00 -0.19263790879E+03  0.19263790879E+03  0.00000000000E+00 0. -1.
         23    2    1    2    0    0 -0.62643836737E+02  0.62943429746E+02  0.17361929618E+03  0.23163515047E+03  0.12500022918E+03 0.  0.
          5    1    3    3  502    0  0.21200490039E+02  0.31099345636E+01  0.10619237322E+03  0.10843450835E+03  0.47000000000E+01 0.  1.
         -5    1    3    3    0  502 -0.83844326776E+02  0.59833495182E+02  0.67426922966E+02  0.12320064212E+03  0.47000000000E+01 0.  1.
        -11    1    1    2    0    0  0.40298497441E+02 -0.54280810410E+02 -0.27073167456E+02  0.72823977308E+02  0.00000000000E+00 0.  1.
         11    1    1    2    0    0  0.22345339296E+02 -0.86626193356E+01 -0.11241832860E+03  0.11494448994E+03  0.00000000000E+00 0. -1.
<mgrwt>
<rscale>  0 0.14590059E+03</rscale>
<asrwt>0</asrwt>
<pdfrwt beam="2">  1        2 0.29636601E-01 0.15333357E+03</pdfrwt>
<pdfrwt beam="1">  1       -2 0.34887032E-01 0.15333357E+03</pdfrwt>
<totfact> 0.13527395E+03</totfact>
</mgrwt>
</event>
<event>
 7    1  0.5400401E-006  0.1563000E+03  0.7546771E-02  0.1200860E+00
         -2   -1    0    0    0  501 -0.00000000000E+00  0.00000000000E+00  0.35258713740E+02  0.35258713740E+02  0.00000000000E+00 0.  1.
          2   -1    0    0  501    0  0.00000000000E+00 -0.00000000000E+00 -0.59056874289E+03  0.59056874289E+03  0.00000000000E+00 0. -1.
         23    2    1    2    0    0 -0.88670127331E+02 -0.30694757331E+02 -0.27789038887E+03  0.31883031974E+03  0.12500057981E+03 0.  0.
          5    1    3    3  502    0 -0.50530038846E+02 -0.11389965128E+02 -0.27017874895E+03  0.27513935109E+03  0.47000000000E+01 0.  1.
         -5    1    3    3    0  502 -0.38140088484E+02 -0.19304792203E+02 -0.77116399129E+01  0.43690968652E+02  0.47000000000E+01 0.  1.
        -11    1    1    2    0    0  0.20725177795E+01  0.29047742980E+02 -0.19820471341E+02  0.35226663003E+02  0.00000000000E+00 0.  1.
         11    1    1    2    0    0  0.86597609551E+02  0.16470143509E+01 -0.25759916894E+03  0.27177047388E+03  0.00000000000E+00 0. -1.
<mgrwt>
<rscale>  0 0.14968554E+03</rscale>
<asrwt>0</asrwt>
<pdfrwt beam="2">  1        2 0.90856714E-01 0.15630005E+03</pdfrwt>
<pdfrwt beam="1">  1       -2 0.54244184E-02 0.15630005E+03</pdfrwt>
<totfact> 0.85801084E+03</totfact>
</mgrwt>
</event>
<event>
 7    1  0.7016215E-006  0.2679737E+03  0.7546771E-02  0.1104832E+00
         -1   -1    0    0    0  501 -0.00000000000E+00  0.00000000000E+00  0.10883186771E+03  0.10883186771E+03  0.00000000000E+00 0.  1.
          1   -1    0    0  501    0  0.00000000000E+00 -0.00000000000E+00 -0.69643853710E+03  0.69643853710E+03  0.00000000000E+00 0. -1.
         23    2    1    2    0    0  0.15429838170E+03  0.17993580035E+03 -0.16943639330E+03  0.31704663659E+03  0.12499998222E+03 0.  0.
          5    1    3    3  502    0  0.74185146475E+02  0.16788974458E+03 -0.94103392575E+02  0.20631999609E+03  0.47000000000E+01 0. -1.
         -5    1    3    3    0  502  0.80113235224E+02  0.12046055770E+02 -0.75333000726E+02  0.11072664050E+03  0.47000000000E+01 0. -1.
        -11    1    1    2    0    0 -0.45742295049E+02 -0.37505950681E+02 -0.45055962018E+02  0.74357875213E+02  0.00000000000E+00 0.  1.
         11    1    1    2    0    0 -0.10855608665E+03 -0.14242984967E+03 -0.37311431408E+03  0.41386589301E+03  0.00000000000E+00 0. -1.
<mgrwt>
<rscale>  0 0.26388362E+03</rscale>
<asrwt>0</asrwt>
<pdfrwt beam="2">  1        1 0.10714439E+00 0.26797365E+03</pdfrwt>
<pdfrwt beam="1">  1       -1 0.16743364E-01 0.26797365E+03</pdfrwt>
<totfact> 0.76735285E+02</totfact>
</mgrwt>
</event>
<event>
 7    1  0.5400401E-006  0.1286796E+03  0.7546771E-02  0.1244989E+00
         -3   -1    0    0    0  501 -0.00000000000E+00  0.00000000000E+00  0.46316198463E+02  0.46316198463E+02  0.00000000000E+00 0.  1.
          3   -1    0    0  501    0  0.00000000000E+00 -0.00000000000E+00 -0.27275802568E+03  0.27275802568E+03  0.00000000000E+00 0. -1.
         23    2    1    2    0    0  0.19541335511E+02  0.23354558025E+02 -0.10750372482E+03  0.16767675331E+03  0.12502457189E+03 0.  0.
          5    1    3    3  502    0  0.50723555589E+02  0.52701485638E+02 -0.30390785944E+02  0.79347435688E+02  0.47000000000E+01 0. -1.
         -5    1    3    3    0  502 -0.31182220078E+02 -0.29346927612E+02 -0.77112938872E+02  0.88329317617E+02  0.47000000000E+01 0. -1.
        -11    1    1    2    0    0  0.33855475576E+02 -0.22468070509E+01 -0.28695604430E+02  0.44437361331E+02  0.00000000000E+00 0.  1.
         11    1    1    2    0    0 -0.53396811087E+02 -0.21107750974E+02 -0.90242497973E+02  0.10696010951E+03  0.00000000000E+00 0. -1.
<mgrwt>
<rscale>  0 0.11886054E+03</rscale>
<asrwt>0</asrwt>
<pdfrwt beam="2">  1        3 0.41962772E-01 0.12867961E+03</pdfrwt>
<pdfrwt beam="1">  1       -3 0.71255691E-02 0.12867961E+03</pdfrwt>
<totfact> 0.16595483E+03</totfact>
</mgrwt>
</event>
<event>
 7    1  0.5400401E-006  0.1255882E+03  0.7546771E-02  0.1247928E+00
         -1   -1    0    0    0  501 -0.00000000000E+00  0.00000000000E+00  0.37344732335E+02  0.37344732335E+02  0.00000000000E+00 0.  1.
          1   -1    0    0  501    0  0.00000000000E+00 -0.00000000000E+00 -0.33082678633E+03  0.33082678633E+03  0.00000000000E+00 0. -1.
         23    2    1    2    0    0 -0.12104256309E+02 -0.11363674072E+01 -0.14408776020E+03  0.19113782919E+03  0.12499833101E+03 0.  0.
          5    1    3    3  502    0  0.40058773286E+02  0.25431494033E+02 -0.16111976080E+02  0.50330427965E+02  0.47000000000E+01 0. -1.
         -5    1    3    3    0  502 -0.52163029595E+02 -0.26567861440E+02 -0.12797578412E+03  0.14080740123E+03  0.47000000000E+01 0. -1.
        -11    1    1    2    0    0  0.50890197867E+02 -0.11580010220E+02 -0.65617929892E+02  0.83842838686E+02  0.00000000000E+00 0.  1.
         11    1    1    2    0    0 -0.38785941558E+02  0.12716377627E+02 -0.83776363904E+02  0.93190850792E+02  0.00000000000E+00 0. -1.
<mgrwt>
<rscale>  0 0.11711864E+03</rscale>
<asrwt>0</asrwt>
<pdfrwt beam="2">  1        1 0.50896428E-01 0.12558816E+03</pdfrwt>
<pdfrwt beam="1">  1       -1 0.57453436E-02 0.12558816E+03</pdfrwt>
<totfact> 0.10380338E+04</totfact>
</mgrwt>
</event>
<event>
 7    1  0.5400401E-006  0.1704233E+03  0.7546771E-02  0.1184607E+00
         -2   -1    0    0    0  501 -0.00000000000E+00  0.00000000000E+00  0.41779210635E+03  0.41779210635E+03  0.00000000000E+00 0.  1.
          2   -1    0    0  501    0  0.00000000000E+00 -0.00000000000E+00 -0.64126242159E+02  0.64126242159E+02  0.00000000000E+00 0. -1.
         23    2    1    2    0    0 -0.65548639403E+02 -0.95517236242E+02  0.25435081655E+03  0.30616734656E+03  0.12499575862E+03 0.  0.
          5    1    3    3  502    0  0.26552608819E+01 -0.64600646817E+01 -0.13403013845E+02  0.15827622252E+02  0.47000000000E+01 0.  1.
         -5    1    3    3    0  502 -0.68203900285E+02 -0.89057171560E+02  0.26775383040E+03  0.29033972431E+03  0.47000000000E+01 0.  1.
        -11    1    1    2    0    0  0.12079086340E+02  0.87406881170E+02  0.77485706141E+02  0.11743041284E+03  0.00000000000E+00 0.  1.
         11    1    1    2    0    0  0.53469553063E+02  0.81103550715E+01  0.21829341500E+02  0.58320589112E+02  0.00000000000E+00 0. -1.
<mgrwt>
<rscale>  0 0.16367735E+03</rscale>
<asrwt>0</asrwt>
<pdfrwt beam="2">  1        2 0.98655760E-02 0.17042331E+03</pdfrwt>
<pdfrwt beam="1">  1       -2 0.64275707E-01 0.17042331E+03</pdfrwt>
<totfact> 0.14627006E+03</totfact>
</mgrwt>
</event>
<event>
 7    1  0.5400401E-006  0.2175472E+03  0.7546771E-02  0.1138791E+00
          3   -1    0    0  501    0  0.00000000000E+00  0.00000000000E+00  0.51832849164E+03  0.51832849164E+03  0.00000000000E+00 0. -1.
         -3   -1    0    0    0  501 -0.00000000000E+00 -0.00000000000E+00 -0.86416384268E+02  0.86416384268E+02  0.00000000000E+00 0.  1.
         23    2    1    2    0    0  0.14381901431E+03 -0.10501118468E+03  0.18359226510E+03  0.28466279943E+03  0.12496212141E+03 0.  0.
          5    1    3    3  502    0  0.60166799225E+02  0.10896757504E+02  0.14162083014E+02  0.62939952720E+02  0.47000000000E+01 0.  1.
         -5    1    3    3    0  502  0.83652215083E+02 -0.11590794218E+03  0.16943018209E+03  0.22172284671E+03  0.47000000000E+01 0.  1.
        -11    1    1    2    0    0 -0.75489349602E+02  0.76082870814E+02  0.21181492089E+03  0.23738745932E+03  0.00000000000E+00 0. -1.
         11    1    1    2    0    0 -0.68329664705E+02  0.28928313864E+02  0.36504921385E+02  0.82694617159E+02  0.00000000000E+00 0.  1.
<mgrwt>
<rscale>  0 0.21354238E+03</rscale>
<asrwt>0</asrwt>
<pdfrwt beam="1">  1        3 0.79742843E-01 0.21754721E+03</pdfrwt>
<pdfrwt beam="2">  1       -3 0.13294829E-01 0.21754721E+03</pdfrwt>
<totfact> 0.16901054E+02</totfact>
</mgrwt>
</event>
<event>
 7    1  0.5400401E-006  0.1568295E+03  0.7546771E-02  0.1196493E+00
         -1   -1    0    0    0  501 -0.00000000000E+00  0.00000000000E+00  0.22274771618E+03  0.22274771618E+03  0.00000000000E+00 0.  1.
          1   -1    0    0  501    0  0.00000000000E+00 -0.00000000000E+00 -0.11479466630E+03  0.11479466630E+03  0.00000000000E+00 0. -1.
         23    2    1    2    0    0  0.94629172476E+02  0.54325452168E+01  0.11463641982E+03  0.19426015092E+03  0.12494520661E+03 0.  0.
          5    1    3    3  502    0  0.74787712638E+02 -0.12721774938E+02 -0.42038655236E+00  0.76008632694E+02  0.47000000000E+01 0.  1.
         -5    1    3    3    0  502  0.19841459838E+02  0.18154320155E+02  0.11505680638E+03  0.11825151822E+03  0.47000000000E+01 0.  1.
        -11    1    1    2    0    0 -0.86531190090E+02 -0.34585954596E+02 -0.37172646889E+02  0.10032766712E+03  0.00000000000E+00 0. -1.
         11    1    1    2    0    0 -0.80979823861E+01  0.29153409379E+02  0.30489276945E+02  0.42954564435E+02  0.00000000000E+00 0.  1.
<mgrwt>
<rscale>  0 0.15328537E+03</rscale>
<asrwt>0</asrwt>
<pdfrwt beam="2">  1        1 0.17660718E-01 0.15682952E+03</pdfrwt>
<pdfrwt beam="1">  1       -1 0.34268879E-01 0.15682952E+03</pdfrwt>
<totfact> 0.23807883E+03</totfact>
</mgrwt>
</event>
<event>
 7    1  0.5400401E-006  0.3328262E+03  0.7546771E-02  0.1071146E+00
         -1   -1    0    0    0  501 -0.00000000000E+00  0.00000000000E+00  0.21805277878E+03  0.21805277878E+03  0.00000000000E+00 0.  1.
          1   -1    0    0  501    0  0.00000000000E+00 -0.00000000000E+00 -0.94396903530E+03  0.94396903530E+03  0.00000000000E+00 0. -1.
         23    2    1    2    0    0 -0.91534411979E+02 -0.29456733966E+03  0.36244873037E+02  0.33479391294E+03  0.12499922860E+03 0.  0.
          5    1    3    3  502    0  0.45464688000E+01 -0.16547338774E+03 -0.13865938378E+02  0.16618202874E+03  0.47000000000E+01 0.  1.
         -5    1    3    3    0  502 -0.96080880779E+02 -0.12909395192E+03  0.50110811415E+02  0.16861188421E+03  0.47000000000E+01 0.  1.
        -11    1    1    2    0    0  0.39408185163E+02  0.21782411762E+03 -0.61106762686E+03  0.64992614647E+03  0.00000000000E+00 0. -1.
         11    1    1    2    0    0  0.52126226816E+02  0.76743222047E+02 -0.15109350270E+03  0.17730175467E+03  0.00000000000E+00 0.  1.
<mgrwt>
<rscale>  0 0.32997938E+03</rscale>
<asrwt>0</asrwt>
<pdfrwt beam="2">  1        1 0.14522601E+00 0.33282619E+03</pdfrwt>
<pdfrwt beam="1">  1       -1 0.33546581E-01 0.33282619E+03</pdfrwt>
<totfact> 0.14873131E+02</totfact>
</mgrwt>
</event>
<event>
 7    1  0.5400401E-006  0.1277571E+03  0.7546771E-02  0.1247023E+00
         -1   -1    0    0    0  501 -0.00000000000E+00  0.00000000000E+00  0.31463616447E+03  0.31463616447E+03  0.00000000000E+00 0.  1.
          1   -1    0    0  501    0  0.00000000000E+00 -0.00000000000E+00 -0.43376904684E+02  0.43376904684E+02  0.00000000000E+00 0. -1.
         23    2    1    2    0    0 -0.18798608574E+02  0.18522074601E+02  0.21553398742E+03  0.25055291697E+03  0.12500163814E+03 0.  0.
          5    1    3    3  502    0  0.40257744989E+02 -0.30275837798E+02  0.75908585083E+02  0.91222341974E+02  0.47000000000E+01 0. -1.
         -5    1    3    3    0  502 -0.59056353563E+02  0.48797912398E+02  0.13962540234E+03  0.15933057500E+03  0.47000000000E+01 0. -1.
        -11    1    1    2    0    0 -0.65632037419E+01  0.28426814754E+02 -0.15035781125E+01  0.29213356322E+02  0.00000000000E+00 0. -1.
         11    1    1    2    0    0  0.25361812315E+02 -0.46948889355E+02  0.57228850477E+02  0.78246795861E+02  0.00000000000E+00 0.  1.
<mgrwt>
<rscale>  0 0.11765131E+03</rscale>
<asrwt>0</asrwt>
<pdfrwt beam="2">  1        1 0.66733701E-02 0.12775705E+03</pdfrwt>
<pdfrwt beam="1">  1       -1 0.48405562E-01 0.12775705E+03</pdfrwt>
<totfact> 0.46314496E+03</totfact>
</mgrwt>
</event>
<event>
 7    1  0.5400401E-006  0.1485490E+03  0.7546771E-02  0.1212135E+00
         -1   -1    0    0    0  501 -0.00000000000E+00  0.00000000000E+00  0.49707537443E+03  0.49707537443E+03  0.00000000000E+00 0.  1.
          1   -1    0    0  501    0  0.00000000000E+00 -0.00000000000E+00 -0.41740007005E+02  0.41740007005E+02  0.00000000000E+00 0. -1.
         23    2    1    2    0    0 -0.77632930667E+02 -0.20370293498E+02  0.34510994265E+03  0.37572289211E+03  0.12499999343E+03 0.  0.
          5    1    3    3  502    0 -0.24212339717E+02  0.30855658508E+02  0.25936384010E+03  0.26235472286E+03  0.47000000000E+01 0. -1.
         -5    1    3    3    0  502 -0.53420590950E+02 -0.51225952005E+02  0.85746102553E+02  0.11336816925E+03  0.47000000000E+01 0. -1.
        -11    1    1    2    0    0  0.24205558614E+01  0.41864727529E+02  0.40678652381E+02  0.58423174009E+02  0.00000000000E+00 0.  1.
         11    1    1    2    0    0  0.75212374805E+02 -0.21494434032E+02  0.69546772393E+02  0.10466931532E+03  0.00000000000E+00 0. -1.
<mgrwt>
<rscale>  0 0.14089126E+03</rscale>
<asrwt>0</asrwt>
<pdfrwt beam="2">  1        1 0.64215399E-02 0.14854905E+03</pdfrwt>
<pdfrwt beam="1">  1       -1 0.76473131E-01 0.14854905E+03</pdfrwt>
<totfact> 0.20540598E+03</totfact>
</mgrwt>
</event>
<event>
 7    1  0.5400401E-006  0.2215154E+03  0.7546771E-02  0.1135919E+00
         -2   -1    0    0    0  501 -0.00000000000E+00  0.00000000000E+00  0.40997954675E+02  0.40997954675E+02  0.00000000000E+00 0.  1.
          2   -1    0    0  501    0  0.00000000000E+00 -0.00000000000E+00 -0.11205911803E+04  0.11205911803E+04  0.00000000000E+00 0. -1.
         23    2    1    2    0    0 -0.17567290211E+03 -0.50813974644E+02 -0.50341040341E+03  0.54999189890E+03  0.12500410412E+03 0.  0.
          5    1    3    3  502    0 -0.95897918867E+02 -0.71507331364E+02 -0.17972762903E+03  0.21594865111E+03  0.47000000000E+01 0. -1.
         -5    1    3    3    0  502 -0.79774983240E+02  0.20693356720E+02 -0.32368277438E+03  0.33404324779E+03  0.47000000000E+01 0. -1.
        -11    1    1    2    0    0  0.14123012628E+03  0.77869312770E+02 -0.45685718346E+03  0.48448742452E+03  0.00000000000E+00 0.  1.
         11    1    1    2    0    0  0.34442775826E+02 -0.27055338126E+02 -0.11932563878E+03  0.12710981158E+03  0.00000000000E+00 0. -1.
<mgrwt>
<rscale>  0 0.21729133E+03</rscale>
<asrwt>0</asrwt>
<pdfrwt beam="2">  1        2 0.17239865E+00 0.22151536E+03</pdfrwt>
<pdfrwt beam="1">  1       -2 0.63073773E-02 0.22151536E+03</pdfrwt>
<totfact> 0.30321106E+03</totfact>
</mgrwt>
</event>
<event>
 7    1  0.5400401E-006  0.2316672E+03  0.7546771E-02  0.1128492E+00
         -2   -1    0    0    0  501 -0.00000000000E+00  0.00000000000E+00  0.66985514459E+02  0.66985514459E+02  0.00000000000E+00 0.  1.
          2   -1    0    0  501    0  0.00000000000E+00 -0.00000000000E+00 -0.78276513472E+03  0.78276513472E+03  0.00000000000E+00 0. -1.
         23    2    1    2    0    0 -0.19210472632E+03 -0.33772746291E+02 -0.27691530732E+03  0.36104264143E+03  0.12499950895E+03 0.  0.
          5    1    3    3  502    0 -0.16534421345E+03 -0.88569652873E+01 -0.27861557982E+03  0.32413868340E+03  0.47000000000E+01 0. -1.
         -5    1    3    3    0  502 -0.26760512868E+02 -0.24915781004E+02  0.17002724990E+01  0.36903958034E+02  0.47000000000E+01 0. -1.
        -11    1    1    2    0    0  0.85696661699E+02  0.51714587057E+02 -0.27359430619E+03  0.29132826969E+03  0.00000000000E+00 0. -1.
         11    1    1    2    0    0  0.10640806462E+03 -0.17941840766E+02 -0.16527000675E+03  0.19737973806E+03  0.00000000000E+00 0.  1.
<mgrwt>
<rscale>  0 0.22738834E+03</rscale>
<asrwt>0</asrwt>
<pdfrwt beam="2">  1        2 0.12042541E+00 0.23166722E+03</pdfrwt>
<pdfrwt beam="1">  1       -2 0.10305464E-01 0.23166722E+03</pdfrwt>
<totfact> 0.22976623E+03</totfact>
</mgrwt>
</event>
<event>
 7    1  0.5441665E-006  0.2038320E+03  0.7546771E-02  0.1151055E+00
         -3   -1    0    0    0  501 -0.00000000000E+00  0.00000000000E+00  0.31829423491E+03  0.31829423491E+03  0.00000000000E+00 0.  1.
          3   -1    0    0  501    0  0.00000000000E+00 -0.00000000000E+00 -0.11946350875E+03  0.11946350875E+03  0.00000000000E+00 0. -1.
         23    2    1    2    0    0 -0.10864781315E+01 -0.16100109063E+03  0.13185612452E+03  0.24276224892E+03  0.12499976124E+03 0.  0.
          5    1    3    3  502    0 -0.23804510868E+02 -0.31680146186E+02 -0.17732511747E+02  0.43667131494E+02  0.47000000000E+01 0. -1.
         -5    1    3    3    0  502  0.22718032736E+02 -0.12932094445E+03  0.14958863627E+03  0.19909511743E+03  0.47000000000E+01 0. -1.
        -11    1    1    2    0    0 -0.39543717361E+02  0.88624818317E+02  0.18243604022E+02  0.98746610535E+02  0.00000000000E+00 0.  1.
         11    1    1    2    0    0  0.40630195493E+02  0.72376272316E+02  0.48730997628E+02  0.96248884201E+02  0.00000000000E+00 0. -1.
<mgrwt>
<rscale>  0 0.19844758E+03</rscale>
<asrwt>0</asrwt>
<pdfrwt beam="2">  1        3 0.18379001E-01 0.20383197E+03</pdfrwt>
<pdfrwt beam="1">  1       -3 0.48968344E-01 0.20383197E+03</pdfrwt>
<totfact> 0.26563423E+02</totfact>
</mgrwt>
</event>
<event>
 7    1  0.5400401E-006  0.1441656E+03  0.7546771E-02  0.1220006E+00
          2   -1    0    0  501    0  0.00000000000E+00  0.00000000000E+00  0.46029389572E+02  0.46029389572E+02  0.00000000000E+00 0.  1.
         -2   -1    0    0    0  501 -0.00000000000E+00 -0.00000000000E+00 -0.39510683774E+03  0.39510683774E+03  0.00000000000E+00 0. -1.
         23    2    1    2    0    0 -0.62624500349E+01 -0.71515912646E+02 -0.26475206496E+03  0.30145876607E+03  0.12501994920E+03 0.  0.
          5    1    3    3  502    0  0.50480127981E+02 -0.14682412349E+02 -0.16541509200E+03  0.17363196484E+03  0.47000000000E+01 0.  1.
         -5    1    3    3    0  502 -0.56742578016E+02 -0.56833500297E+02 -0.99336972962E+02  0.12782680123E+03  0.47000000000E+01 0.  1.
        -11    1    1    2    0    0 -0.30924335697E+02  0.50144051237E+02 -0.75708458788E+02  0.95929719820E+02  0.00000000000E+00 0. -1.
         11    1    1    2    0    0  0.37186785732E+02  0.21371861409E+02 -0.86169244226E+01  0.43747741423E+02  0.00000000000E+00 0.  1.
<mgrwt>
<rscale>  0 0.13515115E+03</rscale>
<asrwt>0</asrwt>
<pdfrwt beam="1">  1        2 0.70814444E-02 0.14416564E+03</pdfrwt>
<pdfrwt beam="2">  1       -2 0.60785669E-01 0.14416564E+03</pdfrwt>
<totfact> 0.24691366E+03</totfact>
</mgrwt>
</event>
<event>
 7    1  0.5400401E-006  0.1715062E+03  0.7546771E-02  0.1182735E+00
         -1   -1    0    0    0  501 -0.00000000000E+00  0.00000000000E+00  0.29036239243E+03  0.29036239243E+03  0.00000000000E+00 0.  1.
          1   -1    0    0  501    0  0.00000000000E+00 -0.00000000000E+00 -0.99595008158E+02  0.99595008158E+02  0.00000000000E+00 0. -1.
         23    2    1    2    0    0  0.11241414181E+03 -0.33940229525E+02  0.16762622922E+03  0.23981852755E+03  0.12500197988E+03 0.  0.
          5    1    3    3  502    0  0.49236184227E+02 -0.20048070510E+02 -0.67286789980E+01  0.53791189701E+02  0.47000000000E+01 0. -1.
         -5    1    3    3    0  502  0.63177957579E+02 -0.13892159015E+02  0.17435490822E+03  0.18602733785E+03  0.47000000000E+01 0. -1.
        -11    1    1    2    0    0 -0.71434917071E+02 -0.13039667815E+02 -0.18791437055E+02  0.75007322444E+02  0.00000000000E+00 0. -1.
         11    1    1    2    0    0 -0.40979224736E+02  0.46979897340E+02  0.41932592100E+02  0.75131550591E+02  0.00000000000E+00 0.  1.
<mgrwt>
<rscale>  0 0.16539711E+03</rscale>
<asrwt>0</asrwt>
<pdfrwt beam="2">  1        1 0.15322309E-01 0.17150619E+03</pdfrwt>
<pdfrwt beam="1">  1       -1 0.44671137E-01 0.17150619E+03</pdfrwt>
<totfact> 0.18025505E+03</totfact>
</mgrwt>
</event>
<event>
 7    1  0.5400401E-006  0.1416379E+03  0.7546771E-02  0.1221955E+00
          2   -1    0    0  501    0  0.00000000000E+00  0.00000000000E+00  0.11183182794E+03  0.11183182794E+03  0.00000000000E+00 0. -1.
         -2   -1    0    0    0  501 -0.00000000000E+00 -0.00000000000E+00 -0.16843535168E+03  0.16843535168E+03  0.00000000000E+00 0.  1.
         23    2    1    2    0    0  0.10836526344E+02  0.65711795070E+02 -0.83451934329E+02  0.16439441683E+03  0.12500331446E+03 0.  0.
          5    1    3    3  502    0 -0.31907498358E+02  0.14903092162E+02  0.20454411783E+02  0.40995896975E+02  0.47000000000E+01 0. -1.
         -5    1    3    3    0  502  0.42744024702E+02  0.50808702908E+02 -0.10390634611E+03  0.12339851985E+03  0.47000000000E+01 0. -1.
        -11    1    1    2    0    0 -0.13079705936E+02 -0.84118020808E+02  0.39068523110E+02  0.93665733489E+02  0.00000000000E+00 0. -1.
         11    1    1    2    0    0  0.22431795913E+01  0.18406225738E+02 -0.12220112523E+02  0.22207029307E+02  0.00000000000E+00 0.  1.
<mgrwt>
<rscale>  0 0.13377788E+03</rscale>
<asrwt>0</asrwt>
<pdfrwt beam="1">  1        2 0.17204897E-01 0.14163791E+03</pdfrwt>
<pdfrwt beam="2">  1       -2 0.25913131E-01 0.14163791E+03</pdfrwt>
<totfact> 0.42330372E+03</totfact>
</mgrwt>
</event>
<event>
 6    1  0.5400401E-006  0.1579345E+03  0.7546771E-02  0.1202481E+00
         -1   -1    0    0    0  501 -0.00000000000E+00  0.00000000000E+00  0.27478676889E+02  0.27478676889E+02  0.00000000000E+00 0.  1.
          1   -1    0    0  501    0  0.00000000000E+00 -0.00000000000E+00 -0.81978652952E+03  0.81978652952E+03  0.00000000000E+00 0. -1.
          5    1    1    2  502    0 -0.31736227020E+02  0.11553504494E+03 -0.20294583038E+03  0.23572151956E+03  0.47000000000E+01 0. -1.
         -5    1    1    2    0  502  0.57913020292E+01 -0.35854582409E+02 -0.88231163552E+02  0.95529673300E+02  0.47000000000E+01 0.  1.
        -11    1    1    2    0    0  0.51625677735E+02 -0.79788878331E+02 -0.43035098796E+03  0.44071924004E+03  0.00000000000E+00 0.  1.
         11    1    1    2    0    0 -0.25680752744E+02  0.10841579942E+00 -0.70779870749E+02  0.75294773515E+02  0.00000000000E+00 0. -1.
<mgrwt>
<rscale>  0 0.14837732E+03</rscale>
<asrwt>0</asrwt>
<pdfrwt beam="2">  1        1 0.12612100E+00 0.15793451E+03</pdfrwt>
<pdfrwt beam="1">  1       -1 0.42274887E-02 0.15793451E+03</pdfrwt>
<totfact> 0.49156020E+03</totfact>
</mgrwt>
</event>
<event>
 7    1  0.5400401E-006  0.1524224E+03  0.7546771E-02  0.1207856E+00
          1   -1    0    0  501    0  0.00000000000E+00  0.00000000000E+00  0.32826551299E+02  0.32826551299E+02  0.00000000000E+00 0. -1.
         -1   -1    0    0    0  501 -0.00000000000E+00 -0.00000000000E+00 -0.57936876003E+03  0.57936876003E+03  0.00000000000E+00 0.  1.
         23    2    1    2    0    0  0.57203529421E+02 -0.65848462281E+02 -0.33474392820E+03  0.36781257542E+03  0.12499731760E+03 0.  0.
          5    1    3    3  502    0  0.19362956219E+02 -0.55546364085E+02 -0.42039245412E+02  0.72454887975E+02  0.47000000000E+01 0.  1.
         -5    1    3    3    0  502  0.37840573202E+02 -0.10302098196E+02 -0.29270468278E+03  0.29535768744E+03  0.47000000000E+01 0.  1.
        -11    1    1    2    0    0 -0.37119514331E+02  0.79019626396E+02 -0.19868135133E+03  0.21701667924E+03  0.00000000000E+00 0.  1.
         11    1    1    2    0    0 -0.20084015090E+02 -0.13171164115E+02 -0.13116929205E+02  0.27366056677E+02  0.00000000000E+00 0. -1.
<mgrwt>
<rscale>  0 0.14414683E+03</rscale>
<asrwt>0</asrwt>
<pdfrwt beam="1">  1        1 0.50502388E-02 0.15242242E+03</pdfrwt>
<pdfrwt beam="2">  1       -1 0.89133654E-01 0.15242242E+03</pdfrwt>
<totfact> 0.20779334E+03</totfact>
</mgrwt>
</event>
<event>
 7    1  0.5400401E-006  0.1464764E+03  0.7546771E-02  0.1217813E+00
         -2   -1    0    0    0  501 -0.00000000000E+00  0.00000000000E+00  0.52105665207E+02  0.52105665207E+02  0.00000000000E+00 0.  1.
          2   -1    0    0  501    0  0.00000000000E+00 -0.00000000000E+00 -0.32981102265E+03  0.32981102265E+03  0.00000000000E+00 0. -1.
         23    2    1    2    0    0 -0.71827781082E+02 -0.25910950419E+02 -0.19224484519E+03  0.24168867011E+03  0.12499890109E+03 0.  0.
          5    1    3    3  502    0 -0.57164372508E+02 -0.53984023717E+02 -0.19424509588E+03  0.20960746069E+03  0.47000000000E+01 0.  1.
         -5    1    3    3    0  502 -0.14663408574E+02  0.28073073298E+02  0.20002506973E+01  0.32081209426E+02  0.47000000000E+01 0.  1.
        -11    1    1    2    0    0  0.74272116354E+02 -0.99532637691E+01 -0.62446401053E+02  0.97544696072E+02  0.00000000000E+00 0. -1.
         11    1    1    2    0    0 -0.24443352715E+01  0.35864214188E+02 -0.23014111200E+02  0.42683321667E+02  0.00000000000E+00 0.  1.
<mgrwt>
<rscale>  0 0.13671928E+03</rscale>
<asrwt>0</asrwt>
<pdfrwt beam="2">  1        2 0.50740157E-01 0.14647639E+03</pdfrwt>
<pdfrwt beam="1">  1       -2 0.80162562E-02 0.14647639E+03</pdfrwt>
<totfact> 0.88700097E+03</totfact>
</mgrwt>
</event>
<event>
 7    1  0.5400401E-006  0.1381716E+03  0.7546771E-02  0.1227225E+00
          2   -1    0    0  501    0  0.00000000000E+00  0.00000000000E+00  0.42764354824E+03  0.42764354824E+03  0.00000000000E+00 0. -1.
         -2   -1    0    0    0  501 -0.00000000000E+00 -0.00000000000E+00 -0.43224345971E+02  0.43224345971E+02  0.00000000000E+00 0.  1.
         23    2    1    2    0    0 -0.52846949720E+02  0.25958636874E+02  0.11312810048E+03  0.17857588226E+03  0.12499891074E+03 0.  0.
          5    1    3    3  502    0  0.14942798115E+01 -0.13582564708E+02  0.11020003083E+03  0.11114340165E+03  0.47000000000E+01 0.  1.
         -5    1    3    3    0  502 -0.54341229531E+02  0.39541201582E+02  0.29280696510E+01  0.67432480612E+02  0.47000000000E+01 0.  1.
        -11    1    1    2    0    0  0.32628534700E+02  0.25455873493E+02  0.53696411905E+02  0.67793269750E+02  0.00000000000E+00 0.  1.
         11    1    1    2    0    0  0.20218415020E+02 -0.51414510367E+02  0.21759468988E+03  0.22449874220E+03  0.00000000000E+00 0. -1.
<mgrwt>
<rscale>  0 0.13015579E+03</rscale>
<asrwt>0</asrwt>
<pdfrwt beam="1">  1        2 0.65791312E-01 0.13817155E+03</pdfrwt>
<pdfrwt beam="2">  1       -2 0.66498997E-02 0.13817155E+03</pdfrwt>
<totfact> 0.89219017E+03</totfact>
</mgrwt>
</event>
<event>
 7    1  0.5400401E-006  0.1493843E+03  0.7546771E-02  0.1210495E+00
         -1   -1    0    0    0  501 -0.00000000000E+00  0.00000000000E+00  0.16141530923E+03  0.16141530923E+03  0.00000000000E+00 0.  1.
          1   -1    0    0  501    0  0.00000000000E+00 -0.00000000000E+00 -0.13955390962E+03  0.13955390962E+03  0.00000000000E+00 0. -1.
         23    2    1    2    0    0 -0.26343698762E+02 -0.77448114847E+02  0.75440474319E+02  0.16735275105E+03  0.12499390850E+03 0.  0.
          5    1    3    3  502    0 -0.15559825298E+02 -0.10795293289E+03  0.78577441339E+02  0.13450817139E+03  0.47000000000E+01 0. -1.
         -5    1    3    3    0  502 -0.10783873463E+02  0.30504818048E+02 -0.31369670193E+01  0.32844579660E+02  0.47000000000E+01 0. -1.
        -11    1    1    2    0    0  0.15281475152E+02  0.69825630971E+02 -0.77966943266E+02  0.10577327860E+03  0.00000000000E+00 0. -1.
         11    1    1    2    0    0  0.11062223609E+02  0.76224838762E+01  0.24387868560E+02  0.27843189195E+02  0.00000000000E+00 0.  1.
<mgrwt>
<rscale>  0 0.14212725E+03</rscale>
<asrwt>0</asrwt>
<pdfrwt beam="2">  1        1 0.21469832E-01 0.14938433E+03</pdfrwt>
<pdfrwt beam="1">  1       -1 0.24833124E-01 0.14938433E+03</pdfrwt>
<totfact> 0.31790034E+03</totfact>
</mgrwt>
</event>
<event>
 7    1  0.5400401E-006  0.2118057E+03  0.7546771E-02  0.1143898E+00
         -2   -1    0    0    0  501 -0.00000000000E+00  0.00000000000E+00  0.59891426534E+02  0.59891426534E+02  0.00000000000E+00 0.  1.
          2   -1    0    0  501    0  0.00000000000E+00 -0.00000000000E+00 -0.69877084368E+03  0.69877084368E+03  0.00000000000E+00 0. -1.
         23    2    1    2    0    0 -0.84200834121E+01 -0.17077187439E+03 -0.28198187397E+03  0.35266899743E+03  0.12501085398E+03 0.  0.
          5    1    3    3  502    0  0.13625441794E+02 -0.17717424983E+03 -0.27632465641E+03  0.32856319515E+03  0.47000000000E+01 0. -1.
         -5    1    3    3    0  502 -0.22045525206E+02  0.64023754464E+01 -0.56572175657E+01  0.24105802279E+02  0.47000000000E+01 0. -1.
        -11    1    1    2    0    0 -0.29796976785E+02  0.14063021007E+03 -0.28449902167E+03  0.31875446529E+03  0.00000000000E+00 0.  1.
         11    1    1    2    0    0  0.38217060198E+02  0.30141664312E+02 -0.72398521510E+02  0.87238807503E+02  0.00000000000E+00 0. -1.
<mgrwt>
<rscale>  0 0.20708157E+03</rscale>
<asrwt>0</asrwt>
<pdfrwt beam="2">  1        2 0.10750320E+00 0.21180568E+03</pdfrwt>
<pdfrwt beam="1">  1       -2 0.92140660E-02 0.21180568E+03</pdfrwt>
<totfact> 0.31502445E+03</totfact>
</mgrwt>
</event>
<event>
 7    1  0.5400401E-006  0.1596673E+03  0.7546771E-02  0.1196545E+00
         -1   -1    0    0    0  501 -0.00000000000E+00  0.00000000000E+00  0.72922453589E+02  0.72922453589E+02  0.00000000000E+00 0.  1.
          1   -1    0    0  501    0  0.00000000000E+00 -0.00000000000E+00 -0.30040356966E+03  0.30040356966E+03  0.00000000000E+00 0. -1.
         23    2    1    2    0    0 -0.86958238757E+02 -0.48797312127E+02 -0.13728254516E+03  0.21057097112E+03  0.12470254093E+03 0.  0.
          5    1    3    3  502    0 -0.11798215387E+03 -0.42632157397E+02 -0.12228364635E+03  0.17525030568E+03  0.47000000000E+01 0.  1.
         -5    1    3    3    0  502  0.31023915111E+02 -0.61651547301E+01 -0.14998898809E+02  0.35320665440E+02  0.47000000000E+01 0.  1.
        -11    1    1    2    0    0  0.38540644279E+02  0.20610546437E+02  0.12769040608E+02  0.45532672708E+02  0.00000000000E+00 0.  1.
         11    1    1    2    0    0  0.48417594478E+02  0.28186765690E+02 -0.10296761152E+03  0.11722237942E+03  0.00000000000E+00 0. -1.
<mgrwt>
<rscale>  0 0.15324156E+03</rscale>
<asrwt>0</asrwt>
<pdfrwt beam="2">  1        1 0.46215935E-01 0.15966727E+03</pdfrwt>
<pdfrwt beam="1">  1       -1 0.11218839E-01 0.15966727E+03</pdfrwt>
<totfact> 0.43215679E+03</totfact>
</mgrwt>
</event>
<event>
 7    1  0.5400401E-006  0.1298582E+03  0.7546771E-02  0.1241598E+00
          1   -1    0    0  501    0  0.00000000000E+00  0.00000000000E+00  0.15551490966E+02  0.15551490966E+02  0.00000000000E+00 0. -1.
         -1   -1    0    0    0  501 -0.00000000000E+00 -0.00000000000E+00 -0.15332248052E+04  0.15332248052E+04  0.00000000000E+00 0.  1.
         23    2    1    2    0    0 -0.61150577177E+00  0.35171538387E+02 -0.13381283372E+04  0.13444145929E+04  0.12500295982E+03 0.  0.
          5    1    3    3  502    0 -0.52832236012E+02  0.35480915113E+02 -0.10200072998E+04  0.10220015275E+04  0.47000000000E+01 0.  1.
         -5    1    3    3    0  502  0.52220730240E+02 -0.30937672668E+00 -0.31812103735E+03  0.32241306547E+03  0.47000000000E+01 0.  1.
        -11    1    1    2    0    0  0.10608622228E+02  0.33156078595E+01  0.73226892519E+01  0.13310067578E+02  0.00000000000E+00 0.  1.
         11    1    1    2    0    0 -0.99971164560E+01 -0.38487146246E+02 -0.18686766633E+03  0.19105163565E+03  0.00000000000E+00 0. -1.
<mgrwt>
<rscale>  0 0.12091308E+03</rscale>
<asrwt>0</asrwt>
<pdfrwt beam="1">  1        1 0.23925367E-02 0.12985820E+03</pdfrwt>
<pdfrwt beam="2">  1       -1 0.23588077E+00 0.12985820E+03</pdfrwt>
<totfact> 0.45467880E+02</totfact>
</mgrwt>
</event>
<event>
 7    1  0.5400401E-006  0.1434723E+03  0.7546771E-02  0.1218780E+00
          2   -1    0    0  501    0  0.00000000000E+00  0.00000000000E+00  0.49920689910E+02  0.49920689910E+02  0.00000000000E+00 0. -1.
         -2   -1    0    0    0  501 -0.00000000000E+00 -0.00000000000E+00 -0.34096391102E+03  0.34096391102E+03  0.00000000000E+00 0.  1.
         23    2    1    2    0    0 -0.39775606482E+02 -0.58118888383E+02 -0.13973973237E+03  0.20027854180E+03  0.12499758975E+03 0.  0.
          5    1    3    3  502    0 -0.46126959325E+02 -0.42406884346E+02 -0.35247576680E+01  0.62932933613E+02  0.47000000000E+01 0. -1.
         -5    1    3    3    0  502  0.63513528427E+01 -0.15712004037E+02 -0.13621497471E+03  0.13734560819E+03  0.47000000000E+01 0. -1.
        -11    1    1    2    0    0 -0.27572359622E+02  0.26634248790E+02 -0.74085362604E+02  0.83416180540E+02  0.00000000000E+00 0.  1.
         11    1    1    2    0    0  0.67347966104E+02  0.31484639593E+02 -0.77218126128E+02  0.10718987859E+03  0.00000000000E+00 0. -1.
<mgrwt>
<rscale>  0 0.13602464E+03</rscale>
<asrwt>0</asrwt>
<pdfrwt beam="1">  1        2 0.76801064E-02 0.14347230E+03</pdfrwt>
<pdfrwt beam="2">  1       -2 0.52455984E-01 0.14347230E+03</pdfrwt>
<totfact> 0.30040713E+03</totfact>
</mgrwt>
</event>
<event>
 7    1  0.5400401E-006  0.1558859E+03  0.7546771E-02  0.1201208E+00
          1   -1    0    0  501    0  0.00000000000E+00  0.00000000000E+00  0.10210783731E+03  0.10210783731E+03  0.00000000000E+00 0. -1.
         -1   -1    0    0    0  501 -0.00000000000E+00 -0.00000000000E+00 -0.20481744258E+03  0.20481744258E+03  0.00000000000E+00 0.  1.
         23    2    1    2    0    0 -0.71268206936E+02  0.59989482796E+02 -0.38550404877E+02  0.16058194111E+03  0.12499012252E+03 0.  0.
          5    1    3    3  502    0  0.44599306595E+01 -0.18715753588E+02  0.26717999203E+02  0.33258260557E+02  0.47000000000E+01 0. -1.
         -5    1    3    3    0  502 -0.75728137595E+02  0.78705236384E+02 -0.65268404080E+02  0.12732368055E+03  0.47000000000E+01 0. -1.
        -11    1    1    2    0    0  0.34259947521E+02 -0.67336703328E+01 -0.72972208843E+02  0.80895176517E+02  0.00000000000E+00 0.  1.
         11    1    1    2    0    0  0.37008259414E+02 -0.53255812463E+02  0.88130084470E+01  0.65448162265E+02  0.00000000000E+00 0. -1.
<mgrwt>
<rscale>  0 0.14940354E+03</rscale>
<asrwt>0</asrwt>
<pdfrwt beam="1">  1        1 0.15708898E-01 0.15588594E+03</pdfrwt>
<pdfrwt beam="2">  1       -1 0.31510376E-01 0.15588594E+03</pdfrwt>
<totfact> 0.31950187E+03</totfact>
</mgrwt>
</event>
<event>
 7    1  0.5400401E-006  0.2617483E+03  0.7546771E-02  0.1108265E+00
          1   -1    0    0  501    0  0.00000000000E+00  0.00000000000E+00  0.72225138910E+02  0.72225138910E+02  0.00000000000E+00 0. -1.
         -1   -1    0    0    0  501 -0.00000000000E+00 -0.00000000000E+00 -0.89812774951E+03  0.89812774951E+03  0.00000000000E+00 0.  1.
         23    2    1    2    0    0 -0.20193972518E+03  0.11003367148E+03 -0.42815009355E+03  0.50182135147E+03  0.12500041888E+03 0.  0.
          5    1    3    3  502    0 -0.75175275681E+02 -0.16077087842E+01 -0.58523176379E+02  0.95398946403E+02  0.47000000000E+01 0.  1.
         -5    1    3    3    0  502 -0.12676444950E+03  0.11164138026E+03 -0.36962691717E+03  0.40642240507E+03  0.47000000000E+01 0.  1.
        -11    1    1    2    0    0  0.13390661991E+03 -0.22510315821E+02 -0.23951077879E+03  0.27532364652E+03  0.00000000000E+00 0.  1.
         11    1    1    2    0    0  0.68033105269E+02 -0.87523355659E+02 -0.15824173826E+03  0.19320789043E+03  0.00000000000E+00 0. -1.
<mgrwt>
<rscale>  0 0.25814190E+03</rscale>
<asrwt>0</asrwt>
<pdfrwt beam="1">  1        1 0.11111560E-01 0.26174829E+03</pdfrwt>
<pdfrwt beam="2">  1       -1 0.13817350E+00 0.26174829E+03</pdfrwt>
<totfact> 0.26068917E+02</totfact>
</mgrwt>
</event>
<event>
 7    1  0.5400401E-006  0.1286592E+03  0.7546771E-02  0.1243174E+00
          2   -1    0    0  501    0  0.00000000000E+00  0.00000000000E+00  0.10629902713E+03  0.10629902713E+03  0.00000000000E+00 0. -1.
         -2   -1    0    0    0  501 -0.00000000000E+00 -0.00000000000E+00 -0.12227788189E+03  0.12227788189E+03  0.00000000000E+00 0.  1.
         23    2    1    2    0    0  0.30330329217E+02  0.39495276202E+00 -0.24571148645E+02  0.13098447894E+03  0.12503242587E+03 0.  0.
          5    1    3    3  502    0 -0.22468636156E+02 -0.50313572069E+02 -0.10505873010E+02  0.56291726859E+02  0.47000000000E+01 0.  1.
         -5    1    3    3    0  502  0.52798965373E+02  0.50708524831E+02 -0.14065275635E+02  0.74692752083E+02  0.47000000000E+01 0.  1.
        -11    1    1    2    0    0  0.12451275600E+02 -0.31652261204E+02  0.24902636916E+02  0.42154966834E+02  0.00000000000E+00 0. -1.
         11    1    1    2    0    0 -0.42781604817E+02  0.31257308442E+02 -0.16310343030E+02  0.55437463249E+02  0.00000000000E+00 0.  1.
<mgrwt>
<rscale>  0 0.11995331E+03</rscale>
<asrwt>0</asrwt>
<pdfrwt beam="1">  1        2 0.16353697E-01 0.12865921E+03</pdfrwt>
<pdfrwt beam="2">  1       -2 0.18811982E-01 0.12865921E+03</pdfrwt>
<totfact> 0.77243075E+03</totfact>
</mgrwt>
</event>
<event>
 6    1  0.5400401E-006  0.1560104E+03  0.7546771E-02  0.1212775E+00
         -4   -1    0    0    0  501 -0.00000000000E+00  0.00000000000E+00  0.20320349277E+03  0.20320349277E+03  0.00000000000E+00 0.  1.
          4   -1    0    0  501    0  0.00000000000E+00 -0.00000000000E+00 -0.86131483905E+02  0.86131483905E+02  0.00000000000E+00 0. -1.
          5    1    1    2  502    0  0.67698285161E+02 -0.62550195107E+02  0.23447363812E+02  0.95223177805E+02  0.47000000000E+01 0. -1.
         -5    1    1    2    0  502 -0.36958632518E+02  0.28821403568E+02  0.77200503931E+02  0.90435732033E+02  0.47000000000E+01 0.  1.
        -11    1    1    2    0    0 -0.15310983928E+02  0.32348295007E+02 -0.34946377899E+02  0.50020873113E+02  0.00000000000E+00 0.  1.
         11    1    1    2    0    0 -0.15428668715E+02  0.13804965315E+01  0.51370519021E+02  0.53655193723E+02  0.00000000000E+00 0. -1.
<mgrwt>
<rscale>  0 0.14041224E+03</rscale>
<asrwt>0</asrwt>
<pdfrwt beam="2">  1        4 0.13250998E-01 0.15601038E+03</pdfrwt>
<pdfrwt beam="1">  1       -4 0.31262076E-01 0.15601038E+03</pdfrwt>
<totfact> 0.78233055E+02</totfact>
</mgrwt>
</event>
<event>
 7    1  0.5400401E-006  0.1507430E+03  0.7546771E-02  0.1209314E+00
         -2   -1    0    0    0  501 -0.00000000000E+00  0.00000000000E+00  0.34602472117E+03  0.34602472117E+03  0.00000000000E+00 0.  1.
          2   -1    0    0  501    0  0.00000000000E+00 -0.00000000000E+00 -0.61212426393E+02  0.61212426393E+02  0.00000000000E+00 0. -1.
         23    2    1    2    0    0  0.71858457033E+02 -0.43968823999E+02  0.22597745492E+03  0.27164179656E+03  0.12500624055E+03 0.  0.
          5    1    3    3  502    0 -0.19592870651E+02  0.27844830146E+02  0.51624420635E+02  0.62019238565E+02  0.47000000000E+01 0.  1.
         -5    1    3    3    0  502  0.91451327684E+02 -0.71813654145E+02  0.17435303428E+03  0.20962255800E+03  0.47000000000E+01 0.  1.
        -11    1    1    2    0    0 -0.45706822725E+02 -0.26830395371E+01 -0.11527699617E+02  0.47214406734E+02  0.00000000000E+00 0. -1.
         11    1    1    2    0    0 -0.26151634308E+02  0.46651863536E+02  0.70362539475E+02  0.88380944268E+02  0.00000000000E+00 0.  1.
<mgrwt>
<rscale>  0 0.14302620E+03</rscale>
<asrwt>0</asrwt>
<pdfrwt beam="2">  1        2 0.94172966E-02 0.15074301E+03</pdfrwt>
<pdfrwt beam="1">  1       -2 0.53234571E-01 0.15074301E+03</pdfrwt>
<totfact> 0.22666418E+03</totfact>
</mgrwt>
</event>
<event>
 7    1  0.5400401E-006  0.1276990E+03  0.7546771E-02  0.1246004E+00
         -2   -1    0    0    0  501 -0.00000000000E+00  0.00000000000E+00  0.70523011146E+03  0.70523011146E+03  0.00000000000E+00 0.  1.
          2   -1    0    0  501    0  0.00000000000E+00 -0.00000000000E+00 -0.22204060967E+02  0.22204060967E+02  0.00000000000E+00 0. -1.
         23    2    1    2    0    0  0.11899347849E+02 -0.23515573162E+02  0.54980373496E+03  0.56443881755E+03  0.12494981042E+03 0.  0.
          5    1    3    3  502    0  0.17413201949E+02  0.16097593666E+02  0.15715045947E+02  0.28834090814E+02  0.47000000000E+01 0. -1.
         -5    1    3    3    0  502 -0.55138540996E+01 -0.39613166828E+02  0.53408868901E+03  0.53560472674E+03  0.47000000000E+01 0. -1.
        -11    1    1    2    0    0 -0.16688834592E+02  0.34911949074E+02  0.14242246753E+03  0.14758563834E+03  0.00000000000E+00 0.  1.
         11    1    1    2    0    0  0.47894867426E+01 -0.11396375912E+02 -0.92001519880E+01  0.15409716538E+02  0.00000000000E+00 0. -1.
<mgrwt>
<rscale>  0 0.11825509E+03</rscale>
<asrwt>0</asrwt>
<pdfrwt beam="2">  1        2 0.34160099E-02 0.12769899E+03</pdfrwt>
<pdfrwt beam="1">  1       -2 0.10849692E+00 0.12769899E+03</pdfrwt>
<totfact> 0.17766958E+03</totfact>
</mgrwt>
</event>
<event>
 7    1  0.5400401E-006  0.2060687E+03  0.7546771E-02  0.1149982E+00
          4   -1    0    0  501    0  0.00000000000E+00  0.00000000000E+00  0.21073398129E+03  0.21073398129E+03  0.00000000000E+00 0. -1.
         -4   -1    0    0    0  501 -0.00000000000E+00 -0.00000000000E+00 -0.20204702096E+03  0.20204702096E+03  0.00000000000E+00 0.  1.
         23    2    1    2    0    0  0.75102284710E+02 -0.10853992330E+03 -0.66280723997E+02  0.19349934668E+03  0.12501037826E+03 0.  0.
          5    1    3    3  502    0  0.23523569564E+01 -0.82374491348E+02 -0.79873630365E+02  0.11486068621E+03  0.47000000000E+01 0.  1.
         -5    1    3    3    0  502  0.72749927754E+02 -0.26165431950E+02  0.13592906367E+02  0.78638660472E+02  0.47000000000E+01 0.  1.
        -11    1    1    2    0    0 -0.12432862228E+03  0.84727155097E+02  0.45605123904E+02  0.15721362681E+03  0.00000000000E+00 0.  1.
         11    1    1    2    0    0  0.49226337565E+02  0.23812768201E+02  0.29362560420E+02  0.62068028758E+02  0.00000000000E+00 0. -1.
<mgrwt>
<rscale>  0 0.19971170E+03</rscale>
<asrwt>0</asrwt>
<pdfrwt beam="1">  1        4 0.32420612E-01 0.20606866E+03</pdfrwt>
<pdfrwt beam="2">  1       -4 0.31084157E-01 0.20606866E+03</pdfrwt>
<totfact> 0.16256593E+02</totfact>
</mgrwt>
</event>
<event>
 7    1  0.5400401E-006  0.1626539E+03  0.7546771E-02  0.1195713E+00
          1   -1    0    0  501    0  0.00000000000E+00  0.00000000000E+00  0.55944084227E+03  0.55944084227E+03  0.00000000000E+00 0. -1.
         -1   -1    0    0    0  501 -0.00000000000E+00 -0.00000000000E+00 -0.57250710065E+02  0.57250710065E+02  0.00000000000E+00 0.  1.
         23    2    1    2    0    0  0.10284975377E+03  0.15908038506E+02  0.93370299145E+02  0.18754811016E+03  0.12500057329E+03 0.  0.
          5    1    3    3  502    0  0.32068135406E+02  0.56257666103E+01 -0.30224355467E+02  0.44672320533E+02  0.47000000000E+01 0. -1.
         -5    1    3    3    0  502  0.70781618362E+02  0.10282271896E+02  0.12359465461E+03  0.14287578963E+03  0.47000000000E+01 0. -1.
        -11    1    1    2    0    0 -0.87091831049E+02 -0.18298778614E+01  0.39354302403E+03  0.40306878725E+03  0.00000000000E+00 0. -1.
         11    1    1    2    0    0 -0.15757922719E+02 -0.14078160645E+02  0.15276809032E+02  0.26074654931E+02  0.00000000000E+00 0.  1.
<mgrwt>
<rscale>  0 0.15394002E+03</rscale>
<asrwt>0</asrwt>
<pdfrwt beam="1">  1        1 0.86067818E-01 0.16265387E+03</pdfrwt>
<pdfrwt beam="2">  1       -1 0.88078019E-02 0.16265387E+03</pdfrwt>
<totfact> 0.28276568E+03</totfact>
</mgrwt>
</event>
<event>
 7    1  0.5400401E-006  0.2228468E+03  0.7546771E-02  0.1134850E+00
         -1   -1    0    0    0  501 -0.00000000000E+00  0.00000000000E+00  0.64172007122E+02  0.64172007122E+02  0.00000000000E+00 0.  1.
          1   -1    0    0  501    0  0.00000000000E+00 -0.00000000000E+00 -0.72229899720E+03  0.72229899720E+03  0.00000000000E+00 0. -1.
         23    2    1    2    0    0 -0.14067826486E+03 -0.11936257036E+03 -0.31463901924E+03  0.38556243986E+03  0.12499154049E+03 0.  0.
          5    1    3    3  502    0 -0.86592960097E+02 -0.76322759405E+02 -0.79005417776E+02  0.13995517275E+03  0.47000000000E+01 0.  1.
         -5    1    3    3    0  502 -0.54085304763E+02 -0.43039810955E+02 -0.23563360146E+03  0.24560726711E+03  0.47000000000E+01 0.  1.
        -11    1    1    2    0    0  0.10235057483E+03  0.12076082254E+03 -0.21613077443E+03  0.26790171348E+03  0.00000000000E+00 0.  1.
         11    1    1    2    0    0  0.38327690026E+02 -0.13982521761E+01 -0.12735719641E+03  0.13300685099E+03  0.00000000000E+00 0. -1.
<mgrwt>
<rscale>  0 0.21870754E+03</rscale>
<asrwt>0</asrwt>
<pdfrwt beam="2">  1        1 0.11112291E+00 0.22284677E+03</pdfrwt>
<pdfrwt beam="1">  1       -1 0.98726173E-02 0.22284677E+03</pdfrwt>
<totfact> 0.16694484E+03</totfact>
</mgrwt>
</event>
<event>
 7    1  0.5400401E-006  0.1351785E+03  0.7546771E-02  0.1232903E+00
          1   -1    0    0  501    0  0.00000000000E+00  0.00000000000E+00  0.10232763805E+03  0.10232763805E+03  0.00000000000E+00 0. -1.
         -1   -1    0    0    0  501 -0.00000000000E+00 -0.00000000000E+00 -0.23291038090E+03  0.23291038090E+03  0.00000000000E+00 0.  1.
         23    2    1    2    0    0  0.54559279661E+02 -0.70947826168E+01 -0.17637443548E+03  0.22221872584E+03  0.12347538089E+03 0.  0.
          5    1    3    3  502    0  0.10707454591E+02 -0.62909905419E+02 -0.86676141007E+02  0.10773648037E+03  0.47000000000E+01 0. -1.
         -5    1    3    3    0  502  0.43851825070E+02  0.55815122803E+02 -0.89698294473E+02  0.11448224547E+03  0.47000000000E+01 0.  1.
        -11    1    1    2    0    0 -0.77299422632E+02 -0.32821813871E+00  0.44201712684E+02  0.89045493264E+02  0.00000000000E+00 0. -1.
         11    1    1    2    0    0  0.22740142971E+02  0.74230007555E+01  0.15899799427E+01  0.23973799840E+02  0.00000000000E+00 0.  1.
<mgrwt>
<rscale>  0 0.12639625E+03</rscale>
<asrwt>0</asrwt>
<pdfrwt beam="1">  1        1 0.15742714E-01 0.13517848E+03</pdfrwt>
<pdfrwt beam="2">  1       -1 0.35832366E-01 0.13517848E+03</pdfrwt>
<totfact> 0.25404575E+03</totfact>
</mgrwt>
</event>
<event>
 7    1  0.5400401E-006  0.1406298E+03  0.7546771E-02  0.1215238E+00
         -1   -1    0    0    0  501 -0.00000000000E+00  0.00000000000E+00  0.45819703271E+02  0.45819703271E+02  0.00000000000E+00 0.  1.
          1   -1    0    0  501    0  0.00000000000E+00 -0.00000000000E+00 -0.40996274171E+03  0.40996274171E+03  0.00000000000E+00 0. -1.
         23    2    1    2    0    0 -0.24714902087E+01  0.64498574241E+02 -0.20510225341E+03  0.24868387920E+03  0.12494223895E+03 0.  0.
          5    1    3    3  502    0 -0.56868364542E+02  0.63992488076E+02 -0.11743907206E+03  0.14540658535E+03  0.47000000000E+01 0. -1.
         -5    1    3    3    0  502  0.54396874334E+02  0.50608616521E+00 -0.87663181346E+02  0.10327729385E+03  0.47000000000E+01 0. -1.
        -11    1    1    2    0    0 -0.49259126689E+02 -0.56791247859E+02 -0.64501607086E+02  0.99056371386E+02  0.00000000000E+00 0.  1.
         11    1    1    2    0    0  0.51730616898E+02 -0.77073263816E+01 -0.94539177943E+02  0.10804219440E+03  0.00000000000E+00 0. -1.
<mgrwt>
<rscale>  0 0.13859075E+03</rscale>
<asrwt>0</asrwt>
<pdfrwt beam="2">  1        1 0.63071189E-01 0.14062979E+03</pdfrwt>
<pdfrwt beam="1">  1       -1 0.70491854E-02 0.14062979E+03</pdfrwt>
<totfact> 0.58940790E+03</totfact>
</mgrwt>
</event>
<event>
 7    1  0.5400401E-006  0.1301647E+03  0.7546771E-02  0.1241720E+00
         -2   -1    0    0    0  501 -0.00000000000E+00  0.00000000000E+00  0.23830237012E+03  0.23830237012E+03  0.00000000000E+00 0.  1.
          2   -1    0    0  501    0  0.00000000000E+00 -0.00000000000E+00 -0.55173090868E+02  0.55173090868E+02  0.00000000000E+00 0. -1.
         23    2    1    2    0    0 -0.33790499044E+02  0.13238782607E+02  0.12608690881E+03  0.18122021979E+03  0.12500318515E+03 0.  0.
          5    1    3    3  502    0 -0.58094216304E+02 -0.29336051264E+01  0.13761986771E+03  0.14948197883E+03  0.47000000000E+01 0.  1.
         -5    1    3    3    0  502  0.24303717260E+02  0.16172387734E+02 -0.11532958907E+02  0.31738240953E+02  0.47000000000E+01 0.  1.
        -11    1    1    2    0    0 -0.22178548485E+02 -0.20182342886E+02  0.45806207042E+02  0.54748731317E+02  0.00000000000E+00 0.  1.
         11    1    1    2    0    0  0.55969047529E+02  0.69435602790E+01  0.11236163401E+02  0.57506509880E+02  0.00000000000E+00 0. -1.
<mgrwt>
<rscale>  0 0.12083880E+03</rscale>
<asrwt>0</asrwt>
<pdfrwt beam="2">  1        2 0.84881680E-02 0.13016474E+03</pdfrwt>
<pdfrwt beam="1">  1       -2 0.36661903E-01 0.13016474E+03</pdfrwt>
<totfact> 0.52512065E+03</totfact>
</mgrwt>
</event>
<event>
 7    1  0.5400401E-006  0.1337670E+03  0.7546771E-02  0.1234998E+00
         -3   -1    0    0    0  501 -0.00000000000E+00  0.00000000000E+00  0.96532858061E+02  0.96532858061E+02  0.00000000000E+00 0.  1.
          3   -1    0    0  501    0  0.00000000000E+00 -0.00000000000E+00 -0.15231767238E+03  0.15231767238E+03  0.00000000000E+00 0. -1.
         23    2    1    2    0    0  0.45593998110E+02 -0.13785484270E+02 -0.28402343456E+01  0.13379718511E+03  0.12499907029E+03 0.  0.
          5    1    3    3  502    0 -0.21878796045E+01 -0.58945527516E+02  0.22322754964E+02  0.63243635415E+02  0.47000000000E+01 0.  1.
         -5    1    3    3    0  502  0.47781877714E+02  0.45160043246E+02 -0.25162989310E+02  0.70553549697E+02  0.47000000000E+01 0.  1.
        -11    1    1    2    0    0 -0.12985496845E+02 -0.24381227912E+02 -0.58354960339E+02  0.64562905751E+02  0.00000000000E+00 0. -1.
         11    1    1    2    0    0 -0.32608501264E+02  0.38166712182E+02  0.54103803630E+01  0.50490439582E+02  0.00000000000E+00 0.  1.
<mgrwt>
<rscale>  0 0.12504575E+03</rscale>
<asrwt>0</asrwt>
<pdfrwt beam="2">  1        3 0.23433488E-01 0.13376704E+03</pdfrwt>
<pdfrwt beam="1">  1       -3 0.14851209E-01 0.13376704E+03</pdfrwt>
<totfact> 0.14630742E+03</totfact>
</mgrwt>
</event>
<event>
 7    1  0.5400401E-006  0.1331109E+03  0.7546771E-02  0.1235615E+00
         -2   -1    0    0    0  501 -0.00000000000E+00  0.00000000000E+00  0.86469181143E+02  0.86469181143E+02  0.00000000000E+00 0.  1.
          2   -1    0    0  501    0  0.00000000000E+00 -0.00000000000E+00 -0.22508325457E+03  0.22508325457E+03  0.00000000000E+00 0. -1.
         23    2    1    2    0    0  0.22905394737E+02 -0.39484171525E+02  0.73016696574E+01  0.13331104901E+03  0.12503945178E+03 0.  0.
          5    1    3    3  502    0  0.82705941345E+01  0.45468576608E+02 -0.18867220544E+01  0.46491331517E+02  0.47000000000E+01 0.  1.
         -5    1    3    3    0  502  0.14634800602E+02 -0.84952748133E+02  0.91883917118E+01  0.86819717497E+02  0.47000000000E+01 0.  1.
        -11    1    1    2    0    0 -0.56671815329E+02  0.27589428401E+02 -0.11407435645E+03  0.13032969735E+03  0.00000000000E+00 0. -1.
         11    1    1    2    0    0  0.33766420592E+02  0.11894743125E+02 -0.31841386641E+02  0.47911689355E+02  0.00000000000E+00 0.  1.
<mgrwt>
<rscale>  0 0.12465168E+03</rscale>
<asrwt>0</asrwt>
<pdfrwt beam="2">  1        2 0.34628193E-01 0.13311094E+03</pdfrwt>
<pdfrwt beam="1">  1       -2 0.13302951E-01 0.13311094E+03</pdfrwt>
<totfact> 0.59520405E+03</totfact>
</mgrwt>
</event>
<event>
 7    1  0.5400401E-006  0.1454604E+03  0.7546771E-02  0.1214020E+00
         -1   -1    0    0    0  501 -0.00000000000E+00  0.00000000000E+00  0.49367356300E+02  0.49367356300E+02  0.00000000000E+00 0.  1.
          1   -1    0    0  501    0  0.00000000000E+00 -0.00000000000E+00 -0.37967976833E+03  0.37967976833E+03  0.00000000000E+00 0. -1.
         23    2    1    2    0    0  0.46181000347E+02  0.58312258490E+02 -0.13636233370E+03  0.19938259519E+03  0.12500291569E+03 0.  0.
          5    1    3    3  502    0  0.31432721122E+02 -0.30535383447E+02 -0.84614255900E+02  0.95404863089E+02  0.47000000000E+01 0.  1.
         -5    1    3    3    0  502  0.14748279225E+02  0.88847641937E+02 -0.51748077798E+02  0.10397773210E+03  0.47000000000E+01 0.  1.
        -11    1    1    2    0    0  0.15837187724E+02 -0.15834796343E+02 -0.80808587926E+00  0.22410048930E+02  0.00000000000E+00 0.  1.
         11    1    1    2    0    0 -0.62018188071E+02 -0.42477462146E+02 -0.19314199246E+03  0.20725448051E+03  0.00000000000E+00 0. -1.
<mgrwt>
<rscale>  0 0.13948756E+03</rscale>
<asrwt>0</asrwt>
<pdfrwt beam="2">  1        1 0.58412269E-01 0.14546042E+03</pdfrwt>
<pdfrwt beam="1">  1       -1 0.75949783E-02 0.14546042E+03</pdfrwt>
<totfact> 0.58152543E+03</totfact>
</mgrwt>
</event>
<event>
 7    1  0.6108356E-006  0.2176686E+03  0.7546771E-02  0.1139133E+00
         -3   -1    0    0    0  501 -0.00000000000E+00  0.00000000000E+00  0.18165701447E+03  0.18165701447E+03  0.00000000000E+00 0.  1.
          3   -1    0    0  501    0  0.00000000000E+00 -0.00000000000E+00 -0.24388129313E+03  0.24388129313E+03  0.00000000000E+00 0. -1.
         23    2    1    2    0    0  0.74775452153E+02 -0.16174429871E+03 -0.57339678460E+01  0.21774407927E+03  0.12500807678E+03 0.  0.
          5    1    3    3  502    0 -0.10686454340E+01 -0.29475126467E+01  0.36313261797E+02  0.36750140356E+02  0.47000000000E+01 0.  1.
         -5    1    3    3    0  502  0.75844097587E+02 -0.15879678606E+03 -0.42047229643E+02  0.18099393891E+03  0.47000000000E+01 0.  1.
        -11    1    1    2    0    0 -0.71507745242E+02  0.85816296117E+02  0.22731089946E+01  0.11172717366E+03  0.00000000000E+00 0.  1.
         11    1    1    2    0    0 -0.32677069115E+01  0.75928002588E+02 -0.58763419814E+02  0.96067054674E+02  0.00000000000E+00 0. -1.
<mgrwt>
<rscale>  0 0.21310176E+03</rscale>
<asrwt>0</asrwt>
<pdfrwt beam="2">  1        3 0.37520199E-01 0.21766857E+03</pdfrwt>
<pdfrwt beam="1">  1       -3 0.27947233E-01 0.21766857E+03</pdfrwt>
<totfact> 0.21203863E+02</totfact>
</mgrwt>
</event>
<event>
 6    1  0.5400401E-006  0.1593926E+03  0.7546771E-02  0.1214598E+00
          1   -1    0    0  501    0  0.00000000000E+00  0.00000000000E+00  0.40931663762E+02  0.40931663762E+02  0.00000000000E+00 0. -1.
         -1   -1    0    0    0  501 -0.00000000000E+00 -0.00000000000E+00 -0.58188082548E+03  0.58188082548E+03  0.00000000000E+00 0.  1.
          5    1    1    2  502    0  0.67371117172E+02  0.34577228304E+02 -0.36959566909E+03  0.37730292969E+03  0.47000000000E+01 0. -1.
         -5    1    1    2    0  502 -0.62583684251E+02 -0.26282850027E+02 -0.12468280050E+03  0.14204012278E+03  0.47000000000E+01 0.  1.
        -11    1    1    2    0    0 -0.17102537690E+02  0.35113392793E+02 -0.43165465593E+02  0.58212580845E+02  0.00000000000E+00 0.  1.
         11    1    1    2    0    0  0.12315104768E+02 -0.43407771070E+02 -0.35052265369E+01  0.45256855920E+02  0.00000000000E+00 0. -1.
<mgrwt>
<rscale>  0 0.13906107E+03</rscale>
<asrwt>0</asrwt>
<pdfrwt beam="1">  1        1 0.62971798E-02 0.15939260E+03</pdfrwt>
<pdfrwt beam="2">  1       -1 0.89520117E-01 0.15939260E+03</pdfrwt>
<totfact> 0.15258215E+03</totfact>
</mgrwt>
</event>
<event>
 7    1  0.5400401E-006  0.2264546E+03  0.7546771E-02  0.1132289E+00
          1   -1    0    0  501    0  0.00000000000E+00  0.00000000000E+00  0.13770032521E+03  0.13770032521E+03  0.00000000000E+00 0. -1.
         -1   -1    0    0    0  501 -0.00000000000E+00 -0.00000000000E+00 -0.34928331010E+03  0.34928331010E+03  0.00000000000E+00 0.  1.
         23    2    1    2    0    0  0.13862437106E+03  0.12821846351E+03 -0.13541722522E+03  0.26385513502E+03  0.12500006701E+03 0.  0.
          5    1    3    3  502    0  0.52557092635E+02 -0.18174010205E+02 -0.24373143109E+02  0.60898955148E+02  0.47000000000E+01 0. -1.
         -5    1    3    3    0  502  0.86067278428E+02  0.14639247372E+03 -0.11104408211E+03  0.20295617988E+03  0.47000000000E+01 0. -1.
        -11    1    1    2    0    0 -0.32447947090E+02 -0.83524228042E+02 -0.57390130917E+02  0.10640861369E+03  0.00000000000E+00 0.  1.
         11    1    1    2    0    0 -0.10617642397E+03 -0.44694235471E+02 -0.18775628746E+02  0.11671988660E+03  0.00000000000E+00 0. -1.
<mgrwt>
<rscale>  0 0.22215144E+03</rscale>
<asrwt>0</asrwt>
<pdfrwt beam="1">  1        1 0.21184666E-01 0.22645465E+03</pdfrwt>
<pdfrwt beam="2">  1       -1 0.53735893E-01 0.22645465E+03</pdfrwt>
<totfact> 0.84984464E+02</totfact>
</mgrwt>
</event>
<event>
 7    1  0.5400401E-006  0.1429314E+03  0.7546771E-02  0.1220010E+00
         -1   -1    0    0    0  501 -0.00000000000E+00  0.00000000000E+00  0.48295765481E+02  0.48295765481E+02  0.00000000000E+00 0.  1.
          1   -1    0    0  501    0  0.00000000000E+00 -0.00000000000E+00 -0.35436435658E+03  0.35436435658E+03  0.00000000000E+00 0. -1.
         23    2    1    2    0    0  0.36563991922E+02  0.58942889552E+02 -0.13272938022E+03  0.19505504020E+03  0.12497275943E+03 0.  0.
          5    1    3    3  502    0  0.32119568215E+02  0.51094981188E+02  0.13899268852E+01  0.60550686715E+02  0.47000000000E+01 0. -1.
         -5    1    3    3    0  502  0.44444237072E+01  0.78479083640E+01 -0.13411930710E+03  0.13450435348E+03  0.47000000000E+01 0. -1.
        -11    1    1    2    0    0  0.10708946924E+02 -0.50306478951E+02 -0.37888558419E+02  0.63882440684E+02  0.00000000000E+00 0.  1.
         11    1    1    2    0    0 -0.47272938847E+02 -0.86364106012E+01 -0.13545065246E+03  0.14372264118E+03  0.00000000000E+00 0. -1.
<mgrwt>
<rscale>  0 0.13514846E+03</rscale>
<asrwt>0</asrwt>
<pdfrwt beam="2">  1        1 0.54517590E-01 0.14293138E+03</pdfrwt>
<pdfrwt beam="1">  1       -1 0.74301182E-02 0.14293138E+03</pdfrwt>
<totfact> 0.65471414E+03</totfact>
</mgrwt>
</event>
<event>
 7    1  0.5400401E-006  0.1355274E+03  0.7546771E-02  0.1231479E+00
         -1   -1    0    0    0  501 -0.00000000000E+00  0.00000000000E+00  0.24998242760E+02  0.24998242760E+02  0.00000000000E+00 0.  1.
          1   -1    0    0  501    0  0.00000000000E+00 -0.00000000000E+00 -0.58139843434E+03  0.58139843434E+03  0.00000000000E+00 0. -1.
         23    2    1    2    0    0  0.51655667894E+02 -0.87166039615E+01 -0.31041748847E+03  0.33871327531E+03  0.12499351387E+03 0.  0.
          5    1    3    3  502    0 -0.25854889790E+02 -0.47468013516E+00 -0.20934657972E+03  0.21099000234E+03  0.47000000000E+01 0. -1.
         -5    1    3    3    0  502  0.77510557684E+02 -0.82419238264E+01 -0.10107090875E+03  0.12772327297E+03  0.47000000000E+01 0. -1.
        -11    1    1    2    0    0  0.75811720681E+01 -0.11242530003E+02  0.32888621444E+00  0.13563805400E+02  0.00000000000E+00 0.  1.
         11    1    1    2    0    0 -0.59236839962E+02  0.19959133965E+02 -0.24631158932E+03  0.25411959640E+03  0.00000000000E+00 0. -1.
<mgrwt>
<rscale>  0 0.12732526E+03</rscale>
<asrwt>0</asrwt>
<pdfrwt beam="2">  1        1 0.89445900E-01 0.13552736E+03</pdfrwt>
<pdfrwt beam="1">  1       -1 0.38458841E-02 0.13552736E+03</pdfrwt>
<totfact> 0.91634217E+03</totfact>
</mgrwt>
</event>
<event>
 7    1  0.5400401E-006  0.1861375E+03  0.7546771E-02  0.1166816E+00
         -1   -1    0    0    0  501 -0.00000000000E+00  0.00000000000E+00  0.32500655059E+02  0.32500655059E+02  0.00000000000E+00 0.  1.
          1   -1    0    0  501    0  0.00000000000E+00 -0.00000000000E+00 -0.10094266570E+04  0.10094266570E+04  0.00000000000E+00 0. -1.
         23    2    1    2    0    0  0.51025761719E+02  0.12821652356E+03 -0.39522423144E+03  0.43686310816E+03  0.12491627947E+03 0.  0.
          5    1    3    3  502    0  0.49900340763E+02  0.12523547778E+03 -0.40427096775E+03  0.42618197319E+03  0.47000000000E+01 0.  1.
         -5    1    3    3    0  502  0.11254209567E+01  0.29810457791E+01  0.90467363130E+01  0.10681134967E+02  0.47000000000E+01 0.  1.
        -11    1    1    2    0    0 -0.55364342313E+01 -0.11606926379E+03 -0.46315907826E+03  0.47751341120E+03  0.00000000000E+00 0. -1.
         11    1    1    2    0    0 -0.45489327488E+02 -0.12147259766E+02 -0.11854269222E+03  0.12755079268E+03  0.00000000000E+00 0.  1.
<mgrwt>
<rscale>  0 0.18102388E+03</rscale>
<asrwt>0</asrwt>
<pdfrwt beam="2">  1        1 0.15529641E+00 0.18613754E+03</pdfrwt>
<pdfrwt beam="1">  1       -1 0.50001008E-02 0.18613754E+03</pdfrwt>
<totfact> 0.27497391E+03</totfact>
</mgrwt>
</event>
<event>
 7    1  0.5400401E-006  0.1320749E+03  0.7546771E-02  0.1237820E+00
          2   -1    0    0  501    0  0.00000000000E+00  0.00000000000E+00  0.32951453903E+03  0.32951453903E+03  0.00000000000E+00 0. -1.
         -2   -1    0    0    0  501 -0.00000000000E+00 -0.00000000000E+00 -0.47470905854E+02  0.47470905854E+02  0.00000000000E+00 0.  1.
         23    2    1    2    0    0 -0.11440980230E+02  0.41070044666E+02  0.88296333720E+02  0.15887106108E+03  0.12500450753E+03 0.  0.
          5    1    3    3  502    0 -0.30927224449E+02 -0.20011386149E+02 -0.12617259651E+02  0.39220326730E+02  0.47000000000E+01 0. -1.
         -5    1    3    3    0  502  0.19486244219E+02  0.61081430815E+02  0.10091359337E+03  0.11965073435E+03  0.47000000000E+01 0. -1.
        -11    1    1    2    0    0  0.23595282776E+01 -0.59690857558E+02  0.18702507203E+03  0.19633375516E+03  0.00000000000E+00 0. -1.
         11    1    1    2    0    0  0.90814519528E+01  0.18620812892E+02  0.67222274316E+01  0.21780628640E+02  0.00000000000E+00 0.  1.
<mgrwt>
<rscale>  0 0.12325641E+03</rscale>
<asrwt>0</asrwt>
<pdfrwt beam="1">  1        2 0.50694543E-01 0.13207487E+03</pdfrwt>
<pdfrwt beam="2">  1       -2 0.73032165E-02 0.13207487E+03</pdfrwt>
<totfact> 0.10173482E+04</totfact>
</mgrwt>
</event>
<event>
 7    1  0.5400401E-006  0.1365052E+03  0.7546771E-02  0.1229746E+00
          2   -1    0    0  501    0  0.00000000000E+00  0.00000000000E+00  0.65860451367E+02  0.65860451367E+02  0.00000000000E+00 0. -1.
         -2   -1    0    0    0  501 -0.00000000000E+00 -0.00000000000E+00 -0.23062999017E+03  0.23062999017E+03  0.00000000000E+00 0.  1.
         23    2    1    2    0    0  0.49902487290E+02  0.22776717536E+02 -0.11460264921E+03  0.17823423323E+03  0.12499855036E+03 0.  0.
          5    1    3    3  502    0 -0.19545091926E+01  0.64567340742E+02 -0.80322347624E+02  0.10318202908E+03  0.47000000000E+01 0.  1.
         -5    1    3    3    0  502  0.51856996482E+02 -0.41790623206E+02 -0.34280301581E+02  0.75052204155E+02  0.47000000000E+01 0.  1.
        -11    1    1    2    0    0 -0.47967612018E+02  0.10524001490E+02 -0.65235538159E+02  0.81653670151E+02  0.00000000000E+00 0.  1.
         11    1    1    2    0    0 -0.19348752713E+01 -0.33300719026E+02  0.15068648560E+02  0.36602538155E+02  0.00000000000E+00 0. -1.
<mgrwt>
<rscale>  0 0.12846861E+03</rscale>
<asrwt>0</asrwt>
<pdfrwt beam="1">  1        2 0.10132377E-01 0.13650522E+03</pdfrwt>
<pdfrwt beam="2">  1       -2 0.35481536E-01 0.13650522E+03</pdfrwt>
<totfact> 0.44983315E+03</totfact>
</mgrwt>
</event>
<event>
 6    1  0.5400401E-006  0.6621831E+03  0.7546771E-02  0.1039251E+00
          2   -1    0    0  501    0  0.00000000000E+00  0.00000000000E+00  0.75008270896E+03  0.75008270896E+03  0.00000000000E+00 0.  1.
         -2   -1    0    0    0  501 -0.00000000000E+00 -0.00000000000E+00 -0.19404539074E+03  0.19404539074E+03  0.00000000000E+00 0. -1.
          5    1    1    2  502    0 -0.10850674714E+03  0.13190241124E+03 -0.11711516807E+03  0.20714732162E+03  0.47000000000E+01 0. -1.
         -5    1    1    2    0  502  0.10928622635E+03 -0.86212437243E+02  0.59085682474E+03  0.60705019640E+03  0.47000000000E+01 0.  1.
        -11    1    1    2    0    0  0.19843731763E+02 -0.62320444749E+02  0.31395802525E+02  0.72548659120E+02  0.00000000000E+00 0. -1.
         11    1    1    2    0    0 -0.20623210967E+02  0.16630470756E+02  0.50899859017E+02  0.57381922555E+02  0.00000000000E+00 0.  1.
<mgrwt>
<rscale>  0 0.41335589E+03</rscale>
<asrwt>0</asrwt>
<pdfrwt beam="1">  1        2 0.11539734E+00 0.66218309E+03</pdfrwt>
<pdfrwt beam="2">  1       -2 0.29853137E-01 0.66218309E+03</pdfrwt>
<totfact> 0.39148693E+02</totfact>
</mgrwt>
</event>
<event>
 7    1  0.5400401E-006  0.1314128E+03  0.7546771E-02  0.1239939E+00
          2   -1    0    0  501    0  0.00000000000E+00  0.00000000000E+00  0.24111197539E+03  0.24111197539E+03  0.00000000000E+00 0. -1.
         -2   -1    0    0    0  501 -0.00000000000E+00 -0.00000000000E+00 -0.54976365082E+02  0.54976365082E+02  0.00000000000E+00 0.  1.
         23    2    1    2    0    0  0.23851059187E+02 -0.32795032336E+02  0.90352764654E+02  0.15947710472E+03  0.12499975072E+03 0.  0.
          5    1    3    3  502    0 -0.36958949258E+02 -0.28854269026E+02 -0.37455130456E+01  0.47272102125E+02  0.47000000000E+01 0.  1.
         -5    1    3    3    0  502  0.60810008445E+02 -0.39407633098E+01  0.94098277699E+02  0.11220500260E+03  0.47000000000E+01 0.  1.
        -11    1    1    2    0    0 -0.50320949838E+02  0.19774341077E+02  0.24291721890E+02  0.59273183735E+02  0.00000000000E+00 0.  1.
         11    1    1    2    0    0  0.26469890651E+02  0.13020691259E+02  0.71491123763E+02  0.77338052011E+02  0.00000000000E+00 0. -1.
<mgrwt>
<rscale>  0 0.12193452E+03</rscale>
<asrwt>0</asrwt>
<pdfrwt beam="1">  1        2 0.37094149E-01 0.13141280E+03</pdfrwt>
<pdfrwt beam="2">  1       -2 0.84579025E-02 0.13141280E+03</pdfrwt>
<totfact> 0.11294955E+04</totfact>
</mgrwt>
</event>
<event>
 7    1  0.5400401E-006  0.1324963E+03  0.7546771E-02  0.1236873E+00
          1   -1    0    0  501    0  0.00000000000E+00  0.00000000000E+00  0.34263505904E+03  0.34263505904E+03  0.00000000000E+00 0.  1.
         -1   -1    0    0    0  501 -0.00000000000E+00 -0.00000000000E+00 -0.45306807596E+02  0.45306807596E+02  0.00000000000E+00 0. -1.
         23    2    1    2    0    0  0.39965036756E+02 -0.18282873061E+02  0.99319086895E+02  0.16558846273E+03  0.12499516134E+03 0.  0.
          5    1    3    3  502    0  0.79193583977E+02 -0.31009602280E+02  0.42415839325E+02  0.95154677249E+02  0.47000000000E+01 0. -1.
         -5    1    3    3    0  502 -0.39228547221E+02  0.12726729219E+02  0.56903247570E+02  0.70433785485E+02  0.47000000000E+01 0. -1.
        -11    1    1    2    0    0  0.34563518293E+01  0.39153725713E+02  0.35886872315E+02  0.53224319721E+02  0.00000000000E+00 0.  1.
         11    1    1    2    0    0 -0.43421388586E+02 -0.20870852652E+02  0.16212229224E+03  0.16912908418E+03  0.00000000000E+00 0. -1.
<mgrwt>
<rscale>  0 0.12385263E+03</rscale>
<asrwt>0</asrwt>
<pdfrwt beam="1">  1        1 0.52713084E-01 0.13249626E+03</pdfrwt>
<pdfrwt beam="2">  1       -1 0.69702783E-02 0.13249626E+03</pdfrwt>
<totfact> 0.74793760E+03</totfact>
</mgrwt>
</event>
<event>
 7    1  0.5400401E-006  0.1623148E+03  0.7546771E-02  0.1194271E+00
         -2   -1    0    0    0  501 -0.00000000000E+00  0.00000000000E+00  0.11422041315E+03  0.11422041315E+03  0.00000000000E+00 0.  1.
          2   -1    0    0  501    0  0.00000000000E+00 -0.00000000000E+00 -0.22523550175E+03  0.22523550175E+03  0.00000000000E+00 0. -1.
         23    2    1    2    0    0  0.51636959151E+02  0.89742987050E+02 -0.12261704404E+03  0.20342325578E+03  0.12500360886E+03 0.  0.
          5    1    3    3  502    0 -0.15238751480E+02 -0.42837119673E+01  0.16009586088E+02  0.22999273501E+02  0.47000000000E+01 0.  1.
         -5    1    3    3    0  502  0.66875710631E+02  0.94026699017E+02 -0.13862663013E+03  0.18042398228E+03  0.47000000000E+01 0.  1.
        -11    1    1    2    0    0 -0.12088830637E+02 -0.44003025001E+02  0.47373569785E+02  0.65777360464E+02  0.00000000000E+00 0.  1.
         11    1    1    2    0    0 -0.39548128513E+02 -0.45739962049E+02 -0.35771614344E+02  0.70255298661E+02  0.00000000000E+00 0. -1.
<mgrwt>
<rscale>  0 0.15516115E+03</rscale>
<asrwt>0</asrwt>
<pdfrwt beam="2">  1        2 0.34651615E-01 0.16231476E+03</pdfrwt>
<pdfrwt beam="1">  1       -2 0.17572372E-01 0.16231476E+03</pdfrwt>
<totfact> 0.38099888E+03</totfact>
</mgrwt>
</event>
<event>
 7    1  0.5400401E-006  0.1777175E+03  0.7546771E-02  0.1175529E+00
         -1   -1    0    0    0  501 -0.00000000000E+00  0.00000000000E+00  0.11732417716E+03  0.11732417716E+03  0.00000000000E+00 0.  1.
          1   -1    0    0  501    0  0.00000000000E+00 -0.00000000000E+00 -0.25114611238E+03  0.25114611238E+03  0.00000000000E+00 0. -1.
         23    2    1    2    0    0 -0.65502143952E+02 -0.10801422269E+03 -0.29548982289E+02  0.18015731080E+03  0.12500364441E+03 0.  0.
          5    1    3    3  502    0 -0.72875478697E+02 -0.60085593759E+02  0.33634374476E+02  0.10037168485E+03  0.47000000000E+01 0.  1.
         -5    1    3    3    0  502  0.73733347458E+01 -0.47928628929E+02 -0.63183356765E+02  0.79785625951E+02  0.47000000000E+01 0.  1.
        -11    1    1    2    0    0  0.70544227357E+02  0.30186843565E+02 -0.36415292979E+02  0.84934133895E+02  0.00000000000E+00 0.  1.
         11    1    1    2    0    0 -0.50420834054E+01  0.77827379123E+02 -0.67857659953E+02  0.10337884484E+03  0.00000000000E+00 0. -1.
<mgrwt>
<rscale>  0 0.17224242E+03</rscale>
<asrwt>0</asrwt>
<pdfrwt beam="2">  1        1 0.38637863E-01 0.17771751E+03</pdfrwt>
<pdfrwt beam="1">  1       -1 0.18049873E-01 0.17771751E+03</pdfrwt>
<totfact> 0.25711060E+03</totfact>
</mgrwt>
</event>
<event>
 7    1  0.5400401E-006  0.1414327E+03  0.7546771E-02  0.1217717E+00
          1   -1    0    0  501    0  0.00000000000E+00  0.00000000000E+00  0.36533243081E+03  0.36533243081E+03  0.00000000000E+00 0. -1.
         -1   -1    0    0    0  501 -0.00000000000E+00 -0.00000000000E+00 -0.57610238181E+02  0.57610238181E+02  0.00000000000E+00 0.  1.
         23    2    1    2    0    0 -0.83551759299E+02 -0.20840908127E+01  0.76767707085E+02  0.16092384512E+03  0.11409628899E+03 0.  0.
          5    1    3    3  502    0 -0.10801321863E+03 -0.19836473948E+02  0.52167472467E+02  0.12167118098E+03  0.47000000000E+01 0. -1.
         -5    1    3    3    0  502  0.24461459327E+02  0.17752383135E+02  0.24600234618E+02  0.39252664147E+02  0.47000000000E+01 0.  1.
        -11    1    1    2    0    0  0.95114395642E+02  0.21510272173E+02  0.15827251169E+03  0.18590220016E+03  0.00000000000E+00 0. -1.
         11    1    1    2    0    0 -0.11562636343E+02 -0.19426181361E+02  0.72681973856E+02  0.76116623711E+02  0.00000000000E+00 0.  1.
<mgrwt>
<rscale>  0 0.13678801E+03</rscale>
<asrwt>0</asrwt>
<pdfrwt beam="1">  1        1 0.56204988E-01 0.14143268E+03</pdfrwt>
<pdfrwt beam="2">  1       -1 0.88631138E-02 0.14143268E+03</pdfrwt>
<totfact> 0.48245702E+03</totfact>
</mgrwt>
</event>
<event>
 6    1  0.5400401E-006  0.1402651E+03  0.7546771E-02  0.1229839E+00
          4   -1    0    0  501    0  0.00000000000E+00  0.00000000000E+00  0.16607178484E+03  0.16607178484E+03  0.00000000000E+00 0. -1.
         -4   -1    0    0    0  501 -0.00000000000E+00 -0.00000000000E+00 -0.85904281327E+02  0.85904281327E+02  0.00000000000E+00 0.  1.
          5    1    1    2  502    0 -0.68383797018E+02  0.38315645621E+02  0.42955577725E+02  0.89508122824E+02  0.47000000000E+01 0. -1.
         -5    1    1    2    0  502  0.58550267040E+02  0.68406904406E+01  0.77531173834E+01  0.59641677083E+02  0.47000000000E+01 0.  1.
        -11    1    1    2    0    0  0.34166339848E+02 -0.57204727061E+02  0.34772599318E+02  0.75158853372E+02  0.00000000000E+00 0.  1.
         11    1    1    2    0    0 -0.24332809871E+02  0.12048391000E+02 -0.53137909150E+01  0.27667412886E+02  0.00000000000E+00 0. -1.
<mgrwt>
<rscale>  0 0.12840707E+03</rscale>
<asrwt>0</asrwt>
<pdfrwt beam="1">  1        4 0.25549505E-01 0.14026507E+03</pdfrwt>
<pdfrwt beam="2">  1       -4 0.13216043E-01 0.14026507E+03</pdfrwt>
<totfact> 0.11237786E+03</totfact>
</mgrwt>
</event>
<event>
 7    1  0.5400401E-006  0.1275413E+03  0.7546771E-02  0.1245091E+00
         -2   -1    0    0    0  501 -0.00000000000E+00  0.00000000000E+00  0.14511243536E+03  0.14511243536E+03  0.00000000000E+00 0.  1.
          2   -1    0    0  501    0  0.00000000000E+00 -0.00000000000E+00 -0.89122273510E+02  0.89122273510E+02  0.00000000000E+00 0. -1.
         23    2    1    2    0    0 -0.24949273676E+02 -0.41724570251E+01  0.53185959025E+02  0.13818660297E+03  0.12500766116E+03 0.  0.
          5    1    3    3  502    0  0.36825663040E+02  0.30784210441E+02 -0.18252798580E+01  0.48261980040E+02  0.47000000000E+01 0.  1.
         -5    1    3    3    0  502 -0.61774936716E+02 -0.34956667466E+02  0.55011238883E+02  0.89924622935E+02  0.47000000000E+01 0.  1.
        -11    1    1    2    0    0  0.44905837649E+02  0.38130753361E+01  0.35751787632E+02  0.57526203745E+02  0.00000000000E+00 0.  1.
         11    1    1    2    0    0 -0.19956563973E+02  0.35938168892E+00 -0.32947584806E+02  0.38521902152E+02  0.00000000000E+00 0. -1.
<mgrwt>
<rscale>  0 0.11879936E+03</rscale>
<asrwt>0</asrwt>
<pdfrwt beam="2">  1        2 0.13711119E-01 0.12754133E+03</pdfrwt>
<pdfrwt beam="1">  1       -2 0.22324990E-01 0.12754133E+03</pdfrwt>
<totfact> 0.70948935E+03</totfact>
</mgrwt>
</event>
<event>
 7    1  0.5400401E-006  0.1351612E+03  0.7546771E-02  0.1230487E+00
          1   -1    0    0  501    0  0.00000000000E+00  0.00000000000E+00  0.12829263341E+03  0.12829263341E+03  0.00000000000E+00 0. -1.
         -1   -1    0    0    0  501 -0.00000000000E+00 -0.00000000000E+00 -0.13510666576E+03  0.13510666576E+03  0.00000000000E+00 0.  1.
         23    2    1    2    0    0 -0.46992832020E+02 -0.31587140747E+02 -0.53222361461E+02  0.14526240106E+03  0.12272926172E+03 0.  0.
          5    1    3    3  502    0 -0.68448040839E+02 -0.41921327382E+02 -0.76968754775E+02  0.11130503670E+03  0.47000000000E+01 0. -1.
         -5    1    3    3    0  502  0.21455208819E+02  0.10334186635E+02  0.23746393314E+02  0.33957364361E+02  0.47000000000E+01 0.  1.
        -11    1    1    2    0    0  0.50600373258E+02  0.49780863122E+02  0.31301673915E+01  0.71051601354E+02  0.00000000000E+00 0.  1.
         11    1    1    2    0    0 -0.36075412379E+01 -0.18193722375E+02  0.43278161723E+02  0.47085296747E+02  0.00000000000E+00 0. -1.
<mgrwt>
<rscale>  0 0.12797825E+03</rscale>
<asrwt>0</asrwt>
<pdfrwt beam="1">  1        1 0.19737328E-01 0.13516118E+03</pdfrwt>
<pdfrwt beam="2">  1       -1 0.20785641E-01 0.13516118E+03</pdfrwt>
<totfact> 0.47005256E+03</totfact>
</mgrwt>
</event>
<event>
 7    1  0.5400401E-006  0.1557263E+03  0.7546771E-02  0.1201954E+00
          2   -1    0    0  501    0  0.00000000000E+00  0.00000000000E+00  0.28910337165E+03  0.28910337165E+03  0.00000000000E+00 0. -1.
         -2   -1    0    0    0  501 -0.00000000000E+00 -0.00000000000E+00 -0.70524266201E+02  0.70524266201E+02  0.00000000000E+00 0.  1.
         23    2    1    2    0    0  0.82129220929E+01  0.92511941906E+02  0.12190098153E+03  0.19776380064E+03  0.12499904024E+03 0.  0.
          5    1    3    3  502    0  0.18175815173E+02  0.12091512830E+03  0.11157842318E+03  0.16559789561E+03  0.47000000000E+01 0.  1.
         -5    1    3    3    0  502 -0.99628930797E+01 -0.28403186395E+02  0.10322558350E+02  0.32165905037E+02  0.47000000000E+01 0.  1.
        -11    1    1    2    0    0  0.40531604863E+02 -0.48364438281E+02  0.37570999686E+02  0.73440519473E+02  0.00000000000E+00 0. -1.
         11    1    1    2    0    0 -0.48744526956E+02 -0.44147503626E+02  0.59107124229E+02  0.88423317735E+02  0.00000000000E+00 0.  1.
<mgrwt>
<rscale>  0 0.14880134E+03</rscale>
<asrwt>0</asrwt>
<pdfrwt beam="1">  1        2 0.44477441E-01 0.15572627E+03</pdfrwt>
<pdfrwt beam="2">  1       -2 0.10849887E-01 0.15572627E+03</pdfrwt>
<totfact> 0.63760017E+03</totfact>
</mgrwt>
</event>
<event>
 7    1  0.5400401E-006  0.1267115E+03  0.7546771E-02  0.1249036E+00
          3   -1    0    0  501    0  0.00000000000E+00  0.00000000000E+00  0.14335121003E+03  0.14335121003E+03  0.00000000000E+00 0. -1.
         -3   -1    0    0    0  501 -0.00000000000E+00 -0.00000000000E+00 -0.82396568776E+02  0.82396568776E+02  0.00000000000E+00 0.  1.
         23    2    1    2    0    0 -0.18691654681E+02 -0.90724046861E+01  0.40328622147E+02  0.13297445142E+03  0.12499648189E+03 0.  0.
          5    1    3    3  502    0  0.39710735735E+01  0.50779862057E+02 -0.91241204514E+01  0.51958670016E+02  0.47000000000E+01 0. -1.
         -5    1    3    3    0  502 -0.22662728254E+02 -0.59852266743E+02  0.49452742598E+02  0.81015781405E+02  0.47000000000E+01 0. -1.
        -11    1    1    2    0    0 -0.29712092274E+02 -0.14972196196E+02 -0.37535068608E+01  0.33482292335E+02  0.00000000000E+00 0.  1.
         11    1    1    2    0    0  0.48403746955E+02  0.24044600882E+02  0.24379525967E+02  0.59291035050E+02  0.00000000000E+00 0. -1.
<mgrwt>
<rscale>  0 0.11647049E+03</rscale>
<asrwt>0</asrwt>
<pdfrwt beam="1">  1        3 0.22054032E-01 0.12671151E+03</pdfrwt>
<pdfrwt beam="2">  1       -3 0.12676395E-01 0.12671151E+03</pdfrwt>
<totfact> 0.21120841E+03</totfact>
</mgrwt>
</event>
<event>
 7    1  0.5400401E-006  0.1423564E+03  0.7546771E-02  0.1220882E+00
          2   -1    0    0  501    0  0.00000000000E+00  0.00000000000E+00  0.40895673682E+02  0.40895673682E+02  0.00000000000E+00 0. -1.
         -2   -1    0    0    0  501 -0.00000000000E+00 -0.00000000000E+00 -0.44148115917E+03  0.44148115917E+03  0.00000000000E+00 0.  1.
         23    2    1    2    0    0 -0.67879978258E+02  0.56802488161E+01 -0.29396290967E+03  0.32661834617E+03  0.12500158046E+03 0.  0.
          5    1    3    3  502    0 -0.34383545459E+02  0.61016152587E+02 -0.10059971179E+03  0.12266862308E+03  0.47000000000E+01 0. -1.
         -5    1    3    3    0  502 -0.33496432799E+02 -0.55335903771E+02 -0.19336319788E+03  0.20394972309E+03  0.47000000000E+01 0. -1.
        -11    1    1    2    0    0  0.52937632568E+02 -0.41628216553E+02 -0.39251692288E+02  0.77948679930E+02  0.00000000000E+00 0. -1.
         11    1    1    2    0    0  0.14942345690E+02  0.35947967737E+02 -0.67370883534E+02  0.77809806755E+02  0.00000000000E+00 0.  1.
<mgrwt>
<rscale>  0 0.13453158E+03</rscale>
<asrwt>0</asrwt>
<pdfrwt beam="1">  1        2 0.62916425E-02 0.14235643E+03</pdfrwt>
<pdfrwt beam="2">  1       -2 0.67920174E-01 0.14235643E+03</pdfrwt>
<totfact> 0.22767019E+03</totfact>
</mgrwt>
</event>
<event>
 7    1  0.5400401E-006  0.1278507E+03  0.7546771E-02  0.1245375E+00
         -1   -1    0    0    0  501 -0.00000000000E+00  0.00000000000E+00  0.47350761252E+02  0.47350761252E+02  0.00000000000E+00 0.  1.
          1   -1    0    0  501    0  0.00000000000E+00 -0.00000000000E+00 -0.37215910303E+03  0.37215910303E+03  0.00000000000E+00 0. -1.
         23    2    1    2    0    0 -0.31361588920E+01  0.26633725725E+02 -0.65968583341E+02  0.14386675767E+03  0.12500639638E+03 0.  0.
          5    1    3    3  502    0 -0.52152611078E+02  0.16669397883E+02 -0.74841507795E+02  0.92849905531E+02  0.47000000000E+01 0. -1.
         -5    1    3    3    0  502  0.49016452186E+02  0.99643278419E+01  0.88729244535E+01  0.51016852144E+02  0.47000000000E+01 0. -1.
        -11    1    1    2    0    0  0.32794193177E+02 -0.47046725806E+02 -0.13500630040E+03  0.14668181436E+03  0.00000000000E+00 0.  1.
         11    1    1    2    0    0 -0.29658034285E+02  0.20413000081E+02 -0.12383345803E+03  0.12896129225E+03  0.00000000000E+00 0. -1.
<mgrwt>
<rscale>  0 0.11862970E+03</rscale>
<asrwt>0</asrwt>
<pdfrwt beam="2">  1        1 0.57255246E-01 0.12785065E+03</pdfrwt>
<pdfrwt beam="1">  1       -1 0.72847326E-02 0.12785065E+03</pdfrwt>
<totfact> 0.62998310E+03</totfact>
</mgrwt>
</event>
<event>
 7    1  0.5400401E-006  0.1275365E+03  0.7546771E-02  0.1247323E+00
         -2   -1    0    0    0  501 -0.00000000000E+00  0.00000000000E+00  0.73632459239E+02  0.73632459239E+02  0.00000000000E+00 0. -1.
          2   -1    0    0  501    0  0.00000000000E+00 -0.00000000000E+00 -0.18685543049E+03  0.18685543049E+03  0.00000000000E+00 0.  1.
         23    2    1    2    0    0 -0.66464423141E+01 -0.24434955598E+02 -0.19015427886E+02  0.12894625556E+03  0.12499723227E+03 0.  0.
          5    1    3    3  502    0 -0.16420479647E+02 -0.57909481828E+02 -0.52769693736E+02  0.80186475258E+02  0.47000000000E+01 0. -1.
         -5    1    3    3    0  502  0.97740373325E+01  0.33474526230E+02  0.33754265850E+02  0.48759780303E+02  0.47000000000E+01 0. -1.
        -11    1    1    2    0    0  0.26909469506E+02 -0.25920782655E+02 -0.42277962718E+02  0.56421916435E+02  0.00000000000E+00 0.  1.
         11    1    1    2    0    0 -0.20263027192E+02  0.50355738253E+02 -0.51929580642E+02  0.75119717729E+02  0.00000000000E+00 0. -1.
<mgrwt>
<rscale>  0 0.11747413E+03</rscale>
<asrwt>0</asrwt>
<pdfrwt beam="2">  1        2 0.28746989E-01 0.12753647E+03</pdfrwt>
<pdfrwt beam="1">  1       -2 0.11328071E-01 0.12753647E+03</pdfrwt>
<totfact> 0.93756607E+03</totfact>
</mgrwt>
</event>
<event>
 7    1  0.5400401E-006  0.1589390E+03  0.7546771E-02  0.1197474E+00
          2   -1    0    0  501    0  0.00000000000E+00  0.00000000000E+00  0.11705131816E+04  0.11705131816E+04  0.00000000000E+00 0. -1.
         -2   -1    0    0    0  501 -0.00000000000E+00 -0.00000000000E+00 -0.18401794242E+02  0.18401794242E+02  0.00000000000E+00 0.  1.
         23    2    1    2    0    0  0.67606915599E+02  0.71174529959E+02  0.62372654986E+03  0.64365862829E+03  0.12500044811E+03 0.  0.
          5    1    3    3  502    0 -0.34537201358E+02  0.10831322580E+01  0.14649137144E+03  0.15058487095E+03  0.47000000000E+01 0.  1.
         -5    1    3    3    0  502  0.10214411696E+03  0.70091397701E+02  0.47723517842E+03  0.49307375734E+03  0.47000000000E+01 0.  1.
        -11    1    1    2    0    0 -0.78935186929E+02 -0.19291545032E+02  0.33475112744E+03  0.34447241511E+03  0.00000000000E+00 0. -1.
         11    1    1    2    0    0  0.11328271331E+02 -0.51882984927E+02  0.19363371007E+03  0.20078393246E+03  0.00000000000E+00 0.  1.
<mgrwt>
<rscale>  0 0.15246656E+03</rscale>
<asrwt>0</asrwt>
<pdfrwt beam="1">  1        2 0.18007889E+00 0.15893905E+03</pdfrwt>
<pdfrwt beam="2">  1       -2 0.28310462E-02 0.15893905E+03</pdfrwt>
<totfact> 0.93719017E+03</totfact>
</mgrwt>
</event>
<event>
 7    1  0.5400401E-006  0.1430697E+03  0.7546771E-02  0.1219910E+00
         -2   -1    0    0    0  501 -0.00000000000E+00  0.00000000000E+00  0.28918029998E+03  0.28918029998E+03  0.00000000000E+00 0.  1.
          2   -1    0    0  501    0  0.00000000000E+00 -0.00000000000E+00 -0.77573123680E+02  0.77573123680E+02  0.00000000000E+00 0. -1.
         23    2    1    2    0    0  0.66360379426E+02  0.20921759280E+02  0.20810312727E+03  0.25253881351E+03  0.12501008272E+03 0.  0.
          5    1    3    3  502    0  0.59591933379E+02 -0.28492405050E+02  0.18663767773E+03  0.19803718948E+03  0.47000000000E+01 0. -1.
         -5    1    3    3    0  502  0.67684460471E+01  0.49414164329E+02  0.21465449547E+02  0.54501624036E+02  0.47000000000E+01 0. -1.
        -11    1    1    2    0    0  0.12250094834E+02 -0.27868021653E+02  0.15877892082E+02  0.34333641101E+02  0.00000000000E+00 0.  1.
         11    1    1    2    0    0 -0.78610474261E+02  0.69462623738E+01 -0.12373843050E+02  0.79880969049E+02  0.00000000000E+00 0. -1.
<mgrwt>
<rscale>  0 0.13521973E+03</rscale>
<asrwt>0</asrwt>
<pdfrwt beam="2">  1        2 0.11934327E-01 0.14306971E+03</pdfrwt>
<pdfrwt beam="1">  1       -2 0.44489276E-01 0.14306971E+03</pdfrwt>
<totfact> 0.24101423E+03</totfact>
</mgrwt>
</event>
<event>
 7    1  0.5400401E-006  0.1677724E+03  0.7546771E-02  0.1187964E+00
         -1   -1    0    0    0  501 -0.00000000000E+00  0.00000000000E+00  0.52332179804E+03  0.52332179804E+03  0.00000000000E+00 0.  1.
          1   -1    0    0  501    0  0.00000000000E+00 -0.00000000000E+00 -0.54906142529E+02  0.54906142529E+02  0.00000000000E+00 0. -1.
         23    2    1    2    0    0  0.11066299513E+03 -0.16602649198E+02  0.36993562354E+03  0.40620185887E+03  0.12500255250E+03 0.  0.
          5    1    3    3  502    0  0.85391300971E+02  0.41158656696E+02  0.28452836146E+03  0.29994030702E+03  0.47000000000E+01 0.  1.
         -5    1    3    3    0  502  0.25271694161E+02 -0.57761305894E+02  0.85407262082E+02  0.10626155185E+03  0.47000000000E+01 0.  1.
        -11    1    1    2    0    0 -0.36528055729E+02 -0.93960722232E+01  0.84084705190E+02  0.92156511845E+02  0.00000000000E+00 0.  1.
         11    1    1    2    0    0 -0.74134939403E+02  0.25998721421E+02  0.14395326781E+02  0.79869569856E+02  0.00000000000E+00 0. -1.
<mgrwt>
<rscale>  0 0.16065065E+03</rscale>
<asrwt>0</asrwt>
<pdfrwt beam="2">  1        1 0.84470992E-02 0.16777242E+03</pdfrwt>
<pdfrwt beam="1">  1       -1 0.80511043E-01 0.16777242E+03</pdfrwt>
<totfact> 0.12821151E+03</totfact>
</mgrwt>
</event>
<event>
 7    1  0.5400401E-006  0.2370796E+03  0.7546771E-02  0.1124598E+00
          2   -1    0    0  501    0  0.00000000000E+00  0.00000000000E+00  0.11823426201E+04  0.11823426201E+04  0.00000000000E+00 0. -1.
         -2   -1    0    0    0  501 -0.00000000000E+00 -0.00000000000E+00 -0.49851715903E+02  0.49851715903E+02  0.00000000000E+00 0.  1.
         23    2    1    2    0    0 -0.17780290809E+03 -0.93604045776E+02  0.37945639180E+03  0.44743029245E+03  0.12582178592E+03 0.  0.
          5    1    3    3  502    0 -0.19364693464E+03 -0.85723536804E+02  0.30900245404E+03  0.37463617905E+03  0.47000000000E+01 0. -1.
         -5    1    3    3    0  502  0.15844026543E+02 -0.78805089716E+01  0.70453937761E+02  0.72794113394E+02  0.47000000000E+01 0.  1.
        -11    1    1    2    0    0  0.88223344811E+02  0.93871838762E+02  0.50047037498E+03  0.51678416860E+03  0.00000000000E+00 0. -1.
         11    1    1    2    0    0  0.89579563283E+02 -0.26779298651E+00  0.25256413744E+03  0.26797987498E+03  0.00000000000E+00 0.  1.
<mgrwt>
<rscale>  0 0.23292492E+03</rscale>
<asrwt>0</asrwt>
<pdfrwt beam="1">  1        2 0.18189884E+00 0.23707955E+03</pdfrwt>
<pdfrwt beam="2">  1       -2 0.76694956E-02 0.23707955E+03</pdfrwt>
<totfact> 0.20651094E+03</totfact>
</mgrwt>
</event>
<event>
 7    1  0.5400401E-006  0.1411196E+03  0.7546771E-02  0.1223387E+00
         -2   -1    0    0    0  501 -0.00000000000E+00  0.00000000000E+00  0.41699175294E+02  0.41699175294E+02  0.00000000000E+00 0. -1.
          2   -1    0    0  501    0  0.00000000000E+00 -0.00000000000E+00 -0.38053288063E+03  0.38053288063E+03  0.00000000000E+00 0.  1.
         23    2    1    2    0    0  0.48457930799E+02 -0.44042668784E+02 -0.18136433934E+03  0.22979937799E+03  0.12500721102E+03 0.  0.
          5    1    3    3  502    0  0.16956261319E+02 -0.81493283318E+02 -0.73038758140E+02  0.11083961482E+03  0.47000000000E+01 0. -1.
         -5    1    3    3    0  502  0.31501669480E+02  0.37450614534E+02 -0.10832558120E+03  0.11895976316E+03  0.47000000000E+01 0. -1.
        -11    1    1    2    0    0 -0.47994698456E+02 -0.27516221374E+01 -0.12897615190E+03  0.13764414358E+03  0.00000000000E+00 0.  1.
         11    1    1    2    0    0 -0.46323234295E+00  0.46794290921E+02 -0.28493214093E+02  0.54788534351E+02  0.00000000000E+00 0. -1.
<mgrwt>
<rscale>  0 0.13278080E+03</rscale>
<asrwt>0</asrwt>
<pdfrwt beam="2">  1        2 0.58543517E-01 0.14111956E+03</pdfrwt>
<pdfrwt beam="1">  1       -2 0.64152580E-02 0.14111956E+03</pdfrwt>
<totfact> 0.10694653E+04</totfact>
</mgrwt>
</event>
<event>
 7    1  0.5400401E-006  0.1429121E+03  0.7546771E-02  0.1219917E+00
          2   -1    0    0  501    0  0.00000000000E+00  0.00000000000E+00  0.67151644641E+03  0.67151644641E+03  0.00000000000E+00 0. -1.
         -2   -1    0    0    0  501 -0.00000000000E+00 -0.00000000000E+00 -0.24765445883E+02  0.24765445883E+02  0.00000000000E+00 0.  1.
         23    2    1    2    0    0 -0.69257397565E+02 -0.18509346715E+01  0.33770580272E+03  0.36670025721E+03  0.12499542539E+03 0.  0.
          5    1    3    3  502    0 -0.93184938843E+02  0.50664966319E+01  0.14610204814E+03  0.17342722015E+03  0.47000000000E+01 0.  1.
         -5    1    3    3    0  502  0.23927541277E+02 -0.69174313033E+01  0.19160375458E+03  0.19327303706E+03  0.47000000000E+01 0.  1.
        -11    1    1    2    0    0  0.72829179207E+02 -0.16719686020E+02  0.29894501971E+03  0.30814243793E+03  0.00000000000E+00 0. -1.
         11    1    1    2    0    0 -0.35717816421E+01  0.18570620692E+02  0.10100178091E+02  0.21439197150E+02  0.00000000000E+00 0.  1.
<mgrwt>
<rscale>  0 0.13521451E+03</rscale>
<asrwt>0</asrwt>
<pdfrwt beam="1">  1        2 0.10331021E+00 0.14291210E+03</pdfrwt>
<pdfrwt beam="2">  1       -2 0.38100691E-02 0.14291210E+03</pdfrwt>
<totfact> 0.12484503E+04</totfact>
</mgrwt>
</event>
<event>
 7    1  0.5400401E-006  0.1285705E+03  0.7546771E-02  0.1243786E+00
         -2   -1    0    0    0  501 -0.00000000000E+00  0.00000000000E+00  0.25694728132E+02  0.25694728132E+02  0.00000000000E+00 0.  1.
          2   -1    0    0  501    0  0.00000000000E+00 -0.00000000000E+00 -0.50521072925E+03  0.50521072925E+03  0.00000000000E+00 0. -1.
         23    2    1    2    0    0 -0.23091238449E+02  0.19333766559E+02 -0.31639773168E+03  0.34152291892E+03  0.12499351867E+03 0.  0.
          5    1    3    3  502    0 -0.66065239437E+02  0.14088163954E+02 -0.26797975178E+03  0.27640247754E+03  0.47000000000E+01 0.  1.
         -5    1    3    3    0  502  0.42974000988E+02  0.52456026050E+01 -0.48417979900E+02  0.65120441378E+02  0.47000000000E+01 0.  1.
        -11    1    1    2    0    0 -0.16283363116E+02  0.25309916101E+02 -0.25515379972E+02  0.39455980314E+02  0.00000000000E+00 0.  1.
         11    1    1    2    0    0  0.39374601565E+02 -0.44643682660E+02 -0.13760288946E+03  0.14992655815E+03  0.00000000000E+00 0. -1.
<mgrwt>
<rscale>  0 0.11958363E+03</rscale>
<asrwt>0</asrwt>
<pdfrwt beam="2">  1        2 0.77724729E-01 0.12857052E+03</pdfrwt>
<pdfrwt beam="1">  1       -2 0.39530350E-02 0.12857052E+03</pdfrwt>
<totfact> 0.16183996E+04</totfact>
</mgrwt>
</event>
<event>
 7    1  0.5400401E-006  0.1256613E+03  0.7546771E-02  0.1249767E+00
         -2   -1    0    0    0  501 -0.00000000000E+00  0.00000000000E+00  0.51995618538E+02  0.51995618538E+02  0.00000000000E+00 0. -1.
          2   -1    0    0  501    0  0.00000000000E+00 -0.00000000000E+00 -0.23432280274E+03  0.23432280274E+03  0.00000000000E+00 0.  1.
         23    2    1    2    0    0  0.13007850017E+02  0.34407868323E+00 -0.79270388609E+02  0.14857512346E+03  0.12498580018E+03 0.  0.
          5    1    3    3  502    0 -0.30636608107E+02 -0.31295593201E+02  0.90784152589E+01  0.44972475290E+02  0.47000000000E+01 0. -1.
         -5    1    3    3    0  502  0.43644458124E+02  0.31639671884E+02 -0.88348803868E+02  0.10360264817E+03  0.47000000000E+01 0. -1.
        -11    1    1    2    0    0  0.64149867809E+01 -0.29510348855E+02 -0.97741750055E+02  0.10230084285E+03  0.00000000000E+00 0.  1.
         11    1    1    2    0    0 -0.19422836798E+02  0.29166270172E+02 -0.53150455359E+01  0.35442454967E+02  0.00000000000E+00 0. -1.
<mgrwt>
<rscale>  0 0.11604553E+03</rscale>
<asrwt>0</asrwt>
<pdfrwt beam="2">  1        2 0.36049662E-01 0.12566134E+03</pdfrwt>
<pdfrwt beam="1">  1       -2 0.79993258E-02 0.12566134E+03</pdfrwt>
<totfact> 0.12644327E+04</totfact>
</mgrwt>
</event>
<event>
 7    1  0.5400401E-006  0.1455925E+03  0.7546771E-02  0.1215639E+00
         -2   -1    0    0    0  501 -0.00000000000E+00  0.00000000000E+00  0.26630156892E+02  0.26630156892E+02  0.00000000000E+00 0.  1.
          2   -1    0    0  501    0  0.00000000000E+00 -0.00000000000E+00 -0.66021087819E+03  0.66021087819E+03  0.00000000000E+00 0. -1.
         23    2    1    2    0    0  0.62334781350E+02  0.40980898382E+02 -0.31838449574E+03  0.35009407898E+03  0.12502846880E+03 0.  0.
          5    1    3    3  502    0 -0.74315095458E+01 -0.14053994218E+02  0.27981805282E+01  0.16812551914E+02  0.47000000000E+01 0.  1.
         -5    1    3    3    0  502  0.69766290895E+02  0.55034892600E+02 -0.32118267627E+03  0.33328152706E+03  0.47000000000E+01 0.  1.
        -11    1    1    2    0    0 -0.82239520696E+00 -0.11506572396E+02  0.25060949977E+01  0.11805001241E+02  0.00000000000E+00 0.  1.
         11    1    1    2    0    0 -0.61512386143E+02 -0.29474325987E+02 -0.31770232056E+03  0.32494195486E+03  0.00000000000E+00 0. -1.
<mgrwt>
<rscale>  0 0.13829715E+03</rscale>
<asrwt>0</asrwt>
<pdfrwt beam="2">  1        2 0.10157090E+00 0.14559250E+03</pdfrwt>
<pdfrwt beam="1">  1       -2 0.40969474E-02 0.14559250E+03</pdfrwt>
<totfact> 0.11446203E+04</totfact>
</mgrwt>
</event>
<event>
 7    1  0.5400401E-006  0.1278889E+03  0.7546771E-02  0.1244878E+00
          1   -1    0    0  501    0  0.00000000000E+00  0.00000000000E+00  0.25283500446E+03  0.25283500446E+03  0.00000000000E+00 0. -1.
         -1   -1    0    0    0  501 -0.00000000000E+00 -0.00000000000E+00 -0.53198699142E+02  0.53198699142E+02  0.00000000000E+00 0.  1.
         23    2    1    2    0    0 -0.23415295430E+02  0.13503106905E+02  0.72718762059E+02  0.14711763293E+03  0.12499987843E+03 0.  0.
          5    1    3    3  502    0 -0.27603288882E+02  0.17866211175E+02  0.10697638955E+03  0.11201419991E+03  0.47000000000E+01 0.  1.
         -5    1    3    3    0  502  0.41879934519E+01 -0.43631042695E+01 -0.34257627496E+02  0.35103433019E+02  0.47000000000E+01 0.  1.
        -11    1    1    2    0    0  0.40849723559E+02  0.67707783415E+01  0.15304754784E+02  0.44144975628E+02  0.00000000000E+00 0.  1.
         11    1    1    2    0    0 -0.17434428128E+02 -0.20273885247E+02  0.11161278848E+03  0.11477109505E+03  0.00000000000E+00 0. -1.
<mgrwt>
<rscale>  0 0.11892691E+03</rscale>
<asrwt>0</asrwt>
<pdfrwt beam="1">  1        1 0.38897692E-01 0.12788893E+03</pdfrwt>
<pdfrwt beam="2">  1       -1 0.81844154E-02 0.12788893E+03</pdfrwt>
<totfact> 0.85345486E+03</totfact>
</mgrwt>
</event>
<event>
 7    1  0.5400401E-006  0.1273444E+03  0.7546771E-02  0.1246370E+00
         -2   -1    0    0    0  501 -0.00000000000E+00  0.00000000000E+00  0.56451338712E+02  0.56451338712E+02  0.00000000000E+00 0.  1.
          2   -1    0    0  501    0  0.00000000000E+00 -0.00000000000E+00 -0.43553771557E+03  0.43553771557E+03  0.00000000000E+00 0. -1.
         23    2    1    2    0    0  0.23136103678E+02  0.74862465615E+01 -0.30494253605E+02  0.13094462674E+03  0.12500109034E+03 0.  0.
          5    1    3    3  502    0  0.63081178361E+02 -0.12086773161E+02  0.16071495174E+02  0.66375508329E+02  0.47000000000E+01 0. -1.
         -5    1    3    3    0  502 -0.39945074682E+02  0.19573019723E+02 -0.46565748779E+02  0.64569118407E+02  0.47000000000E+01 0. -1.
        -11    1    1    2    0    0 -0.94499951009E+01  0.38589824503E+02 -0.95603157953E+02  0.10352990280E+03  0.00000000000E+00 0.  1.
         11    1    1    2    0    0 -0.13686108578E+02 -0.46076071065E+02 -0.25298896530E+03  0.25751452474E+03  0.00000000000E+00 0. -1.
<mgrwt>
<rscale>  0 0.11803766E+03</rscale>
<asrwt>0</asrwt>
<pdfrwt beam="2">  1        2 0.67005804E-01 0.12734440E+03</pdfrwt>
<pdfrwt beam="1">  1       -2 0.86848211E-02 0.12734440E+03</pdfrwt>
<totfact> 0.57721281E+03</totfact>
</mgrwt>
</event>
<event>
 7    1  0.5400401E-006  0.1543024E+03  0.7546771E-02  0.1202770E+00
          3   -1    0    0  501    0  0.00000000000E+00  0.00000000000E+00  0.10598526558E+03  0.10598526558E+03  0.00000000000E+00 0. -1.
         -3   -1    0    0    0  501 -0.00000000000E+00 -0.00000000000E+00 -0.26802274151E+03  0.26802274151E+03  0.00000000000E+00 0.  1.
         23    2    1    2    0    0  0.66520177556E+02 -0.61316684646E+02 -0.18499804771E+03  0.24090144457E+03  0.12499823399E+03 0.  0.
          5    1    3    3  502    0  0.66063187234E+01 -0.74857293191E+02 -0.44429125076E+02  0.87425939777E+02  0.47000000000E+01 0. -1.
         -5    1    3    3    0  502  0.59913858833E+02  0.13540608545E+02 -0.14056892264E+03  0.15347550479E+03  0.47000000000E+01 0. -1.
        -11    1    1    2    0    0 -0.87010491563E+02  0.66227606786E+02  0.24221655370E+02  0.11199825950E+03  0.00000000000E+00 0.  1.
         11    1    1    2    0    0  0.20490314007E+02 -0.49109221400E+01 -0.12610835932E+01  0.21108303015E+02  0.00000000000E+00 0. -1.
<mgrwt>
<rscale>  0 0.14814586E+03</rscale>
<asrwt>0</asrwt>
<pdfrwt beam="1">  1        3 0.16305426E-01 0.15430239E+03</pdfrwt>
<pdfrwt beam="2">  1       -3 0.41234267E-01 0.15430239E+03</pdfrwt>
<totfact> 0.44435065E+02</totfact>
</mgrwt>
</event>
<event>
 7    1  0.5400401E-006  0.1344830E+03  0.7546771E-02  0.1233988E+00
          1   -1    0    0  501    0  0.00000000000E+00  0.00000000000E+00  0.78301190819E+02  0.78301190819E+02  0.00000000000E+00 0. -1.
         -1   -1    0    0    0  501 -0.00000000000E+00 -0.00000000000E+00 -0.22300761261E+03  0.22300761261E+03  0.00000000000E+00 0.  1.
         23    2    1    2    0    0  0.41690687574E+02 -0.26856544619E+02 -0.14623440081E+03  0.19867104683E+03  0.12500518969E+03 0.  0.
          5    1    3    3  502    0 -0.15915853777E+02  0.17545746629E+02  0.10103076360E+02  0.26178803987E+02  0.47000000000E+01 0.  1.
         -5    1    3    3    0  502  0.57606541351E+02 -0.44402291248E+02 -0.15633747717E+03  0.17249224285E+03  0.47000000000E+01 0.  1.
        -11    1    1    2    0    0 -0.23645479569E+02 -0.16482270127E+02  0.34733824784E+02  0.45135490655E+02  0.00000000000E+00 0. -1.
         11    1    1    2    0    0 -0.18045208005E+02  0.43338814746E+02 -0.33205845766E+02  0.57502265942E+02  0.00000000000E+00 0.  1.
<mgrwt>
<rscale>  0 0.12569424E+03</rscale>
<asrwt>0</asrwt>
<pdfrwt beam="1">  1        1 0.12046337E-01 0.13448303E+03</pdfrwt>
<pdfrwt beam="2">  1       -1 0.34308862E-01 0.13448303E+03</pdfrwt>
<totfact> 0.38759573E+03</totfact>
</mgrwt>
</event>
<event>
 7    1  0.5400401E-006  0.1718078E+03  0.7546771E-02  0.1180150E+00
         -1   -1    0    0    0  501 -0.00000000000E+00  0.00000000000E+00  0.81357892059E+02  0.81357892059E+02  0.00000000000E+00 0.  1.
          1   -1    0    0  501    0  0.00000000000E+00 -0.00000000000E+00 -0.34475650494E+03  0.34475650494E+03  0.00000000000E+00 0. -1.
         23    2    1    2    0    0 -0.11529799847E+03  0.24495159781E+02 -0.95048852201E+02  0.19634716012E+03  0.12499712668E+03 0.  0.
          5    1    3    3  502    0 -0.49218997297E+02 -0.47025839783E+02 -0.14200427498E+02  0.69697069116E+02  0.47000000000E+01 0.  1.
         -5    1    3    3    0  502 -0.66079001174E+02  0.71520999564E+02 -0.80848424703E+02  0.12665009101E+03  0.47000000000E+01 0.  1.
        -11    1    1    2    0    0  0.10485704685E+03 -0.57142931502E+02 -0.14697295812E+03  0.18937097273E+03  0.00000000000E+00 0. -1.
         11    1    1    2    0    0  0.10440951623E+02  0.32647771721E+02 -0.21376802559E+02  0.40396264144E+02  0.00000000000E+00 0.  1.
<mgrwt>
<rscale>  0 0.16781084E+03</rscale>
<asrwt>0</asrwt>
<pdfrwt beam="2">  1        1 0.53039462E-01 0.17180781E+03</pdfrwt>
<pdfrwt beam="1">  1       -1 0.12516599E-01 0.17180781E+03</pdfrwt>
<totfact> 0.30807153E+03</totfact>
</mgrwt>
</event>
<event>
 7    1  0.5400401E-006  0.1300598E+03  0.7546771E-02  0.1240207E+00
         -1   -1    0    0    0  501 -0.00000000000E+00  0.00000000000E+00  0.50123398154E+03  0.50123398154E+03  0.00000000000E+00 0.  1.
          1   -1    0    0  501    0  0.00000000000E+00 -0.00000000000E+00 -0.27145294953E+02  0.27145294953E+02  0.00000000000E+00 0. -1.
         23    2    1    2    0    0 -0.32745448974E+02  0.14773713946E+02  0.31109844724E+03  0.33719103548E+03  0.12500009391E+03 0.  0.
          5    1    3    3  502    0  0.20868228296E+01  0.59909996870E+02  0.23140985381E+03  0.23909448549E+03  0.47000000000E+01 0.  1.
         -5    1    3    3    0  502 -0.34832271804E+02 -0.45136282924E+02  0.79688593433E+02  0.98096549983E+02  0.47000000000E+01 0.  1.
        -11    1    1    2    0    0  0.35219770389E+02  0.13000660635E+02  0.15857249564E+03  0.16295608543E+03  0.00000000000E+00 0.  1.
         11    1    1    2    0    0 -0.24743214147E+01 -0.27774374581E+02  0.44177437034E+01  0.28232155590E+02  0.00000000000E+00 0. -1.
<mgrwt>
<rscale>  0 0.12176918E+03</rscale>
<asrwt>0</asrwt>
<pdfrwt beam="2">  1        1 0.41761996E-02 0.13005980E+03</pdfrwt>
<pdfrwt beam="1">  1       -1 0.77112914E-01 0.13005980E+03</pdfrwt>
<totfact> 0.36094249E+03</totfact>
</mgrwt>
</event>
<event>
 7    1  0.5400401E-006  0.1134352E+03  0.7546771E-02  0.1263472E+00
          3   -1    0    0  501    0  0.00000000000E+00  0.00000000000E+00  0.41074927833E+03  0.41074927833E+03  0.00000000000E+00 0. -1.
         -3   -1    0    0    0  501 -0.00000000000E+00 -0.00000000000E+00 -0.27019946673E+02  0.27019946673E+02  0.00000000000E+00 0.  1.
         23    2    1    2    0    0  0.12194021618E+02  0.16414824429E+02  0.17517998028E+03  0.20869969217E+03  0.11157685869E+03 0.  0.
          5    1    3    3  502    0  0.39296910918E+02  0.53935536131E+02  0.10175901915E+03  0.12177962574E+03  0.47000000000E+01 0. -1.
         -5    1    3    3    0  502 -0.27102889300E+02 -0.37520711702E+02  0.73420961129E+02  0.86920066430E+02  0.47000000000E+01 0.  1.
        -11    1    1    2    0    0 -0.49919371613E+02 -0.81040150016E+01  0.78298208200E+02  0.93210665317E+02  0.00000000000E+00 0.  1.
         11    1    1    2    0    0  0.37725349995E+02 -0.83108094270E+01  0.13025114317E+03  0.13585886752E+03  0.00000000000E+00 0. -1.
<mgrwt>
<rscale>  0 0.10844772E+03</rscale>
<asrwt>0</asrwt>
<pdfrwt beam="1">  1        3 0.63192192E-01 0.11343516E+03</pdfrwt>
<pdfrwt beam="2">  1       -3 0.41569152E-02 0.11343516E+03</pdfrwt>
<totfact> 0.16814287E+03</totfact>
</mgrwt>
</event>
<event>
 7    1  0.5400401E-006  0.1171927E+03  0.7546771E-02  0.1255843E+00
          2   -1    0    0  501    0  0.00000000000E+00  0.00000000000E+00  0.11800512881E+03  0.11800512881E+03  0.00000000000E+00 0. -1.
         -2   -1    0    0    0  501 -0.00000000000E+00 -0.00000000000E+00 -0.10322549671E+03  0.10322549671E+03  0.00000000000E+00 0.  1.
         23    2    1    2    0    0  0.17664338435E+01 -0.40185198111E+02 -0.12134503852E+02  0.11781924867E+03  0.11007342430E+03 0.  0.
          5    1    3    3  502    0 -0.36097198422E+02  0.23520143619E+01  0.29668093922E+02  0.47019416228E+02  0.47000000000E+01 0. -1.
         -5    1    3    3    0  502  0.37863632266E+02 -0.42537212473E+02 -0.41802597774E+02  0.70799832443E+02  0.47000000000E+01 0.  1.
        -11    1    1    2    0    0 -0.38829271378E+02  0.40916549959E+02  0.33724743746E+02  0.65720884938E+02  0.00000000000E+00 0. -1.
         11    1    1    2    0    0  0.37062837535E+02 -0.73135184784E+00 -0.68106077946E+01  0.37690491907E+02  0.00000000000E+00 0.  1.
<mgrwt>
<rscale>  0 0.11259259E+03</rscale>
<asrwt>0</asrwt>
<pdfrwt beam="1">  1        2 0.18154635E-01 0.11719270E+03</pdfrwt>
<pdfrwt beam="2">  1       -2 0.15880846E-01 0.11719270E+03</pdfrwt>
<totfact> 0.90032028E+03</totfact>
</mgrwt>
</event>
<event>
 7    1  0.5400401E-006  0.2137775E+03  0.7546771E-02  0.1142241E+00
          1   -1    0    0  501    0  0.00000000000E+00  0.00000000000E+00  0.11225827326E+03  0.11225827326E+03  0.00000000000E+00 0. -1.
         -1   -1    0    0    0  501 -0.00000000000E+00 -0.00000000000E+00 -0.49612243405E+03  0.49612243405E+03  0.00000000000E+00 0.  1.
         23    2    1    2    0    0 -0.35113151560E+02  0.16983540789E+03 -0.34925805506E+03  0.40948994932E+03  0.12499532143E+03 0.  0.
          5    1    3    3  502    0 -0.75063862677E+02  0.91310022410E+02 -0.14600930489E+03  0.18791729773E+03  0.47000000000E+01 0. -1.
         -5    1    3    3    0  502  0.39950711117E+02  0.78525385484E+02 -0.20324875018E+03  0.22157265159E+03  0.47000000000E+01 0. -1.
        -11    1    1    2    0    0 -0.18549985453E+02 -0.11260996431E+03 -0.25850180472E+01  0.11415685849E+03  0.00000000000E+00 0.  1.
         11    1    1    2    0    0  0.53663137013E+02 -0.57225443587E+02 -0.32021087683E+02  0.84733899499E+02  0.00000000000E+00 0. -1.
<mgrwt>
<rscale>  0 0.20914924E+03</rscale>
<asrwt>0</asrwt>
<pdfrwt beam="1">  1        1 0.17270504E-01 0.21377752E+03</pdfrwt>
<pdfrwt beam="2">  1       -1 0.76326528E-01 0.21377752E+03</pdfrwt>
<totfact> 0.55722860E+02</totfact>
</mgrwt>
</event>
<event>
 7    1  0.5400401E-006  0.1866118E+03  0.7546771E-02  0.1169627E+00
          1   -1    0    0  501    0  0.00000000000E+00  0.00000000000E+00  0.61941743313E+03  0.61941743313E+03  0.00000000000E+00 0. -1.
         -1   -1    0    0    0  501 -0.00000000000E+00 -0.00000000000E+00 -0.79236302500E+02  0.79236302500E+02  0.00000000000E+00 0.  1.
         23    2    1    2    0    0 -0.13557990909E+03 -0.28549866668E+02  0.63009042594E+02  0.19696218543E+03  0.12500782537E+03 0.  0.
          5    1    3    3  502    0 -0.72728978242E+02 -0.28117880699E+02 -0.30780520188E+02  0.83962193362E+02  0.47000000000E+01 0.  1.
         -5    1    3    3    0  502 -0.62850930853E+02 -0.43198596933E+00  0.93789562782E+02  0.11299999207E+03  0.47000000000E+01 0.  1.
        -11    1    1    2    0    0  0.16892384690E+02 -0.18144036776E+02  0.11717931612E+03  0.11977291371E+03  0.00000000000E+00 0.  1.
         11    1    1    2    0    0  0.11868752440E+03  0.46693903444E+02  0.35999277191E+03  0.38191863649E+03  0.00000000000E+00 0. -1.
<mgrwt>
<rscale>  0 0.17812852E+03</rscale>
<asrwt>0</asrwt>
<pdfrwt beam="1">  1        1 0.95294987E-01 0.18661180E+03</pdfrwt>
<pdfrwt beam="2">  1       -1 0.12190201E-01 0.18661180E+03</pdfrwt>
<totfact> 0.14965080E+03</totfact>
</mgrwt>
</event>
<event>
 7    1  0.5400401E-006  0.1273716E+03  0.7546771E-02  0.1246041E+00
          1   -1    0    0  501    0  0.00000000000E+00  0.00000000000E+00  0.55599851977E+03  0.55599851977E+03  0.00000000000E+00 0. -1.
         -1   -1    0    0    0  501 -0.00000000000E+00 -0.00000000000E+00 -0.26397754933E+02  0.26397754933E+02  0.00000000000E+00 0.  1.
         23    2    1    2    0    0 -0.17991721763E+01 -0.24397515351E+02  0.18187303736E+03  0.22203900716E+03  0.12500017283E+03 0.  0.
          5    1    3    3  502    0 -0.31442510327E+02 -0.58710922026E+02  0.15584456970E+03  0.16954416453E+03  0.47000000000E+01 0.  1.
         -5    1    3    3    0  502  0.29643338151E+02  0.34313406675E+02  0.26028467660E+02  0.52494842633E+02  0.47000000000E+01 0.  1.
        -11    1    1    2    0    0 -0.22107578384E+02 -0.25487403749E+02  0.19550461732E+03  0.19839457696E+03  0.00000000000E+00 0. -1.
         11    1    1    2    0    0  0.23906750560E+02  0.49884919099E+02  0.15222311015E+03  0.16196269058E+03  0.00000000000E+00 0.  1.
<mgrwt>
<rscale>  0 0.11823295E+03</rscale>
<asrwt>0</asrwt>
<pdfrwt beam="1">  1        1 0.85538225E-01 0.12737158E+03</pdfrwt>
<pdfrwt beam="2">  1       -1 0.40611935E-02 0.12737158E+03</pdfrwt>
<totfact> 0.89448805E+03</totfact>
</mgrwt>
</event>
<event>
 7    1  0.5400401E-006  0.1371535E+03  0.7546771E-02  0.1228664E+00
         -2   -1    0    0    0  501 -0.00000000000E+00  0.00000000000E+00  0.19944979897E+02  0.19944979897E+02  0.00000000000E+00 0.  1.
          2   -1    0    0  501    0  0.00000000000E+00 -0.00000000000E+00 -0.75393469142E+03  0.75393469142E+03  0.00000000000E+00 0. -1.
         23    2    1    2    0    0 -0.25085261368E+02  0.50521704666E+02 -0.39796275318E+03  0.42093401940E+03  0.12501752995E+03 0.  0.
          5    1    3    3  502    0  0.26383551739E+02 -0.30658712166E+02 -0.10823873648E+03  0.11564498480E+03  0.47000000000E+01 0.  1.
         -5    1    3    3    0  502 -0.51468813107E+02  0.81180416832E+02 -0.28972401670E+03  0.30528903461E+03  0.47000000000E+01 0.  1.
        -11    1    1    2    0    0  0.48159684112E+02 -0.61605083316E+02 -0.20427579202E+03  0.21873074926E+03  0.00000000000E+00 0. -1.
         11    1    1    2    0    0 -0.23074422744E+02  0.11083378649E+02 -0.13175116632E+03  0.13421490265E+03  0.00000000000E+00 0.  1.
<mgrwt>
<rscale>  0 0.12918925E+03</rscale>
<asrwt>0</asrwt>
<pdfrwt beam="2">  1        2 0.11598995E+00 0.13715355E+03</pdfrwt>
<pdfrwt beam="1">  1       -2 0.30684584E-02 0.13715355E+03</pdfrwt>
<totfact> 0.14927369E+04</totfact>
</mgrwt>
</event>
<event>
 7    1  0.5400401E-006  0.1301017E+03  0.7546771E-02  0.1233926E+00
          2   -1    0    0  501    0  0.00000000000E+00  0.00000000000E+00  0.63373551264E+03  0.63373551264E+03  0.00000000000E+00 0. -1.
         -2   -1    0    0    0  501 -0.00000000000E+00 -0.00000000000E+00 -0.23424621029E+02  0.23424621029E+02  0.00000000000E+00 0.  1.
         23    2    1    2    0    0  0.11012394335E+02 -0.34350089385E+02  0.31724661643E+03  0.34288755554E+03  0.12500103455E+03 0.  0.
          5    1    3    3  502    0  0.48694700006E+02 -0.45951999594E+02  0.28172762062E+03  0.28961233105E+03  0.47000000000E+01 0. -1.
         -5    1    3    3    0  502 -0.37682305671E+02  0.11601910209E+02  0.35518995810E+02  0.53275224491E+02  0.47000000000E+01 0. -1.
        -11    1    1    2    0    0  0.33863913461E+02  0.42257042647E+02  0.81455680712E+02  0.97813343714E+02  0.00000000000E+00 0.  1.
         11    1    1    2    0    0 -0.44876307797E+02 -0.79069532619E+01  0.21160859447E+03  0.21645923442E+03  0.00000000000E+00 0. -1.
<mgrwt>
<rscale>  0 0.12573444E+03</rscale>
<asrwt>0</asrwt>
<pdfrwt beam="1">  1        2 0.97497758E-01 0.13010173E+03</pdfrwt>
<pdfrwt beam="2">  1       -2 0.36037883E-02 0.13010173E+03</pdfrwt>
<totfact> 0.14405172E+04</totfact>
</mgrwt>
</event>
<event>
 7    1  0.5400401E-006  0.1846189E+03  0.7546771E-02  0.1168108E+00
          4   -1    0    0  501    0  0.00000000000E+00  0.00000000000E+00  0.11902532328E+03  0.11902532328E+03  0.00000000000E+00 0. -1.
         -4   -1    0    0    0  501 -0.00000000000E+00 -0.00000000000E+00 -0.25831785539E+03  0.25831785539E+03  0.00000000000E+00 0.  1.
         23    2    1    2    0    0 -0.11613823795E+03  0.70511819482E+02 -0.64278071764E+02  0.19548859511E+03  0.12499645318E+03 0.  0.
          5    1    3    3  502    0 -0.49428475949E+02 -0.29134064508E+02 -0.46851201459E+02  0.74223264732E+02  0.47000000000E+01 0. -1.
         -5    1    3    3    0  502 -0.66709762004E+02  0.99645883990E+02 -0.17426870305E+02  0.12126533038E+03  0.47000000000E+01 0. -1.
        -11    1    1    2    0    0  0.98163568978E+01  0.22322426936E+02 -0.85435003794E+01  0.25838788784E+02  0.00000000000E+00 0. -1.
         11    1    1    2    0    0  0.10632188106E+03 -0.92834246418E+02 -0.66470959973E+02  0.15601579477E+03  0.00000000000E+00 0.  1.
<mgrwt>
<rscale>  0 0.17968540E+03</rscale>
<asrwt>0</asrwt>
<pdfrwt beam="1">  1        4 0.18311588E-01 0.18461885E+03</pdfrwt>
<pdfrwt beam="2">  1       -4 0.39741208E-01 0.18461885E+03</pdfrwt>
<totfact> 0.28616347E+02</totfact>
</mgrwt>
</event>
<event>
 7    1  0.5400401E-006  0.1727017E+03  0.7546771E-02  0.1181439E+00
          2   -1    0    0  501    0  0.00000000000E+00  0.00000000000E+00  0.31471941400E+03  0.31471941400E+03  0.00000000000E+00 0. -1.
         -2   -1    0    0    0  501 -0.00000000000E+00 -0.00000000000E+00 -0.27243144555E+03  0.27243144555E+03  0.00000000000E+00 0.  1.
         23    2    1    2    0    0 -0.82764900952E+02  0.85738137647E+02 -0.22333224287E+03  0.28231750939E+03  0.12499931331E+03 0.  0.
          5    1    3    3  502    0  0.33106234046E+02  0.22970719207E+02 -0.59429274458E+02  0.71955578909E+02  0.47000000000E+01 0.  1.
         -5    1    3    3    0  502 -0.11587113500E+03  0.62767418440E+02 -0.16390296841E+03  0.21036193048E+03  0.47000000000E+01 0.  1.
        -11    1    1    2    0    0  0.43032224136E+02 -0.56669445271E+01  0.29823389447E+02  0.52662331248E+02  0.00000000000E+00 0.  1.
         11    1    1    2    0    0  0.39732676816E+02 -0.80071193120E+02  0.23579682187E+03  0.25217101891E+03  0.00000000000E+00 0. -1.
<mgrwt>
<rscale>  0 0.16660153E+03</rscale>
<asrwt>0</asrwt>
<pdfrwt beam="1">  1        2 0.48418372E-01 0.17270172E+03</pdfrwt>
<pdfrwt beam="2">  1       -2 0.41912530E-01 0.17270172E+03</pdfrwt>
<totfact> 0.56637489E+02</totfact>
</mgrwt>
</event>
<event>
 7    1  0.5400401E-006  0.1344971E+03  0.7546771E-02  0.1233011E+00
          2   -1    0    0  501    0  0.00000000000E+00  0.00000000000E+00  0.22300154580E+03  0.22300154580E+03  0.00000000000E+00 0. -1.
         -2   -1    0    0    0  501 -0.00000000000E+00 -0.00000000000E+00 -0.67248832631E+02  0.67248832631E+02  0.00000000000E+00 0.  1.
         23    2    1    2    0    0  0.22364669180E+02  0.44287695515E+02  0.56104644577E+02  0.14572986051E+03  0.12501153027E+03 0.  0.
          5    1    3    3  502    0 -0.92043182633E+01  0.18442335743E+02  0.90018755155E+02  0.92467861996E+02  0.47000000000E+01 0. -1.
         -5    1    3    3    0  502  0.31568987443E+02  0.25845359771E+02 -0.33914110578E+02  0.53261998519E+02  0.47000000000E+01 0. -1.
        -11    1    1    2    0    0  0.27534914141E+02 -0.46871752238E+02  0.57769654272E+02  0.79325062933E+02  0.00000000000E+00 0.  1.
         11    1    1    2    0    0 -0.49899583321E+02  0.25840567236E+01  0.41878414323E+02  0.65195454987E+02  0.00000000000E+00 0. -1.
<mgrwt>
<rscale>  0 0.12632616E+03</rscale>
<asrwt>0</asrwt>
<pdfrwt beam="1">  1        2 0.34307930E-01 0.13449707E+03</pdfrwt>
<pdfrwt beam="2">  1       -2 0.10345974E-01 0.13449707E+03</pdfrwt>
<totfact> 0.89789783E+03</totfact>
</mgrwt>
</event>
<event>
 7    1  0.5400401E-006  0.2625484E+03  0.7546771E-02  0.1107949E+00
          2   -1    0    0  501    0  0.00000000000E+00  0.00000000000E+00  0.39897992356E+03  0.39897992356E+03  0.00000000000E+00 0. -1.
         -2   -1    0    0    0  501 -0.00000000000E+00 -0.00000000000E+00 -0.19053434092E+03  0.19053434092E+03  0.00000000000E+00 0.  1.
         23    2    1    2    0    0  0.15778385261E+03  0.16855671848E+03 -0.53090425949E+01  0.26260209752E+03  0.12499825678E+03 0.  0.
          5    1    3    3  502    0  0.85822638825E+02  0.15013340360E+03  0.37111049654E+02  0.17693186321E+03  0.47000000000E+01 0. -1.
         -5    1    3    3    0  502  0.71961213786E+02  0.18423314879E+02 -0.42420092249E+02  0.85670234312E+02  0.47000000000E+01 0. -1.
        -11    1    1    2    0    0 -0.98275512337E+02 -0.63580504328E+02  0.60218582718E+02  0.13163143454E+03  0.00000000000E+00 0.  1.
         11    1    1    2    0    0 -0.59508340274E+02 -0.10497621415E+03  0.15353604251E+03  0.19528073241E+03  0.00000000000E+00 0. -1.
<mgrwt>
<rscale>  0 0.25866264E+03</rscale>
<asrwt>0</asrwt>
<pdfrwt beam="1">  1        2 0.61381526E-01 0.26254843E+03</pdfrwt>
<pdfrwt beam="2">  1       -2 0.29312976E-01 0.26254843E+03</pdfrwt>
<totfact> 0.85596212E+02</totfact>
</mgrwt>
</event>
<event>
 7    1  0.5400401E-006  0.1273409E+03  0.7546771E-02  0.1243670E+00
          3   -1    0    0  501    0  0.00000000000E+00  0.00000000000E+00  0.10155529203E+03  0.10155529203E+03  0.00000000000E+00 0. -1.
         -3   -1    0    0    0  501 -0.00000000000E+00 -0.00000000000E+00 -0.12712119471E+03  0.12712119471E+03  0.00000000000E+00 0.  1.
         23    2    1    2    0    0  0.22970154269E+02 -0.79205100947E+01 -0.22844139054E+02  0.12937371012E+03  0.12500135885E+03 0.  0.
          5    1    3    3  502    0  0.57083541069E+02  0.38472067899E+02 -0.63516392288E+01  0.69289710565E+02  0.47000000000E+01 0.  1.
         -5    1    3    3    0  502 -0.34113386800E+02 -0.46392577994E+02 -0.16492499825E+02  0.60083999553E+02  0.47000000000E+01 0.  1.
        -11    1    1    2    0    0 -0.48504325915E+02  0.22006943871E+02 -0.28475075453E+02  0.60397062289E+02  0.00000000000E+00 0.  1.
         11    1    1    2    0    0  0.25534171647E+02 -0.14086433776E+02  0.25753311822E+02  0.38905714336E+02  0.00000000000E+00 0. -1.
<mgrwt>
<rscale>  0 0.11965351E+03</rscale>
<asrwt>0</asrwt>
<pdfrwt beam="1">  1        3 0.15623891E-01 0.12734089E+03</pdfrwt>
<pdfrwt beam="2">  1       -3 0.19557107E-01 0.12734089E+03</pdfrwt>
<totfact> 0.18325883E+03</totfact>
</mgrwt>
</event>
<event>
 7    1  0.5400401E-006  0.1584093E+03  0.7546771E-02  0.1198211E+00
         -3   -1    0    0    0  501 -0.00000000000E+00  0.00000000000E+00  0.45958149096E+02  0.45958149096E+02  0.00000000000E+00 0.  1.
          3   -1    0    0  501    0  0.00000000000E+00 -0.00000000000E+00 -0.46762448522E+03  0.46762448522E+03  0.00000000000E+00 0. -1.
         23    2    1    2    0    0  0.26308261179E+02  0.93676714919E+02 -0.20725897244E+03  0.26086356370E+03  0.12500426267E+03 0.  0.
          5    1    3    3  502    0 -0.50150218610E+02  0.29187158665E+02 -0.79667928831E+02  0.98671189016E+02  0.47000000000E+01 0.  1.
         -5    1    3    3    0  502  0.76458479789E+02  0.64489556254E+02 -0.12759104361E+03  0.16219237469E+03  0.47000000000E+01 0.  1.
        -11    1    1    2    0    0 -0.39026284046E+02 -0.54291805752E+00 -0.51225874715E+02  0.64400588870E+02  0.00000000000E+00 0.  1.
         11    1    1    2    0    0  0.12718022867E+02 -0.93133796861E+02 -0.16318148897E+03  0.18831848174E+03  0.00000000000E+00 0. -1.
<mgrwt>
<rscale>  0 0.15185578E+03</rscale>
<asrwt>0</asrwt>
<pdfrwt beam="2">  1        3 0.71942226E-01 0.15840933E+03</pdfrwt>
<pdfrwt beam="1">  1       -3 0.70704847E-02 0.15840933E+03</pdfrwt>
<totfact> 0.58081083E+02</totfact>
</mgrwt>
</event>
<event>
 7    1  0.5400401E-006  0.1414962E+03  0.7546771E-02  0.1221754E+00
          3   -1    0    0  501    0  0.00000000000E+00  0.00000000000E+00  0.38782062114E+03  0.38782062114E+03  0.00000000000E+00 0. -1.
         -3   -1    0    0    0  501 -0.00000000000E+00 -0.00000000000E+00 -0.42190312086E+02  0.42190312086E+02  0.00000000000E+00 0.  1.
         23    2    1    2    0    0  0.44327116727E+02  0.49313227336E+02  0.20851012705E+03  0.25198737261E+03  0.12499790081E+03 0.  0.
          5    1    3    3  502    0  0.40900448838E+02  0.52887440192E+02  0.30141737610E+02  0.73488382697E+02  0.47000000000E+01 0.  1.
         -5    1    3    3    0  502  0.34266678888E+01 -0.35742128563E+01  0.17836838944E+03  0.17849898991E+03  0.47000000000E+01 0.  1.
        -11    1    1    2    0    0  0.16146047213E+02  0.17028686875E+02  0.23363450686E+02  0.33113771233E+02  0.00000000000E+00 0.  1.
         11    1    1    2    0    0 -0.60473163940E+02 -0.66341914211E+02  0.11375673133E+03  0.14490978939E+03  0.00000000000E+00 0. -1.
<mgrwt>
<rscale>  0 0.13391893E+03</rscale>
<asrwt>0</asrwt>
<pdfrwt beam="1">  1        3 0.59664708E-01 0.14149616E+03</pdfrwt>
<pdfrwt beam="2">  1       -3 0.64908175E-02 0.14149616E+03</pdfrwt>
<totfact> 0.97036102E+02</totfact>
</mgrwt>
</event>
<event>
 7    1  0.5400401E-006  0.1536084E+03  0.7546771E-02  0.1204956E+00
         -1   -1    0    0    0  501 -0.00000000000E+00  0.00000000000E+00  0.58503854982E+02  0.58503854982E+02  0.00000000000E+00 0.  1.
          1   -1    0    0  501    0  0.00000000000E+00 -0.00000000000E+00 -0.34105486465E+03  0.34105486465E+03  0.00000000000E+00 0. -1.
         23    2    1    2    0    0 -0.31961723186E+02 -0.83394470195E+02 -0.13023016185E+03  0.20138382592E+03  0.12497744147E+03 0.  0.
          5    1    3    3  502    0 -0.36386074168E+02 -0.11516113444E+03 -0.97146968078E+02  0.15506662016E+03  0.47000000000E+01 0.  1.
         -5    1    3    3    0  502  0.44243509827E+01  0.31766664250E+02 -0.33083193777E+02  0.46317205763E+02  0.47000000000E+01 0.  1.
        -11    1    1    2    0    0  0.42856944658E+01  0.12767823443E+02  0.11457845069E+02  0.17682384063E+02  0.00000000000E+00 0.  1.
         11    1    1    2    0    0  0.27676028720E+02  0.70626646752E+02 -0.16377869289E+03  0.18049250965E+03  0.00000000000E+00 0. -1.
<mgrwt>
<rscale>  0 0.14640936E+03</rscale>
<asrwt>0</asrwt>
<pdfrwt beam="2">  1        1 0.52469978E-01 0.15360843E+03</pdfrwt>
<pdfrwt beam="1">  1       -1 0.90005932E-02 0.15360843E+03</pdfrwt>
<totfact> 0.51596593E+03</totfact>
</mgrwt>
</event>
<event>
 6    1  0.5400401E-006  0.2008378E+03  0.7546771E-02  0.1167819E+00
         -2   -1    0    0    0  501 -0.00000000000E+00  0.00000000000E+00  0.89034153789E+02  0.89034153789E+02  0.00000000000E+00 0.  1.
          2   -1    0    0  501    0  0.00000000000E+00 -0.00000000000E+00 -0.37836098070E+03  0.37836098070E+03  0.00000000000E+00 0. -1.
          5    1    1    2  502    0 -0.14648567526E+02 -0.14510951464E+02 -0.12231700680E+03  0.12413173806E+03  0.47000000000E+01 0. -1.
         -5    1    1    2    0  502 -0.65157977171E+02 -0.29023617723E+02  0.52286168923E+02  0.88565601875E+02  0.47000000000E+01 0.  1.
        -11    1    1    2    0    0  0.21078812054E+02 -0.29224527029E+02 -0.60328599416E+02  0.70270400633E+02  0.00000000000E+00 0. -1.
         11    1    1    2    0    0  0.58727732643E+02  0.72759096217E+02 -0.15896738962E+03  0.18442739391E+03  0.00000000000E+00 0.  1.
<mgrwt>
<rscale>  0 0.17998401E+03</rscale>
<asrwt>0</asrwt>
<pdfrwt beam="2">  1        2 0.58209381E-01 0.20083785E+03</pdfrwt>
<pdfrwt beam="1">  1       -2 0.13697562E-01 0.20083785E+03</pdfrwt>
<totfact> 0.33262766E+03</totfact>
</mgrwt>
</event>
<event>
 7    1  0.5400401E-006  0.1525479E+03  0.7546771E-02  0.1205195E+00
          2   -1    0    0  501    0  0.00000000000E+00  0.00000000000E+00  0.49639455406E+03  0.49639455406E+03  0.00000000000E+00 0. -1.
         -2   -1    0    0    0  501 -0.00000000000E+00 -0.00000000000E+00 -0.41891289568E+02  0.41891289568E+02  0.00000000000E+00 0.  1.
         23    2    1    2    0    0 -0.57344014613E+02 -0.66011034634E+02  0.18643162876E+03  0.24088924003E+03  0.12500032423E+03 0.  0.
          5    1    3    3  502    0 -0.69778521382E+02 -0.31919695105E+02  0.18917133283E+03  0.20419547533E+03  0.47000000000E+01 0.  1.
         -5    1    3    3    0  502  0.12434506769E+02 -0.34091339529E+02 -0.27397040748E+01  0.36693764700E+02  0.47000000000E+01 0.  1.
        -11    1    1    2    0    0  0.45630700484E+02 -0.91011916629E+01  0.14927575079E+03  0.15635933708E+03  0.00000000000E+00 0.  1.
         11    1    1    2    0    0  0.11713314129E+02  0.75112226297E+02  0.11879588494E+03  0.14103726651E+03  0.00000000000E+00 0. -1.
<mgrwt>
<rscale>  0 0.14622125E+03</rscale>
<asrwt>0</asrwt>
<pdfrwt beam="1">  1        2 0.76368389E-01 0.15254794E+03</pdfrwt>
<pdfrwt beam="2">  1       -2 0.64448141E-02 0.15254794E+03</pdfrwt>
<totfact> 0.80081428E+03</totfact>
</mgrwt>
</event>
<event>
 7    1  0.5400401E-006  0.1370658E+03  0.7546771E-02  0.1229221E+00
          2   -1    0    0  501    0  0.00000000000E+00  0.00000000000E+00  0.30747616936E+03  0.30747616936E+03  0.00000000000E+00 0. -1.
         -2   -1    0    0    0  501 -0.00000000000E+00 -0.00000000000E+00 -0.53877674117E+02  0.53877674117E+02  0.00000000000E+00 0.  1.
         23    2    1    2    0    0  0.32768102750E+02  0.45698281672E+02  0.83688057558E+02  0.16059493054E+03  0.12499983692E+03 0.  0.
          5    1    3    3  502    0 -0.13739564944E+02 -0.35309429325E+02  0.45949870585E+02  0.59741208984E+02  0.47000000000E+01 0. -1.
         -5    1    3    3    0  502  0.46507667694E+02  0.81007710997E+02  0.37738186972E+02  0.10085372155E+03  0.47000000000E+01 0. -1.
        -11    1    1    2    0    0 -0.78497740346E+01 -0.65591798593E+02  0.71655551331E+02  0.97459843175E+02  0.00000000000E+00 0.  1.
         11    1    1    2    0    0 -0.24918328716E+02  0.19893516921E+02  0.98254886352E+02  0.10329906976E+03  0.00000000000E+00 0. -1.
<mgrwt>
<rscale>  0 0.12881737E+03</rscale>
<asrwt>0</asrwt>
<pdfrwt beam="1">  1        2 0.47304025E-01 0.13706583E+03</pdfrwt>
<pdfrwt beam="2">  1       -2 0.82888731E-02 0.13706583E+03</pdfrwt>
<totfact> 0.90314174E+03</totfact>
</mgrwt>
</event>
<event>
 7    1  0.5400401E-006  0.1288000E+03  0.7546771E-02  0.1242821E+00
          2   -1    0    0  501    0  0.00000000000E+00  0.00000000000E+00  0.14355005351E+03  0.14355005351E+03  0.00000000000E+00 0. -1.
         -2   -1    0    0    0  501 -0.00000000000E+00 -0.00000000000E+00 -0.11367537882E+03  0.11367537882E+03  0.00000000000E+00 0.  1.
         23    2    1    2    0    0 -0.77467013150E+01 -0.30019267715E+02 -0.42607111095E+02  0.13566430773E+03  0.12501308196E+03 0.  0.
          5    1    3    3  502    0  0.20815913228E+02 -0.72889312404E+02 -0.34054581937E+02  0.83234359835E+02  0.47000000000E+01 0. -1.
         -5    1    3    3    0  502 -0.28562614543E+02  0.42870044689E+02 -0.85525291579E+01  0.52429947894E+02  0.47000000000E+01 0. -1.
        -11    1    1    2    0    0  0.25257617906E+02  0.56055867351E+02  0.29102390747E+02  0.68023206878E+02  0.00000000000E+00 0.  1.
         11    1    1    2    0    0 -0.17510916591E+02 -0.26036599636E+02  0.43379395037E+02  0.53537917724E+02  0.00000000000E+00 0. -1.
<mgrwt>
<rscale>  0 0.12016734E+03</rscale>
<asrwt>0</asrwt>
<pdfrwt beam="1">  1        2 0.22084624E-01 0.12879999E+03</pdfrwt>
<pdfrwt beam="2">  1       -2 0.17488520E-01 0.12879999E+03</pdfrwt>
<totfact> 0.62019317E+03</totfact>
</mgrwt>
</event>
<event>
 7    1  0.5400401E-006  0.1759375E+03  0.7546771E-02  0.1178901E+00
         -1   -1    0    0    0  501 -0.00000000000E+00  0.00000000000E+00  0.15629893752E+03  0.15629893752E+03  0.00000000000E+00 0.  1.
          1   -1    0    0  501    0  0.00000000000E+00 -0.00000000000E+00 -0.17141477892E+03  0.17141477892E+03  0.00000000000E+00 0. -1.
         23    2    1    2    0    0  0.12352445124E+03 -0.83765680997E+01  0.82883478194E+01  0.17613265158E+03  0.12500222915E+03 0.  0.
          5    1    3    3  502    0  0.18738268977E+02 -0.23350860918E+02  0.53061252827E+02  0.61106235209E+02  0.47000000000E+01 0.  1.
         -5    1    3    3    0  502  0.10478618227E+03  0.14974292818E+02 -0.44772905008E+02  0.11502641637E+03  0.47000000000E+01 0.  1.
        -11    1    1    2    0    0 -0.11013833454E+03  0.48797523693E+01  0.14532679730E+02  0.11120010566E+03  0.00000000000E+00 0.  1.
         11    1    1    2    0    0 -0.13386116701E+02  0.34968157304E+01 -0.37936868947E+02  0.40380959202E+02  0.00000000000E+00 0. -1.
<mgrwt>
<rscale>  0 0.16899360E+03</rscale>
<asrwt>0</asrwt>
<pdfrwt beam="2">  1        1 0.26371504E-01 0.17593753E+03</pdfrwt>
<pdfrwt beam="1">  1       -1 0.24045990E-01 0.17593753E+03</pdfrwt>
<totfact> 0.26028900E+03</totfact>
</mgrwt>
</event>
<event>
 7    1  0.5400401E-006  0.1535705E+03  0.7546771E-02  0.1205198E+00
          2   -1    0    0  501    0  0.00000000000E+00  0.00000000000E+00  0.17788862789E+03  0.17788862789E+03  0.00000000000E+00 0. -1.
         -2   -1    0    0    0  501 -0.00000000000E+00 -0.00000000000E+00 -0.11853384282E+03  0.11853384282E+03  0.00000000000E+00 0.  1.
         23    2    1    2    0    0  0.19370310533E+02  0.87086836695E+02 -0.72030225940E+01  0.15373929006E+03  0.12499823886E+03 0.  0.
          5    1    3    3  502    0 -0.14378197364E+02  0.10006410728E+03 -0.35857080999E+02  0.10736562943E+03  0.47000000000E+01 0. -1.
         -5    1    3    3    0  502  0.33748507897E+02 -0.12977270587E+02  0.28654058406E+02  0.46373660630E+02  0.47000000000E+01 0. -1.
        -11    1    1    2    0    0  0.49879304611E+01 -0.87609469919E+02  0.19798357625E+02  0.89957065506E+02  0.00000000000E+00 0.  1.
         11    1    1    2    0    0 -0.24358240994E+02  0.52263322465E+00  0.46759450041E+02  0.52726115142E+02  0.00000000000E+00 0. -1.
<mgrwt>
<rscale>  0 0.14621866E+03</rscale>
<asrwt>0</asrwt>
<pdfrwt beam="1">  1        2 0.27367481E-01 0.15357046E+03</pdfrwt>
<pdfrwt beam="2">  1       -2 0.18235976E-01 0.15357046E+03</pdfrwt>
<totfact> 0.46130852E+03</totfact>
</mgrwt>
</event>
<event>
 7    1  0.5400401E-006  0.1270920E+03  0.7546771E-02  0.1245828E+00
         -2   -1    0    0    0  501 -0.00000000000E+00  0.00000000000E+00  0.25422095954E+02  0.25422095954E+02  0.00000000000E+00 0.  1.
          2   -1    0    0  501    0  0.00000000000E+00 -0.00000000000E+00 -0.48949641176E+03  0.48949641176E+03  0.00000000000E+00 0. -1.
         23    2    1    2    0    0  0.22710492856E+02 -0.34390658337E+01 -0.28021876554E+03  0.30769291796E+03  0.12499912616E+03 0.  0.
          5    1    3    3  502    0 -0.21536101809E+02 -0.48135575303E+02 -0.19254777106E+03  0.19969369402E+03  0.47000000000E+01 0.  1.
         -5    1    3    3    0  502  0.44246594665E+02  0.44696509469E+02 -0.87670994481E+02  0.10799922394E+03  0.47000000000E+01 0.  1.
        -11    1    1    2    0    0 -0.17899526107E+02 -0.44216942718E+02 -0.92039876439E+02  0.10366711105E+03  0.00000000000E+00 0.  1.
         11    1    1    2    0    0 -0.48109667492E+01  0.47656008552E+02 -0.91815673831E+02  0.10355847871E+03  0.00000000000E+00 0. -1.
<mgrwt>
<rscale>  0 0.11835986E+03</rscale>
<asrwt>0</asrwt>
<pdfrwt beam="2">  1        2 0.75307141E-01 0.12709200E+03</pdfrwt>
<pdfrwt beam="1">  1       -2 0.39110917E-02 0.12709200E+03</pdfrwt>
<totfact> 0.17004026E+04</totfact>
</mgrwt>
</event>
<event>
 7    1  0.5400401E-006  0.2740450E+03  0.7546771E-02  0.1100881E+00
          1   -1    0    0  501    0  0.00000000000E+00  0.00000000000E+00  0.47187596255E+03  0.47187596255E+03  0.00000000000E+00 0. -1.
         -1   -1    0    0    0  501 -0.00000000000E+00 -0.00000000000E+00 -0.15524810495E+03  0.15524810495E+03  0.00000000000E+00 0.  1.
         23    2    1    2    0    0 -0.24386832169E+03  0.16924461520E+01  0.11412291744E+03  0.29685807778E+03  0.12500422137E+03 0.  0.
          5    1    3    3  502    0 -0.75541213267E+02  0.11423239066E+02  0.10230525291E+03  0.12777096723E+03  0.47000000000E+01 0. -1.
         -5    1    3    3    0  502 -0.16832710842E+03 -0.97307929142E+01  0.11817664531E+02  0.16908711056E+03  0.47000000000E+01 0. -1.
        -11    1    1    2    0    0  0.18189620521E+03 -0.47258380709E+01  0.19669145082E+03  0.26794792375E+03  0.00000000000E+00 0. -1.
         11    1    1    2    0    0  0.61972116486E+02  0.30333919188E+01  0.58134893273E+01  0.62318065972E+02  0.00000000000E+00 0.  1.
<mgrwt>
<rscale>  0 0.27069724E+03</rscale>
<asrwt>0</asrwt>
<pdfrwt beam="1">  1        1 0.72596301E-01 0.27404503E+03</pdfrwt>
<pdfrwt beam="2">  1       -1 0.23884324E-01 0.27404503E+03</pdfrwt>
<totfact> 0.73568454E+02</totfact>
</mgrwt>
</event>
<event>
 7    1  0.5400401E-006  0.1344380E+03  0.7546771E-02  0.1233940E+00
         -1   -1    0    0    0  501 -0.00000000000E+00  0.00000000000E+00  0.57170509661E+02  0.57170509661E+02  0.00000000000E+00 0.  1.
          1   -1    0    0  501    0  0.00000000000E+00 -0.00000000000E+00 -0.25260049492E+03  0.25260049492E+03  0.00000000000E+00 0. -1.
         23    2    1    2    0    0  0.29210669428E+01  0.44626419762E+02 -0.85923312391E+02  0.15955055096E+03  0.12678135796E+03 0.  0.
          5    1    3    3  502    0 -0.53824551317E+02  0.42854676314E+02 -0.74370924818E+02  0.10142351830E+03  0.47000000000E+01 0. -1.
         -5    1    3    3    0  502  0.56745618260E+02  0.17717434484E+01 -0.11552387573E+02  0.58127032654E+02  0.47000000000E+01 0.  1.
        -11    1    1    2    0    0 -0.44128761324E+02 -0.30608048429E+01 -0.44454964603E+02  0.62713315812E+02  0.00000000000E+00 0. -1.
         11    1    1    2    0    0  0.41207694382E+02 -0.41565614919E+02 -0.65051708262E+02  0.87507137810E+02  0.00000000000E+00 0.  1.
<mgrwt>
<rscale>  0 0.12572561E+03</rscale>
<asrwt>0</asrwt>
<pdfrwt beam="2">  1        1 0.38861615E-01 0.13443795E+03</pdfrwt>
<pdfrwt beam="1">  1       -1 0.87954630E-02 0.13443795E+03</pdfrwt>
<totfact> 0.76911232E+03</totfact>
</mgrwt>
</event>
<event>
 7    1  0.5400401E-006  0.1281715E+03  0.7546771E-02  0.1244786E+00
          2   -1    0    0  501    0  0.00000000000E+00  0.00000000000E+00  0.13996509540E+03  0.13996509540E+03  0.00000000000E+00 0. -1.
         -2   -1    0    0    0  501 -0.00000000000E+00 -0.00000000000E+00 -0.90937156124E+02  0.90937156124E+02  0.00000000000E+00 0.  1.
         23    2    1    2    0    0  0.28210095063E+02 -0.25748576169E+01  0.11847877912E+02  0.12871794453E+03  0.12500199069E+03 0.  0.
          5    1    3    3  502    0  0.73652655731E+02  0.53680395153E+01  0.28717262483E+02  0.79374433598E+02  0.47000000000E+01 0.  1.
         -5    1    3    3    0  502 -0.45442560667E+02 -0.79428971322E+01 -0.16869384571E+02  0.49343510928E+02  0.47000000000E+01 0.  1.
        -11    1    1    2    0    0  0.31919411770E+02  0.95916340944E+01  0.52440215596E+01  0.33739413961E+02  0.00000000000E+00 0. -1.
         11    1    1    2    0    0 -0.60129506833E+02 -0.70167764776E+01  0.31936039800E+02  0.68444893033E+02  0.00000000000E+00 0.  1.
<mgrwt>
<rscale>  0 0.11898174E+03</rscale>
<asrwt>0</asrwt>
<pdfrwt beam="1">  1        2 0.21533092E-01 0.12817151E+03</pdfrwt>
<pdfrwt beam="2">  1       -2 0.13990332E-01 0.12817151E+03</pdfrwt>
<totfact> 0.91952236E+03</totfact>
</mgrwt>
</event>
<event>
 7    1  0.5400401E-006  0.1434967E+03  0.7546771E-02  0.1218675E+00
         -1   -1    0    0    0  501 -0.00000000000E+00  0.00000000000E+00  0.10299620843E+04  0.10299620843E+04  0.00000000000E+00 0.  1.
          1   -1    0    0  501    0  0.00000000000E+00 -0.00000000000E+00 -0.17812912222E+02  0.17812912222E+02  0.00000000000E+00 0. -1.
         23    2    1    2    0    0 -0.48810513633E+02 -0.50823619430E+02  0.70394030727E+03  0.71841718595E+03  0.12500316125E+03 0.  0.
          5    1    3    3  502    0 -0.82199161592E+02 -0.46748695075E+02  0.34127407151E+03  0.35416412092E+03  0.47000000000E+01 0. -1.
         -5    1    3    3    0  502  0.33388647959E+02 -0.40749243549E+01  0.36266623576E+03  0.36425306503E+03  0.47000000000E+01 0. -1.
        -11    1    1    2    0    0  0.15734335148E+02 -0.17532299628E+01  0.92508194969E+00  0.15858716671E+02  0.00000000000E+00 0. -1.
         11    1    1    2    0    0  0.33076178485E+02  0.52576849392E+02  0.30728378290E+03  0.31349909395E+03  0.00000000000E+00 0.  1.
<mgrwt>
<rscale>  0 0.13610002E+03</rscale>
<asrwt>0</asrwt>
<pdfrwt beam="2">  1        1 0.27404488E-02 0.14349668E+03</pdfrwt>
<pdfrwt beam="1">  1       -1 0.15845566E+00 0.14349668E+03</pdfrwt>
<totfact> 0.12395431E+03</totfact>
</mgrwt>
</event>
<event>
 7    1  0.5400401E-006  0.1820162E+03  0.7546771E-02  0.1171203E+00
          1   -1    0    0  501    0  0.00000000000E+00  0.00000000000E+00  0.98334947717E+03  0.98334947717E+03  0.00000000000E+00 0. -1.
         -1   -1    0    0    0  501 -0.00000000000E+00 -0.00000000000E+00 -0.29987606540E+02  0.29987606540E+02  0.00000000000E+00 0.  1.
         23    2    1    2    0    0  0.40900489907E+02 -0.12583920563E+03  0.48198478996E+03  0.51520793843E+03  0.12498610451E+03 0.  0.
          5    1    3    3  502    0  0.37288631390E+02 -0.65559610145E+02  0.42624976701E+03  0.43289659088E+03  0.47000000000E+01 0.  1.
         -5    1    3    3    0  502  0.36118585174E+01 -0.60279595482E+02  0.55735022948E+02  0.82311347556E+02  0.47000000000E+01 0.  1.
        -11    1    1    2    0    0 -0.69938451344E+02  0.92771438040E+02  0.31777966990E+03  0.33835165922E+03  0.00000000000E+00 0. -1.
         11    1    1    2    0    0  0.29037961437E+02  0.33067767588E+02  0.15359741076E+03  0.15977748605E+03  0.00000000000E+00 0.  1.
<mgrwt>
<rscale>  0 0.17653099E+03</rscale>
<asrwt>0</asrwt>
<pdfrwt beam="1">  1        1 0.15128451E+00 0.18201616E+03</pdfrwt>
<pdfrwt beam="2">  1       -1 0.46134787E-02 0.18201616E+03</pdfrwt>
<totfact> 0.32392658E+03</totfact>
</mgrwt>
</event>
<event>
 7    1  0.5400401E-006  0.1285573E+03  0.7546771E-02  0.1244509E+00
         -2   -1    0    0    0  501 -0.00000000000E+00  0.00000000000E+00  0.27171062824E+02  0.27171062824E+02  0.00000000000E+00 0.  1.
          2   -1    0    0  501    0  0.00000000000E+00 -0.00000000000E+00 -0.47444729118E+03  0.47444729118E+03  0.00000000000E+00 0. -1.
         23    2    1    2    0    0  0.28859457321E+02  0.83085146573E+01 -0.21189442010E+03  0.24784313768E+03  0.12500030373E+03 0.  0.
          5    1    3    3  502    0 -0.44305131589E+02  0.80350231142E+00 -0.13119007725E+03  0.13855149465E+03  0.47000000000E+01 0. -1.
         -5    1    3    3    0  502  0.73164588910E+02  0.75050123458E+01 -0.80704342843E+02  0.10929164302E+03  0.47000000000E+01 0. -1.
        -11    1    1    2    0    0  0.17749770049E+02  0.29279618975E+02 -0.70928267188E+02  0.78760202580E+02  0.00000000000E+00 0.  1.
         11    1    1    2    0    0 -0.46609227370E+02 -0.37588133632E+02 -0.16445354107E+03  0.17501501375E+03  0.00000000000E+00 0. -1.
<mgrwt>
<rscale>  0 0.11914788E+03</rscale>
<asrwt>0</asrwt>
<pdfrwt beam="2">  1        2 0.72991887E-01 0.12855729E+03</pdfrwt>
<pdfrwt beam="1">  1       -2 0.41801638E-02 0.12855729E+03</pdfrwt>
<totfact> 0.15953520E+04</totfact>
</mgrwt>
</event>
<event>
 6    1  0.5400401E-006  0.1478540E+03  0.7546771E-02  0.1220095E+00
         -1   -1    0    0    0  501 -0.00000000000E+00  0.00000000000E+00  0.64936518822E+02  0.64936518822E+02  0.00000000000E+00 0.  1.
          1   -1    0    0  501    0  0.00000000000E+00 -0.00000000000E+00 -0.25627297282E+03  0.25627297282E+03  0.00000000000E+00 0. -1.
          5    1    1    2  502    0 -0.37006707165E+02 -0.39398937003E+02 -0.80646531627E+02  0.97199411910E+02  0.47000000000E+01 0. -1.
         -5    1    1    2    0  502  0.68036849917E+02  0.40946051640E+01  0.57105616857E+01  0.68560041225E+02  0.47000000000E+01 0.  1.
        -11    1    1    2    0    0 -0.33243215397E+02  0.63909810659E+02 -0.67315429587E+02  0.98594839261E+02  0.00000000000E+00 0. -1.
         11    1    1    2    0    0  0.22130726445E+01 -0.28605478820E+02 -0.49085054472E+02  0.56855199249E+02  0.00000000000E+00 0.  1.
<mgrwt>
<rscale>  0 0.13508839E+03</rscale>
<asrwt>0</asrwt>
<pdfrwt beam="2">  1        1 0.39426611E-01 0.14785397E+03</pdfrwt>
<pdfrwt beam="1">  1       -1 0.99902338E-02 0.14785397E+03</pdfrwt>
<totfact> 0.62621714E+03</totfact>
</mgrwt>
</event>
<event>
 7    1  0.5400401E-006  0.1419146E+03  0.7546771E-02  0.1221220E+00
          1   -1    0    0  501    0  0.00000000000E+00  0.00000000000E+00  0.53092549948E+03  0.53092549948E+03  0.00000000000E+00 0. -1.
         -1   -1    0    0    0  501 -0.00000000000E+00 -0.00000000000E+00 -0.31660364321E+02  0.31660364321E+02  0.00000000000E+00 0.  1.
         23    2    1    2    0    0 -0.64535848321E+02  0.17859247982E+02  0.22997009408E+03  0.27023324684E+03  0.12512367911E+03 0.  0.
          5    1    3    3  502    0  0.21955148707E+02  0.44729104957E+02  0.98959309456E+02  0.11089524928E+03  0.47000000000E+01 0.  1.
         -5    1    3    3    0  502 -0.86490997028E+02 -0.26869856975E+02  0.13101078462E+03  0.15933799756E+03  0.47000000000E+01 0.  1.
        -11    1    1    2    0    0  0.88209258644E+01 -0.32457595503E+02  0.26501019073E+02  0.42820652153E+02  0.00000000000E+00 0.  1.
         11    1    1    2    0    0  0.55714922457E+02  0.14598347521E+02  0.24279402201E+03  0.24953196480E+03  0.00000000000E+00 0. -1.
<mgrwt>
<rscale>  0 0.13429353E+03</rscale>
<asrwt>0</asrwt>
<pdfrwt beam="1">  1        1 0.81680840E-01 0.14191463E+03</pdfrwt>
<pdfrwt beam="2">  1       -1 0.48708257E-02 0.14191463E+03</pdfrwt>
<totfact> 0.73258009E+03</totfact>
</mgrwt>
</event>
<event>
 7    1  0.5400401E-006  0.1300263E+03  0.7546771E-02  0.1241875E+00
          2   -1    0    0  501    0  0.00000000000E+00  0.00000000000E+00  0.16335146951E+03  0.16335146951E+03  0.00000000000E+00 0. -1.
         -2   -1    0    0    0  501 -0.00000000000E+00 -0.00000000000E+00 -0.94538116436E+02  0.94538116436E+02  0.00000000000E+00 0.  1.
         23    2    1    2    0    0  0.11459756872E+02  0.33949951713E+02 -0.13745705078E+02  0.13075081799E+03  0.12499162671E+03 0.  0.
          5    1    3    3  502    0 -0.48851359175E+01 -0.45206247600E+02 -0.19253661297E+02  0.49601036767E+02  0.47000000000E+01 0.  1.
         -5    1    3    3    0  502  0.16344892790E+02  0.79156199314E+02  0.55079562186E+01  0.81149781218E+02  0.47000000000E+01 0.  1.
        -11    1    1    2    0    0 -0.94546287695E+01 -0.56694106869E+02  0.20517685411E+02  0.61029395978E+02  0.00000000000E+00 0.  1.
         11    1    1    2    0    0 -0.20051281028E+01  0.22744155155E+02  0.62041372740E+02  0.66109371983E+02  0.00000000000E+00 0. -1.
<mgrwt>
<rscale>  0 0.12074377E+03</rscale>
<asrwt>0</asrwt>
<pdfrwt beam="1">  1        2 0.25130995E-01 0.13002627E+03</pdfrwt>
<pdfrwt beam="2">  1       -2 0.14544326E-01 0.13002627E+03</pdfrwt>
<totfact> 0.72809706E+03</totfact>
</mgrwt>
</event>
<event>
 7    1  0.5400401E-006  0.1269768E+03  0.7546771E-02  0.1246986E+00
          2   -1    0    0  501    0  0.00000000000E+00  0.00000000000E+00  0.75334822946E+03  0.75334822946E+03  0.00000000000E+00 0. -1.
         -2   -1    0    0    0  501 -0.00000000000E+00 -0.00000000000E+00 -0.16154966707E+02  0.16154966707E+02  0.00000000000E+00 0.  1.
         23    2    1    2    0    0  0.49025708078E+01  0.21741084003E+02  0.42702533709E+03  0.44550391064E+03  0.12500554367E+03 0.  0.
          5    1    3    3  502    0 -0.52713073418E+02  0.31855915319E+02  0.28888072671E+03  0.29541095395E+03  0.47000000000E+01 0.  1.
         -5    1    3    3    0  502  0.57615644226E+02 -0.10114831316E+02  0.13814461038E+03  0.15009295669E+03  0.47000000000E+01 0.  1.
        -11    1    1    2    0    0  0.53266646078E+01  0.35302129085E+02  0.11891354746E+03  0.12415734148E+03  0.00000000000E+00 0.  1.
         11    1    1    2    0    0 -0.10229235416E+02 -0.57043213088E+02  0.19125437821E+03  0.19984194404E+03  0.00000000000E+00 0. -1.
<mgrwt>
<rscale>  0 0.11767298E+03</rscale>
<asrwt>0</asrwt>
<pdfrwt beam="1">  1        2 0.11589970E+00 0.12697675E+03</pdfrwt>
<pdfrwt beam="2">  1       -2 0.24853801E-02 0.12697675E+03</pdfrwt>
<totfact> 0.20224328E+04</totfact>
</mgrwt>
</event>
<event>
 7    1  0.5400401E-006  0.2760145E+03  0.7546771E-02  0.1099860E+00
         -2   -1    0    0    0  501 -0.00000000000E+00  0.00000000000E+00  0.18045609899E+03  0.18045609899E+03  0.00000000000E+00 0.  1.
          2   -1    0    0  501    0  0.00000000000E+00 -0.00000000000E+00 -0.43316645837E+03  0.43316645837E+03  0.00000000000E+00 0. -1.
         23    2    1    2    0    0 -0.24557645631E+03  0.15770573190E+02 -0.46191698658E+02  0.27985293673E+03  0.12500994480E+03 0.  0.
          5    1    3    3  502    0 -0.23624543112E+03  0.27957366749E+02 -0.76065341330E+01  0.23806189834E+03  0.47000000000E+01 0.  1.
         -5    1    3    3    0  502 -0.93310251920E+01 -0.12186793558E+02 -0.38585164525E+02  0.41791038391E+02  0.47000000000E+01 0.  1.
        -11    1    1    2    0    0  0.97880293868E+02  0.29637564194E+02 -0.50032840004E+02  0.11385175544E+03  0.00000000000E+00 0.  1.
         11    1    1    2    0    0  0.14769616244E+03 -0.45408137384E+02 -0.15648582072E+03  0.21991786518E+03  0.00000000000E+00 0. -1.
<mgrwt>
<rscale>  0 0.27249575E+03</rscale>
<asrwt>0</asrwt>
<pdfrwt beam="2">  1        2 0.66640994E-01 0.27601448E+03</pdfrwt>
<pdfrwt beam="1">  1       -2 0.27762477E-01 0.27601448E+03</pdfrwt>
<totfact> 0.86307967E+02</totfact>
</mgrwt>
</event>
<event>
 7    1  0.5400401E-006  0.1629216E+03  0.7546771E-02  0.1193134E+00
         -3   -1    0    0    0  501 -0.00000000000E+00  0.00000000000E+00  0.24461036225E+03  0.24461036225E+03  0.00000000000E+00 0.  1.
          3   -1    0    0  501    0  0.00000000000E+00 -0.00000000000E+00 -0.92492782152E+02  0.92492782152E+02  0.00000000000E+00 0. -1.
         23    2    1    2    0    0  0.82755600107E+01  0.10416010531E+03  0.72886663667E+02  0.17848226176E+03  0.12500255834E+03 0.  0.
          5    1    3    3  502    0  0.20682412604E+02 -0.24584436359E+02  0.68554842647E+01  0.33185002135E+02  0.47000000000E+01 0.  1.
         -5    1    3    3    0  502 -0.12406852593E+02  0.12874454167E+03  0.66031179403E+02  0.14529725963E+03  0.47000000000E+01 0.  1.
        -11    1    1    2    0    0 -0.20382284901E+02 -0.41826077331E+02  0.82847883421E+02  0.95019103711E+02  0.00000000000E+00 0.  1.
         11    1    1    2    0    0  0.12106724890E+02 -0.62334027982E+02 -0.36169669953E+01  0.63601778924E+02  0.00000000000E+00 0. -1.
<mgrwt>
<rscale>  0 0.15613240E+03</rscale>
<asrwt>0</asrwt>
<pdfrwt beam="2">  1        3 0.14229659E-01 0.16292161E+03</pdfrwt>
<pdfrwt beam="1">  1       -3 0.37632363E-01 0.16292161E+03</pdfrwt>
<totfact> 0.67474145E+02</totfact>
</mgrwt>
</event>
<event>
 7    1  0.5400401E-006  0.1261652E+03  0.7546771E-02  0.1260887E+00
         -1   -1    0    0    0  501 -0.00000000000E+00  0.00000000000E+00  0.22926886947E+02  0.22926886947E+02  0.00000000000E+00 0.  1.
          1   -1    0    0  501    0  0.00000000000E+00 -0.00000000000E+00 -0.44573892135E+03  0.44573892135E+03  0.00000000000E+00 0. -1.
         23    2    1    2    0    0  0.21740731310E+01  0.17019505810E+02 -0.22434250191E+03  0.25738532748E+03  0.12499303367E+03 0.  0.
          5    1    3    3  502    0  0.94761042858E+01 -0.44016997455E+02 -0.32091352778E+02  0.55490877994E+02  0.47000000000E+01 0. -1.
         -5    1    3    3    0  502 -0.73020311548E+01  0.61036503266E+02 -0.19225114913E+03  0.20189444949E+03  0.47000000000E+01 0. -1.
        -11    1    1    2    0    0  0.39665757880E+01  0.26878953395E+02 -0.59428727520E+02  0.65345126167E+02  0.00000000000E+00 0.  1.
         11    1    1    2    0    0 -0.61406489190E+01 -0.43898459205E+02 -0.13904080497E+03  0.14593535465E+03  0.00000000000E+00 0. -1.
<mgrwt>
<rscale>  0 0.10982902E+03</rscale>
<asrwt>0</asrwt>
<pdfrwt beam="2">  1        1 0.68575215E-01 0.12616516E+03</pdfrwt>
<pdfrwt beam="1">  1       -1 0.35272136E-02 0.12616516E+03</pdfrwt>
<totfact> 0.14645783E+04</totfact>
</mgrwt>
</event>
<event>
 7    1  0.5400401E-006  0.1329183E+03  0.7546771E-02  0.1236173E+00
         -3   -1    0    0    0  501 -0.00000000000E+00  0.00000000000E+00  0.60899682405E+02  0.60899682405E+02  0.00000000000E+00 0.  1.
          3   -1    0    0  501    0  0.00000000000E+00 -0.00000000000E+00 -0.24333641951E+03  0.24333641951E+03  0.00000000000E+00 0. -1.
         23    2    1    2    0    0  0.41893044682E+02  0.16991560174E+02 -0.62077471398E+02  0.14670000945E+03  0.12499415990E+03 0.  0.
          5    1    3    3  502    0 -0.25590207945E+02 -0.17825041659E+02 -0.63176599310E+02  0.70611355696E+02  0.47000000000E+01 0. -1.
         -5    1    3    3    0  502  0.67483252627E+02  0.34816601833E+02  0.10991279123E+01  0.76088653756E+02  0.47000000000E+01 0. -1.
        -11    1    1    2    0    0 -0.22752599367E+02 -0.37759281588E+02 -0.12152015836E+03  0.12926945893E+03  0.00000000000E+00 0. -1.
         11    1    1    2    0    0 -0.19140445315E+02  0.20767721414E+02  0.11608926521E+01  0.28266633534E+02  0.00000000000E+00 0.  1.
<mgrwt>
<rscale>  0 0.12429620E+03</rscale>
<asrwt>0</asrwt>
<pdfrwt beam="2">  1        3 0.37436373E-01 0.13291832E+03</pdfrwt>
<pdfrwt beam="1">  1       -3 0.93691818E-02 0.13291832E+03</pdfrwt>
<totfact> 0.13309795E+03</totfact>
</mgrwt>
</event>
<event>
 7    1  0.5400401E-006  0.1326634E+03  0.7546771E-02  0.1235095E+00
         -3   -1    0    0    0  501 -0.00000000000E+00  0.00000000000E+00  0.14531971885E+03  0.14531971885E+03  0.00000000000E+00 0.  1.
          3   -1    0    0  501    0  0.00000000000E+00 -0.00000000000E+00 -0.10529316244E+03  0.10529316244E+03  0.00000000000E+00 0. -1.
         23    2    1    2    0    0 -0.20256703604E+02  0.39543487663E+02  0.57614563691E+02  0.14463403660E+03  0.12500218053E+03 0.  0.
          5    1    3    3  502    0 -0.62878947779E+02  0.45411464402E+02  0.69722998045E+01  0.78017088752E+02  0.47000000000E+01 0.  1.
         -5    1    3    3    0  502  0.42622244174E+02 -0.58679767384E+01  0.50642263887E+02  0.66616947851E+02  0.47000000000E+01 0.  1.
        -11    1    1    2    0    0  0.32410994337E+02 -0.96745990889E+01 -0.49929492404E+02  0.60307749362E+02  0.00000000000E+00 0. -1.
         11    1    1    2    0    0 -0.12154290733E+02 -0.29868888574E+02  0.32341485124E+02  0.45671095322E+02  0.00000000000E+00 0.  1.
<mgrwt>
<rscale>  0 0.12498327E+03</rscale>
<asrwt>0</asrwt>
<pdfrwt beam="2">  1        3 0.16198948E-01 0.13266336E+03</pdfrwt>
<pdfrwt beam="1">  1       -3 0.22356880E-01 0.13266336E+03</pdfrwt>
<totfact> 0.13691916E+03</totfact>
</mgrwt>
</event>
<event>
 7    1  0.5400401E-006  0.1757211E+03  0.7546771E-02  0.1177662E+00
         -2   -1    0    0    0  501 -0.00000000000E+00  0.00000000000E+00  0.63439746118E+03  0.63439746118E+03  0.00000000000E+00 0.  1.
          2   -1    0    0  501    0  0.00000000000E+00 -0.00000000000E+00 -0.56988447090E+02  0.56988447090E+02  0.00000000000E+00 0. -1.
         23    2    1    2    0    0  0.10244190071E+03 -0.68981547844E+02  0.47370002442E+03  0.50524215548E+03  0.12500050232E+03 0.  0.
          5    1    3    3  502    0  0.70845549964E+02 -0.10030556340E+03  0.26947745563E+03  0.29617644588E+03  0.47000000000E+01 0.  1.
         -5    1    3    3    0  502  0.31596350749E+02  0.31324015561E+02  0.20422256879E+03  0.20906570961E+03  0.47000000000E+01 0.  1.
        -11    1    1    2    0    0 -0.44722788942E+02 -0.44249800438E+01  0.76766037547E+02  0.88953543043E+02  0.00000000000E+00 0.  1.
         11    1    1    2    0    0 -0.57719111771E+02  0.73406527888E+02  0.26942952123E+02  0.97190209740E+02  0.00000000000E+00 0. -1.
<mgrwt>
<rscale>  0 0.17017823E+03</rscale>
<asrwt>0</asrwt>
<pdfrwt beam="2">  1        2 0.87674539E-02 0.17572115E+03</pdfrwt>
<pdfrwt beam="1">  1       -2 0.97599604E-01 0.17572115E+03</pdfrwt>
<totfact> 0.67864709E+02</totfact>
</mgrwt>
</event>
<event>
 7    1  0.5400401E-006  0.1444266E+03  0.7546771E-02  0.1217530E+00
         -1   -1    0    0    0  501 -0.00000000000E+00  0.00000000000E+00  0.52417928552E+03  0.52417928552E+03  0.00000000000E+00 0.  1.
          1   -1    0    0  501    0  0.00000000000E+00 -0.00000000000E+00 -0.58121536763E+02  0.58121536763E+02  0.00000000000E+00 0. -1.
         23    2    1    2    0    0  0.78259381887E+01  0.71921979669E+02  0.43953085222E+03  0.46265149861E+03  0.12500009059E+03 0.  0.
          5    1    3    3  502    0 -0.50222676410E+02 -0.98909255568E+00  0.13375513941E+03  0.14295391862E+03  0.47000000000E+01 0.  1.
         -5    1    3    3    0  502  0.58048614598E+02  0.72911072225E+02  0.30577571281E+03  0.31969757999E+03  0.47000000000E+01 0.  1.
        -11    1    1    2    0    0 -0.34729683451E+01 -0.51384426909E+02 -0.29824686978E+02  0.59514139422E+02  0.00000000000E+00 0. -1.
         11    1    1    2    0    0 -0.43529698436E+01 -0.20537552761E+02  0.56351583516E+02  0.60135184249E+02  0.00000000000E+00 0.  1.
<mgrwt>
<rscale>  0 0.13692310E+03</rscale>
<asrwt>0</asrwt>
<pdfrwt beam="2">  1        1 0.89417752E-02 0.14442659E+03</pdfrwt>
<pdfrwt beam="1">  1       -1 0.80642964E-01 0.14442659E+03</pdfrwt>
<totfact> 0.11787948E+03</totfact>
</mgrwt>
</event>
<event>
 6    1  0.5400401E-006  0.1775636E+03  0.7546771E-02  0.1189134E+00
          3   -1    0    0  501    0  0.00000000000E+00  0.00000000000E+00  0.76165860401E+02  0.76165860401E+02  0.00000000000E+00 0. -1.
         -3   -1    0    0    0  501 -0.00000000000E+00 -0.00000000000E+00 -0.28274513274E+03  0.28274513274E+03  0.00000000000E+00 0.  1.
          5    1    1    2  502    0  0.18337348970E+02  0.89292369869E+01  0.37284694922E+02  0.42757784272E+02  0.47000000000E+01 0. -1.
         -5    1    1    2    0  502 -0.61964651385E+02 -0.15354471034E+02 -0.16211190809E+03  0.17429210696E+03  0.47000000000E+01 0.  1.
        -11    1    1    2    0    0  0.63820627331E+02  0.18991968050E+02 -0.11346108708E+02  0.67546291580E+02  0.00000000000E+00 0. -1.
         11    1    1    2    0    0 -0.20193324916E+02 -0.12566734003E+02 -0.70405950466E+02  0.74314810339E+02  0.00000000000E+00 0.  1.
<mgrwt>
<rscale>  0 0.15961366E+03</rscale>
<asrwt>0</asrwt>
<pdfrwt beam="1">  1        3 0.11717825E-01 0.17756357E+03</pdfrwt>
<pdfrwt beam="2">  1       -3 0.43499251E-01 0.17756357E+03</pdfrwt>
<totfact> 0.71650760E+02</totfact>
</mgrwt>
</event>
<event>
 7    1  0.5400401E-006  0.1350258E+03  0.7546771E-02  0.1232444E+00
         -2   -1    0    0    0  501 -0.00000000000E+00  0.00000000000E+00  0.32806415679E+02  0.32806415679E+02  0.00000000000E+00 0.  1.
          2   -1    0    0  501    0  0.00000000000E+00 -0.00000000000E+00 -0.46784935119E+03  0.46784935119E+03  0.00000000000E+00 0. -1.
         23    2    1    2    0    0 -0.17154957971E+02  0.48091540249E+02 -0.18033678048E+03  0.22528495981E+03  0.12499947959E+03 0.  0.
          5    1    3    3  502    0  0.28089568596E+02 -0.24961128894E+02 -0.18857620339E+02  0.42305811238E+02  0.47000000000E+01 0.  1.
         -5    1    3    3    0  502 -0.45244526568E+02  0.73052669143E+02 -0.16147916014E+03  0.18297914858E+03  0.47000000000E+01 0.  1.
        -11    1    1    2    0    0 -0.27672118171E+02 -0.16139508784E+01 -0.14858068583E+03  0.15114420651E+03  0.00000000000E+00 0. -1.
         11    1    1    2    0    0  0.44827076143E+02 -0.46477589370E+02 -0.10612546920E+03  0.12422660054E+03  0.00000000000E+00 0.  1.
<mgrwt>
<rscale>  0 0.12669468E+03</rscale>
<asrwt>0</asrwt>
<pdfrwt beam="2">  1        2 0.71976813E-01 0.13502577E+03</pdfrwt>
<pdfrwt beam="1">  1       -2 0.50471416E-02 0.13502577E+03</pdfrwt>
<totfact> 0.12270077E+04</totfact>
</mgrwt>
</event>
<event>
 7    1  0.5400401E-006  0.1211874E+03  0.7546771E-02  0.1253787E+00
          4   -1    0    0  501    0  0.00000000000E+00  0.00000000000E+00  0.29565651169E+03  0.29565651169E+03  0.00000000000E+00 0.  1.
         -4   -1    0    0    0  501 -0.00000000000E+00 -0.00000000000E+00 -0.58951325632E+02  0.58951325632E+02  0.00000000000E+00 0. -1.
         23    2    1    2    0    0 -0.40689619429E+01 -0.31828123940E+02  0.26113939396E+02  0.12396900381E+03  0.11686227000E+03 0.  0.
          5    1    3    3  502    0  0.86371295470E+01  0.20729304870E+02 -0.35241936069E+02  0.42052207375E+02  0.47000000000E+01 0. -1.
         -5    1    3    3    0  502 -0.12706091490E+02 -0.52557428810E+02  0.61355875464E+02  0.81916796435E+02  0.47000000000E+01 0.  1.
        -11    1    1    2    0    0 -0.10929589755E+02  0.34240450691E+02  0.21232792026E+03  0.21534857816E+03  0.00000000000E+00 0.  1.
         11    1    1    2    0    0  0.14998551698E+02 -0.24123267516E+01 -0.17366735988E+01  0.15290255347E+02  0.00000000000E+00 0. -1.
<mgrwt>
<rscale>  0 0.11374541E+03</rscale>
<asrwt>0</asrwt>
<pdfrwt beam="1">  1        4 0.45485616E-01 0.12118736E+03</pdfrwt>
<pdfrwt beam="2">  1       -4 0.90694349E-02 0.12118736E+03</pdfrwt>
<totfact> 0.68067879E+02</totfact>
</mgrwt>
</event>
<event>
 7    1  0.5400401E-006  0.1263048E+03  0.7546771E-02  0.1247065E+00
         -2   -1    0    0    0  501 -0.00000000000E+00  0.00000000000E+00  0.63761726309E+03  0.63761726309E+03  0.00000000000E+00 0.  1.
          2   -1    0    0  501    0  0.00000000000E+00 -0.00000000000E+00 -0.20086848287E+02  0.20086848287E+02  0.00000000000E+00 0. -1.
         23    2    1    2    0    0  0.11432336636E+02 -0.14111954493E+02  0.41878995564E+03  0.43742190137E+03  0.12499218885E+03 0.  0.
          5    1    3    3  502    0  0.34514588448E+02 -0.50806598799E+02  0.35403438304E+03  0.35935358864E+03  0.47000000000E+01 0.  1.
         -5    1    3    3    0  502 -0.23082251812E+02  0.36694644306E+02  0.64755572603E+02  0.78068312730E+02  0.47000000000E+01 0.  1.
        -11    1    1    2    0    0  0.14042381918E+02  0.49034068002E+02  0.93435906044E+02  0.10645091288E+03  0.00000000000E+00 0.  1.
         11    1    1    2    0    0 -0.25474718554E+02 -0.34922113509E+02  0.10530455312E+03  0.11383129712E+03  0.00000000000E+00 0. -1.
<mgrwt>
<rscale>  0 0.11762635E+03</rscale>
<asrwt>0</asrwt>
<pdfrwt beam="2">  1        2 0.30902848E-02 0.12630476E+03</pdfrwt>
<pdfrwt beam="1">  1       -2 0.98094948E-01 0.12630476E+03</pdfrwt>
<totfact> 0.25640624E+03</totfact>
</mgrwt>
</event>
<event>
 7    1  0.5400401E-006  0.1499629E+03  0.7546771E-02  0.1211257E+00
         -1   -1    0    0    0  501 -0.00000000000E+00  0.00000000000E+00  0.10286186542E+03  0.10286186542E+03  0.00000000000E+00 0.  1.
          1   -1    0    0  501    0  0.00000000000E+00 -0.00000000000E+00 -0.18379044928E+03  0.18379044928E+03  0.00000000000E+00 0. -1.
         23    2    1    2    0    0  0.82843361970E+02 -0.53883455747E+00 -0.74465967508E+02  0.16743373877E+03  0.12500225437E+03 0.  0.
          5    1    3    3  502    0 -0.31894332183E+02 -0.53834767319E+01 -0.48082256039E+01  0.33036938123E+02  0.47000000000E+01 0.  1.
         -5    1    3    3    0  502  0.11473769415E+03  0.48446421744E+01 -0.69657741904E+02  0.13439680065E+03  0.47000000000E+01 0.  1.
        -11    1    1    2    0    0 -0.51219906723E+02 -0.30330754396E+02  0.25418449868E+02  0.64726587279E+02  0.00000000000E+00 0.  1.
         11    1    1    2    0    0 -0.31623455246E+02  0.30869588954E+02 -0.31881066224E+02  0.54491988654E+02  0.00000000000E+00 0. -1.
<mgrwt>
<rscale>  0 0.14155139E+03</rscale>
<asrwt>0</asrwt>
<pdfrwt beam="2">  1        1 0.28275453E-01 0.14996292E+03</pdfrwt>
<pdfrwt beam="1">  1       -1 0.15824903E-01 0.14996292E+03</pdfrwt>
<totfact> 0.46413552E+03</totfact>
</mgrwt>
</event>
<event>
 7    1  0.5400401E-006  0.1328467E+03  0.7546771E-02  0.1236451E+00
          3   -1    0    0  501    0  0.00000000000E+00  0.00000000000E+00  0.34612442289E+03  0.34612442289E+03  0.00000000000E+00 0. -1.
         -3   -1    0    0    0  501 -0.00000000000E+00 -0.00000000000E+00 -0.41952689467E+02  0.41952689467E+02  0.00000000000E+00 0.  1.
         23    2    1    2    0    0 -0.42553554738E+02 -0.14619875055E+02  0.12567765104E+03  0.18287461078E+03  0.12499482201E+03 0.  0.
          5    1    3    3  502    0 -0.93165085056E+01 -0.49946728157E+02  0.12402936761E+03  0.13411505140E+03  0.47000000000E+01 0. -1.
         -5    1    3    3    0  502 -0.33237046233E+02  0.35326853102E+02  0.16482834362E+01  0.48759559377E+02  0.47000000000E+01 0. -1.
        -11    1    1    2    0    0  0.47077788236E+02  0.45633290539E+02  0.14605430775E+03  0.16009552200E+03  0.00000000000E+00 0. -1.
         11    1    1    2    0    0 -0.45242334983E+01 -0.31013415484E+02  0.32439774628E+02  0.45106979578E+02  0.00000000000E+00 0.  1.
<mgrwt>
<rscale>  0 0.12412025E+03</rscale>
<asrwt>0</asrwt>
<pdfrwt beam="1">  1        3 0.53249909E-01 0.13284672E+03</pdfrwt>
<pdfrwt beam="2">  1       -3 0.64542602E-02 0.13284672E+03</pdfrwt>
<totfact> 0.12221503E+03</totfact>
</mgrwt>
</event>
<event>
 7    1  0.5400401E-006  0.4170127E+03  0.7546771E-02  0.1038774E+00
         -2   -1    0    0    0  501 -0.00000000000E+00  0.00000000000E+00  0.57954504845E+03  0.57954504845E+03  0.00000000000E+00 0.  1.
          2   -1    0    0  501    0  0.00000000000E+00 -0.00000000000E+00 -0.33520721192E+03  0.33520721192E+03  0.00000000000E+00 0. -1.
         23    2    1    2    0    0 -0.37219965683E+03 -0.14051249976E+03  0.28413146728E+03  0.50460906565E+03  0.12499308502E+03 0.  0.
          5    1    3    3  502    0 -0.21072222146E+02  0.75994930910E+01 -0.81745845441E+01  0.24304416756E+02  0.47000000000E+01 0. -1.
         -5    1    3    3    0  502 -0.35112743469E+03 -0.14811199285E+03  0.29230605183E+03  0.48030464890E+03  0.47000000000E+01 0. -1.
        -11    1    1    2    0    0  0.10160415679E+03  0.67994930530E+02  0.19474860448E+02  0.12379816414E+03  0.00000000000E+00 0.  1.
         11    1    1    2    0    0  0.27059550005E+03  0.72517569227E+02 -0.59268491194E+02  0.28634503059E+03  0.00000000000E+00 0. -1.
<mgrwt>
<rscale>  0 0.41479394E+03</rscale>
<asrwt>0</asrwt>
<pdfrwt beam="2">  1        2 0.51570340E-01 0.41701273E+03</pdfrwt>
<pdfrwt beam="1">  1       -2 0.89160777E-01 0.41701273E+03</pdfrwt>
<totfact> 0.10780891E+02</totfact>
</mgrwt>
</event>
<event>
 7    1  0.5400401E-006  0.1603569E+03  0.7546771E-02  0.1195952E+00
         -4   -1    0    0    0  501 -0.00000000000E+00  0.00000000000E+00  0.20688211352E+03  0.20688211352E+03  0.00000000000E+00 0.  1.
          4   -1    0    0  501    0  0.00000000000E+00 -0.00000000000E+00 -0.11808799605E+03  0.11808799605E+03  0.00000000000E+00 0. -1.
         23    2    1    2    0    0  0.41719844518E+02 -0.91363175655E+02  0.10007312942E+03  0.18902109011E+03  0.12500626377E+03 0.  0.
          5    1    3    3  502    0 -0.18771412125E+02 -0.38197916473E+02  0.99527802601E+02  0.10834814362E+03  0.47000000000E+01 0.  1.
         -5    1    3    3    0  502  0.60491256643E+02 -0.53165259182E+02  0.54532682309E+00  0.80672946491E+02  0.47000000000E+01 0.  1.
        -11    1    1    2    0    0 -0.26658799364E+02 -0.74049870004E+01 -0.22159918854E+02  0.35448376826E+02  0.00000000000E+00 0. -1.
         11    1    1    2    0    0 -0.15061045154E+02  0.98768162655E+02  0.10880906895E+02  0.10050064264E+03  0.00000000000E+00 0.  1.
<mgrwt>
<rscale>  0 0.15373928E+03</rscale>
<asrwt>0</asrwt>
<pdfrwt beam="2">  1        4 0.18167384E-01 0.16035692E+03</pdfrwt>
<pdfrwt beam="1">  1       -4 0.31828018E-01 0.16035692E+03</pdfrwt>
<totfact> 0.43641131E+02</totfact>
</mgrwt>
</event>
<event>
 7    1  0.5400401E-006  0.2272708E+03  0.7546771E-02  0.1132003E+00
         -2   -1    0    0    0  501 -0.00000000000E+00  0.00000000000E+00  0.43420071145E+02  0.43420071145E+02  0.00000000000E+00 0.  1.
          2   -1    0    0  501    0  0.00000000000E+00 -0.00000000000E+00 -0.10959977428E+04  0.10959977428E+04  0.00000000000E+00 0. -1.
         23    2    1    2    0    0  0.12901912748E+03 -0.13921485834E+03 -0.53688766309E+03  0.58300977049E+03  0.12500127068E+03 0.  0.
          5    1    3    3  502    0  0.59465441508E+01 -0.93332433859E+02 -0.26413644847E+03  0.28024356908E+03  0.47000000000E+01 0.  1.
         -5    1    3    3    0  502  0.12307258333E+03 -0.45882424477E+02 -0.27275121462E+03  0.30276620142E+03  0.47000000000E+01 0.  1.
        -11    1    1    2    0    0 -0.20910519034E+02  0.98896878952E+01 -0.13722963566E+02  0.26895640204E+02  0.00000000000E+00 0.  1.
         11    1    1    2    0    0 -0.10810860845E+03  0.12932517044E+03 -0.50196704498E+03  0.52951240323E+03  0.00000000000E+00 0. -1.
<mgrwt>
<rscale>  0 0.22254121E+03</rscale>
<asrwt>0</asrwt>
<pdfrwt beam="2">  1        2 0.16861503E+00 0.22727083E+03</pdfrwt>
<pdfrwt beam="1">  1       -2 0.66800114E-02 0.22727083E+03</pdfrwt>
<totfact> 0.28694915E+03</totfact>
</mgrwt>
</event>
<event>
 7    1  0.5400401E-006  0.1341858E+03  0.7546771E-02  0.1235803E+00
         -1   -1    0    0    0  501 -0.00000000000E+00  0.00000000000E+00  0.85726872852E+02  0.85726872852E+02  0.00000000000E+00 0.  1.
          1   -1    0    0  501    0  0.00000000000E+00 -0.00000000000E+00 -0.16321148888E+03  0.16321148888E+03  0.00000000000E+00 0. -1.
         23    2    1    2    0    0 -0.31491231869E+02 -0.37315556882E+02 -0.25306970688E+02  0.13655137643E+03  0.12498674797E+03 0.  0.
          5    1    3    3  502    0  0.11625994093E+02 -0.57570633646E+02  0.27718619869E+02  0.65114925205E+02  0.47000000000E+01 0. -1.
         -5    1    3    3    0  502 -0.43117225963E+02  0.20255076763E+02 -0.53025590557E+02  0.71436451223E+02  0.47000000000E+01 0. -1.
        -11    1    1    2    0    0 -0.10535537927E+02 -0.22699437908E+02 -0.58433831950E+01  0.25698388430E+02  0.00000000000E+00 0.  1.
         11    1    1    2    0    0  0.42026769796E+02  0.60014994790E+02 -0.46334262140E+02  0.86688596870E+02  0.00000000000E+00 0. -1.
<mgrwt>
<rscale>  0 0.12453173E+03</rscale>
<asrwt>0</asrwt>
<pdfrwt beam="2">  1        1 0.25109460E-01 0.13418583E+03</pdfrwt>
<pdfrwt beam="1">  1       -1 0.13188750E-01 0.13418583E+03</pdfrwt>
<totfact> 0.71123893E+03</totfact>
</mgrwt>
</event>
<event>
 7    1  0.5400401E-006  0.1342833E+03  0.7546771E-02  0.1230839E+00
          2   -1    0    0  501    0  0.00000000000E+00  0.00000000000E+00  0.29091971887E+02  0.29091971887E+02  0.00000000000E+00 0.  1.
         -2   -1    0    0    0  501 -0.00000000000E+00 -0.00000000000E+00 -0.69140433963E+03  0.69140433963E+03  0.00000000000E+00 0. -1.
         23    2    1    2    0    0  0.27476947501E+02  0.40642352727E+02 -0.53804450407E+03  0.55454837067E+03  0.12500089428E+03 0.  0.
          5    1    3    3  502    0 -0.34629264676E+02  0.59626132753E+02 -0.26888240461E+03  0.27762258407E+03  0.47000000000E+01 0.  1.
         -5    1    3    3    0  502  0.62106212177E+02 -0.18983780026E+02 -0.26916209946E+03  0.27692578660E+03  0.47000000000E+01 0.  1.
        -11    1    1    2    0    0 -0.10521554787E+02  0.23077433504E+02 -0.86106295306E+02  0.89763941221E+02  0.00000000000E+00 0. -1.
         11    1    1    2    0    0 -0.16955392714E+02 -0.63719786231E+02 -0.38161568370E+02  0.76183999631E+02  0.00000000000E+00 0.  1.
<mgrwt>
<rscale>  0 0.12774612E+03</rscale>
<asrwt>0</asrwt>
<pdfrwt beam="1">  1        2 0.44756879E-02 0.13428331E+03</pdfrwt>
<pdfrwt beam="2">  1       -2 0.10636990E+00 0.13428331E+03</pdfrwt>
<totfact> 0.13052062E+03</totfact>
</mgrwt>
</event>
<event>
 7    1  0.5400401E-006  0.1408075E+03  0.7546771E-02  0.1228654E+00
         -1   -1    0    0    0  501 -0.00000000000E+00  0.00000000000E+00  0.15793568648E+03  0.15793568648E+03  0.00000000000E+00 0.  1.
          1   -1    0    0  501    0  0.00000000000E+00 -0.00000000000E+00 -0.95471108334E+02  0.95471108334E+02  0.00000000000E+00 0. -1.
         23    2    1    2    0    0  0.59760756823E+02  0.25114628390E+02  0.61379772712E+02  0.15360414746E+03  0.12499866001E+03 0.  0.
          5    1    3    3  502    0  0.20320482314E+02 -0.50247280603E+02  0.14213408225E+02  0.56230082543E+02  0.47000000000E+01 0.  1.
         -5    1    3    3    0  502  0.39440274509E+02  0.75361908992E+02  0.47166364488E+02  0.97374064921E+02  0.47000000000E+01 0.  1.
        -11    1    1    2    0    0 -0.96073270789E+01  0.54480212274E+01  0.31700943827E+02  0.33569800542E+02  0.00000000000E+00 0.  1.
         11    1    1    2    0    0 -0.50153429744E+02 -0.30562649617E+02 -0.30616138390E+02  0.66232846811E+02  0.00000000000E+00 0. -1.
<mgrwt>
<rscale>  0 0.12919583E+03</rscale>
<asrwt>0</asrwt>
<pdfrwt beam="2">  1        1 0.14687863E-01 0.14080752E+03</pdfrwt>
<pdfrwt beam="1">  1       -1 0.24297798E-01 0.14080752E+03</pdfrwt>
<totfact> 0.53449463E+03</totfact>
</mgrwt>
</event>
<event>
 7    1  0.5400401E-006  0.1341647E+03  0.7546771E-02  0.1236592E+00
          1   -1    0    0  501    0  0.00000000000E+00  0.00000000000E+00  0.31814877805E+03  0.31814877805E+03  0.00000000000E+00 0. -1.
         -1   -1    0    0    0  501 -0.00000000000E+00 -0.00000000000E+00 -0.42356014516E+02  0.42356014516E+02  0.00000000000E+00 0.  1.
         23    2    1    2    0    0 -0.47934396203E+02 -0.87844378064E+01  0.15778959364E+03  0.20711764373E+03  0.12500115917E+03 0.  0.
          5    1    3    3  502    0 -0.33314433359E+02 -0.63318688615E+02  0.11730817316E+03  0.13748601852E+03  0.47000000000E+01 0. -1.
         -5    1    3    3    0  502 -0.14619962843E+02  0.54534250808E+02  0.40481420484E+02  0.69631625208E+02  0.47000000000E+01 0. -1.
        -11    1    1    2    0    0  0.24690749617E+01  0.13441247631E+02 -0.10347916898E+02  0.17141845092E+02  0.00000000000E+00 0.  1.
         11    1    1    2    0    0  0.45465321241E+02 -0.46568098249E+01  0.12835108679E+03  0.13624530375E+03  0.00000000000E+00 0. -1.
<mgrwt>
<rscale>  0 0.12403058E+03</rscale>
<asrwt>0</asrwt>
<pdfrwt beam="1">  1        1 0.48945964E-01 0.13416468E+03</pdfrwt>
<pdfrwt beam="2">  1       -1 0.65163101E-02 0.13416468E+03</pdfrwt>
<totfact> 0.90782212E+03</totfact>
</mgrwt>
</event>
<event>
 7    1  0.5400401E-006  0.1660827E+03  0.7546771E-02  0.1189114E+00
         -3   -1    0    0    0  501 -0.00000000000E+00  0.00000000000E+00  0.89691378449E+03  0.89691378449E+03  0.00000000000E+00 0.  1.
          3   -1    0    0  501    0  0.00000000000E+00 -0.00000000000E+00 -0.51015892821E+02  0.51015892821E+02  0.00000000000E+00 0. -1.
         23    2    1    2    0    0  0.99421342615E+02  0.45471639330E+02  0.76888643289E+03  0.78661923393E+03  0.12502479415E+03 0.  0.
          5    1    3    3  502    0 -0.28079350450E+02 -0.48864056189E+01  0.12811546828E+03  0.13133160356E+03  0.47000000000E+01 0. -1.
         -5    1    3    3    0  502  0.12750069307E+03  0.50358044949E+02  0.64077096461E+03  0.65528763037E+03  0.47000000000E+01 0. -1.
        -11    1    1    2    0    0 -0.80248547452E+02 -0.25378202037E+02  0.52124336945E+01  0.84327053617E+02  0.00000000000E+00 0. -1.
         11    1    1    2    0    0 -0.19172795164E+02 -0.20093437293E+02  0.71799025084E+02  0.76983389765E+02  0.00000000000E+00 0.  1.
<mgrwt>
<rscale>  0 0.15963078E+03</rscale>
<asrwt>0</asrwt>
<pdfrwt beam="2">  1        3 0.78485996E-02 0.16608273E+03</pdfrwt>
<pdfrwt beam="1">  1       -3 0.13798672E+00 0.16608273E+03</pdfrwt>
<totfact> 0.11142595E+02</totfact>
</mgrwt>
</event>
<event>
 7    1  0.5400401E-006  0.1719560E+03  0.7546771E-02  0.1184162E+00
          1   -1    0    0  501    0  0.00000000000E+00  0.00000000000E+00  0.25976124647E+03  0.25976124647E+03  0.00000000000E+00 0.  1.
         -1   -1    0    0    0  501 -0.00000000000E+00 -0.00000000000E+00 -0.95359559167E+02  0.95359559167E+02  0.00000000000E+00 0. -1.
         23    2    1    2    0    0 -0.96389042669E+02  0.68205916567E+02  0.96969662067E+02  0.19741320264E+03  0.12500385039E+03 0.  0.
          5    1    3    3  502    0 -0.88738060750E+02  0.97591436640E+02  0.10130366226E+03  0.16638225241E+03  0.47000000000E+01 0. -1.
         -5    1    3    3    0  502 -0.76509819194E+01 -0.29385520072E+02 -0.43340001886E+01  0.31030950225E+02  0.47000000000E+01 0. -1.
        -11    1    1    2    0    0  0.19825910081E+02 -0.33531616505E+02  0.62333190970E+02  0.73504167994E+02  0.00000000000E+00 0.  1.
         11    1    1    2    0    0  0.76563132588E+02 -0.34674300062E+02  0.50988342693E+01  0.84203435010E+02  0.00000000000E+00 0. -1.
<mgrwt>
<rscale>  0 0.16408381E+03</rscale>
<asrwt>0</asrwt>
<pdfrwt beam="1">  1        1 0.39963268E-01 0.17195597E+03</pdfrwt>
<pdfrwt beam="2">  1       -1 0.14670702E-01 0.17195597E+03</pdfrwt>
<totfact> 0.34211354E+03</totfact>
</mgrwt>
</event>
<event>
 7    1  0.5400401E-006  0.1593572E+03  0.7546771E-02  0.1197049E+00
         -3   -1    0    0    0  501 -0.00000000000E+00  0.00000000000E+00  0.32753206756E+03  0.32753206756E+03  0.00000000000E+00 0.  1.
          3   -1    0    0  501    0  0.00000000000E+00 -0.00000000000E+00 -0.84259197009E+02  0.84259197009E+02  0.00000000000E+00 0. -1.
         23    2    1    2    0    0  0.96148161940E+02 -0.22914616417E+02  0.22509631205E+03  0.27579532180E+03  0.12500064455E+03 0.  0.
          5    1    3    3  502    0  0.91178256701E+02  0.27463806511E+01  0.61634798218E+02  0.11019054158E+03  0.47000000000E+01 0.  1.
         -5    1    3    3    0  502  0.49699052383E+01 -0.25660997068E+02  0.16346151383E+03  0.16560478022E+03  0.47000000000E+01 0.  1.
        -11    1    1    2    0    0  0.85989134482E+01 -0.18777498566E+02 -0.41537014094E+01  0.21066300109E+02  0.00000000000E+00 0.  1.
         11    1    1    2    0    0 -0.10474707539E+03  0.41692114983E+02  0.22330259911E+02  0.11492964266E+03  0.00000000000E+00 0. -1.
<mgrwt>
<rscale>  0 0.15282052E+03</rscale>
<asrwt>0</asrwt>
<pdfrwt beam="2">  1        3 0.12962954E-01 0.15935718E+03</pdfrwt>
<pdfrwt beam="1">  1       -3 0.50389548E-01 0.15935718E+03</pdfrwt>
<totfact> 0.44494657E+02</totfact>
</mgrwt>
</event>
<event>
 7    1  0.5400401E-006  0.1301131E+03  0.7546771E-02  0.1242582E+00
         -1   -1    0    0    0  501 -0.00000000000E+00  0.00000000000E+00  0.79873663311E+02  0.79873663311E+02  0.00000000000E+00 0.  1.
          1   -1    0    0  501    0  0.00000000000E+00 -0.00000000000E+00 -0.26380237015E+03  0.26380237015E+03  0.00000000000E+00 0. -1.
         23    2    1    2    0    0 -0.22910074579E+02  0.27921288675E+02  0.70661598021E+01  0.13030479983E+03  0.12499976146E+03 0.  0.
          5    1    3    3  502    0 -0.11302926227E+02  0.12169637900E+02 -0.58879389867E+02  0.61357385692E+02  0.47000000000E+01 0. -1.
         -5    1    3    3    0  502 -0.11607148351E+02  0.15751650775E+02  0.65945549669E+02  0.68947414137E+02  0.47000000000E+01 0. -1.
        -11    1    1    2    0    0  0.18606666309E+01 -0.54933618130E+02 -0.78871027456E+02  0.96134299046E+02  0.00000000000E+00 0.  1.
         11    1    1    2    0    0  0.21049407948E+02  0.27012329455E+02 -0.11212383919E+03  0.11723693459E+03  0.00000000000E+00 0. -1.
<mgrwt>
<rscale>  0 0.12031263E+03</rscale>
<asrwt>0</asrwt>
<pdfrwt beam="2">  1        1 0.40584979E-01 0.13011307E+03</pdfrwt>
<pdfrwt beam="1">  1       -1 0.12288256E-01 0.13011307E+03</pdfrwt>
<totfact> 0.43630473E+03</totfact>
</mgrwt>
</event>
<event>
 7    1  0.5400401E-006  0.1290921E+03  0.7546771E-02  0.1242422E+00
          1   -1    0    0  501    0  0.00000000000E+00  0.00000000000E+00  0.12984299417E+03  0.12984299417E+03  0.00000000000E+00 0. -1.
         -1   -1    0    0    0  501 -0.00000000000E+00 -0.00000000000E+00 -0.10057821464E+03  0.10057821464E+03  0.00000000000E+00 0.  1.
         23    2    1    2    0    0  0.27389859800E+02 -0.17028762443E+02  0.25275430432E+01  0.12911681315E+03  0.12499831917E+03 0.  0.
          5    1    3    3  502    0 -0.43009257163E+02 -0.20580942442E+02 -0.24086423305E+02  0.53624781409E+02  0.47000000000E+01 0.  1.
         -5    1    3    3    0  502  0.70399116964E+02  0.35521799992E+01  0.26613966348E+02  0.75492031744E+02  0.47000000000E+01 0.  1.
        -11    1    1    2    0    0 -0.65378072349E+01 -0.28475216944E+02  0.39989926805E+02  0.49525499990E+02  0.00000000000E+00 0. -1.
         11    1    1    2    0    0 -0.20852052565E+02  0.45503979387E+02 -0.13252690310E+02  0.51778895669E+02  0.00000000000E+00 0.  1.
<mgrwt>
<rscale>  0 0.12040985E+03</rscale>
<asrwt>0</asrwt>
<pdfrwt beam="1">  1        1 0.19975845E-01 0.12909207E+03</pdfrwt>
<pdfrwt beam="2">  1       -1 0.15473571E-01 0.12909207E+03</pdfrwt>
<totfact> 0.73763854E+03</totfact>
</mgrwt>
</event>
<event>
 7    1  0.5400401E-006  0.1392567E+03  0.7546771E-02  0.1225990E+00
          1   -1    0    0  501    0  0.00000000000E+00  0.00000000000E+00  0.10766689543E+03  0.10766689543E+03  0.00000000000E+00 0. -1.
         -1   -1    0    0    0  501 -0.00000000000E+00 -0.00000000000E+00 -0.14314168557E+03  0.14314168557E+03  0.00000000000E+00 0.  1.
         23    2    1    2    0    0  0.40837415302E+02 -0.45832910118E+02 -0.20180174013E+02  0.14071125623E+03  0.12499627222E+03 0.  0.
          5    1    3    3  502    0 -0.13745040218E+02  0.17772519452E+02  0.33836488871E+02  0.40887486562E+02  0.47000000000E+01 0. -1.
         -5    1    3    3    0  502  0.54582455520E+02 -0.63605429570E+02 -0.54016662884E+02  0.99823769667E+02  0.47000000000E+01 0. -1.
        -11    1    1    2    0    0 -0.35573437242E+02 -0.43527235399E+01 -0.40173942532E+02  0.53836430955E+02  0.00000000000E+00 0.  1.
         11    1    1    2    0    0 -0.52639780603E+01  0.50185633658E+02  0.24879326401E+02  0.56260893815E+02  0.00000000000E+00 0. -1.
<mgrwt>
<rscale>  0 0.13099306E+03</rscale>
<asrwt>0</asrwt>
<pdfrwt beam="1">  1        1 0.16564138E-01 0.13925666E+03</pdfrwt>
<pdfrwt beam="2">  1       -1 0.22021798E-01 0.13925666E+03</pdfrwt>
<totfact> 0.53678020E+03</totfact>
</mgrwt>
</event>
<event>
 7    1  0.5400401E-006  0.1551147E+03  0.7546771E-02  0.1205527E+00
         -3   -1    0    0    0  501 -0.00000000000E+00  0.00000000000E+00  0.64717429517E+02  0.64717429517E+02  0.00000000000E+00 0.  1.
          3   -1    0    0  501    0  0.00000000000E+00 -0.00000000000E+00 -0.41844630841E+03  0.41844630841E+03  0.00000000000E+00 0. -1.
         23    2    1    2    0    0  0.88054788731E+02  0.26109986108E+02 -0.61899640447E+02  0.16700941015E+03  0.12500080159E+03 0.  0.
          5    1    3    3  502    0  0.11996395984E+03  0.26076400679E+02 -0.49621529658E+02  0.13249798692E+03  0.47000000000E+01 0.  1.
         -5    1    3    3    0  502 -0.31909171109E+02  0.33585428932E-01 -0.12278110789E+02  0.34511423230E+02  0.47000000000E+01 0.  1.
        -11    1    1    2    0    0 -0.96992955051E+01 -0.40205450349E+02 -0.84894255837E+02  0.94432988120E+02  0.00000000000E+00 0.  1.
         11    1    1    2    0    0 -0.78355493226E+02  0.14095464241E+02 -0.20693498261E+03  0.22172133966E+03  0.00000000000E+00 0. -1.
<mgrwt>
<rscale>  0 0.14595973E+03</rscale>
<asrwt>0</asrwt>
<pdfrwt beam="2">  1        3 0.64376356E-01 0.15511472E+03</pdfrwt>
<pdfrwt beam="1">  1       -3 0.99565275E-02 0.15511472E+03</pdfrwt>
<totfact> 0.41807509E+02</totfact>
</mgrwt>
</event>
<event>
 7    1  0.5400401E-006  0.1594584E+03  0.7546771E-02  0.1196991E+00
          1   -1    0    0  501    0  0.00000000000E+00  0.00000000000E+00  0.88113184140E+03  0.88113184140E+03  0.00000000000E+00 0. -1.
         -1   -1    0    0    0  501 -0.00000000000E+00 -0.00000000000E+00 -0.26548646198E+02  0.26548646198E+02  0.00000000000E+00 0.  1.
         23    2    1    2    0    0 -0.92601479501E+02 -0.35036744769E+02  0.33642046232E+03  0.37229788554E+03  0.12499752245E+03 0.  0.
          5    1    3    3  502    0 -0.88330960632E+02  0.13773209259E+02  0.29397276850E+03  0.30730138060E+03  0.47000000000E+01 0.  1.
         -5    1    3    3    0  502 -0.42705188692E+01 -0.48809954028E+02  0.42447693825E+02  0.64996504942E+02  0.47000000000E+01 0.  1.
        -11    1    1    2    0    0  0.73448664402E+02  0.65546585323E+02  0.36522839244E+03  0.37826292416E+03  0.00000000000E+00 0.  1.
         11    1    1    2    0    0  0.19152815099E+02 -0.30509840554E+02  0.15293434044E+03  0.15711967790E+03  0.00000000000E+00 0. -1.
<mgrwt>
<rscale>  0 0.15286955E+03</rscale>
<asrwt>0</asrwt>
<pdfrwt beam="1">  1        1 0.13555872E+00 0.15945842E+03</pdfrwt>
<pdfrwt beam="2">  1       -1 0.40844078E-02 0.15945842E+03</pdfrwt>
<totfact> 0.46236123E+03</totfact>
</mgrwt>
</event>
<event>
 7    1  0.5400401E-006  0.1445407E+03  0.7546771E-02  0.1217321E+00
         -2   -1    0    0    0  501 -0.00000000000E+00  0.00000000000E+00  0.59562243338E+02  0.59562243338E+02  0.00000000000E+00 0.  1.
          2   -1    0    0  501    0  0.00000000000E+00 -0.00000000000E+00 -0.39167656209E+03  0.39167656209E+03  0.00000000000E+00 0. -1.
         23    2    1    2    0    0 -0.18017830944E+01  0.72520476092E+02 -0.62704826586E+02  0.15755601443E+03  0.12501814481E+03 0.  0.
          5    1    3    3  502    0  0.53842886703E+02  0.67094465931E+02 -0.24137848794E+02  0.89473177832E+02  0.47000000000E+01 0. -1.
         -5    1    3    3    0  502 -0.55644669798E+02  0.54260101613E+01 -0.38566977792E+02  0.68082836597E+02  0.47000000000E+01 0. -1.
        -11    1    1    2    0    0  0.30609632194E+01  0.11223036198E+02 -0.81854205478E-01  0.11633259966E+02  0.00000000000E+00 0.  1.
         11    1    1    2    0    0 -0.12591801250E+01 -0.83743512290E+02 -0.26932763796E+03  0.28204953103E+03  0.00000000000E+00 0. -1.
<mgrwt>
<rscale>  0 0.13707431E+03</rscale>
<asrwt>0</asrwt>
<pdfrwt beam="2">  1        2 0.60257930E-01 0.14454066E+03</pdfrwt>
<pdfrwt beam="1">  1       -2 0.91634224E-02 0.14454066E+03</pdfrwt>
<totfact> 0.59932511E+03</totfact>
</mgrwt>
</event>
<event>
 7    1  0.5400401E-006  0.1361886E+03  0.7546771E-02  0.1228698E+00
         -1   -1    0    0    0  501 -0.00000000000E+00  0.00000000000E+00  0.18297068524E+03  0.18297068524E+03  0.00000000000E+00 0.  1.
          1   -1    0    0  501    0  0.00000000000E+00 -0.00000000000E+00 -0.84390355034E+02  0.84390355034E+02  0.00000000000E+00 0. -1.
         23    2    1    2    0    0 -0.10815768276E+02 -0.52915383496E+02  0.71795414673E+02  0.15395427188E+03  0.12502126862E+03 0.  0.
          5    1    3    3  502    0 -0.22476721587E+02  0.16580512076E+02  0.78073045321E+02  0.83051832007E+02  0.47000000000E+01 0. -1.
         -5    1    3    3    0  502  0.11660953311E+02 -0.69495895572E+02 -0.62776306482E+01  0.70902439874E+02  0.47000000000E+01 0. -1.
        -11    1    1    2    0    0 -0.57053093314E+01  0.23283532313E+02  0.60805884045E+02  0.65360760140E+02  0.00000000000E+00 0.  1.
         11    1    1    2    0    0  0.16521077607E+02  0.29631851183E+02 -0.34020968517E+02  0.48046008249E+02  0.00000000000E+00 0. -1.
<mgrwt>
<rscale>  0 0.12916632E+03</rscale>
<asrwt>0</asrwt>
<pdfrwt beam="2">  1        1 0.12983132E-01 0.13618861E+03</pdfrwt>
<pdfrwt beam="1">  1       -1 0.28149336E-01 0.13618861E+03</pdfrwt>
<totfact> 0.49112035E+03</totfact>
</mgrwt>
</event>
<event>
 7    1  0.5400401E-006  0.1348589E+03  0.7546771E-02  0.1233411E+00
          2   -1    0    0  501    0  0.00000000000E+00  0.00000000000E+00  0.31143263347E+03  0.31143263347E+03  0.00000000000E+00 0. -1.
         -2   -1    0    0    0  501 -0.00000000000E+00 -0.00000000000E+00 -0.48751294006E+02  0.48751294006E+02  0.00000000000E+00 0.  1.
         23    2    1    2    0    0 -0.21154480914E+02  0.45996802325E+02  0.10098853925E+03  0.16848030413E+03  0.12499483962E+03 0.  0.
          5    1    3    3  502    0 -0.47090004958E+02 -0.14390200314E+02  0.19187785525E+01  0.49500688310E+02  0.47000000000E+01 0. -1.
         -5    1    3    3    0  502  0.25935524044E+02  0.60387002640E+02  0.99069760702E+02  0.11897961582E+03  0.47000000000E+01 0. -1.
        -11    1    1    2    0    0 -0.11633206076E+02 -0.59701385495E+02  0.66637226438E+02  0.90222540759E+02  0.00000000000E+00 0.  1.
         11    1    1    2    0    0  0.32787686990E+02  0.13704583170E+02  0.95055573774E+02  0.10148108259E+03  0.00000000000E+00 0. -1.
<mgrwt>
<rscale>  0 0.12606724E+03</rscale>
<asrwt>0</asrwt>
<pdfrwt beam="1">  1        2 0.47912712E-01 0.13485892E+03</pdfrwt>
<pdfrwt beam="2">  1       -2 0.75001993E-02 0.13485892E+03</pdfrwt>
<totfact> 0.10383809E+04</totfact>
</mgrwt>
</event>
<event>
 7    1  0.5400401E-006  0.1713221E+03  0.7546771E-02  0.1182644E+00
          3   -1    0    0  501    0  0.00000000000E+00  0.00000000000E+00  0.22875661695E+03  0.22875661695E+03  0.00000000000E+00 0. -1.
         -3   -1    0    0    0  501 -0.00000000000E+00 -0.00000000000E+00 -0.11223112657E+03  0.11223112657E+03  0.00000000000E+00 0.  1.
         23    2    1    2    0    0 -0.69557423040E+02 -0.94297257406E+02  0.63795955837E+02  0.18281457824E+03  0.12498415171E+03 0.  0.
          5    1    3    3  502    0 -0.40406048343E+00 -0.30950030848E+02  0.81458963262E+02  0.87268094800E+02  0.47000000000E+01 0. -1.
         -5    1    3    3    0  502 -0.69153362557E+02 -0.63347226558E+02 -0.17663007425E+02  0.95546483435E+02  0.47000000000E+01 0. -1.
        -11    1    1    2    0    0  0.79390154514E+02  0.88652478976E+02  0.16416642674E+02  0.12013144809E+03  0.00000000000E+00 0.  1.
         11    1    1    2    0    0 -0.98327314744E+01  0.56447784304E+01  0.36312891868E+02  0.38041717201E+02  0.00000000000E+00 0. -1.
<mgrwt>
<rscale>  0 0.16548086E+03</rscale>
<asrwt>0</asrwt>
<pdfrwt beam="1">  1        3 0.35193326E-01 0.17132205E+03</pdfrwt>
<pdfrwt beam="2">  1       -3 0.17266327E-01 0.17132205E+03</pdfrwt>
<totfact> 0.55301288E+02</totfact>
</mgrwt>
</event>
<event>
 7    1  0.5400401E-006  0.1383345E+03  0.7546771E-02  0.1226987E+00
          1   -1    0    0  501    0  0.00000000000E+00  0.00000000000E+00  0.45900350605E+03  0.45900350605E+03  0.00000000000E+00 0. -1.
         -1   -1    0    0    0  501 -0.00000000000E+00 -0.00000000000E+00 -0.50965738054E+02  0.50965738054E+02  0.00000000000E+00 0.  1.
         23    2    1    2    0    0 -0.37139835227E+02 -0.46167644394E+02  0.70456006542E+02  0.15524326031E+03  0.12500240904E+03 0.  0.
          5    1    3    3  502    0 -0.93388270742E+01  0.71961185508E+01 -0.33062667492E+02  0.35415078639E+02  0.47000000000E+01 0.  1.
         -5    1    3    3    0  502 -0.27801008153E+02 -0.53363762944E+02  0.10351867403E+03  0.11982818168E+03  0.47000000000E+01 0.  1.
        -11    1    1    2    0    0 -0.16532343082E+02 -0.18562296312E+02  0.77629707138E+02  0.81512260688E+02  0.00000000000E+00 0. -1.
         11    1    1    2    0    0  0.53672178309E+02  0.64729940706E+02  0.25995205432E+03  0.27321372310E+03  0.00000000000E+00 0.  1.
<mgrwt>
<rscale>  0 0.13031665E+03</rscale>
<asrwt>0</asrwt>
<pdfrwt beam="1">  1        1 0.70615921E-01 0.13833445E+03</pdfrwt>
<pdfrwt beam="2">  1       -1 0.78408831E-02 0.13833445E+03</pdfrwt>
<totfact> 0.43444026E+03</totfact>
</mgrwt>
</event>
<event>
 7    1  0.5400401E-006  0.1295690E+03  0.7546771E-02  0.1239162E+00
         -2   -1    0    0    0  501 -0.00000000000E+00  0.00000000000E+00  0.93232950708E+02  0.93232950708E+02  0.00000000000E+00 0.  1.
          2   -1    0    0  501    0  0.00000000000E+00 -0.00000000000E+00 -0.14541357523E+03  0.14541357523E+03  0.00000000000E+00 0. -1.
         23    2    1    2    0    0  0.11672225380E+02 -0.32049141532E+02 -0.26396500035E+02  0.13223051489E+03  0.12499898214E+03 0.  0.
          5    1    3    3  502    0 -0.52059865363E+02 -0.10957579966E+02  0.12016946601E+02  0.54742991752E+02  0.47000000000E+01 0.  1.
         -5    1    3    3    0  502  0.63732090743E+02 -0.21091561566E+02 -0.38413446637E+02  0.77487523139E+02  0.47000000000E+01 0.  1.
        -11    1    1    2    0    0 -0.43485199507E+02  0.29361282981E+02 -0.45025254573E+02  0.69139865952E+02  0.00000000000E+00 0.  1.
         11    1    1    2    0    0  0.31812974127E+02  0.26878585508E+01  0.19241130084E+02  0.37276145097E+02  0.00000000000E+00 0. -1.
<mgrwt>
<rscale>  0 0.12241743E+03</rscale>
<asrwt>0</asrwt>
<pdfrwt beam="2">  1        2 0.22371319E-01 0.12956903E+03</pdfrwt>
<pdfrwt beam="1">  1       -2 0.14343531E-01 0.12956903E+03</pdfrwt>
<totfact> 0.84693878E+03</totfact>
</mgrwt>
</event>
<event>
 7    1  0.5400401E-006  0.1911826E+03  0.7546771E-02  0.1162548E+00
          3   -1    0    0  501    0  0.00000000000E+00  0.00000000000E+00  0.15495167956E+03  0.15495167956E+03  0.00000000000E+00 0. -1.
         -3   -1    0    0    0  501 -0.00000000000E+00 -0.00000000000E+00 -0.24911811382E+03  0.24911811382E+03  0.00000000000E+00 0.  1.
         23    2    1    2    0    0 -0.14277970527E+03  0.23196817317E+02 -0.12940496618E+03  0.23086015901E+03  0.12500652453E+03 0.  0.
          5    1    3    3  502    0 -0.33754815197E+02 -0.32382897525E+02 -0.91149960283E+02  0.10255946987E+03  0.47000000000E+01 0. -1.
         -5    1    3    3    0  502 -0.10902489007E+03  0.55579714842E+02 -0.38255005901E+02  0.12830068914E+03  0.47000000000E+01 0. -1.
        -11    1    1    2    0    0  0.68699406440E+02  0.62973166136E+01 -0.24893616641E+02  0.73341371620E+02  0.00000000000E+00 0.  1.
         11    1    1    2    0    0  0.74080298832E+02 -0.29494133931E+02  0.60132148569E+02  0.99868262741E+02  0.00000000000E+00 0. -1.
<mgrwt>
<rscale>  0 0.18553868E+03</rscale>
<asrwt>0</asrwt>
<pdfrwt beam="1">  1        3 0.23838720E-01 0.19118255E+03</pdfrwt>
<pdfrwt beam="2">  1       -3 0.38325864E-01 0.19118255E+03</pdfrwt>
<totfact> 0.26852137E+02</totfact>
</mgrwt>
</event>
<event>
 7    1  0.5400401E-006  0.1280122E+03  0.7546771E-02  0.1242627E+00
          1   -1    0    0  501    0  0.00000000000E+00  0.00000000000E+00  0.10290394432E+03  0.10290394432E+03  0.00000000000E+00 0. -1.
         -1   -1    0    0    0  501 -0.00000000000E+00 -0.00000000000E+00 -0.21106750297E+03  0.21106750297E+03  0.00000000000E+00 0.  1.
         23    2    1    2    0    0  0.21902070015E+02 -0.16814975773E+02 -0.15724428154E+03  0.20276311705E+03  0.12499869391E+03 0.  0.
          5    1    3    3  502    0 -0.50576663686E+02 -0.21657801725E+02 -0.68192473344E+02  0.87746012478E+02  0.47000000000E+01 0. -1.
         -5    1    3    3    0  502  0.72478733700E+02  0.48428259514E+01 -0.89051808196E+02  0.11501710458E+03  0.47000000000E+01 0. -1.
        -11    1    1    2    0    0  0.16736570886E+02 -0.32848706626E+02  0.17888141693E+02  0.40977261319E+02  0.00000000000E+00 0.  1.
         11    1    1    2    0    0 -0.38638640901E+02  0.49663682399E+02  0.31192581200E+02  0.70231068923E+02  0.00000000000E+00 0. -1.
<mgrwt>
<rscale>  0 0.12028515E+03</rscale>
<asrwt>0</asrwt>
<pdfrwt beam="1">  1        1 0.15831376E-01 0.12801218E+03</pdfrwt>
<pdfrwt beam="2">  1       -1 0.32471923E-01 0.12801218E+03</pdfrwt>
<totfact> 0.29761567E+03</totfact>
</mgrwt>
</event>
<event>
 7    1  0.5400401E-006  0.1396300E+03  0.7546771E-02  0.1224593E+00
          3   -1    0    0  501    0  0.00000000000E+00  0.00000000000E+00  0.12849558634E+03  0.12849558634E+03  0.00000000000E+00 0. -1.
         -3   -1    0    0    0  501 -0.00000000000E+00 -0.00000000000E+00 -0.14682319289E+03  0.14682319289E+03  0.00000000000E+00 0.  1.
         23    2    1    2    0    0  0.23614879905E+02 -0.57567767623E+02 -0.65697264581E+02  0.15431355943E+03  0.12499933452E+03 0.  0.
          5    1    3    3  502    0 -0.49213310841E+02 -0.94241170255E+01 -0.36381392056E+02  0.62100399625E+02  0.47000000000E+01 0.  1.
         -5    1    3    3    0  502  0.72828190746E+02 -0.48143650598E+02 -0.29315872524E+02  0.92213159810E+02  0.47000000000E+01 0.  1.
        -11    1    1    2    0    0 -0.31553923083E+01  0.43634060675E+02  0.73169701120E+02  0.85250764886E+02  0.00000000000E+00 0. -1.
         11    1    1    2    0    0 -0.20459487597E+02  0.13933706948E+02 -0.25800043091E+02  0.35754454904E+02  0.00000000000E+00 0.  1.
<mgrwt>
<rscale>  0 0.13194858E+03</rscale>
<asrwt>0</asrwt>
<pdfrwt beam="1">  1        3 0.19768552E-01 0.13963003E+03</pdfrwt>
<pdfrwt beam="2">  1       -3 0.22588183E-01 0.13963003E+03</pdfrwt>
<totfact> 0.95826064E+02</totfact>
</mgrwt>
</event>
<event>
 7    1  0.5400401E-006  0.1249873E+03  0.7546771E-02  0.1263065E+00
         -3   -1    0    0    0  501 -0.00000000000E+00  0.00000000000E+00  0.37965943358E+02  0.37965943358E+02  0.00000000000E+00 0.  1.
          3   -1    0    0  501    0  0.00000000000E+00 -0.00000000000E+00 -0.26011165046E+03  0.26011165046E+03  0.00000000000E+00 0. -1.
         23    2    1    2    0    0 -0.14087485794E+01  0.17773341045E+01 -0.11863059537E+03  0.17232252144E+03  0.12496675458E+03 0.  0.
          5    1    3    3  502    0  0.39503366885E+02  0.30985373657E+02 -0.11012873722E+03  0.12112406094E+03  0.47000000000E+01 0.  1.
         -5    1    3    3    0  502 -0.40912115465E+02 -0.29208039553E+02 -0.85018581511E+01  0.51198460507E+02  0.47000000000E+01 0.  1.
        -11    1    1    2    0    0  0.27474687859E+02  0.22649596601E+02 -0.48749217371E+02  0.60368442861E+02  0.00000000000E+00 0.  1.
         11    1    1    2    0    0 -0.26065939280E+02 -0.24426930706E+02 -0.54765894359E+02  0.65386629513E+02  0.00000000000E+00 0. -1.
<mgrwt>
<rscale>  0 0.10866375E+03</rscale>
<asrwt>0</asrwt>
<pdfrwt beam="2">  1        3 0.40017177E-01 0.12498733E+03</pdfrwt>
<pdfrwt beam="1">  1       -3 0.58409143E-02 0.12498733E+03</pdfrwt>
<totfact> 0.24878610E+03</totfact>
</mgrwt>
</event>
<event>
 7    1  0.5400401E-006  0.1703524E+03  0.7546771E-02  0.1185115E+00
          1   -1    0    0  501    0  0.00000000000E+00  0.00000000000E+00  0.18539786243E+03  0.18539786243E+03  0.00000000000E+00 0. -1.
         -1   -1    0    0    0  501 -0.00000000000E+00 -0.00000000000E+00 -0.13364038551E+03  0.13364038551E+03  0.00000000000E+00 0.  1.
         23    2    1    2    0    0  0.11464123727E+03 -0.15867047417E+02  0.15975666218E+02  0.17109985820E+03  0.12500225234E+03 0.  0.
          5    1    3    3  502    0  0.15549037432E+02 -0.41669462384E+02 -0.34838793437E+02  0.56691694176E+02  0.47000000000E+01 0. -1.
         -5    1    3    3    0  502  0.99092199836E+02  0.25802414967E+02  0.50814459654E+02  0.11440816403E+03  0.47000000000E+01 0. -1.
        -11    1    1    2    0    0 -0.27677753034E+02  0.38236694991E+02  0.33916958513E+02  0.58124546721E+02  0.00000000000E+00 0. -1.
         11    1    1    2    0    0 -0.86963484234E+02 -0.22369647574E+02  0.18648521883E+01  0.89813843010E+02  0.00000000000E+00 0.  1.
<mgrwt>
<rscale>  0 0.16321456E+03</rscale>
<asrwt>0</asrwt>
<pdfrwt beam="1">  1        1 0.28522748E-01 0.17035240E+03</pdfrwt>
<pdfrwt beam="2">  1       -1 0.20560059E-01 0.17035240E+03</pdfrwt>
<totfact> 0.30413750E+03</totfact>
</mgrwt>
</event>
<event>
 7    1  0.5400401E-006  0.1400053E+03  0.7546771E-02  0.1224238E+00
         -2   -1    0    0    0  501 -0.00000000000E+00  0.00000000000E+00  0.32944648228E+02  0.32944648228E+02  0.00000000000E+00 0.  1.
          2   -1    0    0  501    0  0.00000000000E+00 -0.00000000000E+00 -0.48142524634E+03  0.48142524634E+03  0.00000000000E+00 0. -1.
         23    2    1    2    0    0 -0.22828318674E+02  0.58787731750E+02 -0.26733547201E+03  0.30177762473E+03  0.12499740259E+03 0.  0.
          5    1    3    3  502    0  0.50256962205E+02  0.35476955342E+02 -0.97796037823E+02  0.11563101498E+03  0.47000000000E+01 0. -1.
         -5    1    3    3    0  502 -0.73085280879E+02  0.23310776408E+02 -0.16953943419E+03  0.18614660976E+03  0.47000000000E+01 0. -1.
        -11    1    1    2    0    0 -0.49319376698E+01 -0.75242953470E+02 -0.14926434522E+03  0.16722939577E+03  0.00000000000E+00 0. -1.
         11    1    1    2    0    0  0.27760256344E+02  0.16455221720E+02 -0.31880780882E+02  0.45362874069E+02  0.00000000000E+00 0.  1.
<mgrwt>
<rscale>  0 0.13219250E+03</rscale>
<asrwt>0</asrwt>
<pdfrwt beam="2">  1        2 0.74065419E-01 0.14000529E+03</pdfrwt>
<pdfrwt beam="1">  1       -2 0.50684076E-02 0.14000529E+03</pdfrwt>
<totfact> 0.11849775E+04</totfact>
</mgrwt>
</event>
<event>
 7    1  0.5400401E-006  0.1273562E+03  0.7546771E-02  0.1246201E+00
          1   -1    0    0  501    0  0.00000000000E+00  0.00000000000E+00  0.61547775680E+03  0.61547775680E+03  0.00000000000E+00 0. -1.
         -1   -1    0    0    0  501 -0.00000000000E+00 -0.00000000000E+00 -0.20162549555E+02  0.20162549555E+02  0.00000000000E+00 0.  1.
         23    2    1    2    0    0 -0.62929725852E+01 -0.23576277237E+02  0.30979847886E+03  0.33495478835E+03  0.12499668149E+03 0.  0.
          5    1    3    3  502    0  0.85351682404E+00 -0.50321776060E+02  0.42089229804E+02  0.65776917701E+02  0.47000000000E+01 0. -1.
         -5    1    3    3    0  502 -0.71464894093E+01  0.26745498823E+02  0.26770924906E+03  0.26917787065E+03  0.47000000000E+01 0. -1.
        -11    1    1    2    0    0  0.42671210880E+02  0.93045764504E+01  0.76865895298E+02  0.88406861956E+02  0.00000000000E+00 0. -1.
         11    1    1    2    0    0 -0.36378238295E+02  0.14271700787E+02  0.20865083309E+03  0.21227865605E+03  0.00000000000E+00 0.  1.
<mgrwt>
<rscale>  0 0.11813810E+03</rscale>
<asrwt>0</asrwt>
<pdfrwt beam="1">  1        1 0.94688872E-01 0.12735624E+03</pdfrwt>
<pdfrwt beam="2">  1       -1 0.31019312E-02 0.12735624E+03</pdfrwt>
<totfact> 0.11559747E+04</totfact>
</mgrwt>
</event>
<event>
 7    1  0.7580423E-006  0.1981585E+03  0.7546771E-02  0.1155696E+00
         -1   -1    0    0    0  501 -0.00000000000E+00  0.00000000000E+00  0.43182618590E+02  0.43182618590E+02  0.00000000000E+00 0.  1.
          1   -1    0    0  501    0  0.00000000000E+00 -0.00000000000E+00 -0.85980434072E+03  0.85980434072E+03  0.00000000000E+00 0. -1.
         23    2    1    2    0    0 -0.56513134900E+00 -0.15375707860E+03 -0.33410378647E+03  0.38844836688E+03  0.12500094001E+03 0.  0.
          5    1    3    3  502    0  0.38138236345E+02 -0.15445154714E+03 -0.26729361353E+03  0.31109125882E+03  0.47000000000E+01 0.  1.
         -5    1    3    3    0  502 -0.38703367694E+02  0.69446854130E+00 -0.66810172947E+02  0.77357108055E+02  0.47000000000E+01 0.  1.
        -11    1    1    2    0    0  0.45693781392E+02  0.74081211740E+02 -0.24239239933E+03  0.25754615673E+03  0.00000000000E+00 0.  1.
         11    1    1    2    0    0 -0.45128650043E+02  0.79675866856E+02 -0.24012553632E+03  0.25699243570E+03  0.00000000000E+00 0. -1.
<mgrwt>
<rscale>  0 0.19309823E+03</rscale>
<asrwt>0</asrwt>
<pdfrwt beam="2">  1        1 0.13227758E+00 0.19815851E+03</pdfrwt>
<pdfrwt beam="1">  1       -1 0.66434805E-02 0.19815851E+03</pdfrwt>
<totfact> 0.23397343E+03</totfact>
</mgrwt>
</event>
<event>
 7    1  0.5400401E-006  0.1347666E+03  0.7546771E-02  0.1244932E+00
          2   -1    0    0  501    0  0.00000000000E+00  0.00000000000E+00  0.27874673717E+02  0.27874673717E+02  0.00000000000E+00 0. -1.
         -2   -1    0    0    0  501 -0.00000000000E+00 -0.00000000000E+00 -0.53836509661E+03  0.53836509661E+03  0.00000000000E+00 0.  1.
         23    2    1    2    0    0  0.50141311085E+02  0.46296934219E+01 -0.43371505065E+03  0.45417043154E+03  0.12500580221E+03 0.  0.
          5    1    3    3  502    0  0.72401974250E+02 -0.23365615715E+02 -0.39053577417E+03  0.39790486146E+03  0.47000000000E+01 0. -1.
         -5    1    3    3    0  502 -0.22260663165E+02  0.27995309137E+02 -0.43179276486E+02  0.56265570076E+02  0.47000000000E+01 0. -1.
        -11    1    1    2    0    0 -0.12590862904E+01  0.10694037827E+02  0.77257257106E+01  0.13252719762E+02  0.00000000000E+00 0. -1.
         11    1    1    2    0    0 -0.48882224795E+02 -0.15323731249E+02 -0.84501097951E+02  0.98816619023E+02  0.00000000000E+00 0.  1.
<mgrwt>
<rscale>  0 0.11889466E+03</rscale>
<asrwt>0</asrwt>
<pdfrwt beam="1">  1        2 0.42884113E-02 0.13476660E+03</pdfrwt>
<pdfrwt beam="2">  1       -2 0.82825401E-01 0.13476660E+03</pdfrwt>
<totfact> 0.24359581E+03</totfact>
</mgrwt>
</event>
<event>
 7    1  0.5400401E-006  0.1415932E+03  0.7546771E-02  0.1223064E+00
         -2   -1    0    0    0  501 -0.00000000000E+00  0.00000000000E+00  0.30512350131E+02  0.30512350131E+02  0.00000000000E+00 0.  1.
          2   -1    0    0  501    0  0.00000000000E+00 -0.00000000000E+00 -0.52231942083E+03  0.52231942083E+03  0.00000000000E+00 0. -1.
         23    2    1    2    0    0  0.68109381796E+01  0.66166498469E+02 -0.25666894843E+03  0.29313408310E+03  0.12499698873E+03 0.  0.
          5    1    3    3  502    0  0.64679249408E+02  0.46849008696E+02 -0.15629016263E+03  0.17557602301E+03  0.47000000000E+01 0.  1.
         -5    1    3    3    0  502 -0.57868311228E+02  0.19317489773E+02 -0.10037878579E+03  0.11755806009E+03  0.47000000000E+01 0.  1.
        -11    1    1    2    0    0  0.29134757686E+02 -0.65825685071E+02 -0.13021890691E+03  0.14879119139E+03  0.00000000000E+00 0.  1.
         11    1    1    2    0    0 -0.35945695866E+02 -0.34081339815E+00 -0.10491921536E+03  0.11090649646E+03  0.00000000000E+00 0. -1.
<mgrwt>
<rscale>  0 0.13300473E+03</rscale>
<asrwt>0</asrwt>
<pdfrwt beam="2">  1        2 0.80356825E-01 0.14159323E+03</pdfrwt>
<pdfrwt beam="1">  1       -2 0.46942083E-02 0.14159323E+03</pdfrwt>
<totfact> 0.12164789E+04</totfact>
</mgrwt>
</event>
<event>
 6    1  0.5400401E-006  0.1980924E+03  0.7546771E-02  0.1170916E+00
          2   -1    0    0  501    0  0.00000000000E+00  0.00000000000E+00  0.21084619614E+03  0.21084619614E+03  0.00000000000E+00 0. -1.
         -2   -1    0    0    0  501 -0.00000000000E+00 -0.00000000000E+00 -0.24102948683E+03  0.24102948683E+03  0.00000000000E+00 0.  1.
          5    1    1    2  502    0 -0.76501371565E+01 -0.16933466602E+02  0.32070725033E+02  0.37361588481E+02  0.47000000000E+01 0. -1.
         -5    1    1    2    0  502  0.94205258520E+02  0.87570988564E+01 -0.20406186154E+03  0.22497700071E+03  0.47000000000E+01 0.  1.
        -11    1    1    2    0    0 -0.33317491226E+02 -0.13711212951E+01 -0.44102394713E+01  0.33636073008E+02  0.00000000000E+00 0.  1.
         11    1    1    2    0    0 -0.53237630137E+02  0.95474890408E+01  0.14621808530E+03  0.15590102077E+03  0.00000000000E+00 0. -1.
<mgrwt>
<rscale>  0 0.17682103E+03</rscale>
<asrwt>0</asrwt>
<pdfrwt beam="1">  1        2 0.32437876E-01 0.19809236E+03</pdfrwt>
<pdfrwt beam="2">  1       -2 0.37081459E-01 0.19809236E+03</pdfrwt>
<totfact> 0.11014688E+03</totfact>
</mgrwt>
</event>
<event>
 7    1  0.5400401E-006  0.1513189E+03  0.7546771E-02  0.1207858E+00
         -1   -1    0    0    0  501 -0.00000000000E+00  0.00000000000E+00  0.15132212387E+03  0.15132212387E+03  0.00000000000E+00 0.  1.
          1   -1    0    0  501    0  0.00000000000E+00 -0.00000000000E+00 -0.13161723351E+03  0.13161723351E+03  0.00000000000E+00 0. -1.
         23    2    1    2    0    0 -0.69004806858E+02  0.50165281534E+02 -0.18905032452E+02  0.15249527894E+03  0.12497676187E+03 0.  0.
          5    1    3    3  502    0  0.56114344777E+01  0.47818710876E+02  0.35498095123E+02  0.60002683807E+02  0.47000000000E+01 0.  1.
         -5    1    3    3    0  502 -0.74616241336E+02  0.23465706589E+01 -0.54403127575E+02  0.92492595136E+02  0.47000000000E+01 0.  1.
        -11    1    1    2    0    0  0.35604280362E+02 -0.59182139325E+02  0.58522411313E+02  0.90526587371E+02  0.00000000000E+00 0.  1.
         11    1    1    2    0    0  0.33400526496E+02  0.90168577907E+01 -0.19912488499E+02  0.39917491064E+02  0.00000000000E+00 0. -1.
<mgrwt>
<rscale>  0 0.14414467E+03</rscale>
<asrwt>0</asrwt>
<pdfrwt beam="2">  1        1 0.20248805E-01 0.15131890E+03</pdfrwt>
<pdfrwt beam="1">  1       -1 0.23280327E-01 0.15131890E+03</pdfrwt>
<totfact> 0.38097884E+03</totfact>
</mgrwt>
</event>
<event>
 7    1  0.5400401E-006  0.1473071E+03  0.7546771E-02  0.1212291E+00
          2   -1    0    0  501    0  0.00000000000E+00  0.00000000000E+00  0.61487641886E+03  0.61487641886E+03  0.00000000000E+00 0. -1.
         -2   -1    0    0    0  501 -0.00000000000E+00 -0.00000000000E+00 -0.30779232246E+02  0.30779232246E+02  0.00000000000E+00 0.  1.
         23    2    1    2    0    0 -0.43814054861E+02 -0.64491052008E+02  0.25668290664E+03  0.29594848431E+03  0.12498249322E+03 0.  0.
          5    1    3    3  502    0 -0.47637378739E+02  0.76319574406E+01  0.19474516338E+03  0.20068715775E+03  0.47000000000E+01 0.  1.
         -5    1    3    3    0  502  0.38233238778E+01 -0.72123009449E+02  0.61937743265E+02  0.95261326561E+02  0.47000000000E+01 0.  1.
        -11    1    1    2    0    0  0.36171180828E+01  0.74276097778E+02  0.26164976078E+03  0.27201216804E+03  0.00000000000E+00 0.  1.
         11    1    1    2    0    0  0.40196936778E+02 -0.97850457695E+01  0.65764519189E+02  0.77694998753E+02  0.00000000000E+00 0. -1.
<mgrwt>
<rscale>  0 0.14077383E+03</rscale>
<asrwt>0</asrwt>
<pdfrwt beam="1">  1        2 0.94596363E-01 0.14730713E+03</pdfrwt>
<pdfrwt beam="2">  1       -2 0.47352670E-02 0.14730713E+03</pdfrwt>
<totfact> 0.10017671E+04</totfact>
</mgrwt>
</event>
<event>
 7    1  0.5400401E-006  0.1335777E+03  0.7546771E-02  0.1235370E+00
         -1   -1    0    0    0  501 -0.00000000000E+00  0.00000000000E+00  0.17132504007E+03  0.17132504007E+03  0.00000000000E+00 0. -1.
          1   -1    0    0  501    0  0.00000000000E+00 -0.00000000000E+00 -0.80877648970E+02  0.80877648970E+02  0.00000000000E+00 0.  1.
         23    2    1    2    0    0  0.45986321659E+02  0.10049501894E+02  0.53777143917E+02  0.14399644974E+03  0.12500904792E+03 0.  0.
          5    1    3    3  502    0  0.73013039055E+02 -0.34415003092E+02  0.38569443466E+02  0.89582298916E+02  0.47000000000E+01 0.  1.
         -5    1    3    3    0  502 -0.27026717396E+02  0.44464504985E+02  0.15207700451E+02  0.54414150823E+02  0.47000000000E+01 0.  1.
        -11    1    1    2    0    0  0.64634662153E+01  0.21772544153E+02 -0.15646468721E+02  0.27579558696E+02  0.00000000000E+00 0.  1.
         11    1    1    2    0    0 -0.52449787874E+02 -0.31822046047E+02  0.52316715904E+02  0.80626680607E+02  0.00000000000E+00 0. -1.
<mgrwt>
<rscale>  0 0.12480751E+03</rscale>
<asrwt>0</asrwt>
<pdfrwt beam="2">  1        1 0.12442715E-01 0.13357768E+03</pdfrwt>
<pdfrwt beam="1">  1       -1 0.26357698E-01 0.13357768E+03</pdfrwt>
<totfact> 0.57832233E+03</totfact>
</mgrwt>
</event>
<event>
 7    1  0.5400401E-006  0.1451536E+03  0.7546771E-02  0.1217877E+00
          1   -1    0    0  501    0  0.00000000000E+00  0.00000000000E+00  0.28842617972E+03  0.28842617972E+03  0.00000000000E+00 0. -1.
         -1   -1    0    0    0  501 -0.00000000000E+00 -0.00000000000E+00 -0.61338638019E+02  0.61338638019E+02  0.00000000000E+00 0.  1.
         23    2    1    2    0    0 -0.12498746947E+02 -0.72711468092E+02  0.87510776228E+02  0.16949250484E+03  0.12500558776E+03 0.  0.
          5    1    3    3  502    0 -0.49099736816E+01  0.22019998237E+02  0.68749923651E+02  0.72509517761E+02  0.47000000000E+01 0. -1.
         -5    1    3    3    0  502 -0.75887732650E+01 -0.94731466329E+02  0.18760852577E+02  0.96982987075E+02  0.47000000000E+01 0. -1.
        -11    1    1    2    0    0 -0.28784333592E+02 -0.31712242554E+00  0.48886449624E+02  0.56732031374E+02  0.00000000000E+00 0.  1.
         11    1    1    2    0    0  0.41283080539E+02  0.73028590518E+02  0.90690315853E+02  0.12354028153E+03  0.00000000000E+00 0. -1.
<mgrwt>
<rscale>  0 0.13667290E+03</rscale>
<asrwt>0</asrwt>
<pdfrwt beam="1">  1        1 0.44373258E-01 0.14515362E+03</pdfrwt>
<pdfrwt beam="2">  1       -1 0.94367137E-02 0.14515362E+03</pdfrwt>
<totfact> 0.58945551E+03</totfact>
</mgrwt>
</event>
<event>
 7    1  0.5400401E-006  0.1308425E+03  0.7546771E-02  0.1239117E+00
         -2   -1    0    0    0  501 -0.00000000000E+00  0.00000000000E+00  0.11265053052E+02  0.11265053052E+02  0.00000000000E+00 0.  1.
          2   -1    0    0  501    0  0.00000000000E+00 -0.00000000000E+00 -0.11884426504E+04  0.11884426504E+04  0.00000000000E+00 0. -1.
         23    2    1    2    0    0  0.38479834209E+02  0.23131299413E+01 -0.64020355546E+03  0.65343733198E+03  0.12503481989E+03 0.  0.
          5    1    3    3  502    0 -0.40089194679E+02  0.17281273896E+02 -0.33612497201E+03  0.33898063774E+03  0.47000000000E+01 0.  1.
         -5    1    3    3    0  502  0.78569028888E+02 -0.14968143954E+02 -0.30407858345E+03  0.31445669423E+03  0.47000000000E+01 0.  1.
        -11    1    1    2    0    0  0.95543805293E+01 -0.38844771506E+02 -0.21362865033E+03  0.21734167273E+03  0.00000000000E+00 0.  1.
         11    1    1    2    0    0 -0.48034214738E+02  0.36531641565E+02 -0.32334539156E+03  0.32892869875E+03  0.00000000000E+00 0. -1.
<mgrwt>
<rscale>  0 0.12244507E+03</rscale>
<asrwt>0</asrwt>
<pdfrwt beam="2">  1        2 0.18283730E+00 0.13084248E+03</pdfrwt>
<pdfrwt beam="1">  1       -2 0.17330854E-02 0.13084248E+03</pdfrwt>
<totfact> 0.18530422E+04</totfact>
</mgrwt>
</event>
<event>
 7    1  0.5400401E-006  0.1417655E+03  0.7546771E-02  0.1221966E+00
         -1   -1    0    0    0  501 -0.00000000000E+00  0.00000000000E+00  0.40216967362E+03  0.40216967362E+03  0.00000000000E+00 0.  1.
          1   -1    0    0  501    0  0.00000000000E+00 -0.00000000000E+00 -0.40226017308E+02  0.40226017308E+02  0.00000000000E+00 0. -1.
         23    2    1    2    0    0 -0.30213805693E+02  0.61000524554E+02  0.19256103319E+03  0.23911756568E+03  0.12435240514E+03 0.  0.
          5    1    3    3  502    0 -0.45253018465E+01  0.57805652340E+02  0.20272996459E+03  0.21091111953E+03  0.47000000000E+01 0. -1.
         -5    1    3    3    0  502 -0.25688503846E+02  0.31948722135E+01 -0.10168931403E+02  0.28206446146E+02  0.47000000000E+01 0. -1.
        -11    1    1    2    0    0  0.70973661822E+00 -0.68665911776E+02  0.15508524564E+03  0.16960820906E+03  0.00000000000E+00 0.  1.
         11    1    1    2    0    0  0.29504069074E+02  0.76653872224E+01  0.14297377487E+02  0.33669916190E+02  0.00000000000E+00 0. -1.
<mgrwt>
<rscale>  0 0.13377036E+03</rscale>
<asrwt>0</asrwt>
<pdfrwt beam="2">  1        1 0.61886183E-02 0.14176551E+03</pdfrwt>
<pdfrwt beam="1">  1       -1 0.61872255E-01 0.14176551E+03</pdfrwt>
<totfact> 0.32695182E+03</totfact>
</mgrwt>
</event>
<event>
 7    1  0.5400401E-006  0.1519966E+03  0.7546771E-02  0.1206437E+00
         -1   -1    0    0    0  501 -0.00000000000E+00  0.00000000000E+00  0.85809553379E+03  0.85809553379E+03  0.00000000000E+00 0.  1.
          1   -1    0    0  501    0  0.00000000000E+00 -0.00000000000E+00 -0.25559006047E+02  0.25559006047E+02  0.00000000000E+00 0. -1.
         23    2    1    2    0    0 -0.23719017053E+02 -0.83157123069E+02  0.59851183067E+03  0.61751063564E+03  0.12500109914E+03 0.  0.
          5    1    3    3  502    0  0.37375833757E+02 -0.72658078971E+02  0.43388629744E+03  0.44153772035E+03  0.47000000000E+01 0.  1.
         -5    1    3    3    0  502 -0.61094850810E+02 -0.10499044099E+02  0.16462553323E+03  0.17597291529E+03  0.47000000000E+01 0.  1.
        -11    1    1    2    0    0  0.29622903822E+02  0.10401961164E+02  0.14090664694E+02  0.34413137875E+02  0.00000000000E+00 0. -1.
         11    1    1    2    0    0 -0.59038867687E+01  0.72755161906E+02  0.21993403238E+03  0.23173076632E+03  0.00000000000E+00 0.  1.
<mgrwt>
<rscale>  0 0.14524815E+03</rscale>
<asrwt>0</asrwt>
<pdfrwt beam="2">  1        1 0.39321554E-02 0.15199662E+03</pdfrwt>
<pdfrwt beam="1">  1       -1 0.13201468E+00 0.15199662E+03</pdfrwt>
<totfact> 0.12000039E+03</totfact>
</mgrwt>
</event>
<event>
 7    1  0.5400401E-006  0.1896402E+03  0.7546771E-02  0.1162947E+00
         -4   -1    0    0    0  501 -0.00000000000E+00  0.00000000000E+00  0.14116019198E+03  0.14116019198E+03  0.00000000000E+00 0.  1.
          4   -1    0    0  501    0  0.00000000000E+00 -0.00000000000E+00 -0.25128924637E+03  0.25128924637E+03  0.00000000000E+00 0. -1.
         23    2    1    2    0    0  0.99550014417E+02 -0.10212097413E+03 -0.29716048532E+01  0.18966349210E+03  0.12499804428E+03 0.  0.
          5    1    3    3  502    0 -0.18094570754E+02 -0.55208284306E+02 -0.20348186331E+02  0.61737402227E+02  0.47000000000E+01 0. -1.
         -5    1    3    3    0  502  0.11764458517E+03 -0.46912689822E+02  0.17376581477E+02  0.12792608987E+03  0.47000000000E+01 0. -1.
        -11    1    1    2    0    0 -0.10736681052E+03  0.68951449652E+02 -0.51661509080E+02  0.13766207150E+03  0.00000000000E+00 0.  1.
         11    1    1    2    0    0  0.78167961040E+01  0.33169524476E+02 -0.55495940450E+02  0.65123874745E+02  0.00000000000E+00 0. -1.
<mgrwt>
<rscale>  0 0.18511071E+03</rscale>
<asrwt>0</asrwt>
<pdfrwt beam="2">  1        4 0.38659884E-01 0.18964021E+03</pdfrwt>
<pdfrwt beam="1">  1       -4 0.21716953E-01 0.18964021E+03</pdfrwt>
<totfact> 0.22286724E+02</totfact>
</mgrwt>
</event>
<event>
 7    1  0.5400401E-006  0.1277347E+03  0.7546771E-02  0.1247107E+00
         -2   -1    0    0    0  501 -0.00000000000E+00  0.00000000000E+00  0.41291122279E+02  0.41291122279E+02  0.00000000000E+00 0. -1.
          2   -1    0    0  501    0  0.00000000000E+00 -0.00000000000E+00 -0.29719146863E+03  0.29719146863E+03  0.00000000000E+00 0.  1.
         23    2    1    2    0    0  0.24333325685E+02  0.10114894520E+02 -0.12589812984E+03  0.17935018569E+03  0.12498691203E+03 0.  0.
          5    1    3    3  502    0 -0.14687449260E+02  0.55367780977E+02 -0.26525681928E+02  0.63300980544E+02  0.47000000000E+01 0. -1.
         -5    1    3    3    0  502  0.39020774945E+02 -0.45252886458E+02 -0.99372447912E+02  0.11604920514E+03  0.47000000000E+01 0. -1.
        -11    1    1    2    0    0 -0.28938475515E+02  0.82807251023E+01 -0.13596252241E+03  0.13925449103E+03  0.00000000000E+00 0.  1.
         11    1    1    2    0    0  0.46051498304E+01 -0.18395619622E+02  0.59603058961E+01  0.19877914192E+02  0.00000000000E+00 0. -1.
<mgrwt>
<rscale>  0 0.11760128E+03</rscale>
<asrwt>0</asrwt>
<pdfrwt beam="2">  1        2 0.45721763E-01 0.12773469E+03</pdfrwt>
<pdfrwt beam="1">  1       -2 0.63524805E-02 0.12773469E+03</pdfrwt>
<totfact> 0.14001742E+04</totfact>
</mgrwt>
</event>
<event>
 7    1  0.5400401E-006  0.1292423E+03  0.7546771E-02  0.1242695E+00
          2   -1    0    0  501    0  0.00000000000E+00  0.00000000000E+00  0.40235780602E+03  0.40235780602E+03  0.00000000000E+00 0. -1.
         -2   -1    0    0    0  501 -0.00000000000E+00 -0.00000000000E+00 -0.49819831962E+02  0.49819831962E+02  0.00000000000E+00 0.  1.
         23    2    1    2    0    0 -0.30286943004E+02  0.12567481440E+02  0.57136042738E+02  0.14130848518E+03  0.12501327969E+03 0.  0.
          5    1    3    3  502    0 -0.75915857618E+02 -0.11594429037E+02  0.28268211179E+02  0.81968469462E+02  0.47000000000E+01 0. -1.
         -5    1    3    3    0  502  0.45628914614E+02  0.24161910476E+02  0.28867831559E+02  0.59340015720E+02  0.47000000000E+01 0. -1.
        -11    1    1    2    0    0  0.60284506833E+02  0.20457209589E+01  0.22523905885E+03  0.23317598583E+03  0.00000000000E+00 0.  1.
         11    1    1    2    0    0 -0.29997563829E+02 -0.14613202399E+02  0.70162872468E+02  0.77693166964E+02  0.00000000000E+00 0. -1.
<mgrwt>
<rscale>  0 0.12024397E+03</rscale>
<asrwt>0</asrwt>
<pdfrwt beam="1">  1        2 0.61901199E-01 0.12924226E+03</pdfrwt>
<pdfrwt beam="2">  1       -2 0.76645898E-02 0.12924226E+03</pdfrwt>
<totfact> 0.76280028E+03</totfact>
</mgrwt>
</event>
<event>
 7    1  0.5400401E-006  0.1628302E+03  0.7546771E-02  0.1192992E+00
          2   -1    0    0  501    0  0.00000000000E+00  0.00000000000E+00  0.34267077280E+02  0.34267077280E+02  0.00000000000E+00 0. -1.
         -2   -1    0    0    0  501 -0.00000000000E+00 -0.00000000000E+00 -0.73858109579E+03  0.73858109579E+03  0.00000000000E+00 0.  1.
         23    2    1    2    0    0  0.15280439056E+02 -0.10321493819E+03 -0.50326816611E+03  0.52895419031E+03  0.12500749235E+03 0.  0.
          5    1    3    3  502    0  0.19895941290E+02 -0.21287348866E+02 -0.13707783756E+02  0.32542173207E+02  0.47000000000E+01 0.  1.
         -5    1    3    3    0  502 -0.46155022338E+01 -0.81927589329E+02 -0.48956038236E+03  0.49641201711E+03  0.47000000000E+01 0.  1.
        -11    1    1    2    0    0  0.25281912908E+02  0.71168952572E+02 -0.16319448379E+03  0.17982389850E+03  0.00000000000E+00 0.  1.
         11    1    1    2    0    0 -0.40562351964E+02  0.32045985623E+02 -0.37851368600E+02  0.64070084254E+02  0.00000000000E+00 0. -1.
<mgrwt>
<rscale>  0 0.15625375E+03</rscale>
<asrwt>0</asrwt>
<pdfrwt beam="1">  1        2 0.52718585E-02 0.16283024E+03</pdfrwt>
<pdfrwt beam="2">  1       -2 0.11362785E+00 0.16283024E+03</pdfrwt>
<totfact> 0.90995096E+02</totfact>
</mgrwt>
</event>
<event>
 7    1  0.5400401E-006  0.1411490E+03  0.7546771E-02  0.1222675E+00
          1   -1    0    0  501    0  0.00000000000E+00  0.00000000000E+00  0.25791193683E+03  0.25791193683E+03  0.00000000000E+00 0. -1.
         -1   -1    0    0    0  501 -0.00000000000E+00 -0.00000000000E+00 -0.67273151147E+02  0.67273151147E+02  0.00000000000E+00 0.  1.
         23    2    1    2    0    0 -0.65468047393E+02 -0.39611670828E+00  0.61071834294E+02  0.15379468897E+03  0.12504725216E+03 0.  0.
          5    1    3    3  502    0 -0.67449889765E+02 -0.46126501065E+02  0.69061621850E+02  0.10709220019E+03  0.47000000000E+01 0.  1.
         -5    1    3    3    0  502  0.19818423720E+01  0.45730384357E+02 -0.79897875564E+01  0.46702488775E+02  0.47000000000E+01 0.  1.
        -11    1    1    2    0    0  0.31936886065E+02  0.44440987689E+02  0.47885940352E+02  0.72718837736E+02  0.00000000000E+00 0.  1.
         11    1    1    2    0    0  0.33531161328E+02 -0.44044870981E+02  0.81681011035E+02  0.98671561270E+02  0.00000000000E+00 0. -1.
<mgrwt>
<rscale>  0 0.13327507E+03</rscale>
<asrwt>0</asrwt>
<pdfrwt beam="1">  1        1 0.39678759E-01 0.14114899E+03</pdfrwt>
<pdfrwt beam="2">  1       -1 0.10349716E-01 0.14114899E+03</pdfrwt>
<totfact> 0.58689403E+03</totfact>
</mgrwt>
</event>
<event>
 7    1  0.5400401E-006  0.1498093E+03  0.7546771E-02  0.1209646E+00
          1   -1    0    0  501    0  0.00000000000E+00  0.00000000000E+00  0.86936715151E+02  0.86936715151E+02  0.00000000000E+00 0. -1.
         -1   -1    0    0    0  501 -0.00000000000E+00 -0.00000000000E+00 -0.26111373232E+03  0.26111373232E+03  0.00000000000E+00 0.  1.
         23    2    1    2    0    0 -0.70436606117E+02  0.43156819142E+02 -0.16686784319E+03  0.22424920289E+03  0.12497600324E+03 0.  0.
          5    1    3    3  502    0 -0.81601020191E+02  0.28814820783E+02 -0.18104808117E+03  0.20072249024E+03  0.47000000000E+01 0. -1.
         -5    1    3    3    0  502  0.11164414075E+02  0.14341998359E+02  0.14180237986E+02  0.23526712646E+02  0.47000000000E+01 0. -1.
        -11    1    1    2    0    0  0.82092632572E+02 -0.60839048711E+02 -0.32088660990E+01  0.10222957983E+03  0.00000000000E+00 0.  1.
         11    1    1    2    0    0 -0.11656026455E+02  0.17682229569E+02 -0.41003078792E+01  0.21571664747E+02  0.00000000000E+00 0. -1.
<mgrwt>
<rscale>  0 0.14277290E+03</rscale>
<asrwt>0</asrwt>
<pdfrwt beam="1">  1        1 0.13374880E-01 0.14980931E+03</pdfrwt>
<pdfrwt beam="2">  1       -1 0.40171342E-01 0.14980931E+03</pdfrwt>
<totfact> 0.25854325E+03</totfact>
</mgrwt>
</event>
<event>
 7    1  0.5400401E-006  0.1521980E+03  0.7546771E-02  0.1206563E+00
          1   -1    0    0  501    0  0.00000000000E+00  0.00000000000E+00  0.20728539042E+03  0.20728539042E+03  0.00000000000E+00 0. -1.
         -1   -1    0    0    0  501 -0.00000000000E+00 -0.00000000000E+00 -0.97904680069E+02  0.97904680069E+02  0.00000000000E+00 0.  1.
         23    2    1    2    0    0 -0.50315055276E+02  0.70764559628E+02  0.26583186843E+02  0.15450204494E+03  0.12499995353E+03 0.  0.
          5    1    3    3  502    0  0.39587083538E+02  0.88280714395E+01  0.18802850460E+02  0.44952299316E+02  0.47000000000E+01 0. -1.
         -5    1    3    3    0  502 -0.89902138814E+02  0.61936488189E+02  0.77803363833E+01  0.10954974563E+03  0.47000000000E+01 0. -1.
        -11    1    1    2    0    0 -0.27550245488E+01  0.11700684829E+02 -0.10029618516E+02  0.15655332424E+02  0.00000000000E+00 0.  1.
         11    1    1    2    0    0  0.53070079825E+02 -0.82465244457E+02  0.92827142026E+02  0.13503269313E+03  0.00000000000E+00 0. -1.
<mgrwt>
<rscale>  0 0.14514940E+03</rscale>
<asrwt>0</asrwt>
<pdfrwt beam="1">  1        1 0.31890060E-01 0.15219795E+03</pdfrwt>
<pdfrwt beam="2">  1       -1 0.15062258E-01 0.15219795E+03</pdfrwt>
<totfact> 0.43210577E+03</totfact>
</mgrwt>
</event>
<event>
 7    1  0.5400401E-006  0.1694858E+03  0.7546771E-02  0.1184898E+00
         -4   -1    0    0    0  501 -0.00000000000E+00  0.00000000000E+00  0.13356586837E+03  0.13356586837E+03  0.00000000000E+00 0.  1.
          4   -1    0    0  501    0  0.00000000000E+00 -0.00000000000E+00 -0.19026730145E+03  0.19026730145E+03  0.00000000000E+00 0. -1.
         23    2    1    2    0    0  0.11191121842E+03  0.24007172822E+02 -0.87165309728E+01  0.16970974676E+03  0.12499982031E+03 0.  0.
          5    1    3    3  502    0 -0.13794159834E+02 -0.24277366307E+02 -0.19741237744E+02  0.34517761051E+02  0.47000000000E+01 0. -1.
         -5    1    3    3    0  502  0.12570537826E+03  0.48284539129E+02  0.11024706772E+02  0.13519198571E+03  0.47000000000E+01 0. -1.
        -11    1    1    2    0    0 -0.73342940686E+02 -0.83780302005E+01  0.18119224932E+02  0.76011082420E+02  0.00000000000E+00 0.  1.
         11    1    1    2    0    0 -0.38568277737E+02 -0.15629142622E+02 -0.66104127047E+02  0.78112340634E+02  0.00000000000E+00 0. -1.
<mgrwt>
<rscale>  0 0.16341129E+03</rscale>
<asrwt>0</asrwt>
<pdfrwt beam="2">  1        4 0.29271893E-01 0.16948575E+03</pdfrwt>
<pdfrwt beam="1">  1       -4 0.20548595E-01 0.16948575E+03</pdfrwt>
<totfact> 0.41396704E+02</totfact>
</mgrwt>
</event>
<event>
 7    1  0.5400401E-006  0.2674859E+03  0.7546771E-02  0.1104975E+00
         -2   -1    0    0    0  501 -0.00000000000E+00  0.00000000000E+00  0.12670680079E+03  0.12670680079E+03  0.00000000000E+00 0.  1.
          2   -1    0    0  501    0  0.00000000000E+00 -0.00000000000E+00 -0.62620225262E+03  0.62620225262E+03  0.00000000000E+00 0. -1.
         23    2    1    2    0    0  0.21086761766E+03 -0.10703800167E+03 -0.40080664392E+03  0.48186582505E+03  0.12500568612E+03 0.  0.
          5    1    3    3  502    0  0.17141872815E+03 -0.13316435944E+03 -0.35309716752E+03  0.41450793322E+03  0.47000000000E+01 0. -1.
         -5    1    3    3    0  502  0.39448889508E+02  0.26126357778E+02 -0.47709476398E+02  0.67357891834E+02  0.47000000000E+01 0. -1.
        -11    1    1    2    0    0 -0.81810201088E+02  0.90479240897E+02 -0.40713466730E+02  0.12859622237E+03  0.00000000000E+00 0.  1.
         11    1    1    2    0    0 -0.12905741657E+03  0.16558760770E+02 -0.57975341176E+02  0.14244700598E+03  0.00000000000E+00 0. -1.
<mgrwt>
<rscale>  0 0.26364186E+03</rscale>
<asrwt>0</asrwt>
<pdfrwt beam="2">  1        2 0.96338805E-01 0.26748590E+03</pdfrwt>
<pdfrwt beam="1">  1       -2 0.19493355E-01 0.26748590E+03</pdfrwt>
<totfact> 0.10556871E+03</totfact>
</mgrwt>
</event>
<event>
 7    1  0.5400401E-006  0.1304799E+03  0.7546771E-02  0.1240631E+00
         -2   -1    0    0    0  501 -0.00000000000E+00  0.00000000000E+00  0.82090945674E+02  0.82090945674E+02  0.00000000000E+00 0.  1.
          2   -1    0    0  501    0  0.00000000000E+00 -0.00000000000E+00 -0.47808384231E+03  0.47808384231E+03  0.00000000000E+00 0. -1.
         23    2    1    2    0    0 -0.37259830882E+02 -0.33882312656E+01  0.20675788359E+02  0.13210791223E+03  0.12500094856E+03 0.  0.
          5    1    3    3  502    0  0.41583548323E+02 -0.14462072650E+02  0.27399950566E+02  0.52069091864E+02  0.47000000000E+01 0. -1.
         -5    1    3    3    0  502 -0.78843379206E+02  0.11073841384E+02 -0.67241622076E+01  0.80038820362E+02  0.47000000000E+01 0. -1.
        -11    1    1    2    0    0 -0.28052619951E+00  0.41862599031E+02 -0.13601886275E+03  0.14231544863E+03  0.00000000000E+00 0. -1.
         11    1    1    2    0    0  0.37540357082E+02 -0.38474367765E+02 -0.28064982224E+03  0.28575142713E+03  0.00000000000E+00 0.  1.
<mgrwt>
<rscale>  0 0.12150730E+03</rscale>
<asrwt>0</asrwt>
<pdfrwt beam="2">  1        2 0.73551361E-01 0.13047993E+03</pdfrwt>
<pdfrwt beam="1">  1       -2 0.12629376E-01 0.13047993E+03</pdfrwt>
<totfact> 0.28960226E+03</totfact>
</mgrwt>
</event>
<event>
 7    1  0.5400401E-006  0.1263351E+03  0.7546771E-02  0.1247610E+00
         -3   -1    0    0    0  501 -0.00000000000E+00  0.00000000000E+00  0.32336822599E+02  0.32336822599E+02  0.00000000000E+00 0.  1.
          3   -1    0    0  501    0  0.00000000000E+00 -0.00000000000E+00 -0.42456189930E+03  0.42456189930E+03  0.00000000000E+00 0. -1.
         23    2    1    2    0    0 -0.72470992810E+01  0.16818673751E+02 -0.14432281835E+03  0.19180620812E+03  0.12500062937E+03 0.  0.
          5    1    3    3  502    0 -0.22488355690E+02  0.29978262656E+02  0.75633124281E+01  0.38519035144E+02  0.47000000000E+01 0.  1.
         -5    1    3    3    0  502  0.15241256408E+02 -0.13159588905E+02 -0.15188613078E+03  0.15328717298E+03  0.47000000000E+01 0.  1.
        -11    1    1    2    0    0  0.18640567060E+02  0.35205588324E+02 -0.89157062626E+02  0.97651861250E+02  0.00000000000E+00 0.  1.
         11    1    1    2    0    0 -0.11393467779E+02 -0.52024262075E+02 -0.15874519573E+03  0.16744065253E+03  0.00000000000E+00 0. -1.
<mgrwt>
<rscale>  0 0.11730521E+03</rscale>
<asrwt>0</asrwt>
<pdfrwt beam="2">  1        3 0.65317210E-01 0.12633505E+03</pdfrwt>
<pdfrwt beam="1">  1       -3 0.49748962E-02 0.12633505E+03</pdfrwt>
<totfact> 0.12064920E+03</totfact>
</mgrwt>
</event>
<event>
 6    1  0.5400401E-006  0.1341492E+03  0.7546771E-02  0.1236025E+00
         -2   -1    0    0    0  501 -0.00000000000E+00  0.00000000000E+00  0.67124700857E+02  0.67124700857E+02  0.00000000000E+00 0.  1.
          2   -1    0    0  501    0  0.00000000000E+00 -0.00000000000E+00 -0.23208874962E+03  0.23208874962E+03  0.00000000000E+00 0. -1.
          5    1    1    2  502    0 -0.18585456770E+02 -0.35336779166E+02 -0.60651861177E+02  0.72765688545E+02  0.47000000000E+01 0. -1.
         -5    1    1    2    0  502  0.51362603658E+02  0.38481664767E+02  0.20034881479E+02  0.67397641306E+02  0.47000000000E+01 0.  1.
        -11    1    1    2    0    0 -0.35610688700E+02  0.36616017561E+02 -0.37102231712E+02  0.63130258115E+02  0.00000000000E+00 0.  1.
         11    1    1    2    0    0  0.28335418119E+01 -0.39760903161E+02 -0.87244837348E+02  0.95919862507E+02  0.00000000000E+00 0. -1.
<mgrwt>
<rscale>  0 0.12439032E+03</rscale>
<asrwt>0</asrwt>
<pdfrwt beam="2">  1        2 0.35705961E-01 0.13414925E+03</pdfrwt>
<pdfrwt beam="1">  1       -2 0.10326877E-01 0.13414925E+03</pdfrwt>
<totfact> 0.86265164E+03</totfact>
</mgrwt>
</event>
<event>
 6    1  0.5400401E-006  0.3706032E+03  0.7546771E-02  0.1055729E+00
          1   -1    0    0  501    0  0.00000000000E+00  0.00000000000E+00  0.16574430455E+03  0.16574430455E+03  0.00000000000E+00 0. -1.
         -1   -1    0    0    0  501 -0.00000000000E+00 -0.00000000000E+00 -0.90949587739E+03  0.90949587739E+03  0.00000000000E+00 0.  1.
          5    1    1    2  502    0  0.22985158476E+02  0.13936692065E+02 -0.11857185405E+01  0.27313821123E+02  0.47000000000E+01 0. -1.
         -5    1    1    2    0  502  0.28263628764E+03  0.15046344994E+03 -0.56322879941E+03  0.64789759325E+03  0.47000000000E+01 0.  1.
        -11    1    1    2    0    0 -0.13765718443E+03 -0.10284650933E+03 -0.12690299940E+03  0.21361478452E+03  0.00000000000E+00 0.  1.
         11    1    1    2    0    0 -0.16796426169E+03 -0.61553632667E+02 -0.52434055482E+02  0.18641398304E+03  0.00000000000E+00 0. -1.
<mgrwt>
<rscale>  0 0.36730277E+03</rscale>
<asrwt>0</asrwt>
<pdfrwt beam="1">  1        1 0.25499124E-01 0.37060317E+03</pdfrwt>
<pdfrwt beam="2">  1       -1 0.13992244E+00 0.37060317E+03</pdfrwt>
<totfact> 0.83868630E+01</totfact>
</mgrwt>
</event>
<event>
 7    1  0.5400401E-006  0.1337857E+03  0.7546771E-02  0.1230479E+00
         -1   -1    0    0    0  501 -0.00000000000E+00  0.00000000000E+00  0.13120711805E+03  0.13120711805E+03  0.00000000000E+00 0.  1.
          1   -1    0    0  501    0  0.00000000000E+00 -0.00000000000E+00 -0.13419706983E+03  0.13419706983E+03  0.00000000000E+00 0. -1.
         23    2    1    2    0    0  0.47703924426E+02  0.13461631582E+01  0.48222110094E+02  0.14221108558E+03  0.12498457665E+03 0.  0.
          5    1    3    3  502    0  0.51735710812E+02 -0.50546082603E+02  0.52913034806E+02  0.89740567705E+02  0.47000000000E+01 0. -1.
         -5    1    3    3    0  502 -0.40317863865E+01  0.51892245761E+02 -0.46909247113E+01  0.52470517876E+02  0.47000000000E+01 0. -1.
        -11    1    1    2    0    0  0.15792248034E+02  0.34952785020E+02 -0.23488838828E+02  0.44975747110E+02  0.00000000000E+00 0.  1.
         11    1    1    2    0    0 -0.63496172460E+02 -0.36298948178E+02 -0.27723223049E+02  0.78217355185E+02  0.00000000000E+00 0. -1.
<mgrwt>
<rscale>  0 0.12798366E+03</rscale>
<asrwt>0</asrwt>
<pdfrwt beam="2">  1        1 0.20645703E-01 0.13378573E+03</pdfrwt>
<pdfrwt beam="1">  1       -1 0.20185710E-01 0.13378573E+03</pdfrwt>
<totfact> 0.46508299E+03</totfact>
</mgrwt>
</event>
<event>
 6    1  0.5400401E-006  0.3196292E+03  0.7546771E-02  0.1112426E+00
          2   -1    0    0  501    0  0.00000000000E+00  0.00000000000E+00  0.10183835531E+04  0.10183835531E+04  0.00000000000E+00 0. -1.
         -2   -1    0    0    0  501 -0.00000000000E+00 -0.00000000000E+00 -0.50185362657E+02  0.50185362657E+02  0.00000000000E+00 0.  1.
          5    1    1    2  502    0 -0.28913358156E+02  0.10979484262E+03  0.39469679502E+03  0.41072927792E+03  0.47000000000E+01 0. -1.
         -5    1    1    2    0  502 -0.25301581145E+02 -0.16994814509E+03  0.19439105101E+03  0.25948509155E+03  0.47000000000E+01 0.  1.
        -11    1    1    2    0    0 -0.13025480534E+02  0.52923113218E+02  0.15828533448E+03  0.16740599203E+03  0.00000000000E+00 0. -1.
         11    1    1    2    0    0  0.67240419835E+02  0.72301892513E+01  0.22082500992E+03  0.23094855423E+03  0.00000000000E+00 0.  1.
<mgrwt>
<rscale>  0 0.25139544E+03</rscale>
<asrwt>0</asrwt>
<pdfrwt beam="1">  1        2 0.15667438E+00 0.31962918E+03</pdfrwt>
<pdfrwt beam="2">  1       -2 0.77208257E-02 0.31962918E+03</pdfrwt>
<totfact> 0.25579676E+03</totfact>
</mgrwt>
</event>
<event>
 7    1  0.5400401E-006  0.1641670E+03  0.7546771E-02  0.1190755E+00
          1   -1    0    0  501    0  0.00000000000E+00  0.00000000000E+00  0.23566958586E+03  0.23566958586E+03  0.00000000000E+00 0. -1.
         -1   -1    0    0    0  501 -0.00000000000E+00 -0.00000000000E+00 -0.10616417274E+03  0.10616417274E+03  0.00000000000E+00 0.  1.
         23    2    1    2    0    0  0.60285001897E+02 -0.87702140795E+02  0.25364057610E+02  0.16611485125E+03  0.12499944573E+03 0.  0.
          5    1    3    3  502    0  0.58912409201E+02 -0.10512305054E+03 -0.15340894325E+02  0.12156874907E+03  0.47000000000E+01 0. -1.
         -5    1    3    3    0  502  0.13725926964E+01  0.17420909744E+02  0.40704951935E+02  0.44546102176E+02  0.47000000000E+01 0. -1.
        -11    1    1    2    0    0 -0.60758002355E+01  0.82217726478E+02  0.83813886218E+02  0.11756460955E+03  0.00000000000E+00 0. -1.
         11    1    1    2    0    0 -0.54209201662E+02  0.54844143166E+01  0.20327469289E+02  0.58154297802E+02  0.00000000000E+00 0.  1.
<mgrwt>
<rscale>  0 0.15819006E+03</rscale>
<asrwt>0</asrwt>
<pdfrwt beam="1">  1        1 0.36256859E-01 0.16416701E+03</pdfrwt>
<pdfrwt beam="2">  1       -1 0.16332950E-01 0.16416701E+03</pdfrwt>
<totfact> 0.32531582E+03</totfact>
</mgrwt>
</event>
<event>
 6    1  0.5400401E-006  0.1612843E+03  0.7546771E-02  0.1208704E+00
         -1   -1    0    0    0  501 -0.00000000000E+00  0.00000000000E+00  0.19598215343E+02  0.19598215343E+02  0.00000000000E+00 0.  1.
          1   -1    0    0  501    0  0.00000000000E+00 -0.00000000000E+00 -0.89107665032E+03  0.89107665032E+03  0.00000000000E+00 0. -1.
          5    1    1    2  502    0  0.83397727013E+02  0.69161999907E+01 -0.40783963322E+03  0.41636314813E+03  0.47000000000E+01 0. -1.
         -5    1    1    2    0  502 -0.49165272748E+02  0.21570736214E+02 -0.72545691061E+02  0.90374155579E+02  0.47000000000E+01 0.  1.
        -11    1    1    2    0    0 -0.29919401387E+01  0.22940400677E+02 -0.30098005910E+02  0.37961870986E+02  0.00000000000E+00 0.  1.
         11    1    1    2    0    0 -0.31240514127E+02 -0.51427336881E+02 -0.36099510479E+03  0.36597569097E+03  0.00000000000E+00 0. -1.
<mgrwt>
<rscale>  0 0.14349328E+03</rscale>
<asrwt>0</asrwt>
<pdfrwt beam="2">  1        1 0.13708872E+00 0.16128433E+03</pdfrwt>
<pdfrwt beam="1">  1       -1 0.30151100E-02 0.16128433E+03</pdfrwt>
<totfact> 0.70968847E+03</totfact>
</mgrwt>
</event>
<event>
 7    1  0.5400401E-006  0.1685266E+03  0.7546771E-02  0.1185902E+00
         -1   -1    0    0    0  501 -0.00000000000E+00  0.00000000000E+00  0.13938010039E+03  0.13938010039E+03  0.00000000000E+00 0.  1.
          1   -1    0    0  501    0  0.00000000000E+00 -0.00000000000E+00 -0.17803563700E+03  0.17803563700E+03  0.00000000000E+00 0. -1.
         23    2    1    2    0    0 -0.75029773597E+02 -0.84550375656E+02 -0.91695923933E+01  0.16877590971E+03  0.12499197304E+03 0.  0.
          5    1    3    3  502    0 -0.64045835435E+02 -0.30046160303E+02 -0.60314835003E+02  0.93083887473E+02  0.47000000000E+01 0. -1.
         -5    1    3    3    0  502 -0.10983938162E+02 -0.54504215353E+02  0.51145242610E+02  0.75692022238E+02  0.47000000000E+01 0. -1.
        -11    1    1    2    0    0  0.40917544330E+02  0.44751588826E+02  0.31410891818E+02  0.68290513699E+02  0.00000000000E+00 0.  1.
         11    1    1    2    0    0  0.34112229266E+02  0.39798786830E+02 -0.60896836031E+02  0.80349313981E+02  0.00000000000E+00 0. -1.
<mgrwt>
<rscale>  0 0.16250090E+03</rscale>
<asrwt>0</asrwt>
<pdfrwt beam="2">  1        1 0.27390098E-01 0.16852663E+03</pdfrwt>
<pdfrwt beam="1">  1       -1 0.21443092E-01 0.16852663E+03</pdfrwt>
<totfact> 0.29877285E+03</totfact>
</mgrwt>
</event>
<event>
 7    1  0.5400401E-006  0.1294025E+03  0.7546771E-02  0.1243011E+00
         -3   -1    0    0    0  501 -0.00000000000E+00  0.00000000000E+00  0.68934163216E+02  0.68934163216E+02  0.00000000000E+00 0.  1.
          3   -1    0    0  501    0  0.00000000000E+00 -0.00000000000E+00 -0.19532558327E+03  0.19532558327E+03  0.00000000000E+00 0. -1.
         23    2    1    2    0    0 -0.29105310795E+02 -0.16527492765E+02 -0.40624262701E+02  0.13562944187E+03  0.12499895059E+03 0.  0.
          5    1    3    3  502    0 -0.49202563653E+02 -0.55195738032E+02 -0.51790110087E+02  0.90397827793E+02  0.47000000000E+01 0.  1.
         -5    1    3    3    0  502  0.20097252858E+02  0.38668245268E+02  0.11165847386E+02  0.45231614081E+02  0.47000000000E+01 0.  1.
        -11    1    1    2    0    0  0.43622486626E+02 -0.27745665825E+00 -0.38916371958E+01  0.43796611304E+02  0.00000000000E+00 0.  1.
         11    1    1    2    0    0 -0.14517175831E+02  0.16804949423E+02 -0.81875520157E+02  0.84833693308E+02  0.00000000000E+00 0. -1.
<mgrwt>
<rscale>  0 0.12005218E+03</rscale>
<asrwt>0</asrwt>
<pdfrwt beam="2">  1        3 0.30050090E-01 0.12940253E+03</pdfrwt>
<pdfrwt beam="1">  1       -3 0.10605256E-01 0.12940253E+03</pdfrwt>
<totfact> 0.16306723E+03</totfact>
</mgrwt>
</event>
<event>
 7    1  0.5400401E-006  0.1560924E+03  0.7546771E-02  0.1200027E+00
         -2   -1    0    0    0  501 -0.00000000000E+00  0.00000000000E+00  0.64136028161E+02  0.64136028161E+02  0.00000000000E+00 0.  1.
          2   -1    0    0  501    0  0.00000000000E+00 -0.00000000000E+00 -0.35655015232E+03  0.35655015232E+03  0.00000000000E+00 0. -1.
         23    2    1    2    0    0  0.39961002501E+02 -0.84506132907E+02 -0.97907670484E+02  0.18425729587E+03  0.12500668350E+03 0.  0.
          5    1    3    3  502    0 -0.39207765346E+02 -0.50881831804E+02 -0.18282250738E+02  0.66951776401E+02  0.47000000000E+01 0. -1.
         -5    1    3    3    0  502  0.79168767847E+02 -0.33624301103E+02 -0.79625419746E+02  0.11730551946E+03  0.47000000000E+01 0. -1.
        -11    1    1    2    0    0  0.59776702495E+01  0.68660288876E+02 -0.16682983887E+03  0.18050529895E+03  0.00000000000E+00 0. -1.
         11    1    1    2    0    0 -0.45938672750E+02  0.15845844031E+02 -0.27676614803E+02  0.55923585669E+02  0.00000000000E+00 0.  1.
<mgrwt>
<rscale>  0 0.15036392E+03</rscale>
<asrwt>0</asrwt>
<pdfrwt beam="2">  1        2 0.54853871E-01 0.15609241E+03</pdfrwt>
<pdfrwt beam="1">  1       -2 0.98670810E-02 0.15609241E+03</pdfrwt>
<totfact> 0.59263957E+03</totfact>
</mgrwt>
</event>
<event>
 7    1  0.5400401E-006  0.2638228E+03  0.7546771E-02  0.1106974E+00
         -2   -1    0    0    0  501 -0.00000000000E+00  0.00000000000E+00  0.17737202683E+03  0.17737202683E+03  0.00000000000E+00 0.  1.
          2   -1    0    0  501    0  0.00000000000E+00 -0.00000000000E+00 -0.40708633784E+03  0.40708633784E+03  0.00000000000E+00 0. -1.
         23    2    1    2    0    0  0.10569649199E+02 -0.23210724856E+03 -0.31976192393E+02  0.26575351427E+03  0.12496784046E+03 0.  0.
          5    1    3    3  502    0 -0.36852576760E+02 -0.72123225013E+02 -0.53881293638E+02  0.97391764561E+02  0.47000000000E+01 0. -1.
         -5    1    3    3    0  502  0.47422225958E+02 -0.15998402354E+03  0.21905101246E+02  0.16836174971E+03  0.47000000000E+01 0. -1.
        -11    1    1    2    0    0  0.29958280719E+02  0.46127804046E+02 -0.20738484536E+02  0.58782290110E+02  0.00000000000E+00 0.  1.
         11    1    1    2    0    0 -0.40527929918E+02  0.18597944451E+03 -0.17699963408E+03  0.25992256029E+03  0.00000000000E+00 0. -1.
<mgrwt>
<rscale>  0 0.26028267E+03</rscale>
<asrwt>0</asrwt>
<pdfrwt beam="2">  1        2 0.62628666E-01 0.26382277E+03</pdfrwt>
<pdfrwt beam="1">  1       -2 0.27288005E-01 0.26382277E+03</pdfrwt>
<totfact> 0.95287362E+02</totfact>
</mgrwt>
</event>
<event>
 7    1  0.5400401E-006  0.1236470E+03  0.7546771E-02  0.1247844E+00
         -1   -1    0    0    0  501 -0.00000000000E+00  0.00000000000E+00  0.37861838816E+02  0.37861838816E+02  0.00000000000E+00 0.  1.
          1   -1    0    0  501    0  0.00000000000E+00 -0.00000000000E+00 -0.36088618979E+03  0.36088618979E+03  0.00000000000E+00 0. -1.
         23    2    1    2    0    0 -0.39589242072E+02 -0.93368425790E+01 -0.11871147679E+03  0.17140887596E+03  0.11676516312E+03 0.  0.
          5    1    3    3  502    0 -0.26000503591E+02 -0.60812686774E+02 -0.86562999174E+02  0.10903876323E+03  0.47000000000E+01 0. -1.
         -5    1    3    3    0  502 -0.13588738480E+02  0.51475844195E+02 -0.32148477621E+02  0.62370112734E+02  0.47000000000E+01 0.  1.
        -11    1    1    2    0    0 -0.10311811884E+01  0.40869962989E+02 -0.13486358422E+03  0.14092410566E+03  0.00000000000E+00 0.  1.
         11    1    1    2    0    0  0.40620423260E+02 -0.31533120410E+02 -0.69449289962E+02  0.86415046982E+02  0.00000000000E+00 0. -1.
<mgrwt>
<rscale>  0 0.11716758E+03</rscale>
<asrwt>0</asrwt>
<pdfrwt beam="2">  1        1 0.55520955E-01 0.12364703E+03</pdfrwt>
<pdfrwt beam="1">  1       -1 0.58248980E-02 0.12364703E+03</pdfrwt>
<totfact> 0.91178085E+03</totfact>
</mgrwt>
</event>
<event>
 7    1  0.5400401E-006  0.1604932E+03  0.7546771E-02  0.1196274E+00
         -1   -1    0    0    0  501 -0.00000000000E+00  0.00000000000E+00  0.32302009828E+03  0.32302009828E+03  0.00000000000E+00 0.  1.
          1   -1    0    0  501    0  0.00000000000E+00 -0.00000000000E+00 -0.87172859480E+02  0.87172859480E+02  0.00000000000E+00 0. -1.
         23    2    1    2    0    0 -0.91733085938E+02 -0.41451070686E+02  0.22389024034E+03  0.27547213105E+03  0.12499961979E+03 0.  0.
          5    1    3    3  502    0 -0.84653705165E+02 -0.79543300149E+02  0.13355314413E+03  0.17706473027E+03  0.47000000000E+01 0.  1.
         -5    1    3    3    0  502 -0.70793807734E+01  0.38092229463E+02  0.90337096203E+02  0.98407400779E+02  0.47000000000E+01 0.  1.
        -11    1    1    2    0    0  0.12034398952E+02  0.44227894703E+02  0.27529136999E+02  0.53467623960E+02  0.00000000000E+00 0.  1.
         11    1    1    2    0    0  0.79698686986E+02 -0.27768240169E+01 -0.15572138538E+02  0.81253202752E+02  0.00000000000E+00 0. -1.
<mgrwt>
<rscale>  0 0.15346939E+03</rscale>
<asrwt>0</asrwt>
<pdfrwt beam="2">  1        1 0.13411209E-01 0.16049316E+03</pdfrwt>
<pdfrwt beam="1">  1       -1 0.49695399E-01 0.16049316E+03</pdfrwt>
<totfact> 0.17639990E+03</totfact>
</mgrwt>
</event>
<event>
 7    1  0.5400401E-006  0.1416494E+03  0.7546771E-02  0.1222242E+00
          1   -1    0    0  501    0  0.00000000000E+00  0.00000000000E+00  0.31813429539E+02  0.31813429539E+02  0.00000000000E+00 0. -1.
         -1   -1    0    0    0  501 -0.00000000000E+00 -0.00000000000E+00 -0.57279321687E+03  0.57279321687E+03  0.00000000000E+00 0.  1.
         23    2    1    2    0    0  0.69112467443E+01  0.66265231504E+02 -0.40125129465E+03  0.42551986933E+03  0.12500284596E+03 0.  0.
          5    1    3    3  502    0 -0.35067647713E+02  0.40903661271E+02 -0.35100790914E+03  0.35514995663E+03  0.47000000000E+01 0. -1.
         -5    1    3    3    0  502  0.41978894458E+02  0.25361570233E+02 -0.50243385511E+02  0.70369912691E+02  0.47000000000E+01 0. -1.
        -11    1    1    2    0    0 -0.28435169704E+02 -0.24270207310E+02 -0.12373704962E+03  0.12926120566E+03  0.00000000000E+00 0.  1.
         11    1    1    2    0    0  0.21523922960E+02 -0.41995024193E+02 -0.15991443060E+02  0.49825571424E+02  0.00000000000E+00 0. -1.
<mgrwt>
<rscale>  0 0.13357741E+03</rscale>
<asrwt>0</asrwt>
<pdfrwt beam="1">  1        1 0.48943744E-02 0.14164942E+03</pdfrwt>
<pdfrwt beam="2">  1       -1 0.88122022E-01 0.14164942E+03</pdfrwt>
<totfact> 0.22145611E+03</totfact>
</mgrwt>
</event>
<event>
 7    1  0.5400401E-006  0.1727648E+03  0.7546771E-02  0.1182134E+00
         -2   -1    0    0    0  501 -0.00000000000E+00  0.00000000000E+00  0.48059976955E+02  0.48059976955E+02  0.00000000000E+00 0.  1.
          2   -1    0    0  501    0  0.00000000000E+00 -0.00000000000E+00 -0.53587146260E+03  0.53587146260E+03  0.00000000000E+00 0. -1.
         23    2    1    2    0    0  0.16802192164E+02  0.11806964715E+03 -0.23921801771E+03  0.29508121413E+03  0.12499963078E+03 0.  0.
          5    1    3    3  502    0  0.70257196850E+02  0.81945801071E+02 -0.15246964867E+03  0.18686966524E+03  0.47000000000E+01 0.  1.
         -5    1    3    3    0  502 -0.53455004686E+02  0.36123846076E+02 -0.86748369038E+02  0.10821154889E+03  0.47000000000E+01 0.  1.
        -11    1    1    2    0    0  0.12213607974E+02 -0.74361277640E+02 -0.21170413723E+03  0.22471629570E+03  0.00000000000E+00 0. -1.
         11    1    1    2    0    0 -0.29015800138E+02 -0.43708369507E+02 -0.36889330708E+02  0.64133929731E+02  0.00000000000E+00 0.  1.
<mgrwt>
<rscale>  0 0.16595405E+03</rscale>
<asrwt>0</asrwt>
<pdfrwt beam="2">  1        2 0.82441758E-01 0.17276476E+03</pdfrwt>
<pdfrwt beam="1">  1       -2 0.73938431E-02 0.17276476E+03</pdfrwt>
<totfact> 0.59969889E+03</totfact>
</mgrwt>
</event>
<event>
 7    1  0.5400401E-006  0.1290389E+03  0.7546771E-02  0.1242938E+00
          2   -1    0    0  501    0  0.00000000000E+00  0.00000000000E+00  0.18728309280E+03  0.18728309280E+03  0.00000000000E+00 0.  1.
         -2   -1    0    0    0  501 -0.00000000000E+00 -0.00000000000E+00 -0.70876068229E+02  0.70876068229E+02  0.00000000000E+00 0. -1.
         23    2    1    2    0    0  0.26865706826E+02  0.17398706116E+02  0.40859264769E+02  0.13535331393E+03  0.12500623544E+03 0.  0.
          5    1    3    3  502    0  0.67344738411E+02 -0.22069516225E+02  0.32133841276E+02  0.77955442999E+02  0.47000000000E+01 0.  1.
         -5    1    3    3    0  502 -0.40479031585E+02  0.39468222340E+02  0.87254234926E+01  0.57397870935E+02  0.47000000000E+01 0.  1.
        -11    1    1    2    0    0 -0.28166493069E+02 -0.48971394283E+02  0.21993445248E+02  0.60623926165E+02  0.00000000000E+00 0.  1.
         11    1    1    2    0    0  0.13007862425E+01  0.31572688167E+02  0.53554314556E+02  0.62181920930E+02  0.00000000000E+00 0. -1.
<mgrwt>
<rscale>  0 0.12009641E+03</rscale>
<asrwt>0</asrwt>
<pdfrwt beam="1">  1        2 0.28812783E-01 0.12903891E+03</pdfrwt>
<pdfrwt beam="2">  1       -2 0.10904011E-01 0.12903891E+03</pdfrwt>
<totfact> 0.99441425E+03</totfact>
</mgrwt>
</event>
<event>
 7    1  0.5400401E-006  0.1404855E+03  0.7546771E-02  0.1223811E+00
          2   -1    0    0  501    0  0.00000000000E+00  0.00000000000E+00  0.44178639226E+02  0.44178639226E+02  0.00000000000E+00 0. -1.
         -2   -1    0    0    0  501 -0.00000000000E+00 -0.00000000000E+00 -0.35827322324E+03  0.35827322324E+03  0.00000000000E+00 0.  1.
         23    2    1    2    0    0 -0.63066147213E+02  0.11598271318E+02 -0.17719227206E+03  0.22612667522E+03  0.12499725255E+03 0.  0.
          5    1    3    3  502    0 -0.50183244727E+02 -0.50187718340E+02 -0.12614384554E+03  0.14481548567E+03  0.47000000000E+01 0. -1.
         -5    1    3    3    0  502 -0.12882902486E+02  0.61785989658E+02 -0.51048426526E+02  0.81311189545E+02  0.47000000000E+01 0. -1.
        -11    1    1    2    0    0  0.29999439704E+02 -0.24404615911E+02 -0.41219173104E+01  0.38891411167E+02  0.00000000000E+00 0. -1.
         11    1    1    2    0    0  0.33066707509E+02  0.12806344592E+02 -0.13278039464E+03  0.13743377608E+03  0.00000000000E+00 0.  1.
<mgrwt>
<rscale>  0 0.13248741E+03</rscale>
<asrwt>0</asrwt>
<pdfrwt beam="1">  1        2 0.67967137E-02 0.14048549E+03</pdfrwt>
<pdfrwt beam="2">  1       -2 0.55118958E-01 0.14048549E+03</pdfrwt>
<totfact> 0.31714903E+03</totfact>
</mgrwt>
</event>
<event>
 7    1  0.5400401E-006  0.1290647E+03  0.7546771E-02  0.1242782E+00
         -1   -1    0    0    0  501 -0.00000000000E+00  0.00000000000E+00  0.50241175796E+02  0.50241175796E+02  0.00000000000E+00 0.  1.
          1   -1    0    0  501    0  0.00000000000E+00 -0.00000000000E+00 -0.26114664617E+03  0.26114664617E+03  0.00000000000E+00 0. -1.
         23    2    1    2    0    0  0.61416950500E+01  0.31547898038E+02 -0.95301717315E+02  0.16043728572E+03  0.12499886015E+03 0.  0.
          5    1    3    3  502    0 -0.14614377053E+02  0.43355189406E+02 -0.11831624956E+03  0.12694123591E+03  0.47000000000E+01 0. -1.
         -5    1    3    3    0  502  0.20756072103E+02 -0.11807291368E+02  0.23014532244E+02  0.33496049812E+02  0.47000000000E+01 0. -1.
        -11    1    1    2    0    0  0.40293324182E+02 -0.18718768990E+02 -0.78278558441E+02  0.90008205169E+02  0.00000000000E+00 0. -1.
         11    1    1    2    0    0 -0.46435019232E+02 -0.12829129048E+02 -0.37325194616E+02  0.60942331070E+02  0.00000000000E+00 0.  1.
<mgrwt>
<rscale>  0 0.12019119E+03</rscale>
<asrwt>0</asrwt>
<pdfrwt beam="2">  1        1 0.40176408E-01 0.12906473E+03</pdfrwt>
<pdfrwt beam="1">  1       -1 0.77294115E-02 0.12906473E+03</pdfrwt>
<totfact> 0.89445981E+03</totfact>
</mgrwt>
</event>
<event>
 6    1  0.5400401E-006  0.5405955E+03  0.7546771E-02  0.1013081E+00
          1   -1    0    0  501    0  0.00000000000E+00  0.00000000000E+00  0.72544618987E+03  0.72544618987E+03  0.00000000000E+00 0. -1.
         -1   -1    0    0    0  501 -0.00000000000E+00 -0.00000000000E+00 -0.70064015343E+03  0.70064015343E+03  0.00000000000E+00 0.  1.
          5    1    1    2  502    0  0.38343732907E+02  0.70243796416E+02  0.20190462520E+02  0.82669084699E+02  0.47000000000E+01 0. -1.
         -5    1    1    2    0  502 -0.35851554464E+03  0.15919155807E+03 -0.53860956110E+03  0.66633152200E+03  0.47000000000E+01 0.  1.
        -11    1    1    2    0    0  0.69884785050E+02 -0.10514739210E+02  0.78156802963E+02  0.10537043595E+03  0.00000000000E+00 0.  1.
         11    1    1    2    0    0  0.25028702668E+03 -0.21892061527E+03  0.46506833206E+03  0.57171530065E+03  0.00000000000E+00 0. -1.
<mgrwt>
<rscale>  0 0.50268364E+03</rscale>
<asrwt>0</asrwt>
<pdfrwt beam="1">  1        1 0.11160711E+00 0.54059555E+03</pdfrwt>
<pdfrwt beam="2">  1       -1 0.10779079E+00 0.54059555E+03</pdfrwt>
<totfact> 0.21797330E+01</totfact>
</mgrwt>
</event>
<event>
 7    1  0.5895569E-006  0.1303997E+03  0.7546771E-02  0.1241535E+00
          1   -1    0    0  501    0  0.00000000000E+00  0.00000000000E+00  0.13730718147E+03  0.13730718147E+03  0.00000000000E+00 0. -1.
         -1   -1    0    0    0  501 -0.00000000000E+00 -0.00000000000E+00 -0.10193224654E+03  0.10193224654E+03  0.00000000000E+00 0.  1.
         23    2    1    2    0    0  0.14815538259E+02 -0.34057453182E+02 -0.13414546455E+02  0.13108790928E+03  0.12499871844E+03 0.  0.
          5    1    3    3  502    0  0.34989907786E+02 -0.15963217858E+02 -0.63245593817E+02  0.74170163196E+02  0.47000000000E+01 0. -1.
         -5    1    3    3    0  502 -0.20174369528E+02 -0.18094235324E+02  0.49831047362E+02  0.56917746081E+02  0.47000000000E+01 0. -1.
        -11    1    1    2    0    0 -0.25945779302E+02  0.12615355710E+02 -0.20091485420E+02  0.35156769614E+02  0.00000000000E+00 0.  1.
         11    1    1    2    0    0  0.11130241043E+02  0.21442097472E+02  0.68880966813E+02  0.72994749118E+02  0.00000000000E+00 0. -1.
<mgrwt>
<rscale>  0 0.12095203E+03</rscale>
<asrwt>0</asrwt>
<pdfrwt beam="1">  1        1 0.21124182E-01 0.13039973E+03</pdfrwt>
<pdfrwt beam="2">  1       -1 0.15681884E-01 0.13039973E+03</pdfrwt>
<totfact> 0.67342373E+03</totfact>
</mgrwt>
</event>
<event>
 7    1  0.5400401E-006  0.1398642E+03  0.7546771E-02  0.1225441E+00
          2   -1    0    0  501    0  0.00000000000E+00  0.00000000000E+00  0.36704611006E+03  0.36704611006E+03  0.00000000000E+00 0. -1.
         -2   -1    0    0    0  501 -0.00000000000E+00 -0.00000000000E+00 -0.44296634249E+02  0.44296634249E+02  0.00000000000E+00 0.  1.
         23    2    1    2    0    0 -0.65102575417E+01  0.62368906334E+02  0.13539488335E+03  0.19466319791E+03  0.12501888759E+03 0.  0.
          5    1    3    3  502    0 -0.44380158580E+02 -0.73014953740E+01  0.95731153175E+02  0.10587470897E+03  0.47000000000E+01 0. -1.
         -5    1    3    3    0  502  0.37869901038E+02  0.69670401708E+02  0.39663730170E+02  0.88788488949E+02  0.47000000000E+01 0. -1.
        -11    1    1    2    0    0 -0.22200139711E+02 -0.69253275368E+02  0.16270404268E+03  0.17821747349E+03  0.00000000000E+00 0. -1.
         11    1    1    2    0    0  0.28710397253E+02  0.68843690344E+01  0.24650549787E+02  0.38462072906E+02  0.00000000000E+00 0.  1.
<mgrwt>
<rscale>  0 0.13136715E+03</rscale>
<asrwt>0</asrwt>
<pdfrwt beam="1">  1        2 0.56468630E-01 0.13986417E+03</pdfrwt>
<pdfrwt beam="2">  1       -2 0.68148670E-02 0.13986417E+03</pdfrwt>
<totfact> 0.10128183E+04</totfact>
</mgrwt>
</event>
<event>
 7    1  0.5400401E-006  0.1251300E+03  0.7546771E-02  0.1250712E+00
          3   -1    0    0  501    0  0.00000000000E+00  0.00000000000E+00  0.47308508609E+02  0.47308508609E+02  0.00000000000E+00 0. -1.
         -3   -1    0    0    0  501 -0.00000000000E+00 -0.00000000000E+00 -0.27748832415E+03  0.27748832415E+03  0.00000000000E+00 0.  1.
         23    2    1    2    0    0 -0.10797632281E+01 -0.56231135543E+01 -0.18501463089E+03  0.22335607921E+03  0.12499895672E+03 0.  0.
          5    1    3    3  502    0  0.57254420600E+02  0.20011412129E+02 -0.81266402494E+02  0.10151277490E+03  0.47000000000E+01 0.  1.
         -5    1    3    3    0  502 -0.58334183828E+02 -0.25634525683E+02 -0.10374822840E+03  0.12184330431E+03  0.47000000000E+01 0.  1.
        -11    1    1    2    0    0  0.17805692836E+02  0.55476843628E+01  0.23936111948E+02  0.30343977233E+02  0.00000000000E+00 0. -1.
         11    1    1    2    0    0 -0.16725929608E+02  0.75429191440E-01 -0.69101296591E+02  0.71096776308E+02  0.00000000000E+00 0.  1.
<mgrwt>
<rscale>  0 0.11549950E+03</rscale>
<asrwt>0</asrwt>
<pdfrwt beam="1">  1        3 0.72782320E-02 0.12513003E+03</pdfrwt>
<pdfrwt beam="2">  1       -3 0.42690512E-01 0.12513003E+03</pdfrwt>
<totfact> 0.15430179E+03</totfact>
</mgrwt>
</event>
<event>
 7    1  0.5400401E-006  0.2144976E+03  0.7546771E-02  0.1141161E+00
         -2   -1    0    0    0  501 -0.00000000000E+00  0.00000000000E+00  0.34989106901E+03  0.34989106901E+03  0.00000000000E+00 0.  1.
          2   -1    0    0  501    0  0.00000000000E+00 -0.00000000000E+00 -0.12242089832E+03  0.12242089832E+03  0.00000000000E+00 0. -1.
         23    2    1    2    0    0  0.95076729990E+02 -0.14988760678E+03  0.10717437261E+03  0.23978233891E+03  0.12042983292E+03 0.  0.
          5    1    3    3  502    0  0.17256362329E+02  0.10153026721E+01 -0.20552915994E+02  0.27263991568E+02  0.47000000000E+01 0. -1.
         -5    1    3    3    0  502  0.77820367661E+02 -0.15090290945E+03  0.12772728860E+03  0.21251834734E+03  0.47000000000E+01 0.  1.
        -11    1    1    2    0    0 -0.11529561036E+02  0.22197633840E+02 -0.14511159465E+02  0.28917805498E+02  0.00000000000E+00 0.  1.
         11    1    1    2    0    0 -0.83547168954E+02  0.12768997294E+03  0.13480695755E+03  0.20361182292E+03  0.00000000000E+00 0. -1.
<mgrwt>
<rscale>  0 0.21051221E+03</rscale>
<asrwt>0</asrwt>
<pdfrwt beam="2">  1        2 0.18833985E-01 0.21449761E+03</pdfrwt>
<pdfrwt beam="1">  1       -2 0.53829395E-01 0.21449761E+03</pdfrwt>
<totfact> 0.97995405E+02</totfact>
</mgrwt>
</event>
<event>
 7    1  0.5400401E-006  0.1344905E+03  0.7546771E-02  0.1233296E+00
          1   -1    0    0  501    0  0.00000000000E+00  0.00000000000E+00  0.80178808697E+03  0.80178808697E+03  0.00000000000E+00 0. -1.
         -1   -1    0    0    0  501 -0.00000000000E+00 -0.00000000000E+00 -0.18930099846E+02  0.18930099846E+02  0.00000000000E+00 0.  1.
         23    2    1    2    0    0 -0.39287525125E+02  0.30326466590E+02  0.33637179945E+03  0.36226190299E+03  0.12499797873E+03 0.  0.
          5    1    3    3  502    0 -0.46305242567E+02  0.12738536381E+02  0.33913986432E+03  0.34255566463E+03  0.47000000000E+01 0.  1.
         -5    1    3    3    0  502  0.70177174421E+01  0.17587930209E+02 -0.27680648714E+01  0.19706238359E+02  0.47000000000E+01 0.  1.
        -11    1    1    2    0    0 -0.15678896642E+02  0.21320858024E+02  0.79168318102E+02  0.83474722987E+02  0.00000000000E+00 0. -1.
         11    1    1    2    0    0  0.54966421767E+02 -0.51647324614E+02  0.36731786957E+03  0.37498156083E+03  0.00000000000E+00 0.  1.
<mgrwt>
<rscale>  0 0.12614167E+03</rscale>
<asrwt>0</asrwt>
<pdfrwt beam="1">  1        1 0.12335199E+00 0.13449052E+03</pdfrwt>
<pdfrwt beam="2">  1       -1 0.29123237E-02 0.13449052E+03</pdfrwt>
<totfact> 0.87080775E+03</totfact>
</mgrwt>
</event>
<event>
 7    1  0.5400401E-006  0.1666033E+03  0.7546771E-02  0.1188983E+00
         -2   -1    0    0    0  501 -0.00000000000E+00  0.00000000000E+00  0.95504081226E+02  0.95504081226E+02  0.00000000000E+00 0.  1.
          2   -1    0    0  501    0  0.00000000000E+00 -0.00000000000E+00 -0.25138832532E+03  0.25138832532E+03  0.00000000000E+00 0. -1.
         23    2    1    2    0    0 -0.10482241979E+02  0.10965224127E+03 -0.62614521438E+02  0.17798103238E+03  0.12499271250E+03 0.  0.
          5    1    3    3  502    0  0.35473402627E+01 -0.98061678328E+01 -0.56293647923E+02  0.57443967020E+02  0.47000000000E+01 0.  1.
         -5    1    3    3    0  502 -0.14029582242E+02  0.11945840910E+03 -0.63208735143E+01  0.12053706536E+03  0.47000000000E+01 0.  1.
        -11    1    1    2    0    0  0.40219206644E+02 -0.56004673571E+02 -0.16959233693E+02  0.71005095961E+02  0.00000000000E+00 0.  1.
         11    1    1    2    0    0 -0.29736964665E+02 -0.53647567695E+02 -0.76310488959E+02  0.97906278207E+02  0.00000000000E+00 0. -1.
<mgrwt>
<rscale>  0 0.15974713E+03</rscale>
<asrwt>0</asrwt>
<pdfrwt beam="2">  1        2 0.38675127E-01 0.16660333E+03</pdfrwt>
<pdfrwt beam="1">  1       -2 0.14692935E-01 0.16660333E+03</pdfrwt>
<totfact> 0.45578568E+03</totfact>
</mgrwt>
</event>
<event>
 7    1  0.5400401E-006  0.1344925E+03  0.7546771E-02  0.1236002E+00
         -1   -1    0    0    0  501 -0.00000000000E+00  0.00000000000E+00  0.38651835033E+02  0.38651835033E+02  0.00000000000E+00 0.  1.
          1   -1    0    0  501    0  0.00000000000E+00 -0.00000000000E+00 -0.37070912535E+03  0.37070912535E+03  0.00000000000E+00 0. -1.
         23    2    1    2    0    0 -0.26891950626E+02 -0.41717141140E+02 -0.14368614819E+03  0.19680937331E+03  0.12499889346E+03 0.  0.
          5    1    3    3  502    0 -0.45814630636E+02 -0.67383299027E+01  0.11291394400E+01  0.46559106800E+02  0.47000000000E+01 0.  1.
         -5    1    3    3    0  502  0.18922680009E+02 -0.34978811238E+02 -0.14481528763E+03  0.15025026651E+03  0.47000000000E+01 0.  1.
        -11    1    1    2    0    0 -0.23045120794E+02  0.27625131188E+02 -0.33269246136E+02  0.49000695955E+02  0.00000000000E+00 0.  1.
         11    1    1    2    0    0  0.49937071420E+02  0.14092009952E+02 -0.15510189599E+03  0.16355089112E+03  0.00000000000E+00 0. -1.
<mgrwt>
<rscale>  0 0.12440535E+03</rscale>
<asrwt>0</asrwt>
<pdfrwt beam="2">  1        1 0.57032170E-01 0.13449245E+03</pdfrwt>
<pdfrwt beam="1">  1       -1 0.59464365E-02 0.13449245E+03</pdfrwt>
<totfact> 0.86026389E+03</totfact>
</mgrwt>
</event>
<event>
 7    1  0.5400401E-006  0.1899606E+03  0.7546771E-02  0.1165400E+00
         -2   -1    0    0    0  501 -0.00000000000E+00  0.00000000000E+00  0.72522579392E+02  0.72522579392E+02  0.00000000000E+00 0.  1.
          2   -1    0    0  501    0  0.00000000000E+00 -0.00000000000E+00 -0.62686799155E+03  0.62686799155E+03  0.00000000000E+00 0. -1.
         23    2    1    2    0    0  0.42338870048E+02 -0.13662807522E+03 -0.95053556903E+02  0.21241516430E+03  0.12500084996E+03 0.  0.
          5    1    3    3  502    0  0.54872100125E+02 -0.13452750268E+03 -0.11701539942E+03  0.18660999451E+03  0.47000000000E+01 0.  1.
         -5    1    3    3    0  502 -0.12533230077E+02 -0.21005725352E+01  0.21961842518E+02  0.25805169791E+02  0.47000000000E+01 0.  1.
        -11    1    1    2    0    0 -0.32698782712E+02  0.13930962041E+03 -0.45321498073E+03  0.47526855512E+03  0.00000000000E+00 0. -1.
         11    1    1    2    0    0 -0.96400873357E+01 -0.26815451965E+01 -0.60768745262E+01  0.11706851519E+02  0.00000000000E+00 0.  1.
<mgrwt>
<rscale>  0 0.18250597E+03</rscale>
<asrwt>0</asrwt>
<pdfrwt beam="2">  1        2 0.96441226E-01 0.18996058E+03</pdfrwt>
<pdfrwt beam="1">  1       -2 0.11157320E-01 0.18996058E+03</pdfrwt>
<totfact> 0.26368655E+03</totfact>
</mgrwt>
</event>
<event>
 6    1  0.5400401E-006  0.1795681E+03  0.7546771E-02  0.1183290E+00
         -2   -1    0    0    0  501 -0.00000000000E+00  0.00000000000E+00  0.74527805345E+03  0.74527805345E+03  0.00000000000E+00 0.  1.
          2   -1    0    0  501    0  0.00000000000E+00 -0.00000000000E+00 -0.32970162044E+02  0.32970162044E+02  0.00000000000E+00 0. -1.
          5    1    1    2  502    0 -0.11316120513E+03 -0.69289640074E+02  0.37012185850E+03  0.39321596192E+03  0.47000000000E+01 0. -1.
         -5    1    1    2    0  502  0.30138745371E+02  0.35362863549E+02  0.12030126109E+03  0.12904789619E+03  0.47000000000E+01 0.  1.
        -11    1    1    2    0    0  0.99475223973E+02  0.43294676810E+02  0.19412031674E+03  0.22237906060E+03  0.00000000000E+00 0.  1.
         11    1    1    2    0    0 -0.16452764218E+02 -0.93679002854E+01  0.27764455075E+02  0.33605296781E+02  0.00000000000E+00 0. -1.
<mgrwt>
<rscale>  0 0.16488424E+03</rscale>
<asrwt>0</asrwt>
<pdfrwt beam="2">  1        2 0.50723332E-02 0.17956810E+03</pdfrwt>
<pdfrwt beam="1">  1       -2 0.11465815E+00 0.17956810E+03</pdfrwt>
<totfact> 0.94064227E+02</totfact>
</mgrwt>
</event>
<event>
 7    1  0.5400401E-006  0.1471549E+03  0.7546771E-02  0.1214797E+00
         -4   -1    0    0    0  501 -0.00000000000E+00  0.00000000000E+00  0.16080106317E+04  0.16080106317E+04  0.00000000000E+00 0.  1.
          4   -1    0    0  501    0  0.00000000000E+00 -0.00000000000E+00 -0.12889403849E+02  0.12889403849E+02  0.00000000000E+00 0. -1.
         23    2    1    2    0    0  0.75053351126E+02  0.19908072190E+02  0.11961014918E+04  0.12051196325E+04  0.12500085216E+03 0.  0.
          5    1    3    3  502    0  0.38585968806E+02 -0.18125693577E+02  0.10279199740E+04  0.10288143567E+04  0.47000000000E+01 0. -1.
         -5    1    3    3    0  502  0.36467382320E+02  0.38033765767E+02  0.16818151786E+03  0.17630527576E+03  0.47000000000E+01 0. -1.
        -11    1    1    2    0    0 -0.43348649819E+02  0.25418266462E+02  0.28078759744E+03  0.28524878367E+03  0.00000000000E+00 0.  1.
         11    1    1    2    0    0 -0.31704701307E+02 -0.45326338652E+02  0.11823213854E+03  0.13053161933E+03  0.00000000000E+00 0. -1.
<mgrwt>
<rscale>  0 0.13891487E+03</rscale>
<asrwt>0</asrwt>
<pdfrwt beam="2">  1        4 0.19829865E-02 0.14715485E+03</pdfrwt>
<pdfrwt beam="1">  1       -4 0.24738609E+00 0.14715485E+03</pdfrwt>
<totfact> 0.13296945E+02</totfact>
</mgrwt>
</event>
<event>
 7    1  0.5954744E-006  0.1663001E+03  0.7546771E-02  0.1186540E+00
         -1   -1    0    0    0  501 -0.00000000000E+00  0.00000000000E+00  0.28292974154E+03  0.28292974154E+03  0.00000000000E+00 0.  1.
          1   -1    0    0  501    0  0.00000000000E+00 -0.00000000000E+00 -0.10498342112E+03  0.10498342112E+03  0.00000000000E+00 0. -1.
         23    2    1    2    0    0  0.46212250989E+02 -0.99474342475E+02  0.17061164450E+03  0.23825205268E+03  0.12499996165E+03 0.  0.
          5    1    3    3  502    0 -0.39139459513E+02 -0.46831488369E+02  0.93093319374E+02  0.11141607472E+03  0.47000000000E+01 0.  1.
         -5    1    3    3    0  502  0.85351710503E+02 -0.52642854105E+02  0.77518325127E+02  0.12683597796E+03  0.47000000000E+01 0.  1.
        -11    1    1    2    0    0 -0.41723503051E+02  0.57231829901E+02 -0.43728748230E+02  0.83237830837E+02  0.00000000000E+00 0.  1.
         11    1    1    2    0    0 -0.44887479382E+01  0.42242512573E+02  0.51063424147E+02  0.66423279143E+02  0.00000000000E+00 0. -1.
<mgrwt>
<rscale>  0 0.16192578E+03</rscale>
<asrwt>0</asrwt>
<pdfrwt beam="2">  1        1 0.16151296E-01 0.16630005E+03</pdfrwt>
<pdfrwt beam="1">  1       -1 0.43527652E-01 0.16630005E+03</pdfrwt>
<totfact> 0.17616473E+03</totfact>
</mgrwt>
</event>
<event>
 7    1  0.5400401E-006  0.1793069E+03  0.7546771E-02  0.1174027E+00
          2   -1    0    0  501    0  0.00000000000E+00  0.00000000000E+00  0.26739956160E+03  0.26739956160E+03  0.00000000000E+00 0. -1.
         -2   -1    0    0    0  501 -0.00000000000E+00 -0.00000000000E+00 -0.12867275794E+03  0.12867275794E+03  0.00000000000E+00 0.  1.
         23    2    1    2    0    0 -0.12853982055E+03  0.18756562146E+01 -0.93535453069E+01  0.17955072621E+03  0.12499988367E+03 0.  0.
          5    1    3    3  502    0 -0.97189741209E+02 -0.49521126384E+02  0.22204620067E+02  0.11141509281E+03  0.47000000000E+01 0.  1.
         -5    1    3    3    0  502 -0.31350079346E+02  0.51396782598E+02 -0.31558165374E+02  0.68135633396E+02  0.47000000000E+01 0.  1.
        -11    1    1    2    0    0  0.15197627820E+02 -0.30219531777E+02  0.92401867363E+01  0.35065211294E+02  0.00000000000E+00 0.  1.
         11    1    1    2    0    0  0.11334219273E+03  0.28343875562E+02  0.13884016223E+03  0.18145638204E+03  0.00000000000E+00 0. -1.
<mgrwt>
<rscale>  0 0.17371604E+03</rscale>
<asrwt>0</asrwt>
<pdfrwt beam="1">  1        2 0.41138394E-01 0.17930693E+03</pdfrwt>
<pdfrwt beam="2">  1       -2 0.19795809E-01 0.17930693E+03</pdfrwt>
<totfact> 0.26034368E+03</totfact>
</mgrwt>
</event>
<event>
 7    1  0.5400401E-006  0.1261759E+03  0.7546771E-02  0.1247486E+00
          2   -1    0    0  501    0  0.00000000000E+00  0.00000000000E+00  0.15886818996E+02  0.15886818996E+02  0.00000000000E+00 0. -1.
         -2   -1    0    0    0  501 -0.00000000000E+00 -0.00000000000E+00 -0.96010173214E+03  0.96010173214E+03  0.00000000000E+00 0.  1.
         23    2    1    2    0    0  0.21750953213E+02 -0.87722803895E+01 -0.74363507388E+03  0.75426353660E+03  0.12397702478E+03 0.  0.
          5    1    3    3  502    0 -0.27181872483E+01  0.93172128517E+01 -0.70395873066E+03  0.70404132228E+03  0.47000000000E+01 0. -1.
         -5    1    3    3    0  502  0.24469140461E+02 -0.18089493241E+02 -0.39676343218E+02  0.50222214326E+02  0.47000000000E+01 0.  1.
        -11    1    1    2    0    0 -0.11125101318E+02  0.37327507084E+02 -0.31986987400E+02  0.50401170893E+02  0.00000000000E+00 0. -1.
         11    1    1    2    0    0 -0.10625851895E+02 -0.28555226694E+02 -0.16859285186E+03  0.17132384363E+03  0.00000000000E+00 0.  1.
<mgrwt>
<rscale>  0 0.11737808E+03</rscale>
<asrwt>0</asrwt>
<pdfrwt beam="1">  1        2 0.24441249E-02 0.12617591E+03</pdfrwt>
<pdfrwt beam="2">  1       -2 0.14770803E+00 0.12617591E+03</pdfrwt>
<totfact> 0.13134198E+03</totfact>
</mgrwt>
</event>
<event>
 6    1  0.5400401E-006  0.4980653E+03  0.7546771E-02  0.1067867E+00
          2   -1    0    0  501    0  0.00000000000E+00  0.00000000000E+00  0.82658528507E+03  0.82658528507E+03  0.00000000000E+00 0. -1.
         -2   -1    0    0    0  501 -0.00000000000E+00 -0.00000000000E+00 -0.11005391642E+03  0.11005391642E+03  0.00000000000E+00 0.  1.
          5    1    1    2  502    0  0.11694304445E+03  0.46399646969E+02  0.65638794181E+03  0.66835306765E+03  0.47000000000E+01 0. -1.
         -5    1    1    2    0  502 -0.95287614890E+02  0.19677322200E+01 -0.56853506415E+02  0.11107660741E+03  0.47000000000E+01 0.  1.
        -11    1    1    2    0    0 -0.49216798004E+01  0.23514510183E+02  0.75108167586E+01  0.25170766567E+02  0.00000000000E+00 0.  1.
         11    1    1    2    0    0 -0.16733749764E+02 -0.71881889372E+02  0.10948611649E+03  0.13203875986E+03  0.00000000000E+00 0. -1.
<mgrwt>
<rscale>  0 0.33749684E+03</rscale>
<asrwt>0</asrwt>
<pdfrwt beam="1">  1        2 0.12716696E+00 0.49806534E+03</pdfrwt>
<pdfrwt beam="2">  1       -2 0.16931372E-01 0.49806534E+03</pdfrwt>
<totfact> 0.94702036E+02</totfact>
</mgrwt>
</event>
<event>
 7    1  0.5400401E-006  0.1270565E+03  0.7546771E-02  0.1244181E+00
          1   -1    0    0  501    0  0.00000000000E+00  0.00000000000E+00  0.54469758232E+03  0.54469758232E+03  0.00000000000E+00 0. -1.
         -1   -1    0    0    0  501 -0.00000000000E+00 -0.00000000000E+00 -0.23441428345E+02  0.23441428345E+02  0.00000000000E+00 0.  1.
         23    2    1    2    0    0  0.75979565054E+01  0.20437728482E+02  0.29771132290E+03  0.32369025295E+03  0.12517155581E+03 0.  0.
          5    1    3    3  502    0  0.17495758226E+02 -0.12055625014E+02 -0.21572444741E+01  0.21867403917E+02  0.47000000000E+01 0.  1.
         -5    1    3    3    0  502 -0.98978017203E+01  0.32493353496E+02  0.29986856737E+03  0.30182284903E+03  0.47000000000E+01 0.  1.
        -11    1    1    2    0    0 -0.27853439832E+01  0.30170239707E+02  0.16111456650E+03  0.16393872344E+03  0.00000000000E+00 0. -1.
         11    1    1    2    0    0 -0.48126125222E+01 -0.50607968189E+02  0.62430264575E+02  0.80510034272E+02  0.00000000000E+00 0.  1.
<mgrwt>
<rscale>  0 0.11934551E+03</rscale>
<asrwt>0</asrwt>
<pdfrwt beam="1">  1        1 0.83799619E-01 0.12705648E+03</pdfrwt>
<pdfrwt beam="2">  1       -1 0.36063740E-02 0.12705648E+03</pdfrwt>
<totfact> 0.10935674E+04</totfact>
</mgrwt>
</event>
<event>
 7    1  0.5400401E-006  0.2029954E+03  0.7546771E-02  0.1151172E+00
          2   -1    0    0  501    0  0.00000000000E+00  0.00000000000E+00  0.53403022103E+03  0.53403022103E+03  0.00000000000E+00 0. -1.
         -2   -1    0    0    0  501 -0.00000000000E+00 -0.00000000000E+00 -0.83529197841E+02  0.83529197841E+02  0.00000000000E+00 0.  1.
         23    2    1    2    0    0  0.47721905270E+02 -0.15265824825E+03  0.11197197509E+03  0.23182933581E+03  0.12500078695E+03 0.  0.
          5    1    3    3  502    0 -0.28521972885E+01  0.28284916292E+01 -0.20456063604E+02  0.21369977362E+02  0.47000000000E+01 0.  1.
         -5    1    3    3    0  502  0.50574102558E+02 -0.15548673988E+03  0.13242803869E+03  0.21045935845E+03  0.47000000000E+01 0.  1.
        -11    1    1    2    0    0 -0.69655510806E+02  0.13649231197E+03  0.25121667419E+03  0.29426494661E+03  0.00000000000E+00 0.  1.
         11    1    1    2    0    0  0.21933605536E+02  0.16165936286E+02  0.87312373919E+02  0.91465136457E+02  0.00000000000E+00 0. -1.
<mgrwt>
<rscale>  0 0.19831030E+03</rscale>
<asrwt>0</asrwt>
<pdfrwt beam="1">  1        2 0.82158494E-01 0.20299536E+03</pdfrwt>
<pdfrwt beam="2">  1       -2 0.12850646E-01 0.20299536E+03</pdfrwt>
<totfact> 0.25278185E+03</totfact>
</mgrwt>
</event>
<event>
 7    1  0.5400401E-006  0.1742683E+03  0.7546771E-02  0.1179639E+00
         -2   -1    0    0    0  501 -0.00000000000E+00  0.00000000000E+00  0.38306683192E+03  0.38306683192E+03  0.00000000000E+00 0.  1.
          2   -1    0    0  501    0  0.00000000000E+00 -0.00000000000E+00 -0.78755760207E+02  0.78755760207E+02  0.00000000000E+00 0. -1.
         23    2    1    2    0    0 -0.22581311094E+02 -0.11930292510E+03  0.24136421839E+03  0.29770141319E+03  0.12500536768E+03 0.  0.
          5    1    3    3  502    0 -0.34495498582E+02 -0.86048060241E+02  0.54860801066E+02  0.10782395646E+03  0.47000000000E+01 0. -1.
         -5    1    3    3    0  502  0.11914187488E+02 -0.33254864856E+02  0.18650341733E+03  0.18987745673E+03  0.47000000000E+01 0. -1.
        -11    1    1    2    0    0  0.18554374911E+02  0.19820822051E+02  0.58459516775E+02  0.64456535097E+02  0.00000000000E+00 0.  1.
         11    1    1    2    0    0  0.40269361826E+01  0.99482103046E+02  0.44873365447E+01  0.99664643835E+02  0.00000000000E+00 0. -1.
<mgrwt>
<rscale>  0 0.16829341E+03</rscale>
<asrwt>0</asrwt>
<pdfrwt beam="2">  1        2 0.12116271E-01 0.17426831E+03</pdfrwt>
<pdfrwt beam="1">  1       -2 0.58933358E-01 0.17426831E+03</pdfrwt>
<totfact> 0.13631354E+03</totfact>
</mgrwt>
</event>
<event>
 7    1  0.5400401E-006  0.1493077E+03  0.7546771E-02  0.1215239E+00
          2   -1    0    0  501    0  0.00000000000E+00  0.00000000000E+00  0.60906137893E+03  0.60906137893E+03  0.00000000000E+00 0. -1.
         -2   -1    0    0    0  501 -0.00000000000E+00 -0.00000000000E+00 -0.54542931546E+02  0.54542931546E+02  0.00000000000E+00 0.  1.
         23    2    1    2    0    0  0.76646599975E+02 -0.28168691606E+02  0.67010532961E+02  0.16365571467E+03  0.12499841976E+03 0.  0.
          5    1    3    3  502    0  0.14594490391E+02 -0.50571376886E+02 -0.18108408356E+02  0.55861147170E+02  0.47000000000E+01 0. -1.
         -5    1    3    3    0  502  0.62052109584E+02  0.22402685280E+02  0.85118941316E+02  0.10779456750E+03  0.47000000000E+01 0. -1.
        -11    1    1    2    0    0 -0.87331839176E+02  0.38979238712E+02  0.42048198861E+03  0.43122074849E+03  0.00000000000E+00 0.  1.
         11    1    1    2    0    0  0.10685239201E+02 -0.10810547106E+02  0.67025925817E+02  0.68727847319E+02  0.00000000000E+00 0. -1.
<mgrwt>
<rscale>  0 0.13858999E+03</rscale>
<asrwt>0</asrwt>
<pdfrwt beam="1">  1        2 0.93701746E-01 0.14930767E+03</pdfrwt>
<pdfrwt beam="2">  1       -2 0.83912207E-02 0.14930767E+03</pdfrwt>
<totfact> 0.42354226E+03</totfact>
</mgrwt>
</event>
<event>
 7    1  0.5400401E-006  0.1727043E+03  0.7546771E-02  0.1183963E+00
         -2   -1    0    0    0  501 -0.00000000000E+00  0.00000000000E+00  0.53816218850E+03  0.53816218850E+03  0.00000000000E+00 0. -1.
          2   -1    0    0  501    0  0.00000000000E+00 -0.00000000000E+00 -0.48833140590E+02  0.48833140590E+02  0.00000000000E+00 0.  1.
         23    2    1    2    0    0  0.32896047132E+02 -0.11454682253E+03  0.34019640720E+03  0.38152375637E+03  0.12499462683E+03 0.  0.
          5    1    3    3  502    0  0.46465260604E+01 -0.11972848831E+03  0.32929193876E+03  0.35044510561E+03  0.47000000000E+01 0. -1.
         -5    1    3    3    0  502  0.28249521072E+02  0.51816657742E+01  0.10904468436E+02  0.31078650757E+02  0.47000000000E+01 0. -1.
        -11    1    1    2    0    0 -0.46036483101E+01  0.95720300691E+01 -0.87600841647E+01  0.13767948721E+02  0.00000000000E+00 0.  1.
         11    1    1    2    0    0 -0.28292398822E+02  0.10497479246E+03  0.15789272488E+03  0.19170362400E+03  0.00000000000E+00 0. -1.
<mgrwt>
<rscale>  0 0.16426554E+03</rscale>
<asrwt>0</asrwt>
<pdfrwt beam="2">  1        2 0.75127912E-02 0.17270432E+03</pdfrwt>
<pdfrwt beam="1">  1       -2 0.82794179E-01 0.17270432E+03</pdfrwt>
<totfact> 0.11942505E+03</totfact>
</mgrwt>
</event>
<event>
 7    1  0.5400401E-006  0.1590005E+03  0.7546771E-02  0.1197162E+00
         -2   -1    0    0    0  501 -0.00000000000E+00  0.00000000000E+00  0.91580177568E+02  0.91580177568E+02  0.00000000000E+00 0. -1.
          2   -1    0    0  501    0  0.00000000000E+00 -0.00000000000E+00 -0.30882643154E+03  0.30882643154E+03  0.00000000000E+00 0.  1.
         23    2    1    2    0    0 -0.76146015601E+02  0.62105578203E+02 -0.18675005182E+02  0.16009344865E+03  0.12500335174E+03 0.  0.
          5    1    3    3  502    0 -0.89880707250E+02  0.84718302338E+02 -0.35237109176E+02  0.12852811424E+03  0.47000000000E+01 0.  1.
         -5    1    3    3    0  502  0.13734691649E+02 -0.22612724136E+02  0.16562103993E+02  0.31565334407E+02  0.47000000000E+01 0.  1.
        -11    1    1    2    0    0  0.35292116328E+02  0.22181336923E+02 -0.61587228234E+02  0.74367545772E+02  0.00000000000E+00 0.  1.
         11    1    1    2    0    0  0.40853899272E+02 -0.84286915126E+02 -0.13698402056E+03  0.16594561469E+03  0.00000000000E+00 0. -1.
<mgrwt>
<rscale>  0 0.15272642E+03</rscale>
<asrwt>0</asrwt>
<pdfrwt beam="2">  1        2 0.47511759E-01 0.15900049E+03</pdfrwt>
<pdfrwt beam="1">  1       -2 0.14089258E-01 0.15900049E+03</pdfrwt>
<totfact> 0.39098716E+03</totfact>
</mgrwt>
</event>
<event>
 7    1  0.9832977E-006  0.1766016E+03  0.7546771E-02  0.1175219E+00
          1   -1    0    0  501    0  0.00000000000E+00  0.00000000000E+00  0.16374515146E+04  0.16374515146E+04  0.00000000000E+00 0. -1.
         -1   -1    0    0    0  501 -0.00000000000E+00 -0.00000000000E+00 -0.17530444842E+02  0.17530444842E+02  0.00000000000E+00 0.  1.
         23    2    1    2    0    0 -0.72905203525E+02 -0.10123193053E+03  0.77431553214E+03  0.79419938938E+03  0.12500021726E+03 0.  0.
          5    1    3    3  502    0 -0.23177600963E+02  0.28687006428E+02  0.14716447238E+03  0.15178806757E+03  0.47000000000E+01 0.  1.
         -5    1    3    3    0  502 -0.49727602562E+02 -0.12991893695E+03  0.62715105976E+03  0.64241132181E+03  0.47000000000E+01 0.  1.
        -11    1    1    2    0    0  0.54573886169E+02  0.12000844263E+03  0.75618999083E+03  0.76759601197E+03  0.00000000000E+00 0.  1.
         11    1    1    2    0    0  0.18331317356E+02 -0.18776512107E+02  0.89415546825E+02  0.93186558134E+02  0.00000000000E+00 0. -1.
<mgrwt>
<rscale>  0 0.17254567E+03</rscale>
<asrwt>0</asrwt>
<pdfrwt beam="1">  1        1 0.25191550E+00 0.17660160E+03</pdfrwt>
<pdfrwt beam="2">  1       -1 0.26969928E-02 0.17660160E+03</pdfrwt>
<totfact> 0.25602363E+03</totfact>
</mgrwt>
</event>
<event>
 7    1  0.5400401E-006  0.1354868E+03  0.7546771E-02  0.1227960E+00
          3   -1    0    0  501    0  0.00000000000E+00  0.00000000000E+00  0.20636810329E+03  0.20636810329E+03  0.00000000000E+00 0. -1.
         -3   -1    0    0    0  501 -0.00000000000E+00 -0.00000000000E+00 -0.10929447022E+03  0.10929447022E+03  0.00000000000E+00 0.  1.
         23    2    1    2    0    0  0.25500786048E+02  0.67697356755E+02 -0.36470384595E+02  0.14030953267E+03  0.11455764402E+03 0.  0.
          5    1    3    3  502    0  0.21275814957E+02 -0.27215446015E+02  0.72682204521E+01  0.35612607774E+02  0.47000000000E+01 0. -1.
         -5    1    3    3    0  502  0.42249710905E+01  0.94912802770E+02 -0.43738605047E+02  0.10469692489E+03  0.47000000000E+01 0.  1.
        -11    1    1    2    0    0 -0.42361267416E+01  0.15973148971E+02  0.22935400104E+00  0.16526913235E+02  0.00000000000E+00 0.  1.
         11    1    1    2    0    0 -0.21264659306E+02 -0.83670505726E+02  0.13331466366E+03  0.15882612761E+03  0.00000000000E+00 0. -1.
<mgrwt>
<rscale>  0 0.12966066E+03</rscale>
<asrwt>0</asrwt>
<pdfrwt beam="1">  1        3 0.31748939E-01 0.13548681E+03</pdfrwt>
<pdfrwt beam="2">  1       -3 0.16814534E-01 0.13548681E+03</pdfrwt>
<totfact> 0.68013142E+02</totfact>
</mgrwt>
</event>
<event>
 6    1  0.5400401E-006  0.3974472E+03  0.7546771E-02  0.1058693E+00
         -1   -1    0    0    0  501 -0.00000000000E+00  0.00000000000E+00  0.26952738568E+03  0.26952738568E+03  0.00000000000E+00 0.  1.
          1   -1    0    0  501    0  0.00000000000E+00 -0.00000000000E+00 -0.63531455097E+03  0.63531455097E+03  0.00000000000E+00 0. -1.
          5    1    1    2  502    0 -0.89565250469E+02 -0.30809479157E+01 -0.10565170595E+02  0.90361159584E+02  0.47000000000E+01 0. -1.
         -5    1    1    2    0  502  0.21480809502E+03 -0.21429267467E+03  0.71033164544E+02  0.31165953951E+03  0.47000000000E+01 0.  1.
        -11    1    1    2    0    0 -0.59188497207E+02  0.15091748154E+03 -0.33433013753E+03  0.37155888537E+03  0.00000000000E+00 0. -1.
         11    1    1    2    0    0 -0.66054347348E+02  0.66456141050E+02 -0.91925021702E+02  0.13126235219E+03  0.00000000000E+00 0.  1.
<mgrwt>
<rscale>  0 0.35972494E+03</rscale>
<asrwt>0</asrwt>
<pdfrwt beam="2">  1        1 0.97740699E-01 0.39744718E+03</pdfrwt>
<pdfrwt beam="1">  1       -1 0.41465752E-01 0.39744718E+03</pdfrwt>
<totfact> 0.18689927E+02</totfact>
</mgrwt>
</event>
<event>
 7    1  0.5400401E-006  0.1703391E+03  0.7546771E-02  0.1184606E+00
         -2   -1    0    0    0  501 -0.00000000000E+00  0.00000000000E+00  0.26952562485E+02  0.26952562485E+02  0.00000000000E+00 0.  1.
          2   -1    0    0  501    0  0.00000000000E+00 -0.00000000000E+00 -0.10021190300E+04  0.10021190300E+04  0.00000000000E+00 0. -1.
         23    2    1    2    0    0  0.95800590396E+02  0.64889211085E+02 -0.37976876439E+03  0.41622077283E+03  0.12500821768E+03 0.  0.
          5    1    3    3  502    0  0.11564308439E+03  0.39450647810E+02 -0.20712470222E+03  0.24052527694E+03  0.47000000000E+01 0. -1.
         -5    1    3    3    0  502 -0.19842493993E+02  0.25438563275E+02 -0.17264406217E+03  0.17569549588E+03  0.47000000000E+01 0. -1.
        -11    1    1    2    0    0 -0.75334970474E+02 -0.19010556822E+00 -0.36370268368E+03  0.37142298802E+03  0.00000000000E+00 0.  1.
         11    1    1    2    0    0 -0.20465619922E+02 -0.64699105517E+02 -0.23169501942E+03  0.24142783161E+03  0.00000000000E+00 0. -1.
<mgrwt>
<rscale>  0 0.16367768E+03</rscale>
<asrwt>0</asrwt>
<pdfrwt beam="2">  1        2 0.15417214E+00 0.17033912E+03</pdfrwt>
<pdfrwt beam="1">  1       -2 0.41465485E-02 0.17033912E+03</pdfrwt>
<totfact> 0.66828395E+03</totfact>
</mgrwt>
</event>
<event>
 7    1  0.5400401E-006  0.1273662E+03  0.7546771E-02  0.1241744E+00
          3   -1    0    0  501    0  0.00000000000E+00  0.00000000000E+00  0.16807903524E+03  0.16807903524E+03  0.00000000000E+00 0. -1.
         -3   -1    0    0    0  501 -0.00000000000E+00 -0.00000000000E+00 -0.17858533808E+03  0.17858533808E+03  0.00000000000E+00 0.  1.
         23    2    1    2    0    0  0.11885428533E+02 -0.21344756310E+02 -0.13459518293E+03  0.18530517237E+03  0.12500112643E+03 0.  0.
          5    1    3    3  502    0 -0.41440413505E+02 -0.40766024401E+02 -0.28542286400E+02  0.64930183504E+02  0.47000000000E+01 0.  1.
         -5    1    3    3    0  502  0.53325842038E+02  0.19421268091E+02 -0.10605289653E+03  0.12037498887E+03  0.47000000000E+01 0.  1.
        -11    1    1    2    0    0  0.30677161775E+02  0.16249083620E+02  0.53565756918E+01  0.35125686843E+02  0.00000000000E+00 0.  1.
         11    1    1    2    0    0 -0.42562590308E+02  0.50956726897E+01  0.11873230440E+03  0.12623351410E+03  0.00000000000E+00 0. -1.
<mgrwt>
<rscale>  0 0.12082363E+03</rscale>
<asrwt>0</asrwt>
<pdfrwt beam="1">  1        3 0.25858313E-01 0.12736618E+03</pdfrwt>
<pdfrwt beam="2">  1       -3 0.27474667E-01 0.12736618E+03</pdfrwt>
<totfact> 0.41104778E+02</totfact>
</mgrwt>
</event>
<event>
 7    1  0.5400401E-006  0.2413183E+03  0.7546771E-02  0.1121529E+00
          2   -1    0    0  501    0  0.00000000000E+00  0.00000000000E+00  0.23163252991E+03  0.23163252991E+03  0.00000000000E+00 0. -1.
         -2   -1    0    0    0  501 -0.00000000000E+00 -0.00000000000E+00 -0.26000397300E+03  0.26000397300E+03  0.00000000000E+00 0.  1.
         23    2    1    2    0    0  0.55754241028E+02 -0.19875260783E+03 -0.89615292336E+02  0.25742067107E+03  0.12499346687E+03 0.  0.
          5    1    3    3  502    0 -0.37590278435E+02 -0.88446828616E+02 -0.27554583367E+02  0.10008604093E+03  0.47000000000E+01 0. -1.
         -5    1    3    3    0  502  0.93344519464E+02 -0.11030577921E+03 -0.62060708970E+02  0.15733463013E+03  0.47000000000E+01 0. -1.
        -11    1    1    2    0    0 -0.35828443748E+02  0.87398427262E+02 -0.17923194983E+02  0.96142620038E+02  0.00000000000E+00 0.  1.
         11    1    1    2    0    0 -0.19925797280E+02  0.11135418057E+03  0.79167044232E+02  0.13807321181E+03  0.00000000000E+00 0. -1.
<mgrwt>
<rscale>  0 0.23741157E+03</rscale>
<asrwt>0</asrwt>
<pdfrwt beam="1">  1        2 0.35635774E-01 0.24131826E+03</pdfrwt>
<pdfrwt beam="2">  1       -2 0.40000611E-01 0.24131826E+03</pdfrwt>
<totfact> 0.86409650E+02</totfact>
</mgrwt>
</event>
<event>
 7    1  0.5400401E-006  0.1254706E+03  0.7546771E-02  0.1251465E+00
          2   -1    0    0  501    0  0.00000000000E+00  0.00000000000E+00  0.92748749688E+02  0.92748749688E+02  0.00000000000E+00 0. -1.
         -2   -1    0    0    0  501 -0.00000000000E+00 -0.00000000000E+00 -0.12370495733E+03  0.12370495733E+03  0.00000000000E+00 0.  1.
         23    2    1    2    0    0 -0.20353578209E+01  0.10643418700E+02 -0.17249228497E+02  0.12665074842E+03  0.12500180458E+03 0.  0.
          5    1    3    3  502    0 -0.13546281380E+01  0.57202902095E+02  0.25909649145E+02  0.62987355432E+02  0.47000000000E+01 0.  1.
         -5    1    3    3    0  502 -0.68072968288E+00 -0.46559483395E+02 -0.43158877642E+02  0.63663392984E+02  0.47000000000E+01 0.  1.
        -11    1    1    2    0    0  0.21789630739E+02 -0.41831985260E+02 -0.21874112667E+02  0.51992112897E+02  0.00000000000E+00 0. -1.
         11    1    1    2    0    0 -0.19754272918E+02  0.31188566560E+02  0.81671335261E+01  0.37810845701E+02  0.00000000000E+00 0.  1.
<mgrwt>
<rscale>  0 0.11506666E+03</rscale>
<asrwt>0</asrwt>
<pdfrwt beam="1">  1        2 0.14269039E-01 0.12547062E+03</pdfrwt>
<pdfrwt beam="2">  1       -2 0.19031532E-01 0.12547062E+03</pdfrwt>
<totfact> 0.88627153E+03</totfact>
</mgrwt>
</event>
<event>
 7    1  0.5400401E-006  0.1358207E+03  0.7546771E-02  0.1224666E+00
          1   -1    0    0  501    0  0.00000000000E+00  0.00000000000E+00  0.24641716782E+02  0.24641716782E+02  0.00000000000E+00 0. -1.
         -1   -1    0    0    0  501 -0.00000000000E+00 -0.00000000000E+00 -0.79868007667E+03  0.79868007667E+03  0.00000000000E+00 0.  1.
         23    2    1    2    0    0  0.73738253956E+02  0.29794152902E+02 -0.57218602113E+03  0.58808512605E+03  0.11010109476E+03 0.  0.
          5    1    3    3  502    0  0.78478185187E+02 -0.20787120627E+02 -0.41275512881E+03  0.42068969122E+03  0.47000000000E+01 0. -1.
         -5    1    3    3    0  502 -0.47399312309E+01  0.50581273528E+02 -0.15943089231E+03  0.16739543483E+03  0.47000000000E+01 0.  1.
        -11    1    1    2    0    0 -0.86301830081E+02 -0.31352352581E+02 -0.20272195545E+03  0.22254699977E+03  0.00000000000E+00 0.  1.
         11    1    1    2    0    0  0.12563576125E+02  0.15581996796E+01  0.86961668517E+00  0.12689667627E+02  0.00000000000E+00 0. -1.
<mgrwt>
<rscale>  0 0.13189813E+03</rscale>
<asrwt>0</asrwt>
<pdfrwt beam="1">  1        1 0.37910326E-02 0.13582074E+03</pdfrwt>
<pdfrwt beam="2">  1       -1 0.12287388E+00 0.13582074E+03</pdfrwt>
<totfact> 0.14942113E+03</totfact>
</mgrwt>
</event>
<event>
 7    1  0.5400401E-006  0.2190166E+03  0.7546771E-02  0.1139106E+00
          2   -1    0    0  501    0  0.00000000000E+00  0.00000000000E+00  0.60416452213E+03  0.60416452213E+03  0.00000000000E+00 0. -1.
         -2   -1    0    0    0  501 -0.00000000000E+00 -0.00000000000E+00 -0.71637363136E+02  0.71637363136E+02  0.00000000000E+00 0.  1.
         23    2    1    2    0    0 -0.12427259015E+03 -0.12999913705E+03  0.29939668561E+03  0.37095368004E+03  0.12499922032E+03 0.  0.
          5    1    3    3  502    0 -0.90739032496E+02 -0.10126103975E+03  0.29676385371E+03  0.32646323691E+03  0.47000000000E+01 0.  1.
         -5    1    3    3    0  502 -0.33533557656E+02 -0.28738097299E+02  0.26328319068E+01  0.44490443123E+02  0.47000000000E+01 0.  1.
        -11    1    1    2    0    0  0.35608909900E+02  0.93570917611E+02  0.10876057793E+03  0.14782548630E+03  0.00000000000E+00 0.  1.
         11    1    1    2    0    0  0.88663680252E+02  0.36428219436E+02  0.12436989545E+03  0.15702271894E+03  0.00000000000E+00 0. -1.
<mgrwt>
<rscale>  0 0.21313594E+03</rscale>
<asrwt>0</asrwt>
<pdfrwt beam="1">  1        2 0.92948385E-01 0.21901657E+03</pdfrwt>
<pdfrwt beam="2">  1       -2 0.11021133E-01 0.21901657E+03</pdfrwt>
<totfact> 0.28175339E+03</totfact>
</mgrwt>
</event>
<event>
 6    1  0.5400401E-006  0.1847482E+03  0.7546771E-02  0.1180161E+00
          4   -1    0    0  501    0  0.00000000000E+00  0.00000000000E+00  0.16043420831E+03  0.16043420831E+03  0.00000000000E+00 0. -1.
         -4   -1    0    0    0  501 -0.00000000000E+00 -0.00000000000E+00 -0.15171322545E+03  0.15171322545E+03  0.00000000000E+00 0.  1.
          5    1    1    2  502    0  0.30830550774E+02  0.12451924817E+03 -0.27333956104E+02  0.13124329004E+03  0.47000000000E+01 0. -1.
         -5    1    1    2    0  502 -0.32100066633E+02 -0.39266109913E+02  0.17259590943E+02  0.53779411907E+02  0.47000000000E+01 0.  1.
        -11    1    1    2    0    0  0.30421922349E+02 -0.37253685661E+02  0.44351290937E+02  0.65424517289E+02  0.00000000000E+00 0. -1.
         11    1    1    2    0    0 -0.29152406490E+02 -0.47999452595E+02 -0.25555942909E+02  0.61700214518E+02  0.00000000000E+00 0.  1.
<mgrwt>
<rscale>  0 0.16780036E+03</rscale>
<asrwt>0</asrwt>
<pdfrwt beam="1">  1        4 0.24682186E-01 0.18474823E+03</pdfrwt>
<pdfrwt beam="2">  1       -4 0.23340496E-01 0.18474823E+03</pdfrwt>
<totfact> 0.45821218E+02</totfact>
</mgrwt>
</event>
<event>
 7    1  0.5400401E-006  0.1300530E+03  0.7546771E-02  0.1235889E+00
          1   -1    0    0  501    0  0.00000000000E+00  0.00000000000E+00  0.19026642126E+03  0.19026642126E+03  0.00000000000E+00 0. -1.
         -1   -1    0    0    0  501 -0.00000000000E+00 -0.00000000000E+00 -0.89312750935E+02  0.89312750935E+02  0.00000000000E+00 0.  1.
         23    2    1    2    0    0  0.10112901900E+02 -0.34450980076E+02 -0.12422022015E+01  0.13005897797E+03  0.12499861548E+03 0.  0.
          5    1    3    3  502    0 -0.51951835378E+02  0.10167089484E+02  0.40088876733E+01  0.53296567320E+02  0.47000000000E+01 0. -1.
         -5    1    3    3    0  502  0.62064737278E+02 -0.44618069559E+02 -0.52510898748E+01  0.76762410654E+02  0.47000000000E+01 0. -1.
        -11    1    1    2    0    0 -0.25539996188E+02  0.40654257281E+02  0.21045413404E+01  0.48057144470E+02  0.00000000000E+00 0.  1.
         11    1    1    2    0    0  0.15427094288E+02 -0.62032772054E+01  0.10009133119E+03  0.10146304975E+03  0.00000000000E+00 0. -1.
<mgrwt>
<rscale>  0 0.12447720E+03</rscale>
<asrwt>0</asrwt>
<pdfrwt beam="1">  1        1 0.29271757E-01 0.13005305E+03</pdfrwt>
<pdfrwt beam="2">  1       -1 0.13740423E-01 0.13005305E+03</pdfrwt>
<totfact> 0.54987302E+03</totfact>
</mgrwt>
</event>
<event>
 7    1  0.5400401E-006  0.2804484E+03  0.7546771E-02  0.1097269E+00
         -1   -1    0    0    0  501 -0.00000000000E+00  0.00000000000E+00  0.17478953671E+03  0.17478953671E+03  0.00000000000E+00 0.  1.
          1   -1    0    0  501    0  0.00000000000E+00 -0.00000000000E+00 -0.44378374069E+03  0.44378374069E+03  0.00000000000E+00 0. -1.
         23    2    1    2    0    0 -0.25103666113E+03  0.23592347437E+01 -0.81691394325E+02  0.29210407515E+03  0.12500534226E+03 0.  0.
          5    1    3    3  502    0 -0.21364512371E+03  0.26706762835E+02 -0.10712350412E+03  0.24053071571E+03  0.47000000000E+01 0. -1.
         -5    1    3    3    0  502 -0.37391537424E+02 -0.24347528092E+02  0.25432109799E+02  0.51573359440E+02  0.47000000000E+01 0. -1.
        -11    1    1    2    0    0  0.14638923454E+03 -0.46641158861E+02 -0.10274798830E+03  0.18483061107E+03  0.00000000000E+00 0.  1.
         11    1    1    2    0    0  0.10464742659E+03  0.44281924117E+02 -0.84554821357E+02  0.14163859117E+03  0.00000000000E+00 0. -1.
<mgrwt>
<rscale>  0 0.27712636E+03</rscale>
<asrwt>0</asrwt>
<pdfrwt beam="2">  1        1 0.68274422E-01 0.28044840E+03</pdfrwt>
<pdfrwt beam="1">  1       -1 0.26890698E-01 0.28044840E+03</pdfrwt>
<totfact> 0.65391275E+02</totfact>
</mgrwt>
</event>
<event>
 7    1  0.5400401E-006  0.1313666E+03  0.7546771E-02  0.1238993E+00
          2   -1    0    0  501    0  0.00000000000E+00  0.00000000000E+00  0.16843086504E+03  0.16843086504E+03  0.00000000000E+00 0. -1.
         -2   -1    0    0    0  501 -0.00000000000E+00 -0.00000000000E+00 -0.79098013785E+02  0.79098013785E+02  0.00000000000E+00 0.  1.
         23    2    1    2    0    0 -0.40241735242E+02  0.33293008892E+01  0.47720632927E+02  0.13976565552E+03  0.12500679244E+03 0.  0.
          5    1    3    3  502    0 -0.42104815597E+02  0.23676200705E+02 -0.31472362416E+02  0.57844425594E+02  0.47000000000E+01 0. -1.
         -5    1    3    3    0  502  0.18630803548E+01 -0.20346899815E+02  0.79192995344E+02  0.81921229923E+02  0.47000000000E+01 0. -1.
        -11    1    1    2    0    0 -0.27784452772E+00 -0.11835404819E+02 -0.25950656810E+02  0.28523509491E+02  0.00000000000E+00 0.  1.
         11    1    1    2    0    0  0.40519579769E+02  0.85061039298E+01  0.67562875134E+02  0.79239713813E+02  0.00000000000E+00 0. -1.
<mgrwt>
<rscale>  0 0.12252244E+03</rscale>
<asrwt>0</asrwt>
<pdfrwt beam="1">  1        2 0.25912441E-01 0.13136659E+03</pdfrwt>
<pdfrwt beam="2">  1       -2 0.12168925E-01 0.13136659E+03</pdfrwt>
<totfact> 0.93915399E+03</totfact>
</mgrwt>
</event>
<event>
 7    1  0.5400401E-006  0.1428859E+03  0.7546771E-02  0.1219701E+00
          3   -1    0    0  501    0  0.00000000000E+00  0.00000000000E+00  0.12289797974E+03  0.12289797974E+03  0.00000000000E+00 0. -1.
         -3   -1    0    0    0  501 -0.00000000000E+00 -0.00000000000E+00 -0.13553608815E+03  0.13553608815E+03  0.00000000000E+00 0.  1.
         23    2    1    2    0    0  0.69042788626E+02 -0.50220018559E+01 -0.11117460370E+02  0.14331774802E+03  0.12499700720E+03 0.  0.
          5    1    3    3  502    0  0.95292197674E+02 -0.35869258641E+02 -0.11203287137E+02  0.10254174904E+03  0.47000000000E+01 0.  1.
         -5    1    3    3    0  502 -0.26249409049E+02  0.30847256785E+02  0.85826766559E-01  0.40775998980E+02  0.47000000000E+01 0.  1.
        -11    1    1    2    0    0 -0.57519988589E+02 -0.36178459464E+01 -0.42545896270E+02  0.71636521314E+02  0.00000000000E+00 0.  1.
         11    1    1    2    0    0 -0.11522800036E+02  0.86398478023E+01  0.41025248232E+02  0.43479798565E+02  0.00000000000E+00 0. -1.
<mgrwt>
<rscale>  0 0.13536824E+03</rscale>
<asrwt>0</asrwt>
<pdfrwt beam="1">  1        3 0.18907382E-01 0.14288589E+03</pdfrwt>
<pdfrwt beam="2">  1       -3 0.20851706E-01 0.14288589E+03</pdfrwt>
<totfact> 0.11989248E+03</totfact>
</mgrwt>
</event>
<event>
 6    1  0.5400401E-006  0.2596480E+03  0.7546771E-02  0.1123269E+00
         -3   -1    0    0    0  501 -0.00000000000E+00  0.00000000000E+00  0.70734372655E+02  0.70734372655E+02  0.00000000000E+00 0.  1.
          3   -1    0    0  501    0  0.00000000000E+00 -0.00000000000E+00 -0.79212015224E+03  0.79212015224E+03  0.00000000000E+00 0. -1.
          5    1    1    2  502    0  0.23622500892E+02 -0.10322558548E+03 -0.13688206377E+03  0.17312519582E+03  0.47000000000E+01 0. -1.
         -5    1    1    2    0  502 -0.10989295658E+03  0.10095137844E+03 -0.11307374682E+03  0.18728428908E+03  0.47000000000E+01 0.  1.
        -11    1    1    2    0    0  0.99613706809E+01  0.70605799363E+02 -0.19991993201E+03  0.21225547584E+03  0.00000000000E+00 0.  1.
         11    1    1    2    0    0  0.76309085008E+02 -0.68331592321E+02 -0.27151003698E+03  0.29018956416E+03  0.00000000000E+00 0. -1.
<mgrwt>
<rscale>  0 0.23485416E+03</rscale>
<asrwt>0</asrwt>
<pdfrwt beam="2">  1        3 0.12186465E+00 0.25964801E+03</pdfrwt>
<pdfrwt beam="1">  1       -3 0.10882211E-01 0.25964801E+03</pdfrwt>
<totfact> 0.91309742E+01</totfact>
</mgrwt>
</event>
<event>
 7    1  0.5400401E-006  0.1275571E+03  0.7546771E-02  0.1245474E+00
          2   -1    0    0  501    0  0.00000000000E+00  0.00000000000E+00  0.34819418869E+03  0.34819418869E+03  0.00000000000E+00 0. -1.
         -2   -1    0    0    0  501 -0.00000000000E+00 -0.00000000000E+00 -0.45694579367E+02  0.45694579367E+02  0.00000000000E+00 0.  1.
         23    2    1    2    0    0 -0.92573371392E+01  0.23587019067E+02  0.76733800359E+02  0.14885861556E+03  0.12501506129E+03 0.  0.
          5    1    3    3  502    0 -0.57540528106E+02  0.31641198716E+02  0.10969834090E+02  0.66742078862E+02  0.47000000000E+01 0. -1.
         -5    1    3    3    0  502  0.48283190967E+02 -0.80541796499E+01  0.65763966270E+02  0.82116536698E+02  0.47000000000E+01 0. -1.
        -11    1    1    2    0    0  0.36448030497E+02 -0.46895359065E+02  0.14364370461E+03  0.15543856504E+03  0.00000000000E+00 0.  1.
         11    1    1    2    0    0 -0.27190693357E+02  0.23308339998E+02  0.82122104358E+02  0.89591587457E+02  0.00000000000E+00 0. -1.
<mgrwt>
<rscale>  0 0.11857055E+03</rscale>
<asrwt>0</asrwt>
<pdfrwt beam="1">  1        2 0.53568335E-01 0.12755709E+03</pdfrwt>
<pdfrwt beam="2">  1       -2 0.70299355E-02 0.12755709E+03</pdfrwt>
<totfact> 0.10146097E+04</totfact>
</mgrwt>
</event>
<event>
 7    1  0.5400401E-006  0.1418861E+03  0.7546771E-02  0.1222780E+00
         -1   -1    0    0    0  501 -0.00000000000E+00  0.00000000000E+00  0.15236364506E+03  0.15236364506E+03  0.00000000000E+00 0.  1.
          1   -1    0    0  501    0  0.00000000000E+00 -0.00000000000E+00 -0.11035218009E+03  0.11035218009E+03  0.00000000000E+00 0. -1.
         23    2    1    2    0    0  0.64600824452E+02 -0.19041133237E+02  0.54084391483E+02  0.15184460251E+03  0.12488326803E+03 0.  0.
          5    1    3    3  502    0 -0.36456345212E+02 -0.16366193320E+02  0.10019271981E+02  0.41465566450E+02  0.47000000000E+01 0.  1.
         -5    1    3    3    0  502  0.10105716966E+03 -0.26749399173E+01  0.44065119501E+02  0.11037903606E+03  0.47000000000E+01 0.  1.
        -11    1    1    2    0    0 -0.14210007491E+02  0.48393948102E+02  0.33545718787E+01  0.50548508171E+02  0.00000000000E+00 0. -1.
         11    1    1    2    0    0 -0.50390816961E+02 -0.29352814865E+02 -0.15427498386E+02  0.60322714469E+02  0.00000000000E+00 0.  1.
<mgrwt>
<rscale>  0 0.13320239E+03</rscale>
<asrwt>0</asrwt>
<pdfrwt beam="2">  1        1 0.16977258E-01 0.14188609E+03</pdfrwt>
<pdfrwt beam="1">  1       -1 0.23440561E-01 0.14188609E+03</pdfrwt>
<totfact> 0.47033489E+03</totfact>
</mgrwt>
</event>
<event>
 7    1  0.5400401E-006  0.3070656E+03  0.7546771E-02  0.1083334E+00
          1   -1    0    0  501    0  0.00000000000E+00  0.00000000000E+00  0.69314782477E+03  0.69314782477E+03  0.00000000000E+00 0. -1.
         -1   -1    0    0    0  501 -0.00000000000E+00 -0.00000000000E+00 -0.13310505472E+03  0.13310505472E+03  0.00000000000E+00 0.  1.
         23    2    1    2    0    0  0.22719203455E+03 -0.16446420992E+03  0.34390952650E+03  0.46104562790E+03  0.12499844674E+03 0.  0.
          5    1    3    3  502    0  0.52321463929E+02 -0.11200775521E+03  0.12354127791E+03  0.17483652410E+03  0.47000000000E+01 0.  1.
         -5    1    3    3    0  502  0.17487057062E+03 -0.52456454712E+02  0.22036824859E+03  0.28620910380E+03  0.47000000000E+01 0.  1.
        -11    1    1    2    0    0 -0.14693606523E+03  0.11425307529E+03  0.87968493097E+02  0.20586993043E+03  0.00000000000E+00 0.  1.
         11    1    1    2    0    0 -0.80255969324E+02  0.50211134627E+02  0.12816475046E+03  0.15933732115E+03  0.00000000000E+00 0. -1.
<mgrwt>
<rscale>  0 0.30384527E+03</rscale>
<asrwt>0</asrwt>
<pdfrwt beam="1">  1        1 0.10663812E+00 0.30706564E+03</pdfrwt>
<pdfrwt beam="2">  1       -1 0.20477701E-01 0.30706564E+03</pdfrwt>
<totfact> 0.55634358E+02</totfact>
</mgrwt>
</event>
<event>
 7    1  0.5400401E-006  0.2395580E+03  0.7546771E-02  0.1122783E+00
          2   -1    0    0  501    0  0.00000000000E+00  0.00000000000E+00  0.13869438051E+04  0.13869438051E+04  0.00000000000E+00 0. -1.
         -2   -1    0    0    0  501 -0.00000000000E+00 -0.00000000000E+00 -0.41461948462E+02  0.41461948462E+02  0.00000000000E+00 0.  1.
         23    2    1    2    0    0 -0.11588239559E+03 -0.16799298614E+03  0.51063710484E+03  0.56403749641E+03  0.12544987652E+03 0.  0.
          5    1    3    3  502    0  0.20980631236E+02 -0.61917180714E+02  0.12046028507E+03  0.13713750192E+03  0.47000000000E+01 0.  1.
         -5    1    3    3    0  502 -0.13686302682E+03 -0.10607580542E+03  0.39017681977E+03  0.42689999448E+03  0.47000000000E+01 0.  1.
        -11    1    1    2    0    0  0.51518136815E+02  0.20417702178E+02  0.12908837388E+03  0.14048063658E+03  0.00000000000E+00 0.  1.
         11    1    1    2    0    0  0.64364258770E+02  0.14757528396E+03  0.70575637787E+03  0.72388762053E+03  0.00000000000E+00 0. -1.
<mgrwt>
<rscale>  0 0.23556459E+03</rscale>
<asrwt>0</asrwt>
<pdfrwt beam="1">  1        2 0.21337593E+00 0.23955802E+03</pdfrwt>
<pdfrwt beam="2">  1       -2 0.63787624E-02 0.23955802E+03</pdfrwt>
<totfact> 0.21159816E+03</totfact>
</mgrwt>
</event>
<event>
 7    1  0.5400401E-006  0.1304807E+03  0.7546771E-02  0.1240071E+00
          1   -1    0    0  501    0  0.00000000000E+00  0.00000000000E+00  0.52811824674E+03  0.52811824674E+03  0.00000000000E+00 0. -1.
         -1   -1    0    0    0  501 -0.00000000000E+00 -0.00000000000E+00 -0.25113292984E+02  0.25113292984E+02  0.00000000000E+00 0.  1.
         23    2    1    2    0    0 -0.23911317632E+02  0.28790405605E+02  0.26569281149E+03  0.29600320155E+03  0.12499834671E+03 0.  0.
          5    1    3    3  502    0  0.50396847425E+02  0.39418418028E+01  0.85165217490E+02  0.99149304674E+02  0.47000000000E+01 0.  1.
         -5    1    3    3    0  502 -0.74308165057E+02  0.24848563803E+02  0.18052759400E+03  0.19685389687E+03  0.47000000000E+01 0.  1.
        -11    1    1    2    0    0  0.49416277132E+02  0.12109422949E+02  0.11444150163E+03  0.12524162193E+03  0.00000000000E+00 0.  1.
         11    1    1    2    0    0 -0.25504959500E+02 -0.40899828554E+02  0.12287064064E+03  0.13198671625E+03  0.00000000000E+00 0. -1.
<mgrwt>
<rscale>  0 0.12185290E+03</rscale>
<asrwt>0</asrwt>
<pdfrwt beam="1">  1        1 0.81248953E-01 0.13048075E+03</pdfrwt>
<pdfrwt beam="2">  1       -1 0.38635839E-02 0.13048075E+03</pdfrwt>
<totfact> 0.10319206E+04</totfact>
</mgrwt>
</event>
<event>
 7    1  0.5400401E-006  0.1385035E+03  0.7546771E-02  0.1225913E+00
          2   -1    0    0  501    0  0.00000000000E+00  0.00000000000E+00  0.25269839458E+03  0.25269839458E+03  0.00000000000E+00 0. -1.
         -2   -1    0    0    0  501 -0.00000000000E+00 -0.00000000000E+00 -0.73228677657E+02  0.73228677657E+02  0.00000000000E+00 0.  1.
         23    2    1    2    0    0 -0.45981240703E+02 -0.37999382731E+02  0.33405870410E+02  0.14247512373E+03  0.12499992448E+03 0.  0.
          5    1    3    3  502    0 -0.32677384333E+02 -0.83455801574E+02  0.30504807716E+02  0.94790904400E+02  0.47000000000E+01 0.  1.
         -5    1    3    3    0  502 -0.13303856370E+02  0.45456418843E+02  0.29010626942E+01  0.47684219330E+02  0.47000000000E+01 0.  1.
        -11    1    1    2    0    0  0.64019804398E+02  0.22012995571E+02  0.14417122579E+03  0.15927476157E+03  0.00000000000E+00 0. -1.
         11    1    1    2    0    0 -0.18038563695E+02  0.15986387161E+02  0.18926207210E+01  0.24177186929E+02  0.00000000000E+00 0.  1.
<mgrwt>
<rscale>  0 0.13104537E+03</rscale>
<asrwt>0</asrwt>
<pdfrwt beam="1">  1        2 0.38876676E-01 0.13850346E+03</pdfrwt>
<pdfrwt beam="2">  1       -2 0.11265951E-01 0.13850346E+03</pdfrwt>
<totfact> 0.68795008E+03</totfact>
</mgrwt>
</event>
<event>
 7    1  0.5400401E-006  0.1883223E+03  0.7546771E-02  0.1164990E+00
          1   -1    0    0  501    0  0.00000000000E+00  0.00000000000E+00  0.94666961809E+02  0.94666961809E+02  0.00000000000E+00 0. -1.
         -1   -1    0    0    0  501 -0.00000000000E+00 -0.00000000000E+00 -0.43817884425E+03  0.43817884425E+03  0.00000000000E+00 0.  1.
         23    2    1    2    0    0  0.12378798659E+03  0.67208851063E+02 -0.30865532233E+03  0.36157074510E+03  0.12499920171E+03 0.  0.
          5    1    3    3  502    0 -0.13482097593E+02 -0.91687719876E+01 -0.94082615435E+02  0.95600532751E+02  0.47000000000E+01 0.  1.
         -5    1    3    3    0  502  0.13727008419E+03  0.76377623050E+02 -0.21457270689E+03  0.26597021235E+03  0.47000000000E+01 0.  1.
        -11    1    1    2    0    0 -0.37719284599E+02 -0.52152523199E+02  0.20845130302E+02  0.67654634460E+02  0.00000000000E+00 0. -1.
         11    1    1    2    0    0 -0.86068701996E+02 -0.15056327864E+02 -0.55701690420E+02  0.10362042650E+03  0.00000000000E+00 0.  1.
<mgrwt>
<rscale>  0 0.18293785E+03</rscale>
<asrwt>0</asrwt>
<pdfrwt beam="1">  1        1 0.14564148E-01 0.18832232E+03</pdfrwt>
<pdfrwt beam="2">  1       -1 0.67412131E-01 0.18832232E+03</pdfrwt>
<totfact> 0.89165778E+02</totfact>
</mgrwt>
</event>
<event>
 7    1  0.5400401E-006  0.2720919E+03  0.7546771E-02  0.1101939E+00
          3   -1    0    0  501    0  0.00000000000E+00  0.00000000000E+00  0.67076482999E+03  0.67076482999E+03  0.00000000000E+00 0. -1.
         -3   -1    0    0    0  501 -0.00000000000E+00 -0.00000000000E+00 -0.10545644801E+03  0.10545644801E+03  0.00000000000E+00 0.  1.
         23    2    1    2    0    0 -0.23120560758E+03 -0.70372349782E+02  0.30582582797E+03  0.40934511292E+03  0.12500273528E+03 0.  0.
          5    1    3    3  502    0 -0.41811771045E+02 -0.65967371473E+02  0.58137373022E+02  0.97478010028E+02  0.47000000000E+01 0. -1.
         -5    1    3    3    0  502 -0.18939383654E+03 -0.44049783093E+01  0.24768845495E+03  0.31186710289E+03  0.47000000000E+01 0. -1.
        -11    1    1    2    0    0  0.70163265290E+02  0.67513632148E+02  0.83020829347E+02  0.12795871376E+03  0.00000000000E+00 0. -1.
         11    1    1    2    0    0  0.16104234229E+03  0.28587176343E+01  0.17646172465E+03  0.23891745132E+03  0.00000000000E+00 0.  1.
<mgrwt>
<rscale>  0 0.26885113E+03</rscale>
<asrwt>0</asrwt>
<pdfrwt beam="1">  1        3 0.10319459E+00 0.27209187E+03</pdfrwt>
<pdfrwt beam="2">  1       -3 0.16224069E-01 0.27209187E+03</pdfrwt>
<totfact> 0.68316715E+01</totfact>
</mgrwt>
</event>
<event>
 7    1  0.5400401E-006  0.1688705E+03  0.7546771E-02  0.1185558E+00
         -2   -1    0    0    0  501 -0.00000000000E+00  0.00000000000E+00  0.47649785286E+02  0.47649785286E+02  0.00000000000E+00 0.  1.
          2   -1    0    0  501    0  0.00000000000E+00 -0.00000000000E+00 -0.58139547401E+03  0.58139547401E+03  0.00000000000E+00 0. -1.
         23    2    1    2    0    0 -0.19948110922E+02  0.11177597834E+03 -0.38634910418E+03  0.42164307756E+03  0.12500183236E+03 0.  0.
          5    1    3    3  502    0 -0.13338480959E+02 -0.26637086512E+02 -0.73472650729E+02  0.79421469750E+02  0.47000000000E+01 0. -1.
         -5    1    3    3    0  502 -0.66096299626E+01  0.13841306485E+03 -0.31287645345E+03  0.34222160781E+03  0.47000000000E+01 0. -1.
        -11    1    1    2    0    0  0.46210177978E+02 -0.35197223201E+02 -0.31643377551E+02  0.66147777080E+02  0.00000000000E+00 0.  1.
         11    1    1    2    0    0 -0.26262067056E+02 -0.76578755139E+02 -0.11575320699E+03  0.14125440465E+03  0.00000000000E+00 0. -1.
<mgrwt>
<rscale>  0 0.16281227E+03</rscale>
<asrwt>0</asrwt>
<pdfrwt beam="2">  1        2 0.89445461E-01 0.16887053E+03</pdfrwt>
<pdfrwt beam="1">  1       -2 0.73307359E-02 0.16887053E+03</pdfrwt>
<totfact> 0.55360471E+03</totfact>
</mgrwt>
</event>
<event>
 7    1  0.5400401E-006  0.1187563E+03  0.7546771E-02  0.1257475E+00
         -2   -1    0    0    0  501 -0.00000000000E+00  0.00000000000E+00  0.14779365484E+03  0.14779365484E+03  0.00000000000E+00 0.  1.
          2   -1    0    0  501    0  0.00000000000E+00 -0.00000000000E+00 -0.96933724157E+02  0.96933724157E+02  0.00000000000E+00 0. -1.
         23    2    1    2    0    0  0.23056714250E+02  0.30221113542E+00  0.84677950531E+02  0.14585411335E+03  0.11649619596E+03 0.  0.
          5    1    3    3  502    0 -0.23039521958E+02  0.47040232174E+02  0.32053654652E+02  0.61588390072E+02  0.47000000000E+01 0. -1.
         -5    1    3    3    0  502  0.46096236208E+02 -0.46738021039E+02  0.52624295880E+02  0.84265723281E+02  0.47000000000E+01 0.  1.
        -11    1    1    2    0    0  0.72452624661E+01 -0.39165588587E+02 -0.29179516412E+02  0.49374905930E+02  0.00000000000E+00 0.  1.
         11    1    1    2    0    0 -0.30301976716E+02  0.38863377452E+02 -0.46385034392E+01  0.49498359710E+02  0.00000000000E+00 0. -1.
<mgrwt>
<rscale>  0 0.11168843E+03</rscale>
<asrwt>0</asrwt>
<pdfrwt beam="2">  1        2 0.14912881E-01 0.11875633E+03</pdfrwt>
<pdfrwt beam="1">  1       -2 0.22737485E-01 0.11875633E+03</pdfrwt>
<totfact> 0.61958474E+03</totfact>
</mgrwt>
</event>
<event>
 7    1  0.5400401E-006  0.2873341E+03  0.7546771E-02  0.1093527E+00
          1   -1    0    0  501    0  0.00000000000E+00  0.00000000000E+00  0.10201240168E+04  0.10201240168E+04  0.00000000000E+00 0. -1.
         -1   -1    0    0    0  501 -0.00000000000E+00 -0.00000000000E+00 -0.78271665671E+02  0.78271665671E+02  0.00000000000E+00 0.  1.
         23    2    1    2    0    0 -0.39881011290E+02 -0.25561818912E+03  0.41992203997E+03  0.50881767832E+03  0.12501902434E+03 0.  0.
          5    1    3    3  502    0 -0.21915883793E+02 -0.77280771475E+02  0.24676912677E+03  0.25955676745E+03  0.47000000000E+01 0.  1.
         -5    1    3    3    0  502 -0.17965127497E+02 -0.17833741764E+03  0.17315291320E+03  0.24926091087E+03  0.47000000000E+01 0.  1.
        -11    1    1    2    0    0  0.24581728500E+02  0.22333336560E+03  0.49866244434E+03  0.54694267246E+03  0.00000000000E+00 0. -1.
         11    1    1    2    0    0  0.15299282790E+02  0.32284823514E+02  0.23267866853E+02  0.42635331723E+02  0.00000000000E+00 0.  1.
<mgrwt>
<rscale>  0 0.28399529E+03</rscale>
<asrwt>0</asrwt>
<pdfrwt beam="1">  1        1 0.15694215E+00 0.28733414E+03</pdfrwt>
<pdfrwt beam="2">  1       -1 0.12041795E-01 0.28733414E+03</pdfrwt>
<totfact> 0.70499714E+02</totfact>
</mgrwt>
</event>
<event>
 7    1  0.5400401E-006  0.1588604E+03  0.7546771E-02  0.1197634E+00
         -2   -1    0    0    0  501 -0.00000000000E+00  0.00000000000E+00  0.54173578798E+02  0.54173578798E+02  0.00000000000E+00 0.  1.
          2   -1    0    0  501    0  0.00000000000E+00 -0.00000000000E+00 -0.41618635753E+03  0.41618635753E+03  0.00000000000E+00 0. -1.
         23    2    1    2    0    0  0.16324892877E+02  0.96682991030E+02 -0.14467665642E+03  0.21486734650E+03  0.12499015479E+03 0.  0.
          5    1    3    3  502    0 -0.25062823739E+02  0.88670474914E+02 -0.14567850007E+03  0.17243814438E+03  0.47000000000E+01 0. -1.
         -5    1    3    3    0  502  0.41387716617E+02  0.80125161158E+01  0.10018436469E+01  0.42429202113E+02  0.47000000000E+01 0. -1.
        -11    1    1    2    0    0 -0.26397169022E+02  0.90505002789E+01 -0.39736985226E+02  0.48556668775E+02  0.00000000000E+00 0. -1.
         11    1    1    2    0    0  0.10072276145E+02 -0.10573349131E+03 -0.17759913708E+03  0.20693592105E+03  0.00000000000E+00 0.  1.
<mgrwt>
<rscale>  0 0.15233365E+03</rscale>
<asrwt>0</asrwt>
<pdfrwt beam="2">  1        2 0.64028669E-01 0.15886045E+03</pdfrwt>
<pdfrwt beam="1">  1       -2 0.83343969E-02 0.15886045E+03</pdfrwt>
<totfact> 0.65451847E+03</totfact>
</mgrwt>
</event>
<event>
 7    1  0.5902287E-006  0.2699902E+03  0.7546771E-02  0.1103322E+00
          2   -1    0    0  501    0  0.00000000000E+00  0.00000000000E+00  0.17999903410E+04  0.17999903410E+04  0.00000000000E+00 0. -1.
         -2   -1    0    0    0  501 -0.00000000000E+00 -0.00000000000E+00 -0.45068083754E+02  0.45068083754E+02  0.00000000000E+00 0.  1.
         23    2    1    2    0    0 -0.14185332360E+01 -0.23930670884E+03  0.54368745924E+03  0.60703439514E+03  0.12499996165E+03 0.  0.
          5    1    3    3  502    0  0.51600169021E+02 -0.12129185360E+03  0.35034692541E+03  0.37435190575E+03  0.47000000000E+01 0.  1.
         -5    1    3    3    0  502 -0.53018702257E+02 -0.11801485524E+03  0.19334053383E+03  0.23268248939E+03  0.47000000000E+01 0.  1.
        -11    1    1    2    0    0 -0.22371382190E+02  0.22177156778E+03  0.11249039823E+04  0.11467746407E+04  0.00000000000E+00 0. -1.
         11    1    1    2    0    0  0.23789915426E+02  0.17535141060E+02  0.86330815636E+02  0.91249388909E+02  0.00000000000E+00 0.  1.
<mgrwt>
<rscale>  0 0.26646205E+03</rscale>
<asrwt>0</asrwt>
<pdfrwt beam="1">  1        2 0.27692154E+00 0.26999019E+03</pdfrwt>
<pdfrwt beam="2">  1       -2 0.69335527E-02 0.26999019E+03</pdfrwt>
<totfact> 0.11201058E+03</totfact>
</mgrwt>
</event>
<event>
 7    1  0.5400401E-006  0.1567022E+03  0.7546771E-02  0.1202020E+00
         -3   -1    0    0    0  501 -0.00000000000E+00  0.00000000000E+00  0.80435880144E+03  0.80435880144E+03  0.00000000000E+00 0.  1.
          3   -1    0    0  501    0  0.00000000000E+00 -0.00000000000E+00 -0.26372890108E+02  0.26372890108E+02  0.00000000000E+00 0. -1.
         23    2    1    2    0    0 -0.84214697709E+02  0.42853330442E+02  0.51970188425E+03  0.54281268939E+03  0.12500817587E+03 0.  0.
          5    1    3    3  502    0 -0.53691578139E+02 -0.42424403759E+01  0.64593739600E+02  0.84233158904E+02  0.47000000000E+01 0.  1.
         -5    1    3    3    0  502 -0.30523119570E+02  0.47095770818E+02  0.45510814465E+03  0.45857953049E+03  0.47000000000E+01 0.  1.
        -11    1    1    2    0    0  0.21863742676E+02 -0.28605674696E+02  0.19372626229E+03  0.19704358038E+03  0.00000000000E+00 0.  1.
         11    1    1    2    0    0  0.62350955033E+02 -0.14247655746E+02  0.64557764797E+02  0.90875421779E+02  0.00000000000E+00 0. -1.
<mgrwt>
<rscale>  0 0.14874798E+03</rscale>
<asrwt>0</asrwt>
<pdfrwt beam="2">  1        3 0.40573683E-02 0.15670216E+03</pdfrwt>
<pdfrwt beam="1">  1       -3 0.12374749E+00 0.15670216E+03</pdfrwt>
<totfact> 0.41359606E+02</totfact>
</mgrwt>
</event>
<event>
 7    1  0.5400401E-006  0.1288870E+03  0.7546771E-02  0.1244813E+00
         -2   -1    0    0    0  501 -0.00000000000E+00  0.00000000000E+00  0.15051979636E+02  0.15051979636E+02  0.00000000000E+00 0.  1.
          2   -1    0    0  501    0  0.00000000000E+00 -0.00000000000E+00 -0.83478849814E+03  0.83478849814E+03  0.00000000000E+00 0. -1.
         23    2    1    2    0    0 -0.27125411119E+02 -0.15807380403E+02 -0.52627987249E+03  0.54183242122E+03  0.12500482908E+03 0.  0.
          5    1    3    3  502    0 -0.37848662327E+01  0.54157595875E+02 -0.24696890414E+03  0.25290927230E+03  0.47000000000E+01 0.  1.
         -5    1    3    3    0  502 -0.23340544886E+02 -0.69964976278E+02 -0.27931096835E+03  0.28892314892E+03  0.47000000000E+01 0.  1.
        -11    1    1    2    0    0  0.76045937780E+01 -0.36212258518E+02 -0.96035818527E+02  0.10291761731E+03  0.00000000000E+00 0.  1.
         11    1    1    2    0    0  0.19520817341E+02  0.52019638921E+02 -0.19742082749E+03  0.20509043924E+03  0.00000000000E+00 0. -1.
<mgrwt>
<rscale>  0 0.11896558E+03</rscale>
<asrwt>0</asrwt>
<pdfrwt beam="2">  1        2 0.12842905E+00 0.12888704E+03</pdfrwt>
<pdfrwt beam="1">  1       -2 0.23156883E-02 0.12888704E+03</pdfrwt>
<totfact> 0.19770188E+04</totfact>
</mgrwt>
</event>
<event>
 7    1  0.5400401E-006  0.1362448E+03  0.7546771E-02  0.1221109E+00
         -1   -1    0    0    0  501 -0.00000000000E+00  0.00000000000E+00  0.29787806119E+03  0.29787806119E+03  0.00000000000E+00 0.  1.
          1   -1    0    0  501    0  0.00000000000E+00 -0.00000000000E+00 -0.10367493231E+03  0.10367493231E+03  0.00000000000E+00 0. -1.
         23    2    1    2    0    0  0.53687504269E+02 -0.74233376175E+01  0.23039215114E+03  0.26766244776E+03  0.12500075431E+03 0.  0.
          5    1    3    3  502    0 -0.25593043817E+02  0.22865594753E+01  0.26276162992E+01  0.26253125785E+02  0.47000000000E+01 0. -1.
         -5    1    3    3    0  502  0.79280548086E+02 -0.97098970928E+01  0.22776453484E+03  0.24140932197E+03  0.47000000000E+01 0. -1.
        -11    1    1    2    0    0 -0.65783684357E+02 -0.41934741183E+02 -0.19670475126E+02  0.80454603581E+02  0.00000000000E+00 0.  1.
         11    1    1    2    0    0  0.12096180088E+02  0.49358078800E+02 -0.16518547131E+02  0.53435942163E+02  0.00000000000E+00 0. -1.
<mgrwt>
<rscale>  0 0.13437210E+03</rscale>
<asrwt>0</asrwt>
<pdfrwt beam="2">  1        1 0.15949990E-01 0.13624479E+03</pdfrwt>
<pdfrwt beam="1">  1       -1 0.45827394E-01 0.13624479E+03</pdfrwt>
<totfact> 0.16216503E+03</totfact>
</mgrwt>
</event>
<event>
 7    1  0.5400401E-006  0.3737451E+03  0.7546771E-02  0.1053270E+00
         -1   -1    0    0    0  501 -0.00000000000E+00  0.00000000000E+00  0.76412676244E+02  0.76412676244E+02  0.00000000000E+00 0.  1.
          1   -1    0    0  501    0  0.00000000000E+00 -0.00000000000E+00 -0.45701001879E+03  0.45701001879E+03  0.00000000000E+00 0. -1.
         23    2    1    2    0    0 -0.15701332088E+02  0.24302214839E+01  0.44272015586E+01  0.11723292188E+03  0.11606687750E+03 0.  0.
          5    1    3    3  502    0 -0.52402741757E+02  0.21712413050E+02 -0.28898773070E+02  0.63833418434E+02  0.47000000000E+01 0. -1.
         -5    1    3    3    0  502  0.36701409668E+02 -0.19282191566E+02  0.33325974629E+02  0.53399503445E+02  0.47000000000E+01 0.  1.
        -11    1    1    2    0    0 -0.65292306908E+02  0.28554048016E+02 -0.16913820380E+03  0.18353787344E+03  0.00000000000E+00 0. -1.
         11    1    1    2    0    0  0.80993638997E+02 -0.30984269500E+02 -0.21588634030E+03  0.23265189972E+03  0.00000000000E+00 0.  1.
<mgrwt>
<rscale>  0 0.37374515E+03</rscale>
<asrwt>0</asrwt>
<pdfrwt beam="2">  1        1 0.70309233E-01 0.37374515E+03</pdfrwt>
<pdfrwt beam="1">  1       -1 0.11755797E-01 0.37374515E+03</pdfrwt>
<totfact> 0.24176227E+03</totfact>
</mgrwt>
</event>
<event>
 7    1  0.5400401E-006  0.1574914E+03  0.7546771E-02  0.1199610E+00
          1   -1    0    0  501    0  0.00000000000E+00  0.00000000000E+00  0.11276774363E+03  0.11276774363E+03  0.00000000000E+00 0. -1.
         -1   -1    0    0    0  501 -0.00000000000E+00 -0.00000000000E+00 -0.19593099531E+03  0.19593099531E+03  0.00000000000E+00 0.  1.
         23    2    1    2    0    0 -0.21475582378E+02  0.93364007648E+02 -0.79925862238E+02  0.17661170224E+03  0.12500204538E+03 0.  0.
          5    1    3    3  502    0  0.16207165685E+01  0.72508059871E+02  0.17054477447E+02  0.74652465930E+02  0.47000000000E+01 0. -1.
         -5    1    3    3    0  502 -0.23096298947E+02  0.20855947777E+02 -0.96980339686E+02  0.10195923631E+03  0.47000000000E+01 0. -1.
        -11    1    1    2    0    0  0.57343574047E+01  0.18236822110E+02  0.22436192352E+01  0.19248334026E+02  0.00000000000E+00 0. -1.
         11    1    1    2    0    0  0.15741224973E+02 -0.11160082976E+03 -0.54810086785E+01  0.11283870268E+03  0.00000000000E+00 0.  1.
<mgrwt>
<rscale>  0 0.15070412E+03</rscale>
<asrwt>0</asrwt>
<pdfrwt beam="1">  1        1 0.17348884E-01 0.15749143E+03</pdfrwt>
<pdfrwt beam="2">  1       -1 0.30143230E-01 0.15749143E+03</pdfrwt>
<totfact> 0.30308713E+03</totfact>
</mgrwt>
</event>
<event>
 6    1  0.5400401E-006  0.1510169E+03  0.7546771E-02  0.1220282E+00
          1   -1    0    0  501    0  0.00000000000E+00  0.00000000000E+00  0.71117243735E+03  0.71117243735E+03  0.00000000000E+00 0. -1.
         -1   -1    0    0    0  501 -0.00000000000E+00 -0.00000000000E+00 -0.22018588541E+02  0.22018588541E+02  0.00000000000E+00 0.  1.
          5    1    1    2  502    0  0.64822147510E+02 -0.20554881217E+02  0.30671579683E+03  0.31419911517E+03  0.47000000000E+01 0. -1.
         -5    1    1    2    0  502 -0.71274086348E+02 -0.22352711760E+02  0.16697256391E+03  0.18297968796E+03  0.47000000000E+01 0.  1.
        -11    1    1    2    0    0 -0.32877388955E+02  0.52939522484E+01  0.13375380665E+03  0.13783696685E+03  0.00000000000E+00 0.  1.
         11    1    1    2    0    0  0.39329327794E+02  0.37613640729E+02  0.81711681420E+02  0.98175255915E+02  0.00000000000E+00 0. -1.
<mgrwt>
<rscale>  0 0.13495579E+03</rscale>
<asrwt>0</asrwt>
<pdfrwt beam="1">  1        1 0.10941113E+00 0.15101688E+03</pdfrwt>
<pdfrwt beam="2">  1       -1 0.33874757E-02 0.15101688E+03</pdfrwt>
<totfact> 0.83905414E+03</totfact>
</mgrwt>
</event>
<event>
 6    1  0.5400401E-006  0.2623655E+03  0.7546771E-02  0.1144235E+00
          1   -1    0    0  501    0  0.00000000000E+00  0.00000000000E+00  0.20592542224E+03  0.20592542224E+03  0.00000000000E+00 0. -1.
         -1   -1    0    0    0  501 -0.00000000000E+00 -0.00000000000E+00 -0.17583619388E+03  0.17583619388E+03  0.00000000000E+00 0.  1.
          5    1    1    2  502    0 -0.55592570444E+02 -0.85473105531E+02  0.37035548734E+02  0.10858134061E+03  0.47000000000E+01 0. -1.
         -5    1    1    2    0  502  0.95091290147E+02  0.10293162248E+03 -0.67290247174E+02  0.15552279490E+03  0.47000000000E+01 0.  1.
        -11    1    1    2    0    0 -0.55116530808E+02  0.15872788468E+02  0.56728394982E+02  0.80671483061E+02  0.00000000000E+00 0. -1.
         11    1    1    2    0    0  0.15617811105E+02 -0.33331305422E+02  0.36155318129E+01  0.36985997555E+02  0.00000000000E+00 0.  1.
<mgrwt>
<rscale>  0 0.20666414E+03</rscale>
<asrwt>0</asrwt>
<pdfrwt beam="1">  1        1 0.31680834E-01 0.26236548E+03</pdfrwt>
<pdfrwt beam="2">  1       -1 0.27051722E-01 0.26236548E+03</pdfrwt>
<totfact> 0.17179967E+03</totfact>
</mgrwt>
</event>
<event>
 7    1  0.5400401E-006  0.2575332E+03  0.7546771E-02  0.1110908E+00
          1   -1    0    0  501    0  0.00000000000E+00  0.00000000000E+00  0.52920464939E+02  0.52920464939E+02  0.00000000000E+00 0. -1.
         -1   -1    0    0    0  501 -0.00000000000E+00 -0.00000000000E+00 -0.13850565816E+04  0.13850565816E+04  0.00000000000E+00 0.  1.
         23    2    1    2    0    0 -0.21998698612E+03 -0.48009513700E+02 -0.95658898270E+03  0.99064920304E+03  0.12499669669E+03 0.  0.
          5    1    3    3  502    0 -0.20242138007E+03  0.35281905056E+01 -0.73061108024E+03  0.75815664859E+03  0.47000000000E+01 0.  1.
         -5    1    3    3    0  502 -0.17565606051E+02 -0.51537704205E+02 -0.22597790246E+03  0.23249255444E+03  0.47000000000E+01 0.  1.
        -11    1    1    2    0    0  0.76521579906E+02 -0.14761640271E+02 -0.73623040070E+02  0.10720918918E+03  0.00000000000E+00 0.  1.
         11    1    1    2    0    0  0.14346540622E+03  0.62771153971E+02 -0.30192409392E+03  0.34011865436E+03  0.00000000000E+00 0. -1.
<mgrwt>
<rscale>  0 0.25382982E+03</rscale>
<asrwt>0</asrwt>
<pdfrwt beam="1">  1        1 0.81416105E-02 0.25753322E+03</pdfrwt>
<pdfrwt beam="2">  1       -1 0.21308562E+00 0.25753322E+03</pdfrwt>
<totfact> 0.11643659E+02</totfact>
</mgrwt>
</event>
<event>
 7    1  0.5400401E-006  0.1142512E+03  0.7546771E-02  0.1286569E+00
         -1   -1    0    0    0  501 -0.00000000000E+00  0.00000000000E+00  0.20184499996E+03  0.20184499996E+03  0.00000000000E+00 0.  1.
          1   -1    0    0  501    0  0.00000000000E+00 -0.00000000000E+00 -0.55404774302E+02  0.55404774302E+02  0.00000000000E+00 0. -1.
         23    2    1    2    0    0  0.14800521158E+02  0.29553081213E+01  0.15958734412E+03  0.19626881054E+03  0.11324988439E+03 0.  0.
          5    1    3    3  502    0 -0.43907499330E+02 -0.18399963605E+02  0.45018027631E+02  0.65689724995E+02  0.47000000000E+01 0. -1.
         -5    1    3    3    0  502  0.58708020488E+02  0.21355271727E+02  0.11456931649E+03  0.13057908554E+03  0.47000000000E+01 0.  1.
        -11    1    1    2    0    0 -0.14762537375E+02 -0.28142144010E+02  0.15549320833E+01  0.31817143068E+02  0.00000000000E+00 0. -1.
         11    1    1    2    0    0 -0.37983782854E-01  0.25186835889E+02 -0.14702050548E+02  0.29163820655E+02  0.00000000000E+00 0.  1.
<mgrwt>
<rscale>  0 0.97075625E+02</rscale>
<asrwt>0</asrwt>
<pdfrwt beam="2">  1        1 0.85238115E-02 0.11425115E+03</pdfrwt>
<pdfrwt beam="1">  1       -1 0.31053077E-01 0.11425115E+03</pdfrwt>
<totfact> 0.71664595E+03</totfact>
</mgrwt>
</event>
<event>
 7    1  0.5400401E-006  0.1289479E+03  0.7546771E-02  0.1243179E+00
         -1   -1    0    0    0  501 -0.00000000000E+00  0.00000000000E+00  0.48120720134E+02  0.48120720134E+02  0.00000000000E+00 0.  1.
          1   -1    0    0  501    0  0.00000000000E+00 -0.00000000000E+00 -0.26481721456E+03  0.26481721456E+03  0.00000000000E+00 0. -1.
         23    2    1    2    0    0 -0.27218719272E+02  0.16177994488E+02 -0.13145651127E+03  0.18414223630E+03  0.12499985060E+03 0.  0.
          5    1    3    3  502    0  0.44088470434E+02  0.84374120828E+01 -0.15513714121E+02  0.47725763207E+02  0.47000000000E+01 0.  1.
         -5    1    3    3    0  502 -0.71307189706E+02  0.77405824050E+01 -0.11594279715E+03  0.13641647309E+03  0.47000000000E+01 0.  1.
        -11    1    1    2    0    0  0.76459134028E+01 -0.35989450189E+02 -0.92892921544E+02  0.99913939917E+02  0.00000000000E+00 0. -1.
         11    1    1    2    0    0  0.19572805869E+02  0.19811455701E+02  0.76529383935E+01  0.28881758475E+02  0.00000000000E+00 0.  1.
<mgrwt>
<rscale>  0 0.11995048E+03</rscale>
<asrwt>0</asrwt>
<pdfrwt beam="2">  1        1 0.40741110E-01 0.12894785E+03</pdfrwt>
<pdfrwt beam="1">  1       -1 0.74031877E-02 0.12894785E+03</pdfrwt>
<totfact> 0.93798314E+03</totfact>
</mgrwt>
</event>
<event>
 7    1  0.5400401E-006  0.1226365E+03  0.7546771E-02  0.1277802E+00
          2   -1    0    0  501    0  0.00000000000E+00  0.00000000000E+00  0.51931200089E+02  0.51931200089E+02  0.00000000000E+00 0. -1.
         -2   -1    0    0    0  501 -0.00000000000E+00 -0.00000000000E+00 -0.15523514575E+03  0.15523514575E+03  0.00000000000E+00 0.  1.
         23    2    1    2    0    0  0.40561900446E+01  0.38463722866E+02 -0.67716977504E+02  0.14009036239E+03  0.11637787564E+03 0.  0.
          5    1    3    3  502    0  0.22603206591E+02  0.19319383899E+01  0.27718886822E+02  0.36125669832E+02  0.47000000000E+01 0. -1.
         -5    1    3    3    0  502 -0.18547016547E+02  0.36531784476E+02 -0.95435864326E+02  0.10396469256E+03  0.47000000000E+01 0.  1.
        -11    1    1    2    0    0 -0.22881715729E+02 -0.23505202304E+02 -0.21121836770E+02  0.39015374387E+02  0.00000000000E+00 0.  1.
         11    1    1    2    0    0  0.18825525685E+02 -0.14958520562E+02 -0.14465131390E+02  0.28060609060E+02  0.00000000000E+00 0. -1.
<mgrwt>
<rscale>  0 0.10119557E+03</rscale>
<asrwt>0</asrwt>
<pdfrwt beam="1">  1        2 0.79894155E-02 0.12263654E+03</pdfrwt>
<pdfrwt beam="2">  1       -2 0.23882330E-01 0.12263654E+03</pdfrwt>
<totfact> 0.12149348E+04</totfact>
</mgrwt>
</event>
<event>
 7    1  0.5400401E-006  0.1635814E+03  0.7546771E-02  0.1191885E+00
         -2   -1    0    0    0  501 -0.00000000000E+00  0.00000000000E+00  0.84898146685E+03  0.84898146685E+03  0.00000000000E+00 0.  1.
          2   -1    0    0  501    0  0.00000000000E+00 -0.00000000000E+00 -0.29025364491E+02  0.29025364491E+02  0.00000000000E+00 0. -1.
         23    2    1    2    0    0 -0.34268324732E+02 -0.99796109828E+02  0.55428710544E+03  0.57792134553E+03  0.12500121900E+03 0.  0.
          5    1    3    3  502    0 -0.32113074936E+01 -0.89025925348E+02  0.16805355684E+03  0.19026301755E+03  0.47000000000E+01 0. -1.
         -5    1    3    3    0  502 -0.31057017238E+02 -0.10770184480E+02  0.38623354859E+03  0.38765832798E+03  0.47000000000E+01 0. -1.
        -11    1    1    2    0    0  0.57735111777E+02  0.31134005820E+02  0.10522000028E+03  0.12399160419E+03  0.00000000000E+00 0. -1.
         11    1    1    2    0    0 -0.23466787046E+02  0.68662104008E+02  0.16044899665E+03  0.17609388163E+03  0.00000000000E+00 0.  1.
<mgrwt>
<rscale>  0 0.15720807E+03</rscale>
<asrwt>0</asrwt>
<pdfrwt beam="2">  1        2 0.44654413E-02 0.16358144E+03</pdfrwt>
<pdfrwt beam="1">  1       -2 0.13061251E+00 0.16358144E+03</pdfrwt>
<totfact> 0.80806836E+02</totfact>
</mgrwt>
</event>
<event>
 7    1  0.5400401E-006  0.2127614E+03  0.7546771E-02  0.1142871E+00
         -2   -1    0    0    0  501 -0.00000000000E+00  0.00000000000E+00  0.10518518946E+03  0.10518518946E+03  0.00000000000E+00 0.  1.
          2   -1    0    0  501    0  0.00000000000E+00 -0.00000000000E+00 -0.39827036506E+03  0.39827036506E+03  0.00000000000E+00 0. -1.
         23    2    1    2    0    0 -0.96940988345E+02 -0.14228908435E+03 -0.16925448144E+03  0.27187221006E+03  0.12499472136E+03 0.  0.
          5    1    3    3  502    0 -0.88902479506E+02 -0.13548246860E+03 -0.18900136018E+03  0.24900352269E+03  0.47000000000E+01 0.  1.
         -5    1    3    3    0  502 -0.80385088393E+01 -0.68066157567E+01  0.19746878740E+02  0.22868687378E+02  0.47000000000E+01 0.  1.
        -11    1    1    2    0    0  0.14634453818E+02  0.72094659097E+02 -0.94788335595E+01  0.74173144699E+02  0.00000000000E+00 0.  1.
         11    1    1    2    0    0  0.82306534528E+02  0.70194425257E+02 -0.11435186060E+03  0.15741019975E+03  0.00000000000E+00 0. -1.
<mgrwt>
<rscale>  0 0.20836030E+03</rscale>
<asrwt>0</asrwt>
<pdfrwt beam="2">  1        2 0.61272363E-01 0.21276141E+03</pdfrwt>
<pdfrwt beam="1">  1       -2 0.16182337E-01 0.21276141E+03</pdfrwt>
<totfact> 0.23952438E+03</totfact>
</mgrwt>
</event>
<event>
 7    1  0.5400401E-006  0.1295948E+03  0.7546771E-02  0.1242715E+00
          4   -1    0    0  501    0  0.00000000000E+00  0.00000000000E+00  0.42774011862E+02  0.42774011862E+02  0.00000000000E+00 0. -1.
         -4   -1    0    0    0  501 -0.00000000000E+00 -0.00000000000E+00 -0.31857475538E+03  0.31857475538E+03  0.00000000000E+00 0.  1.
         23    2    1    2    0    0  0.32911217820E+02 -0.62677198846E+01 -0.20307920669E+03  0.24090656058E+03  0.12518935325E+03 0.  0.
          5    1    3    3  502    0  0.29809693109E+02 -0.22520525252E+02 -0.21608567665E+03  0.21934197390E+03  0.47000000000E+01 0. -1.
         -5    1    3    3    0  502  0.31015247111E+01  0.16252805367E+02  0.13006469957E+02  0.21564586678E+02  0.47000000000E+01 0. -1.
        -11    1    1    2    0    0 -0.40962842493E+02  0.32767636213E+02 -0.76219450858E+02  0.92526088955E+02  0.00000000000E+00 0.  1.
         11    1    1    2    0    0  0.80516246729E+01 -0.26499916328E+02  0.34979140348E+01  0.27916117708E+02  0.00000000000E+00 0. -1.
<mgrwt>
<rscale>  0 0.12023188E+03</rscale>
<asrwt>0</asrwt>
<pdfrwt beam="1">  1        4 0.65806171E-02 0.12959478E+03</pdfrwt>
<pdfrwt beam="2">  1       -4 0.49011501E-01 0.12959478E+03</pdfrwt>
<totfact> 0.10086217E+03</totfact>
</mgrwt>
</event>
<event>
 6    1  0.5400401E-006  0.3165080E+03  0.7546771E-02  0.1092532E+00
          2   -1    0    0  501    0  0.00000000000E+00  0.00000000000E+00  0.16045119960E+04  0.16045119960E+04  0.00000000000E+00 0. -1.
         -2   -1    0    0    0  501 -0.00000000000E+00 -0.00000000000E+00 -0.52714753193E+02  0.52714753193E+02  0.00000000000E+00 0.  1.
          5    1    1    2  502    0  0.20781053206E+03  0.25437925388E+02  0.55151890760E+03  0.58993855674E+03  0.47000000000E+01 0. -1.
         -5    1    1    2    0  502 -0.30422402935E+02  0.42182751548E+02  0.79055098613E+01  0.52815662588E+02  0.47000000000E+01 0.  1.
        -11    1    1    2    0    0 -0.13545684628E+03 -0.90403634483E+02  0.76140193232E+03  0.77862332156E+03  0.00000000000E+00 0. -1.
         11    1    1    2    0    0 -0.41931282844E+02  0.22782957548E+02  0.23097089301E+03  0.23584920830E+03  0.00000000000E+00 0.  1.
<mgrwt>
<rscale>  0 0.28585846E+03</rscale>
<asrwt>0</asrwt>
<pdfrwt beam="1">  1        2 0.24684796E+00 0.31650799E+03</pdfrwt>
<pdfrwt beam="2">  1       -2 0.81099633E-02 0.31650799E+03</pdfrwt>
<totfact> 0.11078503E+03</totfact>
</mgrwt>
</event>
<event>
 7    1  0.5400401E-006  0.1318425E+03  0.7546771E-02  0.1236447E+00
         -2   -1    0    0    0  501 -0.00000000000E+00  0.00000000000E+00  0.10365815057E+03  0.10365815057E+03  0.00000000000E+00 0.  1.
          2   -1    0    0  501    0  0.00000000000E+00 -0.00000000000E+00 -0.14009444958E+03  0.14009444958E+03  0.00000000000E+00 0. -1.
         23    2    1    2    0    0  0.36243473570E+02  0.20956317803E+02  0.56335443449E+01  0.13196276208E+03  0.12501870709E+03 0.  0.
          5    1    3    3  502    0  0.57345421671E+02 -0.47781385766E+01 -0.43601257182E+02  0.72349758967E+02  0.47000000000E+01 0.  1.
         -5    1    3    3    0  502 -0.21101948101E+02  0.25734456380E+02  0.49234801526E+02  0.59613003113E+02  0.47000000000E+01 0.  1.
        -11    1    1    2    0    0 -0.57301784637E+01  0.17022312119E+02  0.23827892921E+02  0.29838943281E+02  0.00000000000E+00 0.  1.
         11    1    1    2    0    0 -0.30513295106E+02 -0.37978629922E+02 -0.65897736281E+02  0.81950894784E+02  0.00000000000E+00 0. -1.
<mgrwt>
<rscale>  0 0.12412285E+03</rscale>
<asrwt>0</asrwt>
<pdfrwt beam="2">  1        2 0.21552992E-01 0.13184246E+03</pdfrwt>
<pdfrwt beam="1">  1       -2 0.15947408E-01 0.13184246E+03</pdfrwt>
<totfact> 0.74353158E+03</totfact>
</mgrwt>
</event>
<event>
 7    1  0.5400401E-006  0.1318287E+03  0.7546771E-02  0.1238147E+00
         -1   -1    0    0    0  501 -0.00000000000E+00  0.00000000000E+00  0.18369988874E+03  0.18369988874E+03  0.00000000000E+00 0.  1.
          1   -1    0    0  501    0  0.00000000000E+00 -0.00000000000E+00 -0.12964463041E+03  0.12964463041E+03  0.00000000000E+00 0. -1.
         23    2    1    2    0    0  0.50357062186E+01  0.41571111464E+02  0.13195820747E+03  0.18652556318E+03  0.12500120621E+03 0.  0.
          5    1    3    3  502    0 -0.30538499309E+02  0.20622206995E+02  0.13944270179E+03  0.14430603745E+03  0.47000000000E+01 0.  1.
         -5    1    3    3    0  502  0.35574205527E+02  0.20948904470E+02 -0.74844943196E+01  0.42219525727E+02  0.47000000000E+01 0.  1.
        -11    1    1    2    0    0 -0.20714725959E+02 -0.12249388555E+02 -0.88662865116E+02  0.91870838911E+02  0.00000000000E+00 0. -1.
         11    1    1    2    0    0  0.15679019741E+02 -0.29321722909E+02  0.10759915970E+02  0.34948117060E+02  0.00000000000E+00 0.  1.
<mgrwt>
<rscale>  0 0.12305082E+03</rscale>
<asrwt>0</asrwt>
<pdfrwt beam="2">  1        1 0.19945328E-01 0.13182874E+03</pdfrwt>
<pdfrwt beam="1">  1       -1 0.28261521E-01 0.13182874E+03</pdfrwt>
<totfact> 0.28011437E+03</totfact>
</mgrwt>
</event>
<event>
 6    1  0.5400401E-006  0.1569175E+03  0.7546771E-02  0.1200667E+00
         -3   -1    0    0    0  501 -0.00000000000E+00  0.00000000000E+00  0.11870322343E+04  0.11870322343E+04  0.00000000000E+00 0.  1.
          3   -1    0    0  501    0  0.00000000000E+00 -0.00000000000E+00 -0.20253582826E+02  0.20253582826E+02  0.00000000000E+00 0. -1.
          5    1    1    2  502    0 -0.11383740485E+02 -0.38465665510E+02  0.70951838864E+03  0.71066703229E+03  0.47000000000E+01 0. -1.
         -5    1    1    2    0  502 -0.58959922962E+02  0.22459703451E+02  0.14593574825E+03  0.15905987367E+03  0.47000000000E+01 0.  1.
        -11    1    1    2    0    0  0.25849737209E+02 -0.42192479424E+02  0.72693276439E+02  0.87935923679E+02  0.00000000000E+00 0. -1.
         11    1    1    2    0    0  0.44493926238E+02  0.58198441482E+02  0.23863123819E+03  0.24962298753E+03  0.00000000000E+00 0.  1.
<mgrwt>
<rscale>  0 0.14984191E+03</rscale>
<asrwt>0</asrwt>
<pdfrwt beam="2">  1        3 0.31159367E-02 0.15691753E+03</pdfrwt>
<pdfrwt beam="1">  1       -3 0.18262029E+00 0.15691753E+03</pdfrwt>
<totfact> 0.23508552E+02</totfact>
</mgrwt>
</event>
<event>
 7    1  0.5400401E-006  0.1349959E+03  0.7546771E-02  0.1233583E+00
         -1   -1    0    0    0  501 -0.00000000000E+00  0.00000000000E+00  0.29613592875E+03  0.29613592875E+03  0.00000000000E+00 0.  1.
          1   -1    0    0  501    0  0.00000000000E+00 -0.00000000000E+00 -0.71636917730E+02  0.71636917730E+02  0.00000000000E+00 0. -1.
         23    2    1    2    0    0 -0.18195029692E+01 -0.50949527480E+02  0.22848658875E+03  0.26538651995E+03  0.12499887516E+03 0.  0.
          5    1    3    3  502    0  0.29199202219E+02 -0.25270861006E+02  0.22070184466E+03  0.22410400278E+03  0.47000000000E+01 0.  1.
         -5    1    3    3    0  502 -0.31018705188E+02 -0.25678666474E+02  0.77847440912E+01  0.41282517171E+02  0.47000000000E+01 0.  1.
        -11    1    1    2    0    0 -0.21706233069E+02  0.66652149621E+02  0.10041993124E+02  0.70813213661E+02  0.00000000000E+00 0.  1.
         11    1    1    2    0    0  0.23525736038E+02 -0.15702622141E+02 -0.14029570848E+02  0.31573112872E+02  0.00000000000E+00 0. -1.
<mgrwt>
<rscale>  0 0.12595588E+03</rscale>
<asrwt>0</asrwt>
<pdfrwt beam="2">  1        1 0.11021064E-01 0.13499587E+03</pdfrwt>
<pdfrwt beam="1">  1       -1 0.45559373E-01 0.13499587E+03</pdfrwt>
<totfact> 0.26529335E+03</totfact>
</mgrwt>
</event>
<event>
 7    1  0.5400401E-006  0.1397332E+03  0.7546771E-02  0.1227171E+00
         -3   -1    0    0    0  501 -0.00000000000E+00  0.00000000000E+00  0.10082464364E+03  0.10082464364E+03  0.00000000000E+00 0.  1.
          3   -1    0    0  501    0  0.00000000000E+00 -0.00000000000E+00 -0.16103781927E+03  0.16103781927E+03  0.00000000000E+00 0. -1.
         23    2    1    2    0    0  0.61534836250E+02 -0.11245342997E+02  0.16290798227E+01  0.13974267947E+03  0.12494946479E+03 0.  0.
          5    1    3    3  502    0  0.67553050182E+02 -0.59425125629E+02 -0.63336153226E+01  0.90315916803E+02  0.47000000000E+01 0.  1.
         -5    1    3    3    0  502 -0.60182139321E+01  0.48179782632E+02  0.79626951452E+01  0.49426762663E+02  0.47000000000E+01 0.  1.
        -11    1    1    2    0    0 -0.65023682454E+02 -0.17155257078E+02 -0.64755616283E+02  0.93357763285E+02  0.00000000000E+00 0. -1.
         11    1    1    2    0    0  0.34888462045E+01  0.28400600076E+02  0.29133608358E+01  0.28762020163E+02  0.00000000000E+00 0.  1.
<mgrwt>
<rscale>  0 0.13019225E+03</rscale>
<asrwt>0</asrwt>
<pdfrwt beam="2">  1        3 0.24775049E-01 0.13973318E+03</pdfrwt>
<pdfrwt beam="1">  1       -3 0.15511484E-01 0.13973318E+03</pdfrwt>
<totfact> 0.12373233E+03</totfact>
</mgrwt>
</event>
<event>
 7    1  0.5400401E-006  0.1858756E+03  0.7546771E-02  0.1167472E+00
          2   -1    0    0  501    0  0.00000000000E+00  0.00000000000E+00  0.95077490688E+03  0.95077490688E+03  0.00000000000E+00 0. -1.
         -2   -1    0    0    0  501 -0.00000000000E+00 -0.00000000000E+00 -0.33021252099E+02  0.33021252099E+02  0.00000000000E+00 0.  1.
         23    2    1    2    0    0 -0.53532438217E+02 -0.12672615014E+03  0.55762312548E+03  0.58778677355E+03  0.12499800804E+03 0.  0.
          5    1    3    3  502    0  0.32150209957E+02 -0.83643235608E+02  0.28009874272E+03  0.29412110182E+03  0.47000000000E+01 0. -1.
         -5    1    3    3    0  502 -0.85682648173E+02 -0.43082914535E+02  0.27752438276E+03  0.29366567172E+03  0.47000000000E+01 0. -1.
        -11    1    1    2    0    0 -0.20975208516E+02  0.35287074970E+02  0.53210369940E+02  0.67204765466E+02  0.00000000000E+00 0. -1.
         11    1    1    2    0    0  0.74507646733E+02  0.91439075173E+02  0.30692015936E+03  0.32880461997E+03  0.00000000000E+00 0.  1.
<mgrwt>
<rscale>  0 0.18034200E+03</rscale>
<asrwt>0</asrwt>
<pdfrwt beam="1">  1        2 0.14627304E+00 0.18587561E+03</pdfrwt>
<pdfrwt beam="2">  1       -2 0.50801934E-02 0.18587561E+03</pdfrwt>
<totfact> 0.53089345E+03</totfact>
</mgrwt>
</event>
<event>
 7    1  0.5400401E-006  0.1363408E+03  0.7546771E-02  0.1229931E+00
         -2   -1    0    0    0  501 -0.00000000000E+00  0.00000000000E+00  0.62993660041E+02  0.62993660041E+02  0.00000000000E+00 0.  1.
          2   -1    0    0  501    0  0.00000000000E+00 -0.00000000000E+00 -0.27041189112E+03  0.27041189112E+03  0.00000000000E+00 0. -1.
         23    2    1    2    0    0  0.43228341828E+02 -0.33013430950E+02 -0.54718466271E+02  0.14691127321E+03  0.12502094019E+03 0.  0.
          5    1    3    3  502    0 -0.14039405842E+02 -0.22533312410E+02  0.32321158145E+02  0.42090406845E+02  0.47000000000E+01 0.  1.
         -5    1    3    3    0  502  0.57267747670E+02 -0.10480118540E+02 -0.87039624416E+02  0.10482086637E+03  0.47000000000E+01 0.  1.
        -11    1    1    2    0    0 -0.19217748993E+02 -0.32173945085E+02 -0.49353537004E+02  0.61969800980E+02  0.00000000000E+00 0.  1.
         11    1    1    2    0    0 -0.24010592835E+02  0.65187376035E+02 -0.10334622780E+03  0.12452447697E+03  0.00000000000E+00 0. -1.
<mgrwt>
<rscale>  0 0.12834565E+03</rscale>
<asrwt>0</asrwt>
<pdfrwt beam="2">  1        2 0.41601829E-01 0.13634079E+03</pdfrwt>
<pdfrwt beam="1">  1       -2 0.96913325E-02 0.13634079E+03</pdfrwt>
<totfact> 0.81091405E+03</totfact>
</mgrwt>
</event>
<event>
 7    1  0.5400401E-006  0.1251867E+03  0.7546771E-02  0.1249222E+00
         -2   -1    0    0    0  501 -0.00000000000E+00  0.00000000000E+00  0.88709279049E+02  0.88709279049E+02  0.00000000000E+00 0. -1.
          2   -1    0    0  501    0  0.00000000000E+00 -0.00000000000E+00 -0.15532640727E+03  0.15532640727E+03  0.00000000000E+00 0.  1.
         23    2    1    2    0    0 -0.62654387634E+01  0.29384687238E+01  0.65408734057E+01  0.12535745028E+03  0.12499526789E+03 0.  0.
          5    1    3    3  502    0 -0.14479635298E+02  0.25248527811E+02 -0.53236053136E+02  0.60854871198E+02  0.47000000000E+01 0.  1.
         -5    1    3    3    0  502  0.82141965350E+01 -0.22310059087E+02  0.59776926542E+02  0.64502579080E+02  0.47000000000E+01 0.  1.
        -11    1    1    2    0    0  0.19523770003E+01  0.19980101172E+02 -0.88509831921E+02  0.90757955935E+02  0.00000000000E+00 0.  1.
         11    1    1    2    0    0  0.43130617631E+01 -0.22918569896E+02  0.15351830294E+02  0.27920280106E+02  0.00000000000E+00 0. -1.
<mgrwt>
<rscale>  0 0.11636182E+03</rscale>
<asrwt>0</asrwt>
<pdfrwt beam="2">  1        2 0.23896370E-01 0.12518669E+03</pdfrwt>
<pdfrwt beam="1">  1       -2 0.13647582E-01 0.12518669E+03</pdfrwt>
<totfact> 0.85086642E+03</totfact>
</mgrwt>
</event>
<event>
 7    1  0.5400401E-006  0.1205615E+03  0.7546771E-02  0.1253339E+00
          3   -1    0    0  501    0  0.00000000000E+00  0.00000000000E+00  0.53378075764E+02  0.53378075764E+02  0.00000000000E+00 0. -1.
         -3   -1    0    0    0  501 -0.00000000000E+00 -0.00000000000E+00 -0.22975761340E+03  0.22975761340E+03  0.00000000000E+00 0.  1.
         23    2    1    2    0    0  0.29405722234E+02  0.14113213064E+02 -0.12599193974E+03  0.17438188760E+03  0.11606547532E+03 0.  0.
          5    1    3    3  502    0  0.65835522738E+01 -0.92292771832E+01  0.20680002758E+02  0.24047353949E+02  0.47000000000E+01 0. -1.
         -5    1    3    3    0  502  0.22822169960E+02  0.23342490247E+02 -0.14667194250E+03  0.15033453366E+03  0.47000000000E+01 0.  1.
        -11    1    1    2    0    0 -0.31911872529E+02 -0.49666535009E+02 -0.21336487642E+02  0.62772430358E+02  0.00000000000E+00 0. -1.
         11    1    1    2    0    0  0.25061502956E+01  0.35553321945E+02 -0.29051110247E+02  0.45981371197E+02  0.00000000000E+00 0.  1.
<mgrwt>
<rscale>  0 0.11399861E+03</rscale>
<asrwt>0</asrwt>
<pdfrwt beam="1">  1        3 0.82120115E-02 0.12056149E+03</pdfrwt>
<pdfrwt beam="2">  1       -3 0.35347326E-01 0.12056149E+03</pdfrwt>
<totfact> 0.18093536E+03</totfact>
</mgrwt>
</event>
<event>
 7    1  0.5400401E-006  0.1344889E+03  0.7546771E-02  0.1234169E+00
         -2   -1    0    0    0  501 -0.00000000000E+00  0.00000000000E+00  0.73260988541E+02  0.73260988541E+02  0.00000000000E+00 0.  1.
          2   -1    0    0  501    0  0.00000000000E+00 -0.00000000000E+00 -0.19230812990E+03  0.19230812990E+03  0.00000000000E+00 0. -1.
         23    2    1    2    0    0  0.14301551194E+02  0.47534300615E+02 -0.57713980505E+02  0.14634945536E+03  0.12499286154E+03 0.  0.
          5    1    3    3  502    0 -0.96443448615E+00  0.88577800657E+02 -0.27252920802E+02  0.92799615276E+02  0.47000000000E+01 0. -1.
         -5    1    3    3    0  502  0.15265985680E+02 -0.41043500041E+02 -0.30461059702E+02  0.53549840080E+02  0.47000000000E+01 0. -1.
        -11    1    1    2    0    0  0.25666413464E+02  0.13339491609E+02 -0.22799048865E+02  0.36830740498E+02  0.00000000000E+00 0.  1.
         11    1    1    2    0    0 -0.39967964658E+02 -0.60873792224E+02 -0.38534111992E+02  0.82388922591E+02  0.00000000000E+00 0. -1.
<mgrwt>
<rscale>  0 0.12557769E+03</rscale>
<asrwt>0</asrwt>
<pdfrwt beam="2">  1        2 0.29585866E-01 0.13448888E+03</pdfrwt>
<pdfrwt beam="1">  1       -2 0.11270921E-01 0.13448888E+03</pdfrwt>
<totfact> 0.91988808E+03</totfact>
</mgrwt>
</event>
<event>
 7    1  0.5400401E-006  0.1491519E+03  0.7546771E-02  0.1210849E+00
         -2   -1    0    0    0  501 -0.00000000000E+00  0.00000000000E+00  0.45191226229E+02  0.45191226229E+02  0.00000000000E+00 0.  1.
          2   -1    0    0  501    0  0.00000000000E+00 -0.00000000000E+00 -0.42934107745E+03  0.42934107745E+03  0.00000000000E+00 0. -1.
         23    2    1    2    0    0 -0.44183924388E+02  0.69818629925E+02 -0.15626289323E+03  0.21601937594E+03  0.12417495207E+03 0.  0.
          5    1    3    3  502    0  0.15053074622E+02 -0.15863465002E+02  0.59844076530E+01  0.23154863688E+02  0.47000000000E+01 0. -1.
         -5    1    3    3    0  502 -0.59236999010E+02  0.85682094928E+02 -0.16224730088E+03  0.19286451225E+03  0.47000000000E+01 0.  1.
        -11    1    1    2    0    0  0.62500365755E+02 -0.75150876714E+02 -0.21285743633E+03  0.23422689468E+03  0.00000000000E+00 0. -1.
         11    1    1    2    0    0 -0.18316441367E+02  0.53322467883E+01 -0.15029521653E+02  0.24286033050E+02  0.00000000000E+00 0.  1.
<mgrwt>
<rscale>  0 0.14185901E+03</rscale>
<asrwt>0</asrwt>
<pdfrwt beam="2">  1        2 0.66052473E-01 0.14915187E+03</pdfrwt>
<pdfrwt beam="1">  1       -2 0.69524964E-02 0.14915187E+03</pdfrwt>
<totfact> 0.83408769E+03</totfact>
</mgrwt>
</event>
<event>
 6    1  0.5400401E-006  0.2683173E+03  0.7546771E-02  0.1143650E+00
         -2   -1    0    0    0  501 -0.00000000000E+00  0.00000000000E+00  0.13509273215E+03  0.13509273215E+03  0.00000000000E+00 0.  1.
          2   -1    0    0  501    0  0.00000000000E+00 -0.00000000000E+00 -0.26013053652E+03  0.26013053652E+03  0.00000000000E+00 0. -1.
          5    1    1    2  502    0  0.98916370690E+02 -0.90947609246E+02 -0.82842791720E+02  0.15792698996E+03  0.47000000000E+01 0. -1.
         -5    1    1    2    0  502 -0.91853028520E+02  0.59453869667E+02  0.34266464060E+02  0.11475200227E+03  0.47000000000E+01 0.  1.
        -11    1    1    2    0    0  0.85973109809E+01 -0.30535851026E+02 -0.23238878494E+02  0.39324260040E+02  0.00000000000E+00 0.  1.
         11    1    1    2    0    0 -0.15660653151E+02  0.62029590605E+02 -0.53222598218E+02  0.83220016395E+02  0.00000000000E+00 0. -1.
<mgrwt>
<rscale>  0 0.20738964E+03</rscale>
<asrwt>0</asrwt>
<pdfrwt beam="2">  1        2 0.40020083E-01 0.26831730E+03</pdfrwt>
<pdfrwt beam="1">  1       -2 0.20783497E-01 0.26831730E+03</pdfrwt>
<totfact> 0.25016501E+03</totfact>
</mgrwt>
</event>
<event>
 7    1  0.5400401E-006  0.1359116E+03  0.7546771E-02  0.1231502E+00
          1   -1    0    0  501    0  0.00000000000E+00  0.00000000000E+00  0.28639523317E+03  0.28639523317E+03  0.00000000000E+00 0. -1.
         -1   -1    0    0    0  501 -0.00000000000E+00 -0.00000000000E+00 -0.55474541633E+02  0.55474541633E+02  0.00000000000E+00 0.  1.
         23    2    1    2    0    0  0.31237044751E+02 -0.43279574504E+02  0.78388346255E+02  0.15689705992E+03  0.12499231996E+03 0.  0.
          5    1    3    3  502    0 -0.79172203510E+01  0.41446281440E+02  0.24780470228E+02  0.49159315780E+02  0.47000000000E+01 0.  1.
         -5    1    3    3    0  502  0.39154265102E+02 -0.84725855943E+02  0.53607876027E+02  0.10773774414E+03  0.47000000000E+01 0.  1.
        -11    1    1    2    0    0 -0.31564140855E+02 -0.32873645289E+01  0.12890435875E+03  0.13275328793E+03  0.00000000000E+00 0. -1.
         11    1    1    2    0    0  0.32709610369E+00  0.46566939033E+02  0.23627986538E+02  0.52219426946E+02  0.00000000000E+00 0.  1.
<mgrwt>
<rscale>  0 0.12731016E+03</rscale>
<asrwt>0</asrwt>
<pdfrwt beam="1">  1        1 0.44060804E-01 0.13591157E+03</pdfrwt>
<pdfrwt beam="2">  1       -1 0.85345451E-02 0.13591157E+03</pdfrwt>
<totfact> 0.68982149E+03</totfact>
</mgrwt>
</event>
<event>
 7    1  0.5400401E-006  0.3285895E+03  0.7546771E-02  0.1073078E+00
          2   -1    0    0  501    0  0.00000000000E+00  0.00000000000E+00  0.60033217556E+03  0.60033217556E+03  0.00000000000E+00 0. -1.
         -2   -1    0    0    0  501 -0.00000000000E+00 -0.00000000000E+00 -0.17772692983E+03  0.17772692983E+03  0.00000000000E+00 0.  1.
         23    2    1    2    0    0 -0.69364701941E+02  0.29586349325E+03  0.15543894168E+03  0.36350008973E+03  0.12499752849E+03 0.  0.
          5    1    3    3  502    0 -0.53769692572E+02  0.53577565766E+02  0.77215394329E+02  0.10837916088E+03  0.47000000000E+01 0. -1.
         -5    1    3    3    0  502 -0.15595009369E+02  0.24228592748E+03  0.78223547354E+02  0.25512092884E+03  0.47000000000E+01 0. -1.
        -11    1    1    2    0    0  0.60595838581E+02 -0.18969126116E+03  0.22371566976E+03  0.29950514371E+03  0.00000000000E+00 0. -1.
         11    1    1    2    0    0  0.87688633608E+01 -0.10617223209E+03  0.43450634292E+02  0.11505387195E+03  0.00000000000E+00 0.  1.
<mgrwt>
<rscale>  0 0.32564988E+03</rscale>
<asrwt>0</asrwt>
<pdfrwt beam="1">  1        2 0.92358795E-01 0.32858949E+03</pdfrwt>
<pdfrwt beam="2">  1       -2 0.27342605E-01 0.32858949E+03</pdfrwt>
<totfact> 0.61211643E+02</totfact>
</mgrwt>
</event>
<event>
 7    1  0.5400401E-006  0.1339086E+03  0.7546771E-02  0.1233943E+00
         -2   -1    0    0    0  501 -0.00000000000E+00  0.00000000000E+00  0.56643358516E+03  0.56643358516E+03  0.00000000000E+00 0.  1.
          2   -1    0    0  501    0  0.00000000000E+00 -0.00000000000E+00 -0.26753631734E+02  0.26753631734E+02  0.00000000000E+00 0. -1.
         23    2    1    2    0    0 -0.47825015082E+02  0.45150352040E+01  0.37702327479E+03  0.40009755620E+03  0.12499554845E+03 0.  0.
          5    1    3    3  502    0 -0.50751312947E+02 -0.24712846714E+02  0.36267250838E+03  0.36706928351E+03  0.47000000000E+01 0. -1.
         -5    1    3    3    0  502  0.29262978647E+01  0.29227881918E+02  0.14350766411E+02  0.33028272695E+02  0.47000000000E+01 0. -1.
        -11    1    1    2    0    0  0.53016948373E+01 -0.40930624638E+02  0.36613306791E+02  0.55172078405E+02  0.00000000000E+00 0.  1.
         11    1    1    2    0    0  0.42523320245E+02  0.36415589434E+02  0.12604337185E+03  0.13791758229E+03  0.00000000000E+00 0. -1.
<mgrwt>
<rscale>  0 0.12572362E+03</rscale>
<asrwt>0</asrwt>
<pdfrwt beam="2">  1        2 0.41159438E-02 0.13390857E+03</pdfrwt>
<pdfrwt beam="1">  1       -2 0.87143620E-01 0.13390857E+03</pdfrwt>
<totfact> 0.22968502E+03</totfact>
</mgrwt>
</event>
<event>
 7    1  0.5400401E-006  0.1257589E+03  0.7546771E-02  0.1251689E+00
          1   -1    0    0  501    0  0.00000000000E+00  0.00000000000E+00  0.29073377935E+02  0.29073377935E+02  0.00000000000E+00 0. -1.
         -1   -1    0    0    0  501 -0.00000000000E+00 -0.00000000000E+00 -0.39246411150E+03  0.39246411150E+03  0.00000000000E+00 0.  1.
         23    2    1    2    0    0  0.77467350351E+01 -0.11337093863E+02 -0.22121079723E+03  0.25445924771E+03  0.12500700114E+03 0.  0.
          5    1    3    3  502    0 -0.22985118704E+02  0.50292797482E+02 -0.81131973603E+02  0.98296329031E+02  0.47000000000E+01 0.  1.
         -5    1    3    3    0  502  0.30731853739E+02 -0.61629891344E+02 -0.14007882363E+03  0.15616291868E+03  0.47000000000E+01 0.  1.
        -11    1    1    2    0    0  0.95210311345E+01  0.45966903946E+02 -0.95742413825E+02  0.10663121540E+03  0.00000000000E+00 0. -1.
         11    1    1    2    0    0 -0.17267766170E+02 -0.34629810084E+02 -0.46437522510E+02  0.60447026327E+02  0.00000000000E+00 0.  1.
<mgrwt>
<rscale>  0 0.11493845E+03</rscale>
<asrwt>0</asrwt>
<pdfrwt beam="1">  1        1 0.44728274E-02 0.12575886E+03</pdfrwt>
<pdfrwt beam="2">  1       -1 0.60379093E-01 0.12575886E+03</pdfrwt>
<totfact> 0.52922205E+03</totfact>
</mgrwt>
</event>
<event>
 7    1  0.5400401E-006  0.1468585E+03  0.7546771E-02  0.1216687E+00
          1   -1    0    0  501    0  0.00000000000E+00  0.00000000000E+00  0.44295434844E+02  0.44295434844E+02  0.00000000000E+00 0. -1.
         -1   -1    0    0    0  501 -0.00000000000E+00 -0.00000000000E+00 -0.43381793193E+03  0.43381793193E+03  0.00000000000E+00 0.  1.
         23    2    1    2    0    0  0.18846488176E+02  0.74740369637E+02 -0.29985947369E+03  0.33389087256E+03  0.12500439131E+03 0.  0.
          5    1    3    3  502    0  0.20314761345E+02  0.80710610880E+02 -0.85571601554E+02  0.11946330495E+03  0.47000000000E+01 0. -1.
         -5    1    3    3    0  502 -0.14682731694E+01 -0.59702412425E+01 -0.21428787213E+03  0.21442756760E+03  0.47000000000E+01 0. -1.
        -11    1    1    2    0    0 -0.20234289806E+02 -0.30687241932E+02 -0.93020584497E+02  0.10001981025E+03  0.00000000000E+00 0.  1.
         11    1    1    2    0    0  0.13878016299E+01 -0.44053127705E+02  0.33575610960E+01  0.44202683974E+02  0.00000000000E+00 0. -1.
<mgrwt>
<rscale>  0 0.13753348E+03</rscale>
<asrwt>0</asrwt>
<pdfrwt beam="1">  1        1 0.68146827E-02 0.14685847E+03</pdfrwt>
<pdfrwt beam="2">  1       -1 0.66741216E-01 0.14685847E+03</pdfrwt>
<totfact> 0.24826408E+03</totfact>
</mgrwt>
</event>
<event>
 7    1  0.5400401E-006  0.1562699E+03  0.7546771E-02  0.1201524E+00
          1   -1    0    0  501    0  0.00000000000E+00  0.00000000000E+00  0.62068986688E+03  0.62068986688E+03  0.00000000000E+00 0. -1.
         -1   -1    0    0    0  501 -0.00000000000E+00 -0.00000000000E+00 -0.33042843465E+02  0.33042843465E+02  0.00000000000E+00 0.  1.
         23    2    1    2    0    0  0.37746998404E+02  0.85835842696E+02  0.33991751804E+03  0.37411787978E+03  0.12501056402E+03 0.  0.
          5    1    3    3  502    0  0.49915032064E+02  0.69114693026E+02  0.34228955689E+03  0.35277837515E+03  0.47000000000E+01 0. -1.
         -5    1    3    3    0  502 -0.12168033659E+02  0.16721149670E+02 -0.23720388472E+01  0.21339504627E+02  0.47000000000E+01 0. -1.
        -11    1    1    2    0    0 -0.27849542808E+02 -0.80311142215E+02  0.25315752219E+03  0.26704720114E+03  0.00000000000E+00 0. -1.
         11    1    1    2    0    0 -0.98974555967E+01 -0.55247004811E+01 -0.54280168174E+01  0.12567629421E+02  0.00000000000E+00 0.  1.
<mgrwt>
<rscale>  0 0.14914787E+03</rscale>
<asrwt>0</asrwt>
<pdfrwt beam="1">  1        1 0.95490740E-01 0.15626986E+03</pdfrwt>
<pdfrwt beam="2">  1       -1 0.50835149E-02 0.15626986E+03</pdfrwt>
<totfact> 0.55974967E+03</totfact>
</mgrwt>
</event>
<event>
 7    1  0.5400401E-006  0.1353094E+03  0.7546771E-02  0.1233551E+00
          3   -1    0    0  501    0  0.00000000000E+00  0.00000000000E+00  0.12012871261E+03  0.12012871261E+03  0.00000000000E+00 0.  1.
         -3   -1    0    0    0  501 -0.00000000000E+00 -0.00000000000E+00 -0.13015479626E+03  0.13015479626E+03  0.00000000000E+00 0. -1.
         23    2    1    2    0    0  0.44232481597E+02 -0.26942158270E+02 -0.45271752467E+02  0.14268199904E+03  0.12500491574E+03 0.  0.
          5    1    3    3  502    0  0.76345489292E+02 -0.26126586043E+02  0.70184547797E+01  0.81133106319E+02  0.47000000000E+01 0. -1.
         -5    1    3    3    0  502 -0.32113007695E+02 -0.81557222669E+00 -0.52290207246E+02  0.61548892721E+02  0.47000000000E+01 0. -1.
        -11    1    1    2    0    0 -0.14144936944E+02  0.53536211202E+02  0.38301952353E+02  0.67329374756E+02  0.00000000000E+00 0.  1.
         11    1    1    2    0    0 -0.30087544653E+02 -0.26594052932E+02 -0.30562835329E+01  0.40272135076E+02  0.00000000000E+00 0. -1.
<mgrwt>
<rscale>  0 0.12597635E+03</rscale>
<asrwt>0</asrwt>
<pdfrwt beam="1">  1        3 0.18481341E-01 0.13530935E+03</pdfrwt>
<pdfrwt beam="2">  1       -3 0.20023815E-01 0.13530935E+03</pdfrwt>
<totfact> 0.13286317E+03</totfact>
</mgrwt>
</event>
<event>
 7    1  0.5400401E-006  0.1777742E+03  0.7546771E-02  0.1175641E+00
          2   -1    0    0  501    0  0.00000000000E+00  0.00000000000E+00  0.12252284733E+03  0.12252284733E+03  0.00000000000E+00 0. -1.
         -2   -1    0    0    0  501 -0.00000000000E+00 -0.00000000000E+00 -0.26391092222E+03  0.26391092222E+03  0.00000000000E+00 0.  1.
         23    2    1    2    0    0 -0.94716073550E+02 -0.83715645437E+02 -0.14608976877E+03  0.23009972157E+03  0.12499686975E+03 0.  0.
          5    1    3    3  502    0 -0.12314205258E+03 -0.69701182435E+02 -0.97519621146E+02  0.17191389256E+03  0.47000000000E+01 0.  1.
         -5    1    3    3    0  502  0.28425979030E+02 -0.14014463003E+02 -0.48570147628E+02  0.58185829011E+02  0.47000000000E+01 0.  1.
        -11    1    1    2    0    0  0.84873974587E+02  0.39828009572E+02  0.37178366307E+02  0.10085679367E+03  0.00000000000E+00 0. -1.
         11    1    1    2    0    0  0.98420989633E+01  0.43887635866E+02 -0.32476672424E+02  0.55477254309E+02  0.00000000000E+00 0.  1.
<mgrwt>
<rscale>  0 0.17213366E+03</rscale>
<asrwt>0</asrwt>
<pdfrwt beam="1">  1        2 0.18849669E-01 0.17777419E+03</pdfrwt>
<pdfrwt beam="2">  1       -2 0.40601680E-01 0.17777419E+03</pdfrwt>
<totfact> 0.16944051E+03</totfact>
</mgrwt>
</event>
<event>
 7    1  0.8761301E-006  0.2354730E+03  0.7546771E-02  0.1125737E+00
         -2   -1    0    0    0  501 -0.00000000000E+00  0.00000000000E+00  0.42182063211E+02  0.42182063211E+02  0.00000000000E+00 0.  1.
          2   -1    0    0  501    0  0.00000000000E+00 -0.00000000000E+00 -0.12308860658E+04  0.12308860658E+04  0.00000000000E+00 0. -1.
         23    2    1    2    0    0 -0.19090297706E+03  0.58129728881E+02 -0.65937105306E+03  0.70015549143E+03  0.12499805813E+03 0.  0.
          5    1    3    3  502    0 -0.20876527067E+03  0.47988040523E+02 -0.60691774894E+03  0.64362802476E+03  0.47000000000E+01 0. -1.
         -5    1    3    3    0  502  0.17862293610E+02  0.10141688358E+02 -0.52453304116E+02  0.56527466673E+02  0.47000000000E+01 0. -1.
        -11    1    1    2    0    0  0.83806918371E+02 -0.29366489550E+02 -0.35781052075E+03  0.36866564667E+03  0.00000000000E+00 0. -1.
         11    1    1    2    0    0  0.10709605869E+03 -0.28763239331E+02 -0.17152242882E+03  0.20424699095E+03  0.00000000000E+00 0.  1.
<mgrwt>
<rscale>  0 0.23128695E+03</rscale>
<asrwt>0</asrwt>
<pdfrwt beam="2">  1        2 0.18936703E+00 0.23547298E+03</pdfrwt>
<pdfrwt beam="1">  1       -2 0.64895500E-02 0.23547298E+03</pdfrwt>
<totfact> 0.25121209E+03</totfact>
</mgrwt>
</event>
<event>
 7    1  0.5400401E-006  0.1510955E+03  0.7546771E-02  0.1205881E+00
         -1   -1    0    0    0  501 -0.00000000000E+00  0.00000000000E+00  0.92453873495E+02  0.92453873495E+02  0.00000000000E+00 0.  1.
          1   -1    0    0  501    0  0.00000000000E+00 -0.00000000000E+00 -0.27552421583E+03  0.27552421583E+03  0.00000000000E+00 0. -1.
         23    2    1    2    0    0  0.76256029970E+02 -0.37273360643E+02 -0.10344920460E+02  0.15144919877E+03  0.12500222761E+03 0.  0.
          5    1    3    3  502    0  0.87963520932E+02 -0.10235608080E+02  0.36508396217E+02  0.95902563479E+02  0.47000000000E+01 0.  1.
         -5    1    3    3    0  502 -0.11707490962E+02 -0.27037752564E+02 -0.46853316677E+02  0.55546635289E+02  0.47000000000E+01 0.  1.
        -11    1    1    2    0    0 -0.45722839975E+02 -0.13819324306E+02 -0.18511645887E+02  0.51227266696E+02  0.00000000000E+00 0.  1.
         11    1    1    2    0    0 -0.30533189995E+02  0.51092684950E+02 -0.15421377599E+03  0.16530162386E+03  0.00000000000E+00 0. -1.
<mgrwt>
<rscale>  0 0.14568215E+03</rscale>
<asrwt>0</asrwt>
<pdfrwt beam="2">  1        1 0.42388341E-01 0.15109547E+03</pdfrwt>
<pdfrwt beam="1">  1       -1 0.14223673E-01 0.15109547E+03</pdfrwt>
<totfact> 0.33188010E+03</totfact>
</mgrwt>
</event>
<event>
 7    1  0.5400401E-006  0.1257166E+03  0.7546771E-02  0.1249434E+00
          1   -1    0    0  501    0  0.00000000000E+00  0.00000000000E+00  0.43143639587E+02  0.43143639587E+02  0.00000000000E+00 0. -1.
         -1   -1    0    0    0  501 -0.00000000000E+00 -0.00000000000E+00 -0.31758179930E+03  0.31758179930E+03  0.00000000000E+00 0.  1.
         23    2    1    2    0    0  0.12906921144E+02  0.35371197785E+01 -0.22148739079E+03  0.25467887531E+03  0.12500226166E+03 0.  0.
          5    1    3    3  502    0  0.37115200307E+02 -0.52011412408E+02 -0.12858565843E+03  0.14366310128E+03  0.47000000000E+01 0. -1.
         -5    1    3    3    0  502 -0.24208279163E+02  0.55548532187E+02 -0.92901732359E+02  0.11101577403E+03  0.47000000000E+01 0. -1.
        -11    1    1    2    0    0 -0.11249184394E+02  0.41008476744E+02 -0.42791630370E+02  0.60327132736E+02  0.00000000000E+00 0.  1.
         11    1    1    2    0    0 -0.16577367500E+01 -0.44545596522E+02 -0.10159138553E+02  0.45719430845E+02  0.00000000000E+00 0. -1.
<mgrwt>
<rscale>  0 0.11623870E+03</rscale>
<asrwt>0</asrwt>
<pdfrwt beam="1">  1        1 0.66374834E-02 0.12571661E+03</pdfrwt>
<pdfrwt beam="2">  1       -1 0.48858735E-01 0.12571661E+03</pdfrwt>
<totfact> 0.45821015E+03</totfact>
</mgrwt>
</event>
<event>
 7    1  0.5400401E-006  0.2051313E+03  0.7546771E-02  0.1149632E+00
          1   -1    0    0  501    0  0.00000000000E+00  0.00000000000E+00  0.10047206806E+03  0.10047206806E+03  0.00000000000E+00 0. -1.
         -1   -1    0    0    0  501 -0.00000000000E+00 -0.00000000000E+00 -0.39994043728E+03  0.39994043728E+03  0.00000000000E+00 0.  1.
         23    2    1    2    0    0  0.95218232221E+02  0.13185372109E+03 -0.21208989611E+03  0.29506096356E+03  0.12500773047E+03 0.  0.
          5    1    3    3  502    0  0.80099781998E+02  0.15595092632E+03 -0.19121495866E+03  0.25946467372E+03  0.47000000000E+01 0. -1.
         -5    1    3    3    0  502  0.15118450223E+02 -0.24097205229E+02 -0.20874937449E+02  0.35596289841E+02  0.47000000000E+01 0. -1.
        -11    1    1    2    0    0 -0.93883402407E+02 -0.10405270310E+03 -0.10254325751E+03  0.17365534236E+03  0.00000000000E+00 0.  1.
         11    1    1    2    0    0 -0.13348298140E+01 -0.27801017988E+02  0.15164784402E+02  0.31696199421E+02  0.00000000000E+00 0. -1.
<mgrwt>
<rscale>  0 0.20012678E+03</rscale>
<asrwt>0</asrwt>
<pdfrwt beam="1">  1        1 0.15457241E-01 0.20513129E+03</pdfrwt>
<pdfrwt beam="2">  1       -1 0.61529298E-01 0.20513129E+03</pdfrwt>
<totfact> 0.98692146E+02</totfact>
</mgrwt>
</event>
<event>
 7    1  0.5400401E-006  0.1306854E+03  0.7546771E-02  0.1240877E+00
         -2   -1    0    0    0  501 -0.00000000000E+00  0.00000000000E+00  0.54472925726E+03  0.54472925726E+03  0.00000000000E+00 0.  1.
          2   -1    0    0  501    0  0.00000000000E+00 -0.00000000000E+00 -0.27658708912E+02  0.27658708912E+02  0.00000000000E+00 0. -1.
         23    2    1    2    0    0 -0.19867906447E+02 -0.32526091325E+02  0.39678969420E+03  0.41775679114E+03  0.12500397912E+03 0.  0.
          5    1    3    3  502    0 -0.36889588295E+02 -0.71431758496E+02  0.18607942959E+03  0.20275843253E+03  0.47000000000E+01 0. -1.
         -5    1    3    3    0  502  0.17021681848E+02  0.38905667171E+02  0.21071026462E+03  0.21499835861E+03  0.47000000000E+01 0. -1.
        -11    1    1    2    0    0  0.27112132442E+02  0.59274267825E+02  0.10325515540E+03  0.12210705823E+03  0.00000000000E+00 0.  1.
         11    1    1    2    0    0 -0.72442259946E+01 -0.26748176500E+02  0.17025698745E+02  0.32524116808E+02  0.00000000000E+00 0. -1.
<mgrwt>
<rscale>  0 0.12135590E+03</rscale>
<asrwt>0</asrwt>
<pdfrwt beam="2">  1        2 0.42551864E-02 0.13068541E+03</pdfrwt>
<pdfrwt beam="1">  1       -2 0.83804493E-01 0.13068541E+03</pdfrwt>
<totfact> 0.23931104E+03</totfact>
</mgrwt>
</event>
<event>
 7    1  0.5400401E-006  0.2798141E+03  0.7546771E-02  0.1097559E+00
          1   -1    0    0  501    0  0.00000000000E+00  0.00000000000E+00  0.64174248463E+02  0.64174248463E+02  0.00000000000E+00 0. -1.
         -1   -1    0    0    0  501 -0.00000000000E+00 -0.00000000000E+00 -0.11657423695E+04  0.11657423695E+04  0.00000000000E+00 0.  1.
         23    2    1    2    0    0  0.24739419742E+03  0.38310445210E+02 -0.56951014499E+03  0.63453742075E+03  0.12499741581E+03 0.  0.
          5    1    3    3  502    0  0.13108578986E+03 -0.26537791379E+02 -0.37995608939E+03  0.40283552294E+03  0.47000000000E+01 0.  1.
         -5    1    3    3    0  502  0.11630840756E+03  0.64848236589E+02 -0.18955405560E+03  0.23170189782E+03  0.47000000000E+01 0.  1.
        -11    1    1    2    0    0 -0.58221090365E+02 -0.20791770158E+02 -0.23313219940E+03  0.24118999869E+03  0.00000000000E+00 0.  1.
         11    1    1    2    0    0 -0.18917310705E+03 -0.17518675053E+02 -0.29892577663E+03  0.35418919851E+03  0.00000000000E+00 0. -1.
<mgrwt>
<rscale>  0 0.27660333E+03</rscale>
<asrwt>0</asrwt>
<pdfrwt beam="1">  1        1 0.98729619E-02 0.27981410E+03</pdfrwt>
<pdfrwt beam="2">  1       -1 0.17934497E+00 0.27981410E+03</pdfrwt>
<totfact> 0.15100190E+02</totfact>
</mgrwt>
</event>
<event>
 7    1  0.5400401E-006  0.1508817E+03  0.7546771E-02  0.1208642E+00
         -1   -1    0    0    0  501 -0.00000000000E+00  0.00000000000E+00  0.51395751965E+02  0.51395751965E+02  0.00000000000E+00 0.  1.
          1   -1    0    0  501    0  0.00000000000E+00 -0.00000000000E+00 -0.38709993716E+03  0.38709993716E+03  0.00000000000E+00 0. -1.
         23    2    1    2    0    0 -0.65217955794E+02  0.53719994364E+02 -0.13325131557E+03  0.20129877772E+03  0.12500426096E+03 0.  0.
          5    1    3    3  502    0 -0.29608053450E+02  0.27831382723E+02  0.17268719313E+02  0.44401817081E+02  0.47000000000E+01 0. -1.
         -5    1    3    3    0  502 -0.35609902344E+02  0.25888611641E+02 -0.15052003488E+03  0.15689696064E+03  0.47000000000E+01 0. -1.
        -11    1    1    2    0    0  0.48587916824E+01 -0.47438829972E+02 -0.35189377138E+02  0.59265020957E+02  0.00000000000E+00 0.  1.
         11    1    1    2    0    0  0.60359164112E+02 -0.62811643926E+01 -0.16726349249E+03  0.17793189045E+03  0.00000000000E+00 0. -1.
<mgrwt>
<rscale>  0 0.14354095E+03</rscale>
<asrwt>0</asrwt>
<pdfrwt beam="2">  1        1 0.59553837E-01 0.15088169E+03</pdfrwt>
<pdfrwt beam="1">  1       -1 0.79070387E-02 0.15088169E+03</pdfrwt>
<totfact> 0.53515751E+03</totfact>
</mgrwt>
</event>
<event>
 7    1  0.5400401E-006  0.1342378E+03  0.7546771E-02  0.1232838E+00
          3   -1    0    0  501    0  0.00000000000E+00  0.00000000000E+00  0.20907962996E+02  0.20907962996E+02  0.00000000000E+00 0. -1.
         -3   -1    0    0    0  501 -0.00000000000E+00 -0.00000000000E+00 -0.70839932559E+03  0.70839932559E+03  0.00000000000E+00 0.  1.
         23    2    1    2    0    0  0.40360929234E+01  0.48915028403E+02 -0.44479046117E+03  0.46460556333E+03  0.12494320741E+03 0.  0.
          5    1    3    3  502    0  0.64040221973E+02  0.29435144503E+02 -0.25104380031E+03  0.26079236461E+03  0.47000000000E+01 0.  1.
         -5    1    3    3    0  502 -0.60004129049E+02  0.19479883900E+02 -0.19374666086E+03  0.20381319872E+03  0.47000000000E+01 0.  1.
        -11    1    1    2    0    0  0.37590803775E+02 -0.23548371343E+02 -0.17942174936E+03  0.18482358741E+03  0.00000000000E+00 0.  1.
         11    1    1    2    0    0 -0.41626896698E+02 -0.25366657059E+02 -0.63279152063E+02  0.79878137841E+02  0.00000000000E+00 0. -1.
<mgrwt>
<rscale>  0 0.12643868E+03</rscale>
<asrwt>0</asrwt>
<pdfrwt beam="1">  1        3 0.32166095E-02 0.13423776E+03</pdfrwt>
<pdfrwt beam="2">  1       -3 0.10898452E+00 0.13423776E+03</pdfrwt>
<totfact> 0.78292383E+02</totfact>
</mgrwt>
</event>
<event>
 7    1  0.5400401E-006  0.1263369E+03  0.7546771E-02  0.1249962E+00
         -2   -1    0    0    0  501 -0.00000000000E+00  0.00000000000E+00  0.71817639419E+02  0.71817639419E+02  0.00000000000E+00 0. -1.
          2   -1    0    0  501    0  0.00000000000E+00 -0.00000000000E+00 -0.17576611106E+03  0.17576611106E+03  0.00000000000E+00 0.  1.
         23    2    1    2    0    0 -0.12064624290E+02  0.13792299159E+02 -0.26329988842E+02  0.12905146148E+03  0.12500091489E+03 0.  0.
          5    1    3    3  502    0  0.41307133236E+01 -0.10054540394E+02 -0.73022514709E+02  0.73976578925E+02  0.47000000000E+01 0.  1.
         -5    1    3    3    0  502 -0.16195337613E+02  0.23846839553E+02  0.46692525866E+02  0.55074882558E+02  0.47000000000E+01 0.  1.
        -11    1    1    2    0    0  0.91192667676E+01  0.16885349415E+02  0.12758845856E+02  0.23044830198E+02  0.00000000000E+00 0. -1.
         11    1    1    2    0    0  0.29453575220E+01 -0.30677648574E+02 -0.90377328656E+02  0.95487458799E+02  0.00000000000E+00 0.  1.
<mgrwt>
<rscale>  0 0.11593248E+03</rscale>
<asrwt>0</asrwt>
<pdfrwt beam="2">  1        2 0.27040940E-01 0.12633690E+03</pdfrwt>
<pdfrwt beam="1">  1       -2 0.11048868E-01 0.12633690E+03</pdfrwt>
<totfact> 0.10417004E+04</totfact>
</mgrwt>
</event>
<event>
 7    1  0.5400401E-006  0.1795738E+03  0.7546771E-02  0.1174265E+00
         -1   -1    0    0    0  501 -0.00000000000E+00  0.00000000000E+00  0.69686225436E+03  0.69686225436E+03  0.00000000000E+00 0.  1.
          1   -1    0    0  501    0  0.00000000000E+00 -0.00000000000E+00 -0.40844802933E+02  0.40844802933E+02  0.00000000000E+00 0. -1.
         23    2    1    2    0    0 -0.56107137325E+02  0.11608671693E+03  0.31657581590E+03  0.36396017491E+03  0.12499049966E+03 0.  0.
          5    1    3    3  502    0 -0.82917738452E+02  0.12308498496E+03  0.23811180399E+03  0.28061465762E+03  0.47000000000E+01 0.  1.
         -5    1    3    3    0  502  0.26810601126E+02 -0.69982680264E+01  0.78464011912E+02  0.83345517296E+02  0.47000000000E+01 0.  1.
        -11    1    1    2    0    0 -0.22175986953E+02 -0.10898020169E+02  0.66529738082E+02  0.70970045020E+02  0.00000000000E+00 0.  1.
         11    1    1    2    0    0  0.78283124279E+02 -0.10518869676E+03  0.27291189744E+03  0.30277683735E+03  0.00000000000E+00 0. -1.
<mgrwt>
<rscale>  0 0.17348139E+03</rscale>
<asrwt>0</asrwt>
<pdfrwt beam="2">  1        1 0.62838163E-02 0.17957383E+03</pdfrwt>
<pdfrwt beam="1">  1       -1 0.10720957E+00 0.17957383E+03</pdfrwt>
<totfact> 0.10335586E+03</totfact>
</mgrwt>
</event>
<event>
 7    1  0.5400401E-006  0.1261368E+03  0.7546771E-02  0.1248081E+00
         -4   -1    0    0    0  501 -0.00000000000E+00  0.00000000000E+00  0.16435088303E+03  0.16435088303E+03  0.00000000000E+00 0. -1.
          4   -1    0    0  501    0  0.00000000000E+00 -0.00000000000E+00 -0.77430359402E+02  0.77430359402E+02  0.00000000000E+00 0.  1.
         23    2    1    2    0    0 -0.10422868332E+02 -0.13292058719E+02  0.77026953702E+02  0.14779594688E+03  0.12500070123E+03 0.  0.
          5    1    3    3  502    0 -0.41093098394E+02 -0.30440094257E+02 -0.11331955614E+02  0.52590353603E+02  0.47000000000E+01 0.  1.
         -5    1    3    3    0  502  0.30670230062E+02  0.17148035538E+02  0.88358909316E+02  0.95205593273E+02  0.47000000000E+01 0.  1.
        -11    1    1    2    0    0  0.23976412140E+02  0.38399186886E+02 -0.22721106116E+02  0.50651895876E+02  0.00000000000E+00 0.  1.
         11    1    1    2    0    0 -0.13553543808E+02 -0.25107128167E+02  0.32614676042E+02  0.43333399680E+02  0.00000000000E+00 0. -1.
<mgrwt>
<rscale>  0 0.11702843E+03</rscale>
<asrwt>0</asrwt>
<pdfrwt beam="2">  1        4 0.11912363E-01 0.12613679E+03</pdfrwt>
<pdfrwt beam="1">  1       -4 0.25284751E-01 0.12613679E+03</pdfrwt>
<totfact> 0.13382429E+03</totfact>
</mgrwt>
</event>
<event>
 7    1  0.5400401E-006  0.1317260E+03  0.7546771E-02  0.1236389E+00
          1   -1    0    0  501    0  0.00000000000E+00  0.00000000000E+00  0.39114032025E+02  0.39114032025E+02  0.00000000000E+00 0. -1.
         -1   -1    0    0    0  501 -0.00000000000E+00 -0.00000000000E+00 -0.46403334815E+03  0.46403334815E+03  0.00000000000E+00 0.  1.
         23    2    1    2    0    0 -0.15167573948E+02 -0.38740665158E+02 -0.35286531041E+03  0.37665059634E+03  0.12498339887E+03 0.  0.
          5    1    3    3  502    0 -0.25256607895E+02  0.41561993179E+02 -0.10383753314E+03  0.11475895960E+03  0.47000000000E+01 0. -1.
         -5    1    3    3    0  502  0.10089033947E+02 -0.80302658337E+02 -0.24902777727E+03  0.26189163674E+03  0.47000000000E+01 0. -1.
        -11    1    1    2    0    0 -0.16385468607E+02  0.21860462878E+02  0.15852493105E+02  0.31585834742E+02  0.00000000000E+00 0. -1.
         11    1    1    2    0    0  0.31553042554E+02  0.16880202280E+02 -0.87906498824E+02  0.94910949099E+02  0.00000000000E+00 0.  1.
<mgrwt>
<rscale>  0 0.12415956E+03</rscale>
<asrwt>0</asrwt>
<pdfrwt beam="1">  1        1 0.60175436E-02 0.13172602E+03</pdfrwt>
<pdfrwt beam="2">  1       -1 0.71389743E-01 0.13172602E+03</pdfrwt>
<totfact> 0.25601510E+03</totfact>
</mgrwt>
</event>
<event>
 7    1  0.5400401E-006  0.1327456E+03  0.7546771E-02  0.1236723E+00
         -1   -1    0    0    0  501 -0.00000000000E+00  0.00000000000E+00  0.50107502897E+03  0.50107502897E+03  0.00000000000E+00 0.  1.
          1   -1    0    0  501    0  0.00000000000E+00 -0.00000000000E+00 -0.27733561777E+02  0.27733561777E+02  0.00000000000E+00 0. -1.
         23    2    1    2    0    0 -0.42960314390E+02  0.12281187258E+02  0.30341107361E+03  0.33117921877E+03  0.12499991675E+03 0.  0.
          5    1    3    3  502    0 -0.22216106592E+02  0.59458645345E+02  0.82010206540E+02  0.10381064433E+03  0.47000000000E+01 0.  1.
         -5    1    3    3    0  502 -0.20744207798E+02 -0.47177458087E+02  0.22140086707E+03  0.22736857445E+03  0.47000000000E+01 0.  1.
        -11    1    1    2    0    0  0.24222498081E+02  0.18019263171E+02  0.15676962467E+03  0.15965005004E+03  0.00000000000E+00 0.  1.
         11    1    1    2    0    0  0.18737816309E+02 -0.30300450429E+02  0.13160768920E+02  0.37979321937E+02  0.00000000000E+00 0. -1.
<mgrwt>
<rscale>  0 0.12394787E+03</rscale>
<asrwt>0</asrwt>
<pdfrwt beam="2">  1        1 0.42667022E-02 0.13274560E+03</pdfrwt>
<pdfrwt beam="1">  1       -1 0.77088459E-01 0.13274560E+03</pdfrwt>
<totfact> 0.35115530E+03</totfact>
</mgrwt>
</event>
<event>
 7    1  0.5400401E-006  0.1372915E+03  0.7546771E-02  0.1228739E+00
          4   -1    0    0  501    0  0.00000000000E+00  0.00000000000E+00  0.28147095417E+03  0.28147095417E+03  0.00000000000E+00 0. -1.
         -4   -1    0    0    0  501 -0.00000000000E+00 -0.00000000000E+00 -0.55686377277E+02  0.55686377277E+02  0.00000000000E+00 0.  1.
         23    2    1    2    0    0 -0.18933153619E+02  0.53525012541E+02  0.90747938772E+02  0.16457264969E+03  0.12500230942E+03 0.  0.
          5    1    3    3  502    0  0.37223007418E+02 -0.99228651484E+01  0.65330028414E+02  0.75987618377E+02  0.47000000000E+01 0. -1.
         -5    1    3    3    0  502 -0.56156161037E+02  0.63447877690E+02  0.25417910359E+02  0.88585031313E+02  0.47000000000E+01 0. -1.
        -11    1    1    2    0    0  0.21622552552E+02  0.47300009395E+01 -0.33746084640E+01  0.22389633093E+02  0.00000000000E+00 0.  1.
         11    1    1    2    0    0 -0.26893989323E+01 -0.58255013481E+02  0.13841124659E+03  0.15019504867E+03  0.00000000000E+00 0. -1.
<mgrwt>
<rscale>  0 0.12913927E+03</rscale>
<asrwt>0</asrwt>
<pdfrwt beam="1">  1        4 0.43303223E-01 0.13729155E+03</pdfrwt>
<pdfrwt beam="2">  1       -4 0.85671351E-02 0.13729155E+03</pdfrwt>
<totfact> 0.84749361E+02</totfact>
</mgrwt>
</event>
<event>
 7    1  0.5400401E-006  0.1502083E+03  0.7546771E-02  0.1209004E+00
          1   -1    0    0  501    0  0.00000000000E+00  0.00000000000E+00  0.50766426514E+02  0.50766426514E+02  0.00000000000E+00 0. -1.
         -1   -1    0    0    0  501 -0.00000000000E+00 -0.00000000000E+00 -0.42154484593E+03  0.42154484593E+03  0.00000000000E+00 0.  1.
         23    2    1    2    0    0 -0.65081309670E+02  0.51971758830E+02 -0.28218492591E+03  0.31967308290E+03  0.12500362769E+03 0.  0.
          5    1    3    3  502    0 -0.20597848068E+02  0.89029132894E+02 -0.18648862120E+03  0.20772711350E+03  0.47000000000E+01 0.  1.
         -5    1    3    3    0  502 -0.44483461602E+02 -0.37057374064E+02 -0.95696304711E+02  0.11194596940E+03  0.47000000000E+01 0.  1.
        -11    1    1    2    0    0  0.30886325145E+02 -0.76282292814E+02 -0.60558425485E+02  0.10217766965E+03  0.00000000000E+00 0.  1.
         11    1    1    2    0    0  0.34194984524E+02  0.24310533984E+02 -0.28035068029E+02  0.50460519900E+02  0.00000000000E+00 0. -1.
<mgrwt>
<rscale>  0 0.14326340E+03</rscale>
<asrwt>0</asrwt>
<pdfrwt beam="1">  1        1 0.78102193E-02 0.15020835E+03</pdfrwt>
<pdfrwt beam="2">  1       -1 0.64853055E-01 0.15020835E+03</pdfrwt>
<totfact> 0.21861162E+03</totfact>
</mgrwt>
</event>
<event>
 7    1  0.5400401E-006  0.2248020E+03  0.7546771E-02  0.1133194E+00
         -1   -1    0    0    0  501 -0.00000000000E+00  0.00000000000E+00  0.12344706701E+03  0.12344706701E+03  0.00000000000E+00 0.  1.
          1   -1    0    0  501    0  0.00000000000E+00 -0.00000000000E+00 -0.38399587813E+03  0.38399587813E+03  0.00000000000E+00 0. -1.
         23    2    1    2    0    0 -0.12620977965E+03  0.13777664193E+03 -0.15146740956E+03  0.27106886463E+03  0.12499856668E+03 0.  0.
          5    1    3    3  502    0 -0.70003793251E+02 -0.54878117117E+01 -0.55666965322E+02  0.89730419453E+02  0.47000000000E+01 0.  1.
         -5    1    3    3    0  502 -0.56205986403E+02  0.14326445364E+03 -0.95800444233E+02  0.18133844518E+03  0.47000000000E+01 0.  1.
        -11    1    1    2    0    0  0.14015393830E+03 -0.13042743059E+03 -0.10959652653E+03  0.22060335378E+03  0.00000000000E+00 0. -1.
         11    1    1    2    0    0 -0.13944158650E+02 -0.73492113375E+01  0.51512496714E+00  0.15770726726E+02  0.00000000000E+00 0.  1.
<mgrwt>
<rscale>  0 0.22092742E+03</rscale>
<asrwt>0</asrwt>
<pdfrwt beam="2">  1        1 0.59076288E-01 0.22480203E+03</pdfrwt>
<pdfrwt beam="1">  1       -1 0.18991857E-01 0.22480203E+03</pdfrwt>
<totfact> 0.13978520E+03</totfact>
</mgrwt>
</event>
<event>
 7    1  0.5400401E-006  0.1333279E+03  0.7546771E-02  0.1235018E+00
         -1   -1    0    0    0  501 -0.00000000000E+00  0.00000000000E+00  0.18094362384E+03  0.18094362384E+03  0.00000000000E+00 0.  1.
          1   -1    0    0  501    0  0.00000000000E+00 -0.00000000000E+00 -0.77953566369E+02  0.77953566369E+02  0.00000000000E+00 0. -1.
         23    2    1    2    0    0 -0.37552527350E+02  0.27221617862E+02  0.70276058967E+02  0.15071511763E+03  0.12500045371E+03 0.  0.
          5    1    3    3  502    0  0.18656654229E+02 -0.40476571535E+02  0.29238303500E+02  0.53510671663E+02  0.47000000000E+01 0.  1.
         -5    1    3    3    0  502 -0.56209181579E+02  0.67698189397E+02  0.41037755467E+02  0.97204445964E+02  0.47000000000E+01 0.  1.
        -11    1    1    2    0    0 -0.14875181233E+02  0.19050551851E+02 -0.10093148294E+02  0.26192865155E+02  0.00000000000E+00 0. -1.
         11    1    1    2    0    0  0.52427708582E+02 -0.46272169713E+02  0.42807146794E+02  0.81989207422E+02  0.00000000000E+00 0.  1.
<mgrwt>
<rscale>  0 0.12503266E+03</rscale>
<asrwt>0</asrwt>
<pdfrwt beam="2">  1        1 0.11992856E-01 0.13332787E+03</pdfrwt>
<pdfrwt beam="1">  1       -1 0.27837481E-01 0.13332787E+03</pdfrwt>
<totfact> 0.55430377E+03</totfact>
</mgrwt>
</event>
<event>
 7    1  0.5400401E-006  0.1783769E+03  0.7546771E-02  0.1174901E+00
         -1   -1    0    0    0  501 -0.00000000000E+00  0.00000000000E+00  0.66257385117E+02  0.66257385117E+02  0.00000000000E+00 0.  1.
          1   -1    0    0  501    0  0.00000000000E+00 -0.00000000000E+00 -0.43209859632E+03  0.43209859632E+03  0.00000000000E+00 0. -1.
         23    2    1    2    0    0  0.66412826972E+02 -0.10862461930E+03 -0.16269946502E+03  0.24143208609E+03  0.12493344137E+03 0.  0.
          5    1    3    3  502    0  0.25710855480E+02 -0.12925555877E+03 -0.12932424386E+03  0.18470218627E+03  0.47000000000E+01 0.  1.
         -5    1    3    3    0  502  0.40701971491E+02  0.20630939471E+02 -0.33375221156E+02  0.56729899823E+02  0.47000000000E+01 0.  1.
        -11    1    1    2    0    0 -0.13820226700E+02  0.25115467532E+02  0.25517410662E+01  0.28780145202E+02  0.00000000000E+00 0.  1.
         11    1    1    2    0    0 -0.52592600272E+02  0.83509151766E+02 -0.20569348725E+03  0.22814375014E+03  0.00000000000E+00 0. -1.
<mgrwt>
<rscale>  0 0.17285673E+03</rscale>
<asrwt>0</asrwt>
<pdfrwt beam="2">  1        1 0.66476708E-01 0.17837695E+03</pdfrwt>
<pdfrwt beam="1">  1       -1 0.10193444E-01 0.17837695E+03</pdfrwt>
<totfact> 0.31830605E+03</totfact>
</mgrwt>
</event>
<event>
 6    1  0.5400401E-006  0.5051479E+03  0.7546771E-02  0.1033470E+00
         -2   -1    0    0    0  501 -0.00000000000E+00  0.00000000000E+00  0.16342534808E+04  0.16342534808E+04  0.00000000000E+00 0.  1.
          2   -1    0    0  501    0  0.00000000000E+00 -0.00000000000E+00 -0.12434004357E+03  0.12434004357E+03  0.00000000000E+00 0. -1.
          5    1    1    2  502    0 -0.16100388462E+03 -0.72975696785E+02  0.15375463230E+03  0.23432942653E+03  0.47000000000E+01 0. -1.
         -5    1    1    2    0  502 -0.84027102065E+02  0.13233845581E+03  0.12072910346E+04  0.12174349071E+04  0.47000000000E+01 0.  1.
        -11    1    1    2    0    0  0.19335939523E+03 -0.83592061658E+02  0.12515134432E+03  0.24502723824E+03  0.00000000000E+00 0. -1.
         11    1    1    2    0    0  0.51671591460E+02  0.24229302632E+02  0.23716426000E+02  0.61801952495E+02  0.00000000000E+00 0.  1.
<mgrwt>
<rscale>  0 0.43123827E+03</rscale>
<asrwt>0</asrwt>
<pdfrwt beam="2">  1        2 0.19129239E-01 0.50514787E+03</pdfrwt>
<pdfrwt beam="1">  1       -2 0.25142360E+00 0.50514787E+03</pdfrwt>
<totfact> 0.19856210E+01</totfact>
</mgrwt>
</event>
<event>
 7    1  0.5400401E-006  0.1326546E+03  0.7546771E-02  0.1236436E+00
          1   -1    0    0  501    0  0.00000000000E+00  0.00000000000E+00  0.61035580759E+03  0.61035580759E+03  0.00000000000E+00 0. -1.
         -1   -1    0    0    0  501 -0.00000000000E+00 -0.00000000000E+00 -0.22597453538E+02  0.22597453538E+02  0.00000000000E+00 0.  1.
         23    2    1    2    0    0  0.19659507012E+02  0.39831216306E+02  0.35350602199E+03  0.37757614456E+03  0.12499686138E+03 0.  0.
          5    1    3    3  502    0 -0.48822522085E+01 -0.43270121420E+02  0.15188944164E+03  0.15807793102E+03  0.47000000000E+01 0.  1.
         -5    1    3    3    0  502  0.24541759220E+02  0.83101337726E+02  0.20161658034E+03  0.21949821354E+03  0.47000000000E+01 0.  1.
        -11    1    1    2    0    0 -0.53917292174E+02 -0.29177814589E+02  0.10866285535E+03  0.12476391863E+03  0.00000000000E+00 0.  1.
         11    1    1    2    0    0  0.34257785162E+02 -0.10653401717E+02  0.12558947672E+03  0.13061319794E+03  0.00000000000E+00 0. -1.
<mgrwt>
<rscale>  0 0.12412926E+03</rscale>
<asrwt>0</asrwt>
<pdfrwt beam="1">  1        1 0.93900881E-01 0.13265458E+03</pdfrwt>
<pdfrwt beam="2">  1       -1 0.34765318E-02 0.13265458E+03</pdfrwt>
<totfact> 0.99304162E+03</totfact>
</mgrwt>
</event>
<event>
 7    1  0.5400401E-006  0.1317696E+03  0.7546771E-02  0.1239567E+00
          4   -1    0    0  501    0  0.00000000000E+00  0.00000000000E+00  0.34983990453E+03  0.34983990453E+03  0.00000000000E+00 0.  1.
         -4   -1    0    0    0  501 -0.00000000000E+00 -0.00000000000E+00 -0.38386488868E+02  0.38386488868E+02  0.00000000000E+00 0. -1.
         23    2    1    2    0    0  0.49156237550E+01  0.41399893245E+02  0.14966238624E+03  0.19940423329E+03  0.12500041551E+03 0.  0.
          5    1    3    3  502    0 -0.35545519720E+02  0.66541483028E+02  0.12365661407E+03  0.14492860704E+03  0.47000000000E+01 0.  1.
         -5    1    3    3    0  502  0.40461143475E+02 -0.25141589783E+02  0.26005772172E+02  0.54475626241E+02  0.47000000000E+01 0.  1.
        -11    1    1    2    0    0 -0.67211399137E+01 -0.55634677999E+02  0.16488133160E+03  0.17414432127E+03  0.00000000000E+00 0.  1.
         11    1    1    2    0    0  0.18055161587E+01  0.14234784755E+02 -0.30903021861E+01  0.14677838847E+02  0.00000000000E+00 0. -1.
<mgrwt>
<rscale>  0 0.12216531E+03</rscale>
<asrwt>0</asrwt>
<pdfrwt beam="1">  1        4 0.53821522E-01 0.13176957E+03</pdfrwt>
<pdfrwt beam="2">  1       -4 0.59056139E-02 0.13176957E+03</pdfrwt>
<totfact> 0.99699817E+02</totfact>
</mgrwt>
</event>
<event>
 7    1  0.5400401E-006  0.1376537E+03  0.7546771E-02  0.1231542E+00
          2   -1    0    0  501    0  0.00000000000E+00  0.00000000000E+00  0.58595358710E+03  0.58595358710E+03  0.00000000000E+00 0. -1.
         -2   -1    0    0    0  501 -0.00000000000E+00 -0.00000000000E+00 -0.24675220727E+02  0.24675220727E+02  0.00000000000E+00 0.  1.
         23    2    1    2    0    0 -0.26330805964E+02  0.51267289236E+02  0.28272126630E+03  0.31445166546E+03  0.12500755659E+03 0.  0.
          5    1    3    3  502    0 -0.28641790044E+02  0.80794891614E+02  0.11200694214E+03  0.14112339188E+03  0.47000000000E+01 0. -1.
         -5    1    3    3    0  502  0.23109840798E+01 -0.29527602378E+02  0.17071432415E+03  0.17332827358E+03  0.47000000000E+01 0. -1.
        -11    1    1    2    0    0  0.44574622107E+02 -0.19632373337E+02  0.75397024012E+02  0.89761006281E+02  0.00000000000E+00 0.  1.
         11    1    1    2    0    0 -0.18243816142E+02 -0.31634915900E+02  0.20316007606E+03  0.20641613609E+03  0.00000000000E+00 0. -1.
<mgrwt>
<rscale>  0 0.12728438E+03</rscale>
<asrwt>0</asrwt>
<pdfrwt beam="1">  1        2 0.90146695E-01 0.13765368E+03</pdfrwt>
<pdfrwt beam="2">  1       -2 0.37961882E-02 0.13765368E+03</pdfrwt>
<totfact> 0.14648271E+04</totfact>
</mgrwt>
</event>
<event>
 6    1  0.5400401E-006  0.3730424E+03  0.7546771E-02  0.1095735E+00
         -2   -1    0    0    0  501 -0.00000000000E+00  0.00000000000E+00  0.43382802504E+02  0.43382802504E+02  0.00000000000E+00 0.  1.
          2   -1    0    0  501    0  0.00000000000E+00 -0.00000000000E+00 -0.14025033783E+04  0.14025033783E+04  0.00000000000E+00 0. -1.
          5    1    1    2  502    0 -0.62312719043E+02  0.14658662371E+03 -0.84298783275E+03  0.85791671471E+03  0.47000000000E+01 0. -1.
         -5    1    1    2    0  502 -0.96004930645E+01 -0.12994704771E+03 -0.12995020536E+03  0.18408571522E+03  0.47000000000E+01 0.  1.
        -11    1    1    2    0    0  0.76394706641E+02 -0.28531139665E+02 -0.38184504851E+03  0.39045591070E+03  0.00000000000E+00 0. -1.
         11    1    1    2    0    0 -0.44814945339E+01  0.11891563657E+02 -0.43374891806E+01  0.13427840179E+02  0.00000000000E+00 0.  1.
<mgrwt>
<rscale>  0 0.27991552E+03</rscale>
<asrwt>0</asrwt>
<pdfrwt beam="2">  1        2 0.21576977E+00 0.37304241E+03</pdfrwt>
<pdfrwt beam="1">  1       -2 0.66742767E-02 0.37304241E+03</pdfrwt>
<totfact> 0.19296059E+03</totfact>
</mgrwt>
</event>
<event>
 7    1  0.5400401E-006  0.2544196E+03  0.7546771E-02  0.1112966E+00
         -1   -1    0    0    0  501 -0.00000000000E+00  0.00000000000E+00  0.37117368780E+03  0.37117368780E+03  0.00000000000E+00 0.  1.
          1   -1    0    0  501    0  0.00000000000E+00 -0.00000000000E+00 -0.22043145227E+03  0.22043145227E+03  0.00000000000E+00 0. -1.
         23    2    1    2    0    0 -0.63320883691E+02  0.21235382783E+03  0.22652144670E+03  0.34064835954E+03  0.12500262612E+03 0.  0.
          5    1    3    3  502    0 -0.21242044672E+02  0.19413159742E+03  0.13282255951E+03  0.23622494341E+03  0.47000000000E+01 0.  1.
         -5    1    3    3    0  502 -0.42078839019E+02  0.18222230418E+02  0.93698887195E+02  0.10442341613E+03  0.47000000000E+01 0.  1.
        -11    1    1    2    0    0 -0.30382278371E+01 -0.12010764070E+03 -0.12249796602E+02  0.12076892688E+03  0.00000000000E+00 0.  1.
         11    1    1    2    0    0  0.66359111528E+02 -0.92246187134E+02 -0.63529414563E+02  0.13018785365E+03  0.00000000000E+00 0. -1.
<mgrwt>
<rscale>  0 0.25053729E+03</rscale>
<asrwt>0</asrwt>
<pdfrwt beam="2">  1        1 0.33912531E-01 0.25441961E+03</pdfrwt>
<pdfrwt beam="1">  1       -1 0.57103644E-01 0.25441961E+03</pdfrwt>
<totfact> 0.41650622E+02</totfact>
</mgrwt>
</event>
<event>
 6    1  0.5400401E-006  0.4720710E+03  0.7546771E-02  0.1021337E+00
          1   -1    0    0  501    0  0.00000000000E+00  0.00000000000E+00  0.50897824201E+02  0.50897824201E+02  0.00000000000E+00 0. -1.
         -1   -1    0    0    0  501 -0.00000000000E+00 -0.00000000000E+00 -0.10946000530E+04  0.10946000530E+04  0.00000000000E+00 0.  1.
          5    1    1    2  502    0  0.92411085580E+01  0.38380833332E+02 -0.32178330410E+03  0.32422996662E+03  0.47000000000E+01 0. -1.
         -5    1    1    2    0  502 -0.11477267626E+03 -0.55881110358E+02 -0.65246019764E+03  0.66484724954E+03  0.47000000000E+01 0.  1.
        -11    1    1    2    0    0  0.45767410881E+02  0.29756957895E+02 -0.77593166216E+02  0.94872714124E+02  0.00000000000E+00 0.  1.
         11    1    1    2    0    0  0.59764156817E+02 -0.12256680869E+02  0.81344391887E+01  0.61547946894E+02  0.00000000000E+00 0. -1.
<mgrwt>
<rscale>  0 0.47207102E+03</rscale>
<asrwt>0</asrwt>
<pdfrwt beam="1">  1        1 0.78304351E-02 0.47207102E+03</pdfrwt>
<pdfrwt beam="2">  1       -1 0.16839999E+00 0.47207102E+03</pdfrwt>
<totfact> 0.24526286E+02</totfact>
</mgrwt>
</event>
<event>
 7    1  0.5400401E-006  0.1254351E+03  0.7546771E-02  0.1248472E+00
          2   -1    0    0  501    0  0.00000000000E+00  0.00000000000E+00  0.49553356796E+02  0.49553356796E+02  0.00000000000E+00 0. -1.
         -2   -1    0    0    0  501 -0.00000000000E+00 -0.00000000000E+00 -0.25542587970E+03  0.25542587970E+03  0.00000000000E+00 0.  1.
         23    2    1    2    0    0 -0.39646074311E+01 -0.96457164290E+01 -0.14935493851E+03  0.19504069615E+03  0.12500087016E+03 0.  0.
          5    1    3    3  502    0  0.44769605366E+02  0.25784335698E+02 -0.26790867687E+02  0.58386557729E+02  0.47000000000E+01 0.  1.
         -5    1    3    3    0  502 -0.48734212797E+02 -0.35430052127E+02 -0.12256407082E+03  0.13665413842E+03  0.47000000000E+01 0.  1.
        -11    1    1    2    0    0  0.45263858482E+02 -0.11296606239E+02 -0.37598029113E+02  0.59916959121E+02  0.00000000000E+00 0.  1.
         11    1    1    2    0    0 -0.41299251051E+02  0.20942322668E+02 -0.18919555276E+02  0.50021581222E+02  0.00000000000E+00 0. -1.
<mgrwt>
<rscale>  0 0.11679947E+03</rscale>
<asrwt>0</asrwt>
<pdfrwt beam="1">  1        2 0.76235934E-02 0.12543514E+03</pdfrwt>
<pdfrwt beam="2">  1       -2 0.39296289E-01 0.12543514E+03</pdfrwt>
<totfact> 0.52608805E+03</totfact>
</mgrwt>
</event>
<event>
 7    1  0.5400401E-006  0.1550499E+03  0.7546771E-02  0.1201965E+00
         -1   -1    0    0    0  501 -0.00000000000E+00  0.00000000000E+00  0.62046169304E+03  0.62046169304E+03  0.00000000000E+00 0.  1.
          1   -1    0    0  501    0  0.00000000000E+00 -0.00000000000E+00 -0.36579367865E+02  0.36579367865E+02  0.00000000000E+00 0. -1.
         23    2    1    2    0    0  0.43744369690E+02 -0.80634381415E+02  0.41489597567E+03  0.44292114060E+03  0.12499997127E+03 0.  0.
          5    1    3    3  502    0  0.51777282078E+02 -0.47278760845E+02  0.39842350973E+03  0.40457329530E+03  0.47000000000E+01 0. -1.
         -5    1    3    3    0  502 -0.80329123873E+01 -0.33355620570E+02  0.16472465944E+02  0.38347845302E+02  0.47000000000E+01 0. -1.
        -11    1    1    2    0    0  0.23968059531E+01 -0.16807661606E+02  0.47012111962E+01  0.17616570442E+02  0.00000000000E+00 0. -1.
         11    1    1    2    0    0 -0.46141175643E+02  0.97442043021E+02  0.16428513830E+03  0.19650334985E+03  0.00000000000E+00 0.  1.
<mgrwt>
<rscale>  0 0.14879247E+03</rscale>
<asrwt>0</asrwt>
<pdfrwt beam="2">  1        1 0.56275955E-02 0.15504988E+03</pdfrwt>
<pdfrwt beam="1">  1       -1 0.95455637E-01 0.15504988E+03</pdfrwt>
<totfact> 0.15480059E+03</totfact>
</mgrwt>
</event>
<event>
 7    1  0.5400401E-006  0.1394502E+03  0.7546771E-02  0.1224427E+00
         -1   -1    0    0    0  501 -0.00000000000E+00  0.00000000000E+00  0.60895403103E+03  0.60895403103E+03  0.00000000000E+00 0.  1.
          1   -1    0    0  501    0  0.00000000000E+00 -0.00000000000E+00 -0.26168020662E+02  0.26168020662E+02  0.00000000000E+00 0. -1.
         23    2    1    2    0    0  0.29600008743E+02  0.57011499101E+02  0.34871478463E+03  0.37556404449E+03  0.12377349856E+03 0.  0.
          5    1    3    3  502    0 -0.22702168980E+02  0.29148035759E+02  0.28869382514E+03  0.29108626065E+03  0.47000000000E+01 0. -1.
         -5    1    3    3    0  502  0.52302177723E+02  0.27863463342E+02  0.60020959489E+02  0.84477783837E+02  0.47000000000E+01 0.  1.
        -11    1    1    2    0    0 -0.15137968769E+02  0.22170847632E+02  0.30393562009E+02  0.40552104690E+02  0.00000000000E+00 0.  1.
         11    1    1    2    0    0 -0.14462039974E+02 -0.79182346733E+02  0.20367766372E+03  0.21900590251E+03  0.00000000000E+00 0. -1.
<mgrwt>
<rscale>  0 0.13206227E+03</rscale>
<asrwt>0</asrwt>
<pdfrwt beam="2">  1        1 0.40258498E-02 0.13945017E+03</pdfrwt>
<pdfrwt beam="1">  1       -1 0.93685225E-01 0.13945017E+03</pdfrwt>
<totfact> 0.25399745E+03</totfact>
</mgrwt>
</event>
<event>
 7    1  0.5400401E-006  0.1810229E+03  0.7546771E-02  0.1172349E+00
         -2   -1    0    0    0  501 -0.00000000000E+00  0.00000000000E+00  0.41638611023E+03  0.41638611023E+03  0.00000000000E+00 0.  1.
          2   -1    0    0  501    0  0.00000000000E+00 -0.00000000000E+00 -0.70145416268E+02  0.70145416268E+02  0.00000000000E+00 0. -1.
         23    2    1    2    0    0  0.78197383700E+02 -0.10501676216E+03  0.20507176831E+03  0.27353926420E+03  0.12500379094E+03 0.  0.
          5    1    3    3  502    0  0.11071556845E+03 -0.96605577205E+02  0.17001927645E+03  0.22476480821E+03  0.47000000000E+01 0.  1.
         -5    1    3    3    0  502 -0.32518184752E+02 -0.84111849574E+01  0.35052491863E+02  0.48774455997E+02  0.47000000000E+01 0.  1.
        -11    1    1    2    0    0 -0.87843848453E+02  0.55346637761E+02  0.68291569450E+02  0.12427200200E+03  0.00000000000E+00 0. -1.
         11    1    1    2    0    0  0.96464647526E+01  0.49670124402E+02  0.72877356201E+02  0.88720260297E+02  0.00000000000E+00 0.  1.
<mgrwt>
<rscale>  0 0.17538139E+03</rscale>
<asrwt>0</asrwt>
<pdfrwt beam="2">  1        2 0.10791603E-01 0.18102292E+03</pdfrwt>
<pdfrwt beam="1">  1       -2 0.64059400E-01 0.18102292E+03</pdfrwt>
<totfact> 0.13221304E+03</totfact>
</mgrwt>
</event>
<event>
 7    1  0.5400401E-006  0.1321613E+03  0.7546771E-02  0.1237861E+00
         -1   -1    0    0    0  501 -0.00000000000E+00  0.00000000000E+00  0.15546674495E+03  0.15546674495E+03  0.00000000000E+00 0. -1.
          1   -1    0    0  501    0  0.00000000000E+00 -0.00000000000E+00 -0.87510979777E+02  0.87510979777E+02  0.00000000000E+00 0.  1.
         23    2    1    2    0    0  0.48204646432E+01  0.42624157481E+02  0.50948206524E+02  0.14164150971E+03  0.12500616723E+03 0.  0.
          5    1    3    3  502    0 -0.55120024648E+02  0.66215722235E+00  0.60180885310E+01  0.55650363512E+02  0.47000000000E+01 0.  1.
         -5    1    3    3    0  502  0.59940489292E+02  0.41962000259E+02  0.44930117993E+02  0.85991146202E+02  0.47000000000E+01 0.  1.
        -11    1    1    2    0    0  0.32100808450E+02 -0.45844301983E+02 -0.81312078270E+01  0.56553324113E+02  0.00000000000E+00 0.  1.
         11    1    1    2    0    0 -0.36921273093E+02  0.32201445020E+01  0.25138766474E+02  0.44782890899E+02  0.00000000000E+00 0. -1.
<mgrwt>
<rscale>  0 0.12323049E+03</rscale>
<asrwt>0</asrwt>
<pdfrwt beam="2">  1        1 0.13463228E-01 0.13216126E+03</pdfrwt>
<pdfrwt beam="1">  1       -1 0.23917961E-01 0.13216126E+03</pdfrwt>
<totfact> 0.61158338E+03</totfact>
</mgrwt>
</event>
<event>
 7    1  0.5400401E-006  0.2271956E+03  0.7546771E-02  0.1131944E+00
         -1   -1    0    0    0  501 -0.00000000000E+00  0.00000000000E+00  0.30237442220E+03  0.30237442220E+03  0.00000000000E+00 0.  1.
          1   -1    0    0  501    0  0.00000000000E+00 -0.00000000000E+00 -0.18156642409E+03  0.18156642409E+03  0.00000000000E+00 0. -1.
         23    2    1    2    0    0  0.37022368609E+02  0.18606823018E+03  0.15033180104E+03  0.27242888562E+03  0.12500322098E+03 0.  0.
          5    1    3    3  502    0 -0.45442689341E+02  0.47699694820E+02  0.43738001177E+02  0.79217432724E+02  0.47000000000E+01 0. -1.
         -5    1    3    3    0  502  0.82465057950E+02  0.13836853536E+03  0.10659379986E+03  0.19321145289E+03  0.47000000000E+01 0. -1.
        -11    1    1    2    0    0 -0.14882684563E+01 -0.10737800558E+03  0.23850669640E+02  0.11000502474E+03  0.00000000000E+00 0.  1.
         11    1    1    2    0    0 -0.35534100153E+02 -0.78690224602E+02 -0.53374472565E+02  0.10150693594E+03  0.00000000000E+00 0. -1.
<mgrwt>
<rscale>  0 0.22262070E+03</rscale>
<asrwt>0</asrwt>
<pdfrwt beam="2">  1        1 0.27933296E-01 0.22719561E+03</pdfrwt>
<pdfrwt beam="1">  1       -1 0.46519142E-01 0.22719561E+03</pdfrwt>
<totfact> 0.77971916E+02</totfact>
</mgrwt>
</event>
<event>
 7    1  0.5400401E-006  0.1316397E+03  0.7546771E-02  0.1233077E+00
          2   -1    0    0  501    0  0.00000000000E+00  0.00000000000E+00  0.48242362158E+03  0.48242362158E+03  0.00000000000E+00 0. -1.
         -2   -1    0    0    0  501 -0.00000000000E+00 -0.00000000000E+00 -0.39303090249E+02  0.39303090249E+02  0.00000000000E+00 0.  1.
         23    2    1    2    0    0  0.32575250527E+02 -0.59173103990E+02  0.11367550661E+03  0.17392853385E+03  0.11298854323E+03 0.  0.
          5    1    3    3  502    0  0.26187196053E+01 -0.99421046501E+01  0.11552693352E+03  0.11607870392E+03  0.47000000000E+01 0. -1.
         -5    1    3    3    0  502  0.29956530922E+02 -0.49230999340E+02 -0.18514269084E+01  0.57849829926E+02  0.47000000000E+01 0.  1.
        -11    1    1    2    0    0 -0.50160268779E+02  0.18345991521E+02  0.93303234337E+02  0.10750870433E+03  0.00000000000E+00 0.  1.
         11    1    1    2    0    0  0.17585018252E+02  0.40827112469E+02  0.23614179039E+03  0.24028947365E+03  0.00000000000E+00 0. -1.
<mgrwt>
<rscale>  0 0.12628365E+03</rscale>
<asrwt>0</asrwt>
<pdfrwt beam="1">  1        2 0.74219015E-01 0.13163971E+03</pdfrwt>
<pdfrwt beam="2">  1       -2 0.60466296E-02 0.13163971E+03</pdfrwt>
<totfact> 0.90195564E+03</totfact>
</mgrwt>
</event>
<event>
 7    1  0.5400401E-006  0.1415723E+03  0.7546771E-02  0.1225024E+00
          2   -1    0    0  501    0  0.00000000000E+00  0.00000000000E+00  0.32339304635E+03  0.32339304635E+03  0.00000000000E+00 0. -1.
         -2   -1    0    0    0  501 -0.00000000000E+00 -0.00000000000E+00 -0.52330743906E+02  0.52330743906E+02  0.00000000000E+00 0.  1.
         23    2    1    2    0    0  0.66341513838E+02  0.54348106786E+01  0.95711792600E+02  0.17089021201E+03  0.12494792392E+03 0.  0.
          5    1    3    3  502    0 -0.14360773385E+02 -0.29417091462E+02  0.72748500608E+02  0.79912648705E+02  0.47000000000E+01 0. -1.
         -5    1    3    3    0  502  0.80702287223E+02  0.34851902140E+02  0.22963291991E+02  0.90977563305E+02  0.47000000000E+01 0.  1.
        -11    1    1    2    0    0  0.18761944795E+02  0.50560440804E+01  0.42240833934E+02  0.46495829981E+02  0.00000000000E+00 0.  1.
         11    1    1    2    0    0 -0.85103458633E+02 -0.10490854759E+02  0.13310967591E+03  0.15833774826E+03  0.00000000000E+00 0. -1.
<mgrwt>
<rscale>  0 0.13165263E+03</rscale>
<asrwt>0</asrwt>
<pdfrwt beam="1">  1        2 0.49752775E-01 0.14157230E+03</pdfrwt>
<pdfrwt beam="2">  1       -2 0.80508839E-02 0.14157230E+03</pdfrwt>
<totfact> 0.89757596E+03</totfact>
</mgrwt>
</event>
<event>
 7    1  0.5400401E-006  0.1885187E+03  0.7546771E-02  0.1164887E+00
         -2   -1    0    0    0  501 -0.00000000000E+00  0.00000000000E+00  0.76348894660E+02  0.76348894660E+02  0.00000000000E+00 0.  1.
          2   -1    0    0  501    0  0.00000000000E+00 -0.00000000000E+00 -0.42881441775E+03  0.42881441775E+03  0.00000000000E+00 0. -1.
         23    2    1    2    0    0  0.12625066897E+03  0.63046463172E+02 -0.14131532880E+03  0.23560420314E+03  0.12500092179E+03 0.  0.
          5    1    3    3  502    0  0.28185437173E+02  0.55753495156E+02 -0.11926218083E+03  0.13471610470E+03  0.47000000000E+01 0. -1.
         -5    1    3    3    0  502  0.98065231802E+02  0.72929680162E+01 -0.22053147974E+02  0.10088809844E+03  0.47000000000E+01 0. -1.
        -11    1    1    2    0    0 -0.83802979963E+02  0.47220643273E+01 -0.13604278124E+03  0.15985266864E+03  0.00000000000E+00 0.  1.
         11    1    1    2    0    0 -0.42447689012E+02 -0.67768527499E+02 -0.75107413049E+02  0.10970644063E+03  0.00000000000E+00 0. -1.
<mgrwt>
<rscale>  0 0.18304637E+03</rscale>
<asrwt>0</asrwt>
<pdfrwt beam="2">  1        2 0.65971450E-01 0.18851875E+03</pdfrwt>
<pdfrwt beam="1">  1       -2 0.11745984E-01 0.18851875E+03</pdfrwt>
<totfact> 0.37161158E+03</totfact>
</mgrwt>
</event>
<event>
 7    1  0.5400401E-006  0.1167587E+03  0.7546771E-02  0.1256574E+00
          2   -1    0    0  501    0  0.00000000000E+00  0.00000000000E+00  0.73527613289E+03  0.73527613289E+03  0.00000000000E+00 0. -1.
         -2   -1    0    0    0  501 -0.00000000000E+00 -0.00000000000E+00 -0.16100823236E+02  0.16100823236E+02  0.00000000000E+00 0.  1.
         23    2    1    2    0    0  0.13557328554E+02  0.36704678441E+02  0.34647412632E+03  0.36561854643E+03  0.11000712116E+03 0.  0.
          5    1    3    3  502    0 -0.37157149338E+01  0.73741513806E+02  0.19200825740E+03  0.20576899258E+03  0.47000000000E+01 0. -1.
         -5    1    3    3    0  502  0.17273043488E+02 -0.37036835365E+02  0.15446586892E+03  0.15984955385E+03  0.47000000000E+01 0.  1.
        -11    1    1    2    0    0 -0.48027609093E+02  0.69449811064E+00  0.15957186484E+03  0.16664427267E+03  0.00000000000E+00 0. -1.
         11    1    1    2    0    0  0.34470280539E+02 -0.37399176552E+02  0.21312931848E+03  0.21911413703E+03  0.00000000000E+00 0.  1.
<mgrwt>
<rscale>  0 0.11218633E+03</rscale>
<asrwt>0</asrwt>
<pdfrwt beam="1">  1        2 0.11311938E+00 0.11675873E+03</pdfrwt>
<pdfrwt beam="2">  1       -2 0.24770503E-02 0.11675873E+03</pdfrwt>
<totfact> 0.20780895E+04</totfact>
</mgrwt>
</event>
<event>
 7    1  0.5400401E-006  0.1559687E+03  0.7546771E-02  0.1201440E+00
         -1   -1    0    0    0  501 -0.00000000000E+00  0.00000000000E+00  0.60576200421E+03  0.60576200421E+03  0.00000000000E+00 0.  1.
          1   -1    0    0  501    0  0.00000000000E+00 -0.00000000000E+00 -0.38208293838E+02  0.38208293838E+02  0.00000000000E+00 0. -1.
         23    2    1    2    0    0  0.74068964876E+02 -0.56688528125E+02  0.19834629010E+03  0.25232414025E+03  0.12500568058E+03 0.  0.
          5    1    3    3  502    0  0.47275073480E+02 -0.95656158085E+02  0.15335383450E+03  0.18688103624E+03  0.47000000000E+01 0.  1.
         -5    1    3    3    0  502  0.26793891396E+02  0.38967629960E+02  0.44992455603E+02  0.65443104006E+02  0.47000000000E+01 0.  1.
        -11    1    1    2    0    0  0.17140660847E+02  0.30683811365E+02  0.83063472567E+02  0.90193342377E+02  0.00000000000E+00 0. -1.
         11    1    1    2    0    0 -0.91209625723E+02  0.26004716760E+02  0.28614394770E+03  0.30145281542E+03  0.00000000000E+00 0.  1.
<mgrwt>
<rscale>  0 0.14921601E+03</rscale>
<asrwt>0</asrwt>
<pdfrwt beam="2">  1        1 0.58781995E-02 0.15596865E+03</pdfrwt>
<pdfrwt beam="1">  1       -1 0.93194148E-01 0.15596865E+03</pdfrwt>
<totfact> 0.15365216E+03</totfact>
</mgrwt>
</event>
<event>
 6    1  0.5400401E-006  0.1973282E+03  0.7546771E-02  0.1178253E+00
          1   -1    0    0  501    0  0.00000000000E+00  0.00000000000E+00  0.35147958789E+03  0.35147958789E+03  0.00000000000E+00 0. -1.
         -1   -1    0    0    0  501 -0.00000000000E+00 -0.00000000000E+00 -0.97890977236E+02  0.97890977236E+02  0.00000000000E+00 0.  1.
          5    1    1    2  502    0  0.14228631789E+02  0.36011911770E+02 -0.59402278741E+02  0.71063580487E+02  0.47000000000E+01 0. -1.
         -5    1    1    2    0  502 -0.56122078557E+02 -0.75165545950E+02  0.87294423640E+02  0.12822618063E+03  0.47000000000E+01 0.  1.
        -11    1    1    2    0    0 -0.15688062970E+01 -0.23748833552E+02  0.10136653368E+03  0.10412320778E+03  0.00000000000E+00 0.  1.
         11    1    1    2    0    0  0.43462253065E+02  0.62902467731E+02  0.12432993208E+03  0.14595759623E+03  0.00000000000E+00 0. -1.
<mgrwt>
<rscale>  0 0.16961188E+03</rscale>
<asrwt>0</asrwt>
<pdfrwt beam="1">  1        1 0.54073782E-01 0.19732825E+03</pdfrwt>
<pdfrwt beam="2">  1       -1 0.15060150E-01 0.19732825E+03</pdfrwt>
<totfact> 0.22599614E+03</totfact>
</mgrwt>
</event>
<event>
 7    1  0.5400401E-006  0.2250665E+03  0.7546771E-02  0.1133328E+00
          2   -1    0    0  501    0  0.00000000000E+00  0.00000000000E+00  0.69504441351E+03  0.69504441351E+03  0.00000000000E+00 0. -1.
         -2   -1    0    0    0  501 -0.00000000000E+00 -0.00000000000E+00 -0.80347173804E+02  0.80347173804E+02  0.00000000000E+00 0.  1.
         23    2    1    2    0    0 -0.16390029701E+03  0.90373292660E+02  0.16269867639E+03  0.27771526629E+03  0.12499708174E+03 0.  0.
          5    1    3    3  502    0 -0.20904771512E+02  0.17117876212E+02  0.10245204647E+03  0.10605914852E+03  0.47000000000E+01 0. -1.
         -5    1    3    3    0  502 -0.14299552550E+03  0.73255416448E+02  0.60246629918E+02  0.17165611777E+03  0.47000000000E+01 0. -1.
        -11    1    1    2    0    0  0.11673508385E+03 -0.16033910594E+02  0.22062660612E+03  0.25012050179E+03  0.00000000000E+00 0. -1.
         11    1    1    2    0    0  0.47165213155E+02 -0.74339382066E+02  0.23137195720E+03  0.24755581923E+03  0.00000000000E+00 0.  1.
<mgrwt>
<rscale>  0 0.22074610E+03</rscale>
<asrwt>0</asrwt>
<pdfrwt beam="1">  1        2 0.10692991E+00 0.22506646E+03</pdfrwt>
<pdfrwt beam="2">  1       -2 0.12361104E-01 0.22506646E+03</pdfrwt>
<totfact> 0.19852491E+03</totfact>
</mgrwt>
</event>
<event>
 6    1  0.5400401E-006  0.1508508E+03  0.7546771E-02  0.1209649E+00
          1   -1    0    0  501    0  0.00000000000E+00  0.00000000000E+00  0.62212223247E+03  0.62212223247E+03  0.00000000000E+00 0. -1.
         -1   -1    0    0    0  501 -0.00000000000E+00 -0.00000000000E+00 -0.32959855939E+02  0.32959855939E+02  0.00000000000E+00 0.  1.
          5    1    1    2  502    0  0.29919167066E+02  0.42850715813E+02  0.14017120454E+02  0.54313074572E+02  0.47000000000E+01 0. -1.
         -5    1    1    2    0  502  0.45265475335E+02 -0.23402035495E+02  0.20731502609E+03  0.21353741725E+03  0.47000000000E+01 0. -1.
        -11    1    1    2    0    0  0.60470054665E+01 -0.14996865386E+02  0.74874802706E+01  0.17819500759E+02  0.00000000000E+00 0.  1.
         11    1    1    2    0    0 -0.81231647868E+02 -0.44518149321E+01  0.36034274972E+03  0.36941209583E+03  0.00000000000E+00 0. -1.
<mgrwt>
<rscale>  0 0.14277021E+03</rscale>
<asrwt>0</asrwt>
<pdfrwt beam="1">  1        1 0.95711104E-01 0.15085081E+03</pdfrwt>
<pdfrwt beam="2">  1       -1 0.50707475E-02 0.15085081E+03</pdfrwt>
<totfact> 0.55907712E+03</totfact>
</mgrwt>
</event>
<event>
 7    1  0.5400401E-006  0.1339688E+03  0.7546771E-02  0.1234659E+00
         -1   -1    0    0    0  501 -0.00000000000E+00  0.00000000000E+00  0.55204705128E+02  0.55204705128E+02  0.00000000000E+00 0.  1.
          1   -1    0    0  501    0  0.00000000000E+00 -0.00000000000E+00 -0.29198161195E+03  0.29198161195E+03  0.00000000000E+00 0. -1.
         23    2    1    2    0    0  0.18472191588E+02  0.44510099090E+02 -0.69158281035E+02  0.15076640259E+03  0.12500107812E+03 0.  0.
          5    1    3    3  502    0  0.66041984216E+02  0.48988263341E+02 -0.26438665514E+02  0.86501367958E+02  0.47000000000E+01 0.  1.
         -5    1    3    3    0  502 -0.47569792629E+02 -0.44781642516E+01 -0.42719615521E+02  0.64265034630E+02  0.47000000000E+01 0.  1.
        -11    1    1    2    0    0  0.90581703631E+01 -0.56265586944E+02 -0.52546231139E+02  0.77517566598E+02  0.00000000000E+00 0.  1.
         11    1    1    2    0    0 -0.27530361951E+02  0.11755487854E+02 -0.11507239465E+03  0.11890234789E+03  0.00000000000E+00 0. -1.
<mgrwt>
<rscale>  0 0.12526296E+03</rscale>
<asrwt>0</asrwt>
<pdfrwt beam="2">  1        1 0.44920249E-01 0.13396880E+03</pdfrwt>
<pdfrwt beam="1">  1       -1 0.84930314E-02 0.13396880E+03</pdfrwt>
<totfact> 0.67789796E+03</totfact>
</mgrwt>
</event>
<event>
 7    1  0.5400401E-006  0.1697334E+03  0.7546771E-02  0.1184461E+00
          2   -1    0    0  501    0  0.00000000000E+00  0.00000000000E+00  0.15142804908E+03  0.15142804908E+03  0.00000000000E+00 0. -1.
         -2   -1    0    0    0  501 -0.00000000000E+00 -0.00000000000E+00 -0.20051663447E+03  0.20051663447E+03  0.00000000000E+00 0.  1.
         23    2    1    2    0    0 -0.89236871183E+02 -0.72254801026E+02 -0.98962749131E+02  0.19647662198E+03  0.12500184727E+03 0.  0.
          5    1    3    3  502    0 -0.83143481695E+02 -0.88552934467E+02 -0.11859382990E+03  0.16982652102E+03  0.47000000000E+01 0.  1.
         -5    1    3    3    0  502 -0.60933894883E+01  0.16298133442E+02  0.19631080769E+02  0.26650100963E+02  0.47000000000E+01 0.  1.
        -11    1    1    2    0    0 -0.40271104176E+01  0.50430181236E+02  0.92674560556E+01  0.51432543585E+02  0.00000000000E+00 0.  1.
         11    1    1    2    0    0  0.93263981601E+02  0.21824619789E+02  0.40606707680E+02  0.10403551798E+03  0.00000000000E+00 0. -1.
<mgrwt>
<rscale>  0 0.16380991E+03</rscale>
<asrwt>0</asrwt>
<pdfrwt beam="1">  1        2 0.23296623E-01 0.16973343E+03</pdfrwt>
<pdfrwt beam="2">  1       -2 0.30848713E-01 0.16973343E+03</pdfrwt>
<totfact> 0.22180423E+03</totfact>
</mgrwt>
</event>
<event>
 7    1  0.5400401E-006  0.1338985E+03  0.7546771E-02  0.1234993E+00
          1   -1    0    0  501    0  0.00000000000E+00  0.00000000000E+00  0.51095703113E+02  0.51095703113E+02  0.00000000000E+00 0. -1.
         -1   -1    0    0    0  501 -0.00000000000E+00 -0.00000000000E+00 -0.28597204454E+03  0.28597204454E+03  0.00000000000E+00 0.  1.
         23    2    1    2    0    0 -0.44138405426E+02  0.18867557646E+02 -0.16961600595E+03  0.21609813809E+03  0.12499852897E+03 0.  0.
          5    1    3    3  502    0  0.22281543125E+02  0.47653799605E+01  0.90064096399E+01  0.24947573525E+02  0.47000000000E+01 0. -1.
         -5    1    3    3    0  502 -0.66419948551E+02  0.14102177685E+02 -0.17862241559E+03  0.19115056457E+03  0.47000000000E+01 0. -1.
        -11    1    1    2    0    0  0.65521655760E+02 -0.29412688762E+02 -0.65387339348E+02  0.97127224715E+02  0.00000000000E+00 0.  1.
         11    1    1    2    0    0 -0.21383250333E+02  0.10545131117E+02  0.12700387826E+00  0.23842384845E+02  0.00000000000E+00 0. -1.
<mgrwt>
<rscale>  0 0.12504864E+03</rscale>
<asrwt>0</asrwt>
<pdfrwt beam="1">  1        1 0.78608773E-02 0.13389853E+03</pdfrwt>
<pdfrwt beam="2">  1       -1 0.43995700E-01 0.13389853E+03</pdfrwt>
<totfact> 0.44245274E+03</totfact>
</mgrwt>
</event>
<event>
 7    1  0.5400401E-006  0.1480708E+03  0.7546771E-02  0.1212009E+00
          2   -1    0    0  501    0  0.00000000000E+00  0.00000000000E+00  0.76132786006E+03  0.76132786006E+03  0.00000000000E+00 0. -1.
         -2   -1    0    0    0  501 -0.00000000000E+00 -0.00000000000E+00 -0.23913724282E+02  0.23913724282E+02  0.00000000000E+00 0.  1.
         23    2    1    2    0    0 -0.79246031164E+02  0.47243736274E+01  0.39468396845E+03  0.42154523512E+03  0.12499078820E+03 0.  0.
          5    1    3    3  502    0  0.23654105644E+02  0.13841063376E+02  0.24077366451E+02  0.36781806975E+02  0.47000000000E+01 0.  1.
         -5    1    3    3    0  502 -0.10290013681E+03 -0.91166897481E+01  0.37060660200E+03  0.38476342814E+03  0.47000000000E+01 0.  1.
        -11    1    1    2    0    0  0.17870979773E+02 -0.44547726313E+02  0.15281913702E+03  0.16017977549E+03  0.00000000000E+00 0.  1.
         11    1    1    2    0    0  0.61375051391E+02  0.39823352686E+02  0.18991103031E+03  0.20351657374E+03  0.00000000000E+00 0. -1.
<mgrwt>
<rscale>  0 0.14098577E+03</rscale>
<asrwt>0</asrwt>
<pdfrwt beam="1">  1        2 0.11712734E+00 0.14807076E+03</pdfrwt>
<pdfrwt beam="2">  1       -2 0.36790351E-02 0.14807076E+03</pdfrwt>
<totfact> 0.11338958E+04</totfact>
</mgrwt>
</event>
<event>
 7    1  0.5400401E-006  0.1953811E+03  0.7546771E-02  0.1158462E+00
         -2   -1    0    0    0  501 -0.00000000000E+00  0.00000000000E+00  0.80941269414E+02  0.80941269414E+02  0.00000000000E+00 0.  1.
          2   -1    0    0  501    0  0.00000000000E+00 -0.00000000000E+00 -0.43460612349E+03  0.43460612349E+03  0.00000000000E+00 0. -1.
         23    2    1    2    0    0  0.84204139802E+01  0.14992334198E+03 -0.22835304994E+03  0.30053102727E+03  0.12500348433E+03 0.  0.
          5    1    3    3  502    0  0.35503966814E+02  0.11113368022E+03 -0.22423185940E+03  0.25281068670E+03  0.47000000000E+01 0. -1.
         -5    1    3    3    0  502 -0.27083552834E+02  0.38789661757E+02 -0.41211905425E+01  0.47720340577E+02  0.47000000000E+01 0. -1.
        -11    1    1    2    0    0  0.30496783859E+02 -0.63291768917E+02 -0.88886483511E+02  0.11329920030E+03  0.00000000000E+00 0. -1.
         11    1    1    2    0    0 -0.38917197839E+02 -0.86631573065E+02 -0.36425320625E+02  0.10171716533E+03  0.00000000000E+00 0.  1.
<mgrwt>
<rscale>  0 0.18999886E+03</rscale>
<asrwt>0</asrwt>
<pdfrwt beam="2">  1        2 0.66862481E-01 0.19538112E+03</pdfrwt>
<pdfrwt beam="1">  1       -2 0.12452503E-01 0.19538112E+03</pdfrwt>
<totfact> 0.33379461E+03</totfact>
</mgrwt>
</event>
<event>
 7    1  0.5400401E-006  0.1399940E+03  0.7546771E-02  0.1224849E+00
          2   -1    0    0  501    0  0.00000000000E+00  0.00000000000E+00  0.47691638201E+02  0.47691638201E+02  0.00000000000E+00 0. -1.
         -2   -1    0    0    0  501 -0.00000000000E+00 -0.00000000000E+00 -0.32825439759E+03  0.32825439759E+03  0.00000000000E+00 0.  1.
         23    2    1    2    0    0  0.22570671106E+02  0.58848720925E+02 -0.14722506876E+03  0.20315893829E+03  0.12500290471E+03 0.  0.
          5    1    3    3  502    0  0.83211612295E+01  0.96540263761E+02 -0.11996716335E+03  0.15428374683E+03  0.47000000000E+01 0.  1.
         -5    1    3    3    0  502  0.14249509877E+02 -0.37691542837E+02 -0.27257905408E+02  0.48875191461E+02  0.47000000000E+01 0.  1.
        -11    1    1    2    0    0 -0.18156968480E+02 -0.48231877408E+01  0.87400858101E+01  0.20720225490E+02  0.00000000000E+00 0. -1.
         11    1    1    2    0    0 -0.44137026261E+01 -0.54025533184E+02 -0.14207777644E+03  0.15206687202E+03  0.00000000000E+00 0.  1.
<mgrwt>
<rscale>  0 0.13177243E+03</rscale>
<asrwt>0</asrwt>
<pdfrwt beam="1">  1        2 0.73371753E-02 0.13999405E+03</pdfrwt>
<pdfrwt beam="2">  1       -2 0.50500675E-01 0.13999405E+03</pdfrwt>
<totfact> 0.34274387E+03</totfact>
</mgrwt>
</event>
<event>
 7    1  0.5400401E-006  0.1165917E+03  0.7546771E-02  0.1255334E+00
          4   -1    0    0  501    0  0.00000000000E+00  0.00000000000E+00  0.73399540880E+02  0.73399540880E+02  0.00000000000E+00 0. -1.
         -4   -1    0    0    0  501 -0.00000000000E+00 -0.00000000000E+00 -0.17155747731E+03  0.17155747731E+03  0.00000000000E+00 0.  1.
         23    2    1    2    0    0  0.37361798136E+02  0.44643434889E+01 -0.78787248872E+02  0.14071619455E+03  0.11035299045E+03 0.  0.
          5    1    3    3  502    0  0.15707154058E+02 -0.25380434433E+01  0.27391514230E+02  0.32024075395E+02  0.47000000000E+01 0. -1.
         -5    1    3    3    0  502  0.21654644078E+02  0.70023869322E+01 -0.10617876310E+03  0.10869211916E+03  0.47000000000E+01 0.  1.
        -11    1    1    2    0    0 -0.56798354524E+02  0.22184956828E+02  0.78426133473E+01  0.61479524804E+02  0.00000000000E+00 0. -1.
         11    1    1    2    0    0  0.19436556388E+02 -0.26649300317E+02 -0.27213300901E+02  0.42761298829E+02  0.00000000000E+00 0.  1.
<mgrwt>
<rscale>  0 0.11287619E+03</rscale>
<asrwt>0</asrwt>
<pdfrwt beam="1">  1        4 0.11292237E-01 0.11659167E+03</pdfrwt>
<pdfrwt beam="2">  1       -4 0.26393458E-01 0.11659167E+03</pdfrwt>
<totfact> 0.13300404E+03</totfact>
</mgrwt>
</event>
<event>
 7    1  0.5400401E-006  0.1250586E+03  0.7546771E-02  0.1250691E+00
          2   -1    0    0  501    0  0.00000000000E+00  0.00000000000E+00  0.96610626760E+03  0.96610626760E+03  0.00000000000E+00 0. -1.
         -2   -1    0    0    0  501 -0.00000000000E+00 -0.00000000000E+00 -0.12087854637E+02  0.12087854637E+02  0.00000000000E+00 0.  1.
         23    2    1    2    0    0 -0.23711364416E+01 -0.30052139971E+01  0.56222203914E+03  0.57596291961E+03  0.12500003952E+03 0.  0.
          5    1    3    3  502    0 -0.19513947254E+02  0.38987179594E+02  0.77062608432E+02  0.88665269009E+02  0.47000000000E+01 0.  1.
         -5    1    3    3    0  502  0.17142810812E+02 -0.41992393592E+02  0.48515943071E+03  0.48729765061E+03  0.47000000000E+01 0.  1.
        -11    1    1    2    0    0 -0.31458856138E+02  0.29768110552E+02  0.13327447570E+03  0.14013524150E+03  0.00000000000E+00 0.  1.
         11    1    1    2    0    0  0.33829992579E+02 -0.26762896554E+02  0.25852189812E+03  0.26209596112E+03  0.00000000000E+00 0. -1.
<mgrwt>
<rscale>  0 0.11551154E+03</rscale>
<asrwt>0</asrwt>
<pdfrwt beam="1">  1        2 0.14863167E+00 0.12505864E+03</pdfrwt>
<pdfrwt beam="2">  1       -2 0.18596707E-02 0.12505864E+03</pdfrwt>
<totfact> 0.22413951E+04</totfact>
</mgrwt>
</event>
<event>
 6    1  0.5400401E-006  0.4750188E+03  0.7546771E-02  0.1048604E+00
         -2   -1    0    0    0  501 -0.00000000000E+00  0.00000000000E+00  0.11966354176E+03  0.11966354176E+03  0.00000000000E+00 0.  1.
          2   -1    0    0  501    0  0.00000000000E+00 -0.00000000000E+00 -0.10370840127E+04  0.10370840127E+04  0.00000000000E+00 0. -1.
          5    1    1    2  502    0  0.75090709909E+02  0.52676940375E+02 -0.41926141859E+03  0.42920356694E+03  0.47000000000E+01 0. -1.
         -5    1    1    2    0  502 -0.17389164924E+03 -0.17356662034E+03 -0.76427303668E+02  0.25734587643E+03  0.47000000000E+01 0.  1.
        -11    1    1    2    0    0  0.52865076833E+02  0.14213921310E+03 -0.26297786418E+03  0.30357145666E+03  0.00000000000E+00 0.  1.
         11    1    1    2    0    0  0.45935862496E+02 -0.21249533138E+02 -0.15875388450E+03  0.16662665443E+03  0.00000000000E+00 0. -1.
<mgrwt>
<rscale>  0 0.38637095E+03</rscale>
<asrwt>0</asrwt>
<pdfrwt beam="2">  1        2 0.15955139E+00 0.47501877E+03</pdfrwt>
<pdfrwt beam="1">  1       -2 0.18409776E-01 0.47501877E+03</pdfrwt>
<totfact> 0.59860603E+02</totfact>
</mgrwt>
</event>
<event>
 6    1  0.5400401E-006  0.2374364E+03  0.7546771E-02  0.1156117E+00
          2   -1    0    0  501    0  0.00000000000E+00  0.00000000000E+00  0.38387523363E+03  0.38387523363E+03  0.00000000000E+00 0. -1.
         -2   -1    0    0    0  501 -0.00000000000E+00 -0.00000000000E+00 -0.10172020834E+03  0.10172020834E+03  0.00000000000E+00 0.  1.
          5    1    1    2  502    0  0.11128489838E+03 -0.18425746060E+02  0.11700035228E+03  0.16258846564E+03  0.47000000000E+01 0. -1.
         -5    1    1    2    0  502 -0.66439804493E+02  0.66174981433E+01 -0.50657451082E+02  0.83942279293E+02  0.47000000000E+01 0.  1.
        -11    1    1    2    0    0 -0.53123175214E+02 -0.57334325779E+01  0.21283652774E+03  0.21944095228E+03  0.00000000000E+00 0.  1.
         11    1    1    2    0    0  0.82780813246E+01  0.17541680495E+02  0.29755963461E+01  0.19623744766E+02  0.00000000000E+00 0. -1.
<mgrwt>
<rscale>  0 0.19262206E+03</rscale>
<asrwt>0</asrwt>
<pdfrwt beam="1">  1        2 0.59057728E-01 0.23743637E+03</pdfrwt>
<pdfrwt beam="2">  1       -2 0.15649263E-01 0.23743637E+03</pdfrwt>
<totfact> 0.26443680E+03</totfact>
</mgrwt>
</event>
<event>
 6    1  0.5400401E-006  0.1215580E+04  0.7546771E-02  0.9099327E-01
         -1   -1    0    0    0  501 -0.00000000000E+00  0.00000000000E+00  0.45260648966E+03  0.45260648966E+03  0.00000000000E+00 0.  1.
          1   -1    0    0  501    0  0.00000000000E+00 -0.00000000000E+00 -0.81618097028E+03  0.81618097028E+03  0.00000000000E+00 0. -1.
          5    1    1    2  502    0  0.27878937758E+02 -0.14954153301E+02  0.24225324481E+03  0.24435545112E+03  0.47000000000E+01 0. -1.
         -5    1    1    2    0  502 -0.27132045250E+02  0.11221108593E+03  0.18158141550E+03  0.21522401386E+03  0.47000000000E+01 0.  1.
        -11    1    1    2    0    0  0.52572681251E+02  0.17781872163E+02 -0.16718374479E+03  0.17615472266E+03  0.00000000000E+00 0.  1.
         11    1    1    2    0    0 -0.53319573759E+02 -0.11503880479E+03 -0.62022539614E+03  0.63305327230E+03  0.00000000000E+00 0. -1.
<mgrwt>
<rscale>  0 0.12155802E+04</rscale>
<asrwt>0</asrwt>
<pdfrwt beam="2">  1        1 0.12556630E+00 0.12155802E+04</pdfrwt>
<pdfrwt beam="1">  1       -1 0.69631767E-01 0.12155802E+04</pdfrwt>
<totfact> 0.44150764E+01</totfact>
</mgrwt>
</event>
<event>
 7    1  0.5400401E-006  0.1600038E+03  0.7546771E-02  0.1196267E+00
          2   -1    0    0  501    0  0.00000000000E+00  0.00000000000E+00  0.14340469363E+03  0.14340469363E+03  0.00000000000E+00 0. -1.
         -2   -1    0    0    0  501 -0.00000000000E+00 -0.00000000000E+00 -0.21362810484E+03  0.21362810484E+03  0.00000000000E+00 0.  1.
         23    2    1    2    0    0 -0.85352280375E+02  0.51873669023E+02 -0.13270404627E+03  0.20787397662E+03  0.12500134781E+03 0.  0.
          5    1    3    3  502    0 -0.11051324001E+03  0.39236312359E+02 -0.13541678703E+03  0.17919949954E+03  0.47000000000E+01 0. -1.
         -5    1    3    3    0  502  0.25160959639E+02  0.12637356663E+02  0.27127407535E+01  0.28674477079E+02  0.47000000000E+01 0. -1.
        -11    1    1    2    0    0  0.21319901583E+02  0.18103680685E+02  0.44586895275E+02  0.52633379980E+02  0.00000000000E+00 0. -1.
         11    1    1    2    0    0  0.64032378792E+02 -0.69977349707E+02  0.17893739783E+02  0.96525441875E+02  0.00000000000E+00 0.  1.
<mgrwt>
<rscale>  0 0.15347445E+03</rscale>
<asrwt>0</asrwt>
<pdfrwt beam="1">  1        2 0.22062261E-01 0.16000383E+03</pdfrwt>
<pdfrwt beam="2">  1       -2 0.32865862E-01 0.16000383E+03</pdfrwt>
<totfact> 0.20954938E+03</totfact>
</mgrwt>
</event>
<event>
 7    1  0.5400401E-006  0.1837886E+03  0.7546771E-02  0.1170188E+00
         -4   -1    0    0    0  501 -0.00000000000E+00  0.00000000000E+00  0.28819541270E+03  0.28819541270E+03  0.00000000000E+00 0. -1.
          4   -1    0    0  501    0  0.00000000000E+00 -0.00000000000E+00 -0.15530100038E+03  0.15530100038E+03  0.00000000000E+00 0.  1.
         23    2    1    2    0    0 -0.83697936229E+02  0.10558592287E+03  0.19845709609E+03  0.27048743320E+03  0.12499800356E+03 0.  0.
          5    1    3    3  502    0 -0.13721451806E+02 -0.13048729649E+02 -0.89525073013E+01  0.21465902546E+02  0.47000000000E+01 0.  1.
         -5    1    3    3    0  502 -0.69976484424E+02  0.11863465252E+03  0.20740960339E+03  0.24902153066E+03  0.47000000000E+01 0.  1.
        -11    1    1    2    0    0  0.27307627107E+02 -0.67124094499E+02 -0.74779569595E+02  0.10413133337E+03  0.00000000000E+00 0.  1.
         11    1    1    2    0    0  0.56390309122E+02 -0.38461828375E+02  0.92168858219E+01  0.68877646512E+02  0.00000000000E+00 0. -1.
<mgrwt>
<rscale>  0 0.17755795E+03</rscale>
<asrwt>0</asrwt>
<pdfrwt beam="2">  1        4 0.23892462E-01 0.18378855E+03</pdfrwt>
<pdfrwt beam="1">  1       -4 0.44337756E-01 0.18378855E+03</pdfrwt>
<totfact> 0.14166533E+02</totfact>
</mgrwt>
</event>
<event>
 7    1  0.5400401E-006  0.1338317E+03  0.7546771E-02  0.1234825E+00
          1   -1    0    0  501    0  0.00000000000E+00  0.00000000000E+00  0.35556390682E+03  0.35556390682E+03  0.00000000000E+00 0. -1.
         -1   -1    0    0    0  501 -0.00000000000E+00 -0.00000000000E+00 -0.44146014315E+02  0.44146014315E+02  0.00000000000E+00 0.  1.
         23    2    1    2    0    0  0.46274803369E+01  0.47590148517E+02  0.10794147208E+03  0.17193683967E+03  0.12499871851E+03 0.  0.
          5    1    3    3  502    0 -0.23210899567E+02 -0.28534013214E+02  0.76234273149E+02  0.84774348546E+02  0.47000000000E+01 0. -1.
         -5    1    3    3    0  502  0.27838379904E+02  0.76124161731E+02  0.31707198934E+02  0.87162491125E+02  0.47000000000E+01 0. -1.
        -11    1    1    2    0    0 -0.52397851953E+01  0.16296363475E+02  0.30211943226E+01  0.17382589754E+02  0.00000000000E+00 0.  1.
         11    1    1    2    0    0  0.61230485841E+00 -0.63886511992E+02  0.20045522610E+03  0.21039049171E+03  0.00000000000E+00 0. -1.
<mgrwt>
<rscale>  0 0.12515655E+03</rscale>
<asrwt>0</asrwt>
<pdfrwt beam="1">  1        1 0.54702138E-01 0.13383167E+03</pdfrwt>
<pdfrwt beam="2">  1       -1 0.67916947E-02 0.13383167E+03</pdfrwt>
<totfact> 0.74298504E+03</totfact>
</mgrwt>
</event>
<event>
 7    1  0.5400401E-006  0.1375333E+03  0.7546771E-02  0.1229093E+00
         -3   -1    0    0    0  501 -0.00000000000E+00  0.00000000000E+00  0.19742843036E+04  0.19742843036E+04  0.00000000000E+00 0.  1.
          3   -1    0    0  501    0  0.00000000000E+00 -0.00000000000E+00 -0.88279985180E+01  0.88279985180E+01  0.00000000000E+00 0. -1.
         23    2    1    2    0    0  0.41044774211E+02  0.40077161682E+02  0.14698691716E+04  0.14762895370E+04  0.12499825217E+03 0.  0.
          5    1    3    3  502    0  0.23785412044E+02  0.85410008154E+02  0.93873944117E+03  0.94292865251E+03  0.47000000000E+01 0. -1.
         -5    1    3    3    0  502  0.17259362167E+02 -0.45332846472E+02  0.53112973041E+03  0.53336088446E+03  0.47000000000E+01 0. -1.
        -11    1    1    2    0    0  0.28248071629E+02 -0.17317411717E+02  0.14719941814E+03  0.15088245425E+03  0.00000000000E+00 0. -1.
         11    1    1    2    0    0 -0.69292845840E+02 -0.22759749965E+02  0.34838771534E+03  0.35594031087E+03  0.00000000000E+00 0.  1.
<mgrwt>
<rscale>  0 0.12890249E+03</rscale>
<asrwt>0</asrwt>
<pdfrwt beam="2">  1        3 0.13581552E-02 0.13753332E+03</pdfrwt>
<pdfrwt beam="1">  1       -3 0.30373570E+00 0.13753332E+03</pdfrwt>
<totfact> 0.17353831E+02</totfact>
</mgrwt>
</event>
<event>
 7    1  0.5400401E-006  0.1833505E+03  0.7546771E-02  0.1171041E+00
         -1   -1    0    0    0  501 -0.00000000000E+00  0.00000000000E+00  0.11336150438E+03  0.11336150438E+03  0.00000000000E+00 0.  1.
          1   -1    0    0  501    0  0.00000000000E+00 -0.00000000000E+00 -0.29895145517E+03  0.29895145517E+03  0.00000000000E+00 0. -1.
         23    2    1    2    0    0  0.84885745477E+02 -0.10350915988E+03 -0.21804577498E+02  0.18464248195E+03  0.12529034510E+03 0.  0.
          5    1    3    3  502    0  0.58100357295E+02 -0.15601554325E+01 -0.48454045030E+02  0.75815368379E+02  0.47000000000E+01 0. -1.
         -5    1    3    3    0  502  0.26785388182E+02 -0.10194900445E+03  0.26649467532E+02  0.10882711357E+03  0.47000000000E+01 0. -1.
        -11    1    1    2    0    0 -0.18324718967E+02 -0.12220341491E+02 -0.10510568062E+02  0.24405001790E+02  0.00000000000E+00 0.  1.
         11    1    1    2    0    0 -0.66561026510E+02  0.11572950137E+03 -0.15327480523E+03  0.20326547581E+03  0.00000000000E+00 0. -1.
<mgrwt>
<rscale>  0 0.17669403E+03</rscale>
<asrwt>0</asrwt>
<pdfrwt beam="2">  1        1 0.45992531E-01 0.18335050E+03</pdfrwt>
<pdfrwt beam="1">  1       -1 0.17440232E-01 0.18335050E+03</pdfrwt>
<totfact> 0.21881972E+03</totfact>
</mgrwt>
</event>
<event>
 6    1  0.5400401E-006  0.2399270E+03  0.7546771E-02  0.1144642E+00
          2   -1    0    0  501    0  0.00000000000E+00  0.00000000000E+00  0.61550540679E+03  0.61550540679E+03  0.00000000000E+00 0. -1.
         -2   -1    0    0    0  501 -0.00000000000E+00 -0.00000000000E+00 -0.77415430759E+02  0.77415430759E+02  0.00000000000E+00 0.  1.
          5    1    1    2  502    0  0.78207548926E+02 -0.30603268893E+02  0.88627964415E+02  0.12218832535E+03  0.47000000000E+01 0. -1.
         -5    1    1    2    0  502 -0.14334499343E+03 -0.38230951838E+02  0.60357572268E+02  0.16023270375E+03  0.47000000000E+01 0.  1.
        -11    1    1    2    0    0  0.47553321430E+01  0.55764262131E+02  0.27604847737E+03  0.28166474393E+03  0.00000000000E+00 0.  1.
         11    1    1    2    0    0  0.60382112362E+02  0.13069958600E+02  0.11305596197E+03  0.12883506451E+03  0.00000000000E+00 0. -1.
<mgrwt>
<rscale>  0 0.20616202E+03</rscale>
<asrwt>0</asrwt>
<pdfrwt beam="1">  1        2 0.94693137E-01 0.23992696E+03</pdfrwt>
<pdfrwt beam="2">  1       -2 0.11910067E-01 0.23992696E+03</pdfrwt>
<totfact> 0.24388862E+03</totfact>
</mgrwt>
</event>
<event>
 7    1  0.5400401E-006  0.1524279E+03  0.7546771E-02  0.1206032E+00
         -1   -1    0    0    0  501 -0.00000000000E+00  0.00000000000E+00  0.34482511893E+03  0.34482511893E+03  0.00000000000E+00 0.  1.
          1   -1    0    0  501    0  0.00000000000E+00 -0.00000000000E+00 -0.56550766293E+02  0.56550766293E+02  0.00000000000E+00 0. -1.
         23    2    1    2    0    0  0.81673090090E+02  0.30646686132E+02  0.15243585231E+03  0.21557120877E+03  0.12499817585E+03 0.  0.
          5    1    3    3  502    0  0.30415595295E+02  0.76812663939E+02  0.91994364336E+02  0.12373498635E+03  0.47000000000E+01 0.  1.
         -5    1    3    3    0  502  0.51257494796E+02 -0.46165977807E+02  0.60441487971E+02  0.91836222417E+02  0.47000000000E+01 0.  1.
        -11    1    1    2    0    0 -0.79006274275E+02 -0.64106007594E+01  0.14017993268E+03  0.16103881738E+03  0.00000000000E+00 0.  1.
         11    1    1    2    0    0 -0.26668158154E+01 -0.24236085373E+02 -0.43414323492E+01  0.24765859073E+02  0.00000000000E+00 0. -1.
<mgrwt>
<rscale>  0 0.14556421E+03</rscale>
<asrwt>0</asrwt>
<pdfrwt beam="2">  1        1 0.87001181E-02 0.15242787E+03</pdfrwt>
<pdfrwt beam="1">  1       -1 0.53050017E-01 0.15242787E+03</pdfrwt>
<totfact> 0.27692527E+03</totfact>
</mgrwt>
</event>
<event>
 7    1  0.5400401E-006  0.1344747E+03  0.7546771E-02  0.1234904E+00
          2   -1    0    0  501    0  0.00000000000E+00  0.00000000000E+00  0.29526930666E+02  0.29526930666E+02  0.00000000000E+00 0. -1.
         -2   -1    0    0    0  501 -0.00000000000E+00 -0.00000000000E+00 -0.50762186769E+03  0.50762186769E+03  0.00000000000E+00 0.  1.
         23    2    1    2    0    0 -0.37963453727E+02 -0.31892817270E+02 -0.34460624157E+03  0.36991471995E+03  0.12500025078E+03 0.  0.
          5    1    3    3  502    0  0.29355254310E+02 -0.38890970096E+02 -0.24203756898E+03  0.24693827834E+03  0.47000000000E+01 0. -1.
         -5    1    3    3    0  502 -0.67318708037E+02  0.69981528259E+01 -0.10256867259E+03  0.12297644161E+03  0.47000000000E+01 0. -1.
        -11    1    1    2    0    0  0.51642797753E+02 -0.12975231371E+02 -0.61960347855E+02  0.81697122931E+02  0.00000000000E+00 0.  1.
         11    1    1    2    0    0 -0.13679344026E+02  0.44868048641E+02 -0.71528347605E+02  0.85536955481E+02  0.00000000000E+00 0. -1.
<mgrwt>
<rscale>  0 0.12510595E+03</rscale>
<asrwt>0</asrwt>
<pdfrwt beam="1">  1        2 0.45426053E-02 0.13447468E+03</pdfrwt>
<pdfrwt beam="2">  1       -2 0.78095662E-01 0.13447468E+03</pdfrwt>
<totfact> 0.25682023E+03</totfact>
</mgrwt>
</event>
<event>
 7    1  0.5400401E-006  0.1439145E+03  0.7546771E-02  0.1217561E+00
         -2   -1    0    0    0  501 -0.00000000000E+00  0.00000000000E+00  0.22307251747E+02  0.22307251747E+02  0.00000000000E+00 0.  1.
          2   -1    0    0  501    0  0.00000000000E+00 -0.00000000000E+00 -0.77809502857E+03  0.77809502857E+03  0.00000000000E+00 0. -1.
         23    2    1    2    0    0  0.71328174647E+02 -0.65550683422E+00 -0.36942211316E+03  0.39646448466E+03  0.12499300667E+03 0.  0.
          5    1    3    3  502    0  0.28875695445E+02  0.61432643156E+01 -0.60150695305E+01  0.30492893358E+02  0.47000000000E+01 0. -1.
         -5    1    3    3    0  502  0.42452479202E+02 -0.67987711499E+01 -0.36340704363E+03  0.36597159130E+03  0.47000000000E+01 0. -1.
        -11    1    1    2    0    0 -0.50396476683E+02 -0.36699723534E+02 -0.31162554219E+03  0.31780049263E+03  0.00000000000E+00 0. -1.
         11    1    1    2    0    0 -0.20931697963E+02  0.37355230368E+02 -0.74740121471E+02  0.86137303029E+02  0.00000000000E+00 0.  1.
<mgrwt>
<rscale>  0 0.13690073E+03</rscale>
<asrwt>0</asrwt>
<pdfrwt beam="2">  1        2 0.11970693E+00 0.14391452E+03</pdfrwt>
<pdfrwt beam="1">  1       -2 0.34318849E-02 0.14391452E+03</pdfrwt>
<totfact> 0.12215169E+04</totfact>
</mgrwt>
</event>
<event>
 7    1  0.5400401E-006  0.1319973E+03  0.7546771E-02  0.1238592E+00
         -1   -1    0    0    0  501 -0.00000000000E+00  0.00000000000E+00  0.31973750109E+03  0.31973750109E+03  0.00000000000E+00 0.  1.
          1   -1    0    0  501    0  0.00000000000E+00 -0.00000000000E+00 -0.46598139418E+02  0.46598139418E+02  0.00000000000E+00 0. -1.
         23    2    1    2    0    0 -0.24038833922E+02  0.34942044984E+02  0.21329214129E+03  0.25083225844E+03  0.12499788917E+03 0.  0.
          5    1    3    3  502    0  0.41723885082E+02  0.52088778791E+01  0.14613257869E+03  0.15213426816E+03  0.47000000000E+01 0. -1.
         -5    1    3    3    0  502 -0.65762719004E+02  0.29733167105E+02  0.67159562597E+02  0.98697990279E+02  0.47000000000E+01 0. -1.
        -11    1    1    2    0    0  0.98394296149E+00 -0.21834779065E+02  0.79528885276E+02  0.82477689794E+02  0.00000000000E+00 0.  1.
         11    1    1    2    0    0  0.23054890961E+02 -0.13107265919E+02 -0.19681664891E+02  0.33025692271E+02  0.00000000000E+00 0. -1.
<mgrwt>
<rscale>  0 0.12277256E+03</rscale>
<asrwt>0</asrwt>
<pdfrwt beam="2">  1        1 0.71689447E-02 0.13199729E+03</pdfrwt>
<pdfrwt beam="1">  1       -1 0.49190383E-01 0.13199729E+03</pdfrwt>
<totfact> 0.40930091E+03</totfact>
</mgrwt>
</event>
<event>
 7    1  0.5400401E-006  0.1534960E+03  0.7546771E-02  0.1204510E+00
          1   -1    0    0  501    0  0.00000000000E+00  0.00000000000E+00  0.35716029122E+03  0.35716029122E+03  0.00000000000E+00 0. -1.
         -1   -1    0    0    0  501 -0.00000000000E+00 -0.00000000000E+00 -0.55696728001E+02  0.55696728001E+02  0.00000000000E+00 0.  1.
         23    2    1    2    0    0 -0.55944465669E+02 -0.68770736045E+02  0.17379095513E+03  0.23187134699E+03  0.12530693553E+03 0.  0.
          5    1    3    3  502    0  0.23906494563E+02 -0.62151318577E+02  0.46378184889E+02  0.81285502501E+02  0.47000000000E+01 0. -1.
         -5    1    3    3    0  502 -0.79850960233E+02 -0.66194174683E+01  0.12741277024E+03  0.15058584448E+03  0.47000000000E+01 0. -1.
        -11    1    1    2    0    0  0.75536328425E+02  0.61349570492E+02  0.12703835530E+03  0.16002578051E+03  0.00000000000E+00 0. -1.
         11    1    1    2    0    0 -0.19591862756E+02  0.74211655534E+01  0.63425278593E+00  0.20959891722E+02  0.00000000000E+00 0.  1.
<mgrwt>
<rscale>  0 0.14676137E+03</rscale>
<asrwt>0</asrwt>
<pdfrwt beam="1">  1        1 0.54947736E-01 0.15349601E+03</pdfrwt>
<pdfrwt beam="2">  1       -1 0.85687276E-02 0.15349601E+03</pdfrwt>
<totfact> 0.52477693E+03</totfact>
</mgrwt>
</event>
<event>
 7    1  0.5400401E-006  0.1456711E+03  0.7546771E-02  0.1216009E+00
          2   -1    0    0  501    0  0.00000000000E+00  0.00000000000E+00  0.39725414108E+02  0.39725414108E+02  0.00000000000E+00 0. -1.
         -2   -1    0    0    0  501 -0.00000000000E+00 -0.00000000000E+00 -0.69294142293E+03  0.69294142293E+03  0.00000000000E+00 0.  1.
         23    2    1    2    0    0 -0.19375402497E+02  0.72248386334E+02 -0.57109689447E+03  0.58938250659E+03  0.12499936259E+03 0.  0.
          5    1    3    3  502    0  0.58716861922E+01 -0.23550542074E+02 -0.28209367030E+02  0.37509507047E+02  0.47000000000E+01 0. -1.
         -5    1    3    3    0  502 -0.25247088689E+02  0.95798928408E+02 -0.54288752744E+03  0.55187299954E+03  0.47000000000E+01 0. -1.
        -11    1    1    2    0    0 -0.19188594967E+02 -0.29812597737E+02 -0.78138184522E+02  0.85805413822E+02  0.00000000000E+00 0.  1.
         11    1    1    2    0    0  0.38563997464E+02 -0.42435788597E+02 -0.39809298278E+01  0.57478916626E+02  0.00000000000E+00 0. -1.
<mgrwt>
<rscale>  0 0.13802674E+03</rscale>
<asrwt>0</asrwt>
<pdfrwt beam="1">  1        2 0.61116023E-02 0.14567112E+03</pdfrwt>
<pdfrwt beam="2">  1       -2 0.10660637E+00 0.14567112E+03</pdfrwt>
<totfact> 0.86888207E+02</totfact>
</mgrwt>
</event>
<event>
 7    1  0.5400401E-006  0.1267323E+03  0.7546771E-02  0.1246899E+00
         -1   -1    0    0    0  501 -0.00000000000E+00  0.00000000000E+00  0.13767172965E+04  0.13767172965E+04  0.00000000000E+00 0.  1.
          1   -1    0    0  501    0  0.00000000000E+00 -0.00000000000E+00 -0.16271985450E+02  0.16271985450E+02  0.00000000000E+00 0. -1.
         23    2    1    2    0    0  0.20409115251E+02 -0.46624769147E+01  0.12013364227E+04  0.12080025929E+04  0.12499117294E+03 0.  0.
          5    1    3    3  502    0 -0.35256742535E+02  0.39832249562E+02  0.41309267762E+03  0.41653006651E+03  0.47000000000E+01 0.  1.
         -5    1    3    3    0  502  0.55665857787E+02 -0.44494726477E+02  0.78824374503E+03  0.79147252636E+03  0.47000000000E+01 0.  1.
        -11    1    1    2    0    0 -0.67924064114E+01 -0.42271552235E+02  0.52751786888E+02  0.67939472570E+02  0.00000000000E+00 0. -1.
         11    1    1    2    0    0 -0.13616708840E+02  0.46934029150E+02  0.10635710155E+03  0.11704721655E+03  0.00000000000E+00 0.  1.
<mgrwt>
<rscale>  0 0.11772432E+03</rscale>
<asrwt>0</asrwt>
<pdfrwt beam="2">  1        1 0.25033835E-02 0.12673225E+03</pdfrwt>
<pdfrwt beam="1">  1       -1 0.21180257E+00 0.12673225E+03</pdfrwt>
<totfact> 0.60653274E+02</totfact>
</mgrwt>
</event>
<event>
 7    1  0.5400401E-006  0.1427750E+03  0.7546771E-02  0.1220279E+00
          1   -1    0    0  501    0  0.00000000000E+00  0.00000000000E+00  0.83830863526E+02  0.83830863526E+02  0.00000000000E+00 0. -1.
         -1   -1    0    0    0  501 -0.00000000000E+00 -0.00000000000E+00 -0.21214005148E+03  0.21214005148E+03  0.00000000000E+00 0.  1.
         23    2    1    2    0    0 -0.23758506166E+02 -0.64797701207E+02 -0.31003289485E+02  0.14610238512E+03  0.12498597634E+03 0.  0.
          5    1    3    3  502    0  0.11661614243E+01 -0.99585053657E+02 -0.20525854407E+02  0.10179363214E+03  0.47000000000E+01 0.  1.
         -5    1    3    3    0  502 -0.24924667591E+02  0.34787352449E+02 -0.10477435078E+02  0.44308752981E+02  0.47000000000E+01 0.  1.
        -11    1    1    2    0    0 -0.66190366609E+01  0.55368961623E+02 -0.10340445776E+03  0.11748197922E+03  0.00000000000E+00 0.  1.
         11    1    1    2    0    0  0.30377542827E+02  0.94287395841E+01  0.60985592948E+01  0.32386550663E+02  0.00000000000E+00 0. -1.
<mgrwt>
<rscale>  0 0.13495818E+03</rscale>
<asrwt>0</asrwt>
<pdfrwt beam="1">  1        1 0.12897056E-01 0.14277501E+03</pdfrwt>
<pdfrwt beam="2">  1       -1 0.32636931E-01 0.14277501E+03</pdfrwt>
<totfact> 0.38729539E+03</totfact>
</mgrwt>
</event>
<event>
 7    1  0.5400401E-006  0.1438829E+03  0.7546771E-02  0.1218493E+00
          2   -1    0    0  501    0  0.00000000000E+00  0.00000000000E+00  0.50126963520E+03  0.50126963520E+03  0.00000000000E+00 0. -1.
         -2   -1    0    0    0  501 -0.00000000000E+00 -0.00000000000E+00 -0.33610870645E+02  0.33610870645E+02  0.00000000000E+00 0.  1.
         23    2    1    2    0    0  0.71086274272E+02 -0.45754713193E+01  0.26616938737E+03  0.30256971081E+03  0.12501237460E+03 0.  0.
          5    1    3    3  502    0  0.45205039469E+02  0.50338468407E+02  0.71275306879E+02  0.98385549577E+02  0.47000000000E+01 0. -1.
         -5    1    3    3    0  502  0.25881234803E+02 -0.54913939726E+02  0.19489408049E+03  0.20418416124E+03  0.47000000000E+01 0. -1.
        -11    1    1    2    0    0 -0.15771515899E+02 -0.15801794417E+02 -0.51572957914E-01  0.22325771662E+02  0.00000000000E+00 0.  1.
         11    1    1    2    0    0 -0.55314758373E+02  0.20377265736E+02  0.20154095015E+03  0.20998502337E+03  0.00000000000E+00 0. -1.
<mgrwt>
<rscale>  0 0.13623060E+03</rscale>
<asrwt>0</asrwt>
<pdfrwt beam="1">  1        2 0.77118400E-01 0.14388289E+03</pdfrwt>
<pdfrwt beam="2">  1       -2 0.51709035E-02 0.14388289E+03</pdfrwt>
<totfact> 0.11021060E+04</totfact>
</mgrwt>
</event>
<event>
 7    1  0.5400401E-006  0.1304053E+03  0.7546771E-02  0.1241256E+00
         -2   -1    0    0    0  501 -0.00000000000E+00  0.00000000000E+00  0.20269503092E+02  0.20269503092E+02  0.00000000000E+00 0.  1.
          2   -1    0    0  501    0  0.00000000000E+00 -0.00000000000E+00 -0.65457130861E+03  0.65457130861E+03  0.00000000000E+00 0. -1.
         23    2    1    2    0    0  0.35814761457E+02 -0.57085759524E+01 -0.30957467012E+03  0.33591965456E+03  0.12526073990E+03 0.  0.
          5    1    3    3  502    0  0.18523630969E+02  0.54632992164E+02 -0.21235591562E+03  0.22010227994E+03  0.47000000000E+01 0. -1.
         -5    1    3    3    0  502  0.17291130488E+02 -0.60341568117E+02 -0.97218754497E+02  0.11581737461E+03  0.47000000000E+01 0. -1.
        -11    1    1    2    0    0  0.94693377229E+01  0.36622363274E+02 -0.18486945389E+03  0.18869971073E+03  0.00000000000E+00 0.  1.
         11    1    1    2    0    0 -0.45284099180E+02 -0.30913787322E+02 -0.13985768151E+03  0.15022144641E+03  0.00000000000E+00 0. -1.
<mgrwt>
<rscale>  0 0.12112306E+03</rscale>
<asrwt>0</asrwt>
<pdfrwt beam="2">  1        2 0.10070327E+00 0.13040528E+03</pdfrwt>
<pdfrwt beam="1">  1       -2 0.31183854E-02 0.13040528E+03</pdfrwt>
<totfact> 0.17177622E+04</totfact>
</mgrwt>
</event>
<event>
 7    1  0.5400401E-006  0.2278916E+03  0.7546771E-02  0.1131306E+00
          1   -1    0    0  501    0  0.00000000000E+00  0.00000000000E+00  0.11559367302E+04  0.11559367302E+04  0.00000000000E+00 0. -1.
         -1   -1    0    0    0  501 -0.00000000000E+00 -0.00000000000E+00 -0.45022404372E+02  0.45022404372E+02  0.00000000000E+00 0.  1.
         23    2    1    2    0    0 -0.15582463932E+01 -0.19052661852E+03  0.41054745077E+03  0.46955700470E+03  0.12502700044E+03 0.  0.
          5    1    3    3  502    0 -0.37454436427E+02 -0.18670569028E+03  0.35967341103E+03  0.40699987985E+03  0.47000000000E+01 0. -1.
         -5    1    3    3    0  502  0.35896190033E+02 -0.38209282416E+01  0.50874039734E+02  0.62557124857E+02  0.47000000000E+01 0. -1.
        -11    1    1    2    0    0 -0.16803710203E+02  0.12675412092E+03  0.30837665626E+03  0.33383399163E+03  0.00000000000E+00 0.  1.
         11    1    1    2    0    0  0.18361956596E+02  0.63772497603E+02  0.39199021877E+03  0.39756813820E+03  0.00000000000E+00 0. -1.
<mgrwt>
<rscale>  0 0.22349213E+03</rscale>
<asrwt>0</asrwt>
<pdfrwt beam="1">  1        1 0.17783640E+00 0.22789158E+03</pdfrwt>
<pdfrwt beam="2">  1       -1 0.69265246E-02 0.22789158E+03</pdfrwt>
<totfact> 0.13227218E+03</totfact>
</mgrwt>
</event>
<event>
 6    1  0.5400401E-006  0.2055837E+03  0.7546771E-02  0.1150345E+00
         -1   -1    0    0    0  501 -0.00000000000E+00  0.00000000000E+00  0.67761413707E+03  0.67761413707E+03  0.00000000000E+00 0.  1.
          1   -1    0    0  501    0  0.00000000000E+00 -0.00000000000E+00 -0.61883868494E+02  0.61883868494E+02  0.00000000000E+00 0. -1.
          5    1    1    2  502    0 -0.50422771980E+02  0.30429291925E+01  0.22468554789E+03  0.23034192146E+03  0.47000000000E+01 0. -1.
         -5    1    1    2    0  502 -0.19289275028E+02  0.13640221796E+03  0.22080808583E+03  0.26029971564E+03  0.47000000000E+01 0.  1.
        -11    1    1    2    0    0  0.66579460079E+02 -0.15185692999E+03  0.16765077710E+03  0.23579680819E+03  0.00000000000E+00 0. -1.
         11    1    1    2    0    0  0.31325869284E+01  0.12411782840E+02  0.25858577637E+01  0.13059560272E+02  0.00000000000E+00 0.  1.
<mgrwt>
<rscale>  0 0.19928366E+03</rscale>
<asrwt>0</asrwt>
<pdfrwt beam="2">  1        1 0.95205956E-02 0.20558365E+03</pdfrwt>
<pdfrwt beam="1">  1       -1 0.10424832E+00 0.20558365E+03</pdfrwt>
<totfact> 0.62828326E+02</totfact>
</mgrwt>
</event>
<event>
 7    1  0.5400401E-006  0.1344986E+03  0.7546771E-02  0.1233362E+00
         -4   -1    0    0    0  501 -0.00000000000E+00  0.00000000000E+00  0.50341699466E+03  0.50341699466E+03  0.00000000000E+00 0.  1.
          4   -1    0    0  501    0  0.00000000000E+00 -0.00000000000E+00 -0.30152596247E+02  0.30152596247E+02  0.00000000000E+00 0. -1.
         23    2    1    2    0    0  0.10783857151E+02  0.48459035524E+02  0.33192487358E+03  0.35813964481E+03  0.12500125512E+03 0.  0.
          5    1    3    3  502    0 -0.10767383468E+02  0.51801586312E+02  0.33160035801E+03  0.33582767653E+03  0.47000000000E+01 0.  1.
         -5    1    3    3    0  502  0.21551240619E+02 -0.33425507884E+01  0.32451556831E+00  0.22311968276E+02  0.47000000000E+01 0.  1.
        -11    1    1    2    0    0  0.17845884496E+02 -0.62301144317E+02  0.12218069155E+03  0.13830411984E+03  0.00000000000E+00 0. -1.
         11    1    1    2    0    0 -0.28629741647E+02  0.13842108793E+02  0.19158833276E+02  0.37125826255E+02  0.00000000000E+00 0.  1.
<mgrwt>
<rscale>  0 0.12609863E+03</rscale>
<asrwt>0</asrwt>
<pdfrwt beam="2">  1        4 0.46388613E-02 0.13449864E+03</pdfrwt>
<pdfrwt beam="1">  1       -4 0.77448762E-01 0.13449864E+03</pdfrwt>
<totfact> 0.68124610E+02</totfact>
</mgrwt>
</event>
<event>
 6    1  0.5400401E-006  0.3330751E+03  0.7546771E-02  0.1106165E+00
         -2   -1    0    0    0  501 -0.00000000000E+00  0.00000000000E+00  0.65462115089E+02  0.65462115089E+02  0.00000000000E+00 0.  1.
          2   -1    0    0  501    0  0.00000000000E+00 -0.00000000000E+00 -0.86265931972E+03  0.86265931972E+03  0.00000000000E+00 0. -1.
          5    1    1    2  502    0 -0.14972307209E+03  0.92254081870E+02 -0.33724809413E+03  0.38037636747E+03  0.47000000000E+01 0. -1.
         -5    1    1    2    0  502  0.14178452026E+03 -0.28972018331E+01 -0.12321227584E+03  0.18792178927E+03  0.47000000000E+01 0.  1.
        -11    1    1    2    0    0  0.13193718805E+02 -0.10387430855E+03 -0.32153985925E+03  0.33815947018E+03  0.00000000000E+00 0. -1.
         11    1    1    2    0    0 -0.52551669751E+01  0.14517428509E+02 -0.15196975421E+02  0.21663807893E+02  0.00000000000E+00 0.  1.
<mgrwt>
<rscale>  0 0.26163516E+03</rscale>
<asrwt>0</asrwt>
<pdfrwt beam="2">  1        2 0.13271681E+00 0.33307513E+03</pdfrwt>
<pdfrwt beam="1">  1       -2 0.10071095E-01 0.33307513E+03</pdfrwt>
<totfact> 0.21108152E+03</totfact>
</mgrwt>
</event>
<event>
 7    1  0.5400401E-006  0.1593760E+03  0.7546771E-02  0.1197036E+00
         -2   -1    0    0    0  501 -0.00000000000E+00  0.00000000000E+00  0.34794161356E+03  0.34794161356E+03  0.00000000000E+00 0. -1.
          2   -1    0    0  501    0  0.00000000000E+00 -0.00000000000E+00 -0.65213097598E+02  0.65213097598E+02  0.00000000000E+00 0.  1.
         23    2    1    2    0    0  0.55040237410E+02 -0.83036369926E+02  0.19714840503E+03  0.25351177002E+03  0.12440360714E+03 0.  0.
          5    1    3    3  502    0  0.70549775918E+00 -0.43131708772E+02 -0.17689539030E+01  0.43428806414E+02  0.47000000000E+01 0. -1.
         -5    1    3    3    0  502  0.54334739651E+02 -0.39904661154E+02  0.19891735893E+03  0.21008296361E+03  0.47000000000E+01 0. -1.
        -11    1    1    2    0    0 -0.35315965922E+02 -0.64747920505E+01  0.25937538210E+01  0.35998165787E+02  0.00000000000E+00 0.  1.
         11    1    1    2    0    0 -0.19724271488E+02  0.89511161976E+02  0.82986357113E+02  0.12364477535E+03  0.00000000000E+00 0. -1.
<mgrwt>
<rscale>  0 0.15283136E+03</rscale>
<asrwt>0</asrwt>
<pdfrwt beam="2">  1        2 0.10032784E-01 0.15937605E+03</pdfrwt>
<pdfrwt beam="1">  1       -2 0.53529478E-01 0.15937605E+03</pdfrwt>
<totfact> 0.20790239E+03</totfact>
</mgrwt>
</event>
<event>
 7    1  0.5400401E-006  0.1297852E+03  0.7546771E-02  0.1245546E+00
         -2   -1    0    0    0  501 -0.00000000000E+00  0.00000000000E+00  0.20514730214E+02  0.20514730214E+02  0.00000000000E+00 0.  1.
          2   -1    0    0  501    0  0.00000000000E+00 -0.00000000000E+00 -0.71014934183E+03  0.71014934183E+03  0.00000000000E+00 0. -1.
         23    2    1    2    0    0 -0.58698390431E+01  0.34447433964E+02 -0.24812300787E+03  0.28001646230E+03  0.12499244540E+03 0.  0.
          5    1    3    3  502    0 -0.14145418599E+02 -0.24940243674E+02 -0.20237370825E+03  0.20444881123E+03  0.47000000000E+01 0. -1.
         -5    1    3    3    0  502  0.82755795564E+01  0.59387677638E+02 -0.45749299617E+02  0.75567651066E+02  0.47000000000E+01 0. -1.
        -11    1    1    2    0    0 -0.83354888800E+01  0.26197056535E+02 -0.15809935251E+03  0.16047171529E+03  0.00000000000E+00 0. -1.
         11    1    1    2    0    0  0.14205327923E+02 -0.60644490498E+02 -0.28341225124E+03  0.29017589446E+03  0.00000000000E+00 0.  1.
<mgrwt>
<rscale>  0 0.11852737E+03</rscale>
<asrwt>0</asrwt>
<pdfrwt beam="2">  1        2 0.10925374E+00 0.12978518E+03</pdfrwt>
<pdfrwt beam="1">  1       -2 0.31561125E-02 0.12978518E+03</pdfrwt>
<totfact> 0.15328746E+04</totfact>
</mgrwt>
</event>
<event>
 7    1  0.5400401E-006  0.1332113E+03  0.7546771E-02  0.1236031E+00
          3   -1    0    0  501    0  0.00000000000E+00  0.00000000000E+00  0.43906600256E+02  0.43906600256E+02  0.00000000000E+00 0. -1.
         -3   -1    0    0    0  501 -0.00000000000E+00 -0.00000000000E+00 -0.33138065259E+03  0.33138065259E+03  0.00000000000E+00 0.  1.
         23    2    1    2    0    0  0.33255612493E+02  0.31836591956E+02 -0.20597878848E+03  0.24530088299E+03  0.12500303014E+03 0.  0.
          5    1    3    3  502    0 -0.34698738185E+02  0.35626135206E+02 -0.14653132016E+03  0.15481195603E+03  0.47000000000E+01 0. -1.
         -5    1    3    3    0  502  0.67954350678E+02 -0.37895432501E+01 -0.59447468321E+02  0.90488926968E+02  0.47000000000E+01 0. -1.
        -11    1    1    2    0    0 -0.16446382405E+02  0.24853610926E+02 -0.60138391891E+02  0.67117893661E+02  0.00000000000E+00 0.  1.
         11    1    1    2    0    0 -0.16809230088E+02 -0.56690202882E+02 -0.21356871969E+02  0.62868476196E+02  0.00000000000E+00 0. -1.
<mgrwt>
<rscale>  0 0.12438636E+03</rscale>
<asrwt>0</asrwt>
<pdfrwt beam="1">  1        3 0.67548619E-02 0.13321134E+03</pdfrwt>
<pdfrwt beam="2">  1       -3 0.50981636E-01 0.13321134E+03</pdfrwt>
<totfact> 0.12395732E+03</totfact>
</mgrwt>
</event>
<event>
 7    1  0.5400401E-006  0.2212743E+03  0.7546771E-02  0.1136220E+00
         -1   -1    0    0    0  501 -0.00000000000E+00  0.00000000000E+00  0.35043476132E+02  0.35043476132E+02  0.00000000000E+00 0.  1.
          1   -1    0    0  501    0  0.00000000000E+00 -0.00000000000E+00 -0.12960981732E+04  0.12960981732E+04  0.00000000000E+00 0. -1.
         23    2    1    2    0    0  0.18256781474E+03  0.27698034921E+01 -0.61762936382E+03  0.65607038813E+03  0.12499457723E+03 0.  0.
          5    1    3    3  502    0  0.81091884819E+02  0.46422562721E+02 -0.16066643956E+03  0.18592133528E+03  0.47000000000E+01 0. -1.
         -5    1    3    3    0  502  0.10147592992E+03 -0.43652759229E+02 -0.45696292426E+03  0.47014905285E+03  0.47000000000E+01 0. -1.
        -11    1    1    2    0    0 -0.18120192175E+03 -0.21772838077E+02 -0.54286645656E+03  0.57272347828E+03  0.00000000000E+00 0.  1.
         11    1    1    2    0    0 -0.13658929902E+01  0.19003034585E+02 -0.10055887671E+03  0.10234778294E+03  0.00000000000E+00 0. -1.
<mgrwt>
<rscale>  0 0.21689416E+03</rscale>
<asrwt>0</asrwt>
<pdfrwt beam="2">  1        1 0.19939972E+00 0.22127432E+03</pdfrwt>
<pdfrwt beam="1">  1       -1 0.53913041E-02 0.22127432E+03</pdfrwt>
<totfact> 0.15441787E+03</totfact>
</mgrwt>
</event>
<event>
 7    1  0.5400401E-006  0.1906248E+03  0.7546771E-02  0.1162879E+00
         -2   -1    0    0    0  501 -0.00000000000E+00  0.00000000000E+00  0.48460045092E+03  0.48460045092E+03  0.00000000000E+00 0.  1.
          2   -1    0    0  501    0  0.00000000000E+00 -0.00000000000E+00 -0.70152627251E+02  0.70152627251E+02  0.00000000000E+00 0. -1.
         23    2    1    2    0    0 -0.96090298178E+02 -0.10713977261E+03  0.16003409782E+03  0.24889499303E+03  0.12500211522E+03 0.  0.
          5    1    3    3  502    0 -0.33543422590E+02 -0.33920170556E+02  0.14321803819E+03  0.15102726785E+03  0.47000000000E+01 0. -1.
         -5    1    3    3    0  502 -0.62546875587E+02 -0.73219602051E+02  0.16816059626E+02  0.97867725179E+02  0.47000000000E+01 0. -1.
        -11    1    1    2    0    0  0.59757013173E+02  0.89435526001E+01  0.12924600225E+03  0.14267241098E+03  0.00000000000E+00 0.  1.
         11    1    1    2    0    0  0.36333285005E+02  0.98196220007E+02  0.12516772360E+03  0.16318567417E+03  0.00000000000E+00 0. -1.
<mgrwt>
<rscale>  0 0.18518320E+03</rscale>
<asrwt>0</asrwt>
<pdfrwt beam="2">  1        2 0.10792712E-01 0.19062478E+03</pdfrwt>
<pdfrwt beam="1">  1       -2 0.74553913E-01 0.19062478E+03</pdfrwt>
<totfact> 0.95869430E+02</totfact>
</mgrwt>
</event>
<event>
 7    1  0.5400401E-006  0.1440448E+03  0.7546771E-02  0.1218699E+00
         -2   -1    0    0    0  501 -0.00000000000E+00  0.00000000000E+00  0.56104057636E+02  0.56104057636E+02  0.00000000000E+00 0.  1.
          2   -1    0    0  501    0  0.00000000000E+00 -0.00000000000E+00 -0.29889053993E+03  0.29889053993E+03  0.00000000000E+00 0. -1.
         23    2    1    2    0    0 -0.60689601064E+02 -0.37936675605E+02 -0.14210211552E+03  0.20234111230E+03  0.12500598169E+03 0.  0.
          5    1    3    3  502    0 -0.97029281410E+01 -0.46146807336E+02 -0.14282237593E+03  0.15047922018E+03  0.47000000000E+01 0. -1.
         -5    1    3    3    0  502 -0.50986672923E+02  0.82101317316E+01  0.72026041047E+00  0.51861892116E+02  0.47000000000E+01 0. -1.
        -11    1    1    2    0    0  0.36337278396E+02 -0.21651089062E+02 -0.13742839322E+02  0.44475083940E+02  0.00000000000E+00 0.  1.
         11    1    1    2    0    0  0.24352322668E+02  0.59587764666E+02 -0.86941527455E+02  0.10817840133E+03  0.00000000000E+00 0. -1.
<mgrwt>
<rscale>  0 0.13608302E+03</rscale>
<asrwt>0</asrwt>
<pdfrwt beam="2">  1        2 0.45983160E-01 0.14404484E+03</pdfrwt>
<pdfrwt beam="1">  1       -2 0.86313935E-02 0.14404484E+03</pdfrwt>
<totfact> 0.87704405E+03</totfact>
</mgrwt>
</event>
<event>
 7    1  0.5400401E-006  0.2296634E+03  0.7546771E-02  0.1129914E+00
          2   -1    0    0  501    0  0.00000000000E+00  0.00000000000E+00  0.14300721493E+04  0.14300721493E+04  0.00000000000E+00 0. -1.
         -2   -1    0    0    0  501 -0.00000000000E+00 -0.00000000000E+00 -0.38892853175E+02  0.38892853175E+02  0.00000000000E+00 0.  1.
         23    2    1    2    0    0 -0.46185862810E+02 -0.18705115196E+03  0.46549971080E+03  0.51907153441E+03  0.12499603875E+03 0.  0.
          5    1    3    3  502    0 -0.58710688545E+02 -0.14539810559E+03  0.22296382793E+03  0.27262155568E+03  0.47000000000E+01 0.  1.
         -5    1    3    3    0  502  0.12524825736E+02 -0.41653046368E+02  0.24253588287E+03  0.24644997872E+03  0.47000000000E+01 0.  1.
        -11    1    1    2    0    0 -0.21873135691E+02  0.80320109577E+02  0.28890737177E+03  0.30066131034E+03  0.00000000000E+00 0.  1.
         11    1    1    2    0    0  0.68058998500E+02  0.10673104238E+03  0.63677221350E+03  0.64923215769E+03  0.00000000000E+00 0. -1.
<mgrwt>
<rscale>  0 0.22540765E+03</rscale>
<asrwt>0</asrwt>
<pdfrwt beam="1">  1        2 0.22001106E+00 0.22966340E+03</pdfrwt>
<pdfrwt beam="2">  1       -2 0.59835170E-02 0.22966340E+03</pdfrwt>
<totfact> 0.22129778E+03</totfact>
</mgrwt>
</event>
<event>
 7    1  0.5400401E-006  0.1260185E+03  0.7546771E-02  0.1242102E+00
         -1   -1    0    0    0  501 -0.00000000000E+00  0.00000000000E+00  0.12469009852E+03  0.12469009852E+03  0.00000000000E+00 0.  1.
          1   -1    0    0  501    0  0.00000000000E+00 -0.00000000000E+00 -0.13642423364E+03  0.13642423364E+03  0.00000000000E+00 0. -1.
         23    2    1    2    0    0  0.10508300629E+02 -0.12107638285E+02  0.53480294112E+02  0.13689702043E+03  0.12499453211E+03 0.  0.
          5    1    3    3  502    0 -0.48958595539E+02 -0.34221927625E+02  0.12461012437E+02  0.61200091818E+02  0.47000000000E+01 0. -1.
         -5    1    3    3    0  502  0.59466896168E+02  0.22114289341E+02  0.41019281675E+02  0.75696928617E+02  0.47000000000E+01 0. -1.
        -11    1    1    2    0    0 -0.27053350877E+02 -0.49544430982E+01 -0.87448690761E+02  0.91671717644E+02  0.00000000000E+00 0. -1.
         11    1    1    2    0    0  0.16545050248E+02  0.17062081383E+02  0.22234261526E+02  0.32545594086E+02  0.00000000000E+00 0.  1.
<mgrwt>
<rscale>  0 0.12060529E+03</rscale>
<asrwt>0</asrwt>
<pdfrwt beam="2">  1        1 0.20988344E-01 0.12601846E+03</pdfrwt>
<pdfrwt beam="1">  1       -1 0.19183092E-01 0.12601846E+03</pdfrwt>
<totfact> 0.49234269E+03</totfact>
</mgrwt>
</event>
<event>
 6    1  0.5400401E-006  0.3316572E+03  0.7546771E-02  0.1104371E+00
         -2   -1    0    0    0  501 -0.00000000000E+00  0.00000000000E+00  0.23828096832E+03  0.23828096832E+03  0.00000000000E+00 0.  1.
          2   -1    0    0  501    0  0.00000000000E+00 -0.00000000000E+00 -0.28778981438E+03  0.28778981438E+03  0.00000000000E+00 0. -1.
          5    1    1    2  502    0  0.67684446312E+02  0.11816431691E+03 -0.78127337543E+02  0.15706674039E+03  0.47000000000E+01 0. -1.
         -5    1    1    2    0  502 -0.93811515410E+02 -0.22753120419E+02  0.15615887184E+03  0.18364636715E+03  0.47000000000E+01 0.  1.
        -11    1    1    2    0    0 -0.96495558777E+01  0.13881626379E+02 -0.30560440207E+02  0.34924976524E+02  0.00000000000E+00 0.  1.
         11    1    1    2    0    0  0.35776624975E+02 -0.10929282287E+03 -0.96979940153E+02  0.15043269863E+03  0.00000000000E+00 0. -1.
<mgrwt>
<rscale>  0 0.26466692E+03</rscale>
<asrwt>0</asrwt>
<pdfrwt beam="2">  1        2 0.44275356E-01 0.33165720E+03</pdfrwt>
<pdfrwt beam="1">  1       -2 0.36658611E-01 0.33165720E+03</pdfrwt>
<totfact> 0.80801723E+02</totfact>
</mgrwt>
</event>
<event>
 7    1  0.5400401E-006  0.1331983E+03  0.7546771E-02  0.1234931E+00
          4   -1    0    0  501    0  0.00000000000E+00  0.00000000000E+00  0.24928890741E+02  0.24928890741E+02  0.00000000000E+00 0. -1.
         -4   -1    0    0    0  501 -0.00000000000E+00 -0.00000000000E+00 -0.59844969480E+03  0.59844969480E+03  0.00000000000E+00 0.  1.
         23    2    1    2    0    0 -0.16322540159E+02  0.43017999367E+02 -0.39642605367E+03  0.41820498229E+03  0.12499927038E+03 0.  0.
          5    1    3    3  502    0  0.40842531049E+02 -0.70677989884E+01 -0.24696942467E+03  0.25046766826E+03  0.47000000000E+01 0.  1.
         -5    1    3    3    0  502 -0.57165071208E+02  0.50085798356E+02 -0.14945662901E+03  0.16773731403E+03  0.47000000000E+01 0.  1.
        -11    1    1    2    0    0 -0.30690789152E+02  0.52377418745E+01 -0.29324930407E+02  0.42770433971E+02  0.00000000000E+00 0. -1.
         11    1    1    2    0    0  0.47013329310E+02 -0.48255741242E+02 -0.14776981998E+03  0.16240316928E+03  0.00000000000E+00 0.  1.
<mgrwt>
<rscale>  0 0.12508854E+03</rscale>
<asrwt>0</asrwt>
<pdfrwt beam="1">  1        4 0.38352145E-02 0.13319832E+03</pdfrwt>
<pdfrwt beam="2">  1       -4 0.92069171E-01 0.13319832E+03</pdfrwt>
<totfact> 0.62573504E+02</totfact>
</mgrwt>
</event>
<event>
 7    1  0.5400401E-006  0.1734152E+03  0.7546771E-02  0.1180930E+00
         -1   -1    0    0    0  501 -0.00000000000E+00  0.00000000000E+00  0.15443052702E+03  0.15443052702E+03  0.00000000000E+00 0.  1.
          1   -1    0    0  501    0  0.00000000000E+00 -0.00000000000E+00 -0.18983805167E+03  0.18983805167E+03  0.00000000000E+00 0. -1.
         23    2    1    2    0    0  0.22504547626E+02  0.11809137627E+03  0.38394650659E+02  0.17761467384E+03  0.12498318027E+03 0.  0.
          5    1    3    3  502    0 -0.26983859709E+02  0.10253743698E+03  0.59198541325E+02  0.12152617809E+03  0.47000000000E+01 0.  1.
         -5    1    3    3    0  502  0.49488407335E+02  0.15553939295E+02 -0.20803890666E+02  0.56088495746E+02  0.47000000000E+01 0.  1.
        -11    1    1    2    0    0  0.24706801764E+02 -0.45109216712E+02 -0.59357977787E+02  0.78540671074E+02  0.00000000000E+00 0.  1.
         11    1    1    2    0    0 -0.47211349390E+02 -0.72982159560E+02 -0.14444197524E+02  0.88113233782E+02  0.00000000000E+00 0. -1.
<mgrwt>
<rscale>  0 0.16707772E+03</rscale>
<asrwt>0</asrwt>
<pdfrwt beam="2">  1        1 0.29205854E-01 0.17341518E+03</pdfrwt>
<pdfrwt beam="1">  1       -1 0.23758543E-01 0.17341518E+03</pdfrwt>
<totfact> 0.23337969E+03</totfact>
</mgrwt>
</event>
<event>
 6    1  0.5400401E-006  0.3899573E+03  0.7546771E-02  0.1047314E+00
          2   -1    0    0  501    0  0.00000000000E+00  0.00000000000E+00  0.29039785242E+03  0.29039785242E+03  0.00000000000E+00 0. -1.
         -2   -1    0    0    0  501 -0.00000000000E+00 -0.00000000000E+00 -0.13091240349E+03  0.13091240349E+03  0.00000000000E+00 0.  1.
          5    1    1    2  502    0 -0.73482931552E+02  0.11079939716E+03  0.95120424782E+02  0.16354275542E+03  0.47000000000E+01 0. -1.
         -5    1    1    2    0  502  0.14789355282E+02  0.34168346487E+02 -0.30721196076E+02  0.48498276460E+02  0.47000000000E+01 0.  1.
        -11    1    1    2    0    0  0.85369383255E+02 -0.87222031153E+02  0.53408820326E+02  0.13322205675E+03  0.00000000000E+00 0.  1.
         11    1    1    2    0    0 -0.26675806985E+02 -0.57745712491E+02  0.41677399896E+02  0.76047167282E+02  0.00000000000E+00 0. -1.
<mgrwt>
<rscale>  0 0.38995734E+03</rscale>
<asrwt>0</asrwt>
<pdfrwt beam="1">  1        2 0.44676592E-01 0.38995734E+03</pdfrwt>
<pdfrwt beam="2">  1       -2 0.20140370E-01 0.38995734E+03</pdfrwt>
<totfact> 0.23667583E+03</totfact>
</mgrwt>
</event>
<event>
 6    1  0.5400401E-006  0.6083765E+03  0.7546771E-02  0.1039059E+00
         -2   -1    0    0    0  501 -0.00000000000E+00  0.00000000000E+00  0.79345681446E+02  0.79345681446E+02  0.00000000000E+00 0.  1.
          2   -1    0    0  501    0  0.00000000000E+00 -0.00000000000E+00 -0.17701984733E+04  0.17701984733E+04  0.00000000000E+00 0. -1.
          5    1    1    2  502    0 -0.10816498312E+03  0.24592958984E+03 -0.93716453933E+03  0.97492588976E+03  0.47000000000E+01 0. -1.
         -5    1    1    2    0  502  0.24145010336E+02 -0.27337109374E+03 -0.31915907335E+03  0.42095052028E+03  0.47000000000E+01 0.  1.
        -11    1    1    2    0    0  0.81827219708E+02  0.37850476609E+02 -0.43372904385E+03  0.44300026630E+03  0.00000000000E+00 0.  1.
         11    1    1    2    0    0  0.21927530795E+01 -0.10408972714E+02 -0.80013530992E+00  0.10667478406E+02  0.00000000000E+00 0. -1.
<mgrwt>
<rscale>  0 0.41393451E+03</rscale>
<asrwt>0</asrwt>
<pdfrwt beam="2">  1        2 0.27233821E+00 0.60837647E+03</pdfrwt>
<pdfrwt beam="1">  1       -2 0.12207029E-01 0.60837647E+03</pdfrwt>
<totfact> 0.45598631E+02</totfact>
</mgrwt>
</event>
<event>
 7    1  0.5400401E-006  0.1423044E+03  0.7546771E-02  0.1216310E+00
         -2   -1    0    0    0  501 -0.00000000000E+00  0.00000000000E+00  0.40186468720E+03  0.40186468720E+03  0.00000000000E+00 0.  1.
          2   -1    0    0  501    0  0.00000000000E+00 -0.00000000000E+00 -0.66469795687E+02  0.66469795687E+02  0.00000000000E+00 0. -1.
         23    2    1    2    0    0  0.73675178870E+02  0.40644592802E+02  0.30933593584E+03  0.34049856616E+03  0.11476296202E+03 0.  0.
          5    1    3    3  502    0  0.10124685106E+02 -0.35630876803E+02  0.13232693349E+03  0.13749391244E+03  0.47000000000E+01 0. -1.
         -5    1    3    3    0  502  0.63550493765E+02  0.76275469605E+02  0.17700900234E+03  0.20300465372E+03  0.47000000000E+01 0.  1.
        -11    1    1    2    0    0 -0.13159199150E+02  0.27528502620E+02 -0.62054768387E+01  0.31136649170E+02  0.00000000000E+00 0.  1.
         11    1    1    2    0    0 -0.60515979721E+02 -0.68173095421E+02  0.32264432515E+02  0.96699267559E+02  0.00000000000E+00 0. -1.
<mgrwt>
<rscale>  0 0.13780756E+03</rscale>
<asrwt>0</asrwt>
<pdfrwt beam="2">  1        2 0.10226123E-01 0.14230444E+03</pdfrwt>
<pdfrwt beam="1">  1       -2 0.61825335E-01 0.14230444E+03</pdfrwt>
<totfact> 0.15054883E+03</totfact>
</mgrwt>
</event>
<event>
 7    1  0.5400401E-006  0.2550146E+03  0.7546771E-02  0.1111854E+00
          1   -1    0    0  501    0  0.00000000000E+00  0.00000000000E+00  0.24358484538E+03  0.24358484538E+03  0.00000000000E+00 0. -1.
         -1   -1    0    0    0  501 -0.00000000000E+00 -0.00000000000E+00 -0.26328199480E+03  0.26328199480E+03  0.00000000000E+00 0.  1.
         23    2    1    2    0    0  0.74369219788E+02 -0.20946498839E+03 -0.52346176580E+02  0.26033163038E+03  0.12500429338E+03 0.  0.
          5    1    3    3  502    0  0.59574670486E+02 -0.22508854115E+03 -0.45715412855E+02  0.23733095392E+03  0.47000000000E+01 0.  1.
         -5    1    3    3    0  502  0.14794549302E+02  0.15623552758E+02 -0.66307637250E+01  0.23000676456E+02  0.47000000000E+01 0.  1.
        -11    1    1    2    0    0 -0.43867467647E+02  0.14772957411E+03  0.68797080887E+02  0.16876439234E+03  0.00000000000E+00 0. -1.
         11    1    1    2    0    0 -0.30501752141E+02  0.61735414277E+02 -0.36148053722E+02  0.77770817454E+02  0.00000000000E+00 0.  1.
<mgrwt>
<rscale>  0 0.25230913E+03</rscale>
<asrwt>0</asrwt>
<pdfrwt beam="1">  1        1 0.37474592E-01 0.25501458E+03</pdfrwt>
<pdfrwt beam="2">  1       -1 0.40504922E-01 0.25501458E+03</pdfrwt>
<totfact> 0.69097513E+02</totfact>
</mgrwt>
</event>
<event>
 7    1  0.5400401E-006  0.1411734E+03  0.7546771E-02  0.1220731E+00
         -2   -1    0    0    0  501 -0.00000000000E+00  0.00000000000E+00  0.14597612931E+03  0.14597612931E+03  0.00000000000E+00 0.  1.
          2   -1    0    0  501    0  0.00000000000E+00 -0.00000000000E+00 -0.11996956537E+03  0.11996956537E+03  0.00000000000E+00 0. -1.
         23    2    1    2    0    0  0.21078300753E+02  0.62148272419E+02  0.43785251268E+02  0.14780752609E+03  0.12499285584E+03 0.  0.
          5    1    3    3  502    0  0.43590093643E+02  0.77572877522E+01  0.70189789229E+02  0.83120203857E+02  0.47000000000E+01 0.  1.
         -5    1    3    3    0  502 -0.22511792890E+02  0.54390984667E+02 -0.26404537961E+02  0.64687322229E+02  0.47000000000E+01 0.  1.
        -11    1    1    2    0    0 -0.57862430048E+02 -0.21960185679E+02 -0.14460722936E+02  0.63556455801E+02  0.00000000000E+00 0. -1.
         11    1    1    2    0    0  0.36784129294E+02 -0.40188086740E+02 -0.33179643858E+01  0.54581712793E+02  0.00000000000E+00 0.  1.
<mgrwt>
<rscale>  0 0.13463827E+03</rscale>
<asrwt>0</asrwt>
<pdfrwt beam="2">  1        2 0.18456856E-01 0.14117336E+03</pdfrwt>
<pdfrwt beam="1">  1       -2 0.22457866E-01 0.14117336E+03</pdfrwt>
<totfact> 0.50072783E+03</totfact>
</mgrwt>
</event>
<event>
 6    1  0.5400401E-006  0.9776955E+03  0.7546771E-02  0.1032160E+00
         -2   -1    0    0    0  501 -0.00000000000E+00  0.00000000000E+00  0.24099294823E+03  0.24099294823E+03  0.00000000000E+00 0. -1.
          2   -1    0    0  501    0  0.00000000000E+00 -0.00000000000E+00 -0.11806309543E+04  0.11806309543E+04  0.00000000000E+00 0.  1.
          5    1    1    2  502    0 -0.20483523447E+03 -0.37993579806E+03 -0.66851329965E+03  0.79576429031E+03  0.47000000000E+01 0.  1.
         -5    1    1    2    0  502  0.17275539913E+03  0.39756746321E+03 -0.92659756386E+02  0.44329700674E+03  0.47000000000E+01 0. -1.
        -11    1    1    2    0    0  0.12861575286E+02 -0.13306744293E+02 -0.75951661378E+02  0.78173809096E+02  0.00000000000E+00 0.  1.
         11    1    1    2    0    0  0.19218260063E+02 -0.43249208565E+01 -0.10251328862E+03  0.10438879635E+03  0.00000000000E+00 0. -1.
<mgrwt>
<rscale>  0 0.43542382E+03</rscale>
<asrwt>0</asrwt>
<pdfrwt beam="2">  1        2 0.18163553E+00 0.97769549E+03</pdfrwt>
<pdfrwt beam="1">  1       -2 0.37075839E-01 0.97769549E+03</pdfrwt>
<totfact> 0.13320541E+02</totfact>
</mgrwt>
</event>
<event>
 7    1  0.5400401E-006  0.1307327E+03  0.7546771E-02  0.1240695E+00
          2   -1    0    0  501    0  0.00000000000E+00  0.00000000000E+00  0.40995452355E+03  0.40995452355E+03  0.00000000000E+00 0. -1.
         -2   -1    0    0    0  501 -0.00000000000E+00 -0.00000000000E+00 -0.37667475667E+02  0.37667475667E+02  0.00000000000E+00 0.  1.
         23    2    1    2    0    0 -0.92113915632E+01 -0.37179003804E+02  0.12110687550E+03  0.17820747553E+03  0.12499560386E+03 0.  0.
          5    1    3    3  502    0 -0.57517035870E+02  0.14632306711E+02  0.50282925782E+02  0.77928020892E+02  0.47000000000E+01 0.  1.
         -5    1    3    3    0  502  0.48305644307E+02 -0.51811310515E+02  0.70823949722E+02  0.10027945464E+03  0.47000000000E+01 0.  1.
        -11    1    1    2    0    0 -0.18498581209E+02 -0.89906351159E+01  0.11103750901E+02  0.23373538684E+02  0.00000000000E+00 0.  1.
         11    1    1    2    0    0  0.27709972772E+02  0.46169638920E+02  0.24007642148E+03  0.24604098500E+03  0.00000000000E+00 0. -1.
<mgrwt>
<rscale>  0 0.12146799E+03</rscale>
<asrwt>0</asrwt>
<pdfrwt beam="1">  1        2 0.63069924E-01 0.13073266E+03</pdfrwt>
<pdfrwt beam="2">  1       -2 0.57949965E-02 0.13073266E+03</pdfrwt>
<totfact> 0.11460520E+04</totfact>
</mgrwt>
</event>
<event>
 6    1  0.5400401E-006  0.1980592E+03  0.7546771E-02  0.1168972E+00
         -1   -1    0    0    0  501 -0.00000000000E+00  0.00000000000E+00  0.54574730372E+03  0.54574730372E+03  0.00000000000E+00 0.  1.
          1   -1    0    0  501    0  0.00000000000E+00 -0.00000000000E+00 -0.56686748837E+02  0.56686748837E+02  0.00000000000E+00 0. -1.
          5    1    1    2  502    0 -0.50144293464E+02  0.85093836510E+02  0.92487278490E+02  0.13539349269E+03  0.47000000000E+01 0. -1.
         -5    1    1    2    0  502 -0.32777072791E+02 -0.39181490857E+02  0.29872426757E+03  0.30309702038E+03  0.47000000000E+01 0.  1.
        -11    1    1    2    0    0  0.19710856826E+02 -0.29186550346E+02  0.91745756055E+02  0.98273375601E+02  0.00000000000E+00 0.  1.
         11    1    1    2    0    0  0.63210509429E+02 -0.16725795308E+02  0.61032527643E+01  0.65670163889E+02  0.00000000000E+00 0. -1.
<mgrwt>
<rscale>  0 0.17879759E+03</rscale>
<asrwt>0</asrwt>
<pdfrwt beam="2">  1        1 0.87210386E-02 0.19805922E+03</pdfrwt>
<pdfrwt beam="1">  1       -1 0.83961120E-01 0.19805922E+03</pdfrwt>
<totfact> 0.11304621E+03</totfact>
</mgrwt>
</event>
<event>
 7    1  0.5400401E-006  0.1266637E+03  0.7546771E-02  0.1247969E+00
         -2   -1    0    0    0  501 -0.00000000000E+00  0.00000000000E+00  0.15680702652E+03  0.15680702652E+03  0.00000000000E+00 0.  1.
          2   -1    0    0  501    0  0.00000000000E+00 -0.00000000000E+00 -0.92871213407E+02  0.92871213407E+02  0.00000000000E+00 0. -1.
         23    2    1    2    0    0 -0.35334766643E+01  0.20117030217E+02  0.87826802688E+02  0.15413382251E+03  0.12500603029E+03 0.  0.
          5    1    3    3  502    0 -0.12280293346E+02  0.39101019341E+02 -0.18829675323E+02  0.45346907182E+02  0.47000000000E+01 0. -1.
         -5    1    3    3    0  502  0.87468166815E+01 -0.18983989124E+02  0.10665647801E+03  0.10878691533E+03  0.47000000000E+01 0. -1.
        -11    1    1    2    0    0  0.24569073587E+02 -0.49800793604E+02 -0.91055711211E+01  0.56273171636E+02  0.00000000000E+00 0. -1.
         11    1    1    2    0    0 -0.21035596922E+02  0.29683763387E+02 -0.14785418450E+02  0.39271245784E+02  0.00000000000E+00 0.  1.
<mgrwt>
<rscale>  0 0.11709419E+03</rscale>
<asrwt>0</asrwt>
<pdfrwt beam="2">  1        2 0.14287879E-01 0.12666368E+03</pdfrwt>
<pdfrwt beam="1">  1       -2 0.24124158E-01 0.12666368E+03</pdfrwt>
<totfact> 0.59099229E+03</totfact>
</mgrwt>
</event>
<event>
 7    1  0.6658934E-006  0.2185931E+03  0.7546771E-02  0.1138296E+00
         -1   -1    0    0    0  501 -0.00000000000E+00  0.00000000000E+00  0.17191677219E+03  0.17191677219E+03  0.00000000000E+00 0.  1.
          1   -1    0    0  501    0  0.00000000000E+00 -0.00000000000E+00 -0.25974462076E+03  0.25974462076E+03  0.00000000000E+00 0. -1.
         23    2    1    2    0    0 -0.17226095011E+03  0.49840421021E+02 -0.69378516215E+02  0.22933891567E+03  0.12500022892E+03 0.  0.
          5    1    3    3  502    0 -0.12065223839E+03  0.34234779012E+02 -0.10576294194E+03  0.16412456431E+03  0.47000000000E+01 0. -1.
         -5    1    3    3    0  502 -0.51608711720E+02  0.15605642008E+02  0.36384425727E+02  0.65214351360E+02  0.47000000000E+01 0. -1.
        -11    1    1    2    0    0  0.13138260330E+03 -0.51011398111E+02 -0.51178898585E+02  0.14994275857E+03  0.00000000000E+00 0. -1.
         11    1    1    2    0    0  0.40878346808E+02  0.11709770903E+01  0.32729566236E+02  0.52379718700E+02  0.00000000000E+00 0.  1.
<mgrwt>
<rscale>  0 0.21418307E+03</rscale>
<asrwt>0</asrwt>
<pdfrwt beam="2">  1        1 0.39960711E-01 0.21859314E+03</pdfrwt>
<pdfrwt beam="1">  1       -1 0.26448734E-01 0.21859314E+03</pdfrwt>
<totfact> 0.13272004E+03</totfact>
</mgrwt>
</event>
<event>
 7    1  0.5400401E-006  0.1267451E+03  0.7546771E-02  0.1247209E+00
          1   -1    0    0  501    0  0.00000000000E+00  0.00000000000E+00  0.12274432849E+03  0.12274432849E+03  0.00000000000E+00 0. -1.
         -1   -1    0    0    0  501 -0.00000000000E+00 -0.00000000000E+00 -0.10205306841E+03  0.10205306841E+03  0.00000000000E+00 0.  1.
         23    2    1    2    0    0 -0.72730845102E+01  0.19517008736E+02 -0.73081225178E+01  0.12695559799E+03  0.12502201334E+03 0.  0.
          5    1    3    3  502    0  0.47193161307E+02  0.44024892216E+02  0.77728930625E+01  0.65175865743E+02  0.47000000000E+01 0. -1.
         -5    1    3    3    0  502 -0.54466245817E+02 -0.24507883479E+02 -0.15081015580E+02  0.61779732251E+02  0.47000000000E+01 0. -1.
        -11    1    1    2    0    0 -0.16433610139E+01 -0.53912619744E+02  0.22947040393E+01  0.53986450797E+02  0.00000000000E+00 0.  1.
         11    1    1    2    0    0  0.89164455241E+01  0.34395611007E+02  0.25704678562E+02  0.43855348104E+02  0.00000000000E+00 0. -1.
<mgrwt>
<rscale>  0 0.11754146E+03</rscale>
<asrwt>0</asrwt>
<pdfrwt beam="1">  1        1 0.18883743E-01 0.12674508E+03</pdfrwt>
<pdfrwt beam="2">  1       -1 0.15700472E-01 0.12674508E+03</pdfrwt>
<totfact> 0.77330526E+03</totfact>
</mgrwt>
</event>
<event>
 6    1  0.5400401E-006  0.1365733E+03  0.7546771E-02  0.1233158E+00
          1   -1    0    0  501    0  0.00000000000E+00  0.00000000000E+00  0.23520250691E+03  0.23520250691E+03  0.00000000000E+00 0. -1.
         -1   -1    0    0    0  501 -0.00000000000E+00 -0.00000000000E+00 -0.78920169959E+02  0.78920169959E+02  0.00000000000E+00 0.  1.
          5    1    1    2  502    0 -0.78856414364E+02  0.27866546617E+02  0.27022053213E+02  0.88017951956E+02  0.47000000000E+01 0. -1.
         -5    1    1    2    0  502  0.45374731962E+02 -0.36154643791E+01 -0.17251380710E+02  0.48904376283E+02  0.47000000000E+01 0.  1.
        -11    1    1    2    0    0  0.12745517789E+02  0.32823116359E+02  0.78435532813E+02  0.85976380471E+02  0.00000000000E+00 0.  1.
         11    1    1    2    0    0  0.20736164614E+02 -0.57074198596E+02  0.68076131637E+02  0.91223968160E+02  0.00000000000E+00 0. -1.
<mgrwt>
<rscale>  0 0.12623111E+03</rscale>
<asrwt>0</asrwt>
<pdfrwt beam="1">  1        1 0.36185001E-01 0.13657327E+03</pdfrwt>
<pdfrwt beam="2">  1       -1 0.12141565E-01 0.13657327E+03</pdfrwt>
<totfact> 0.51362538E+03</totfact>
</mgrwt>
</event>
<event>
 7    1  0.5400401E-006  0.1900610E+03  0.7546771E-02  0.1160965E+00
         -2   -1    0    0    0  501 -0.00000000000E+00  0.00000000000E+00  0.68886087545E+02  0.68886087545E+02  0.00000000000E+00 0.  1.
          2   -1    0    0  501    0  0.00000000000E+00 -0.00000000000E+00 -0.49992077679E+03  0.49992077679E+03  0.00000000000E+00 0. -1.
         23    2    1    2    0    0 -0.13154514345E+03 -0.56525507825E+02 -0.19224341204E+03  0.27033446831E+03  0.12499574986E+03 0.  0.
          5    1    3    3  502    0 -0.41370408047E+02  0.34104057198E+02 -0.23885152282E+02  0.58882831784E+02  0.47000000000E+01 0.  1.
         -5    1    3    3    0  502 -0.90174735404E+02 -0.90629565023E+02 -0.16835825976E+03  0.21145163653E+03  0.47000000000E+01 0.  1.
        -11    1    1    2    0    0  0.11160690980E+03  0.25124221620E+02 -0.91308634621E+02  0.14637143021E+03  0.00000000000E+00 0. -1.
         11    1    1    2    0    0  0.19938233652E+02  0.31401286205E+02 -0.14748264258E+03  0.15210096581E+03  0.00000000000E+00 0.  1.
<mgrwt>
<rscale>  0 0.18725045E+03</rscale>
<asrwt>0</asrwt>
<pdfrwt beam="2">  1        2 0.76910890E-01 0.19006103E+03</pdfrwt>
<pdfrwt beam="1">  1       -2 0.10597859E-01 0.19006103E+03</pdfrwt>
<totfact> 0.37016721E+03</totfact>
</mgrwt>
</event>
<event>
 7    1  0.5400401E-006  0.1183966E+03  0.7546771E-02  0.1246943E+00
          2   -1    0    0  501    0  0.00000000000E+00  0.00000000000E+00  0.24639832752E+03  0.24639832752E+03  0.00000000000E+00 0. -1.
         -2   -1    0    0    0  501 -0.00000000000E+00 -0.00000000000E+00 -0.60638146995E+02  0.60638146995E+02  0.00000000000E+00 0.  1.
         23    2    1    2    0    0 -0.24367294219E+02  0.18573033413E+02  0.47485784587E+02  0.12499920251E+03  0.11149519403E+03 0.  0.
          5    1    3    3  502    0  0.26488330836E+02  0.24884904322E+02  0.61565467183E+02  0.71646960040E+02  0.47000000000E+01 0. -1.
         -5    1    3    3    0  502 -0.50855625055E+02 -0.63118709098E+01 -0.14079682596E+02  0.53352242466E+02  0.47000000000E+01 0.  1.
        -11    1    1    2    0    0  0.46953484121E+02 -0.50568317724E+02  0.12086787427E+03  0.13917912005E+03  0.00000000000E+00 0.  1.
         11    1    1    2    0    0 -0.22586189901E+02  0.31995284312E+02  0.17406521671E+02  0.42858151957E+02  0.00000000000E+00 0. -1.
<mgrwt>
<rscale>  0 0.11769839E+03</rscale>
<asrwt>0</asrwt>
<pdfrwt beam="1">  1        2 0.37907434E-01 0.11839662E+03</pdfrwt>
<pdfrwt beam="2">  1       -2 0.93289458E-02 0.11839662E+03</pdfrwt>
<totfact> 0.93998835E+03</totfact>
</mgrwt>
</event>
<event>
 6    1  0.5400401E-006  0.1629991E+03  0.7546771E-02  0.1194263E+00
         -2   -1    0    0    0  501 -0.00000000000E+00  0.00000000000E+00  0.28131162230E+02  0.28131162230E+02  0.00000000000E+00 0.  1.
          2   -1    0    0  501    0  0.00000000000E+00 -0.00000000000E+00 -0.78504177591E+03  0.78504177591E+03  0.00000000000E+00 0. -1.
          5    1    1    2  502    0 -0.56691741141E+01 -0.74788699610E+02 -0.42944417501E+03  0.43597004321E+03  0.47000000000E+01 0. -1.
         -5    1    1    2    0  502  0.21575073147E+02 -0.17631829740E+02 -0.58700465791E+01  0.28860226058E+02  0.47000000000E+01 0.  1.
        -11    1    1    2    0    0 -0.19186269889E+02  0.10796398055E+03 -0.30957198000E+03  0.32841916030E+03  0.00000000000E+00 0.  1.
         11    1    1    2    0    0  0.32803708557E+01 -0.15543451195E+02 -0.12024412090E+02  0.19923508580E+02  0.00000000000E+00 0. -1.
<mgrwt>
<rscale>  0 0.15516767E+03</rscale>
<asrwt>0</asrwt>
<pdfrwt beam="2">  1        2 0.12077566E+00 0.16299910E+03</pdfrwt>
<pdfrwt beam="1">  1       -2 0.43278711E-02 0.16299910E+03</pdfrwt>
<totfact> 0.86173898E+03</totfact>
</mgrwt>
</event>
<event>
 7    1  0.5400401E-006  0.1670730E+03  0.7546771E-02  0.1187733E+00
          2   -1    0    0  501    0  0.00000000000E+00  0.00000000000E+00  0.74233718019E+03  0.74233718019E+03  0.00000000000E+00 0. -1.
         -2   -1    0    0    0  501 -0.00000000000E+00 -0.00000000000E+00 -0.49470856340E+02  0.49470856340E+02  0.00000000000E+00 0.  1.
         23    2    1    2    0    0  0.10238441066E+03  0.42494087096E+02  0.13218914486E+03  0.21304307750E+03  0.12500027148E+03 0.  0.
          5    1    3    3  502    0  0.82667729147E+02 -0.16077447115E+01  0.14118277780E+03  0.16368019132E+03  0.47000000000E+01 0. -1.
         -5    1    3    3    0  502  0.19716681511E+02  0.44101831808E+02 -0.89936329363E+01  0.49362886180E+02  0.47000000000E+01 0. -1.
        -11    1    1    2    0    0 -0.17160977199E+02 -0.49542181451E+02  0.29626019202E+03  0.30086380350E+03  0.00000000000E+00 0. -1.
         11    1    1    2    0    0 -0.85223433459E+02  0.70480943544E+01  0.26441698697E+03  0.27790115553E+03  0.00000000000E+00 0.  1.
<mgrwt>
<rscale>  0 0.16085678E+03</rscale>
<asrwt>0</asrwt>
<pdfrwt beam="1">  1        2 0.11420571E+00 0.16707299E+03</pdfrwt>
<pdfrwt beam="2">  1       -2 0.76109015E-02 0.16707299E+03</pdfrwt>
<totfact> 0.39170768E+03</totfact>
</mgrwt>
</event>
<event>
 7    1  0.5400401E-006  0.3381302E+03  0.7546771E-02  0.1068874E+00
          1   -1    0    0  501    0  0.00000000000E+00  0.00000000000E+00  0.48145884734E+03  0.48145884734E+03  0.00000000000E+00 0. -1.
         -1   -1    0    0    0  501 -0.00000000000E+00 -0.00000000000E+00 -0.27325546659E+03  0.27325546659E+03  0.00000000000E+00 0.  1.
         23    2    1    2    0    0 -0.31303372698E+03 -0.26749009489E+02 -0.45646842318E+02  0.34119741816E+03  0.12500568072E+03 0.  0.
          5    1    3    3  502    0 -0.13525284068E+03  0.32965445172E+02  0.23498682942E+02  0.14125979466E+03  0.47000000000E+01 0. -1.
         -5    1    3    3    0  502 -0.17778088630E+03 -0.59714454662E+02 -0.69145525260E+02  0.19993762350E+03  0.47000000000E+01 0. -1.
        -11    1    1    2    0    0  0.25317705739E+03  0.13403998212E+01  0.16055862549E+03  0.29979908485E+03  0.00000000000E+00 0.  1.
         11    1    1    2    0    0  0.59856669585E+02  0.25408609668E+02  0.93291597585E+02  0.11371781091E+03  0.00000000000E+00 0. -1.
<mgrwt>
<rscale>  0 0.33516632E+03</rscale>
<asrwt>0</asrwt>
<pdfrwt beam="1">  1        1 0.74070592E-01 0.33813022E+03</pdfrwt>
<pdfrwt beam="2">  1       -1 0.42039303E-01 0.33813022E+03</pdfrwt>
<totfact> 0.26881912E+02</totfact>
</mgrwt>
</event>
<event>
 7    1  0.5400401E-006  0.1599333E+03  0.7546771E-02  0.1195563E+00
         -1   -1    0    0    0  501 -0.00000000000E+00  0.00000000000E+00  0.37475295526E+03  0.37475295526E+03  0.00000000000E+00 0.  1.
          1   -1    0    0  501    0  0.00000000000E+00 -0.00000000000E+00 -0.71867360382E+02  0.71867360382E+02  0.00000000000E+00 0. -1.
         23    2    1    2    0    0 -0.94649066045E+02 -0.31537219238E+02  0.25461554762E+03  0.30067881326E+03  0.12500251899E+03 0.  0.
          5    1    3    3  502    0 -0.11971959217E+03 -0.40250586123E+02  0.23664480373E+03  0.26828295429E+03  0.47000000000E+01 0.  1.
         -5    1    3    3    0  502  0.25070526120E+02  0.87133668858E+01  0.17970743895E+02  0.32395858973E+02  0.47000000000E+01 0.  1.
        -11    1    1    2    0    0  0.75866457888E+02  0.60619765401E+02  0.53587789266E+02  0.11091495187E+03  0.00000000000E+00 0. -1.
         11    1    1    2    0    0  0.18782608157E+02 -0.29082546163E+02 -0.53177420124E+01  0.35026550510E+02  0.00000000000E+00 0.  1.
<mgrwt>
<rscale>  0 0.15406699E+03</rscale>
<asrwt>0</asrwt>
<pdfrwt beam="2">  1        1 0.11056517E-01 0.15993334E+03</pdfrwt>
<pdfrwt beam="1">  1       -1 0.57654300E-01 0.15993334E+03</pdfrwt>
<totfact> 0.17256958E+03</totfact>
</mgrwt>
</event>
<event>
 7    1  0.5400401E-006  0.2001980E+03  0.7546771E-02  0.1153676E+00
          2   -1    0    0  501    0  0.00000000000E+00  0.00000000000E+00  0.22520799939E+03  0.22520799939E+03  0.00000000000E+00 0. -1.
         -2   -1    0    0    0  501 -0.00000000000E+00 -0.00000000000E+00 -0.25294498128E+03  0.25294498128E+03  0.00000000000E+00 0.  1.
         23    2    1    2    0    0  0.44817991356E+02 -0.14981350499E+03 -0.15762389732E+03  0.25480290456E+03  0.12500595402E+03 0.  0.
          5    1    3    3  502    0  0.63190818822E+02 -0.12362419917E+03 -0.17056171921E+03  0.21997593565E+03  0.47000000000E+01 0. -1.
         -5    1    3    3    0  502 -0.18372827466E+02 -0.26189305818E+02  0.12937821894E+02  0.34826968913E+02  0.47000000000E+01 0. -1.
        -11    1    1    2    0    0 -0.18802362405E+02 -0.37578785603E+01  0.37853124633E+02  0.42432411289E+02  0.00000000000E+00 0. -1.
         11    1    1    2    0    0 -0.26015628952E+02  0.15357138355E+03  0.92033790788E+02  0.18091766482E+03  0.00000000000E+00 0.  1.
<mgrwt>
<rscale>  0 0.19540383E+03</rscale>
<asrwt>0</asrwt>
<pdfrwt beam="1">  1        2 0.34647385E-01 0.20019797E+03</pdfrwt>
<pdfrwt beam="2">  1       -2 0.38914612E-01 0.20019797E+03</pdfrwt>
<totfact> 0.93625267E+02</totfact>
</mgrwt>
</event>
<event>
 7    1  0.5400401E-006  0.1263365E+03  0.7546771E-02  0.1251297E+00
         -1   -1    0    0    0  501 -0.00000000000E+00  0.00000000000E+00  0.30657588557E+03  0.30657588557E+03  0.00000000000E+00 0.  1.
          1   -1    0    0  501    0  0.00000000000E+00 -0.00000000000E+00 -0.37344933181E+02  0.37344933181E+02  0.00000000000E+00 0. -1.
         23    2    1    2    0    0 -0.17992014265E+02 -0.12808694425E+01  0.14839991369E+03  0.19489340271E+03  0.12504219621E+03 0.  0.
          5    1    3    3  502    0 -0.70682450238E+02  0.20071940162E+01  0.65513890533E+02  0.96510089899E+02  0.47000000000E+01 0.  1.
         -5    1    3    3    0  502  0.52690435974E+02 -0.32880634588E+01  0.82886023157E+02  0.98383312809E+02  0.47000000000E+01 0.  1.
        -11    1    1    2    0    0 -0.77840455345E+01  0.23407312047E+02  0.11093572750E+03  0.11364519021E+03  0.00000000000E+00 0. -1.
         11    1    1    2    0    0  0.25776059799E+02 -0.22126442605E+02  0.98953112000E+01  0.35382225833E+02  0.00000000000E+00 0.  1.
<mgrwt>
<rscale>  0 0.11516294E+03</rscale>
<asrwt>0</asrwt>
<pdfrwt beam="2">  1        1 0.57453745E-02 0.12633647E+03</pdfrwt>
<pdfrwt beam="1">  1       -1 0.47165519E-01 0.12633647E+03</pdfrwt>
<totfact> 0.59393738E+03</totfact>
</mgrwt>
</event>
<event>
 7    1  0.5400401E-006  0.1257409E+03  0.7546771E-02  0.1249059E+00
          2   -1    0    0  501    0  0.00000000000E+00  0.00000000000E+00  0.21707100999E+03  0.21707100999E+03  0.00000000000E+00 0. -1.
         -2   -1    0    0    0  501 -0.00000000000E+00 -0.00000000000E+00 -0.67897099724E+02  0.67897099724E+02  0.00000000000E+00 0.  1.
         23    2    1    2    0    0  0.70027516553E+01  0.11691509320E+02  0.21922597914E+02  0.12763771005E+03  0.12500021923E+03 0.  0.
          5    1    3    3  502    0  0.55014341425E+02 -0.21686240244E+02 -0.11053840417E+02  0.60341927102E+02  0.47000000000E+01 0.  1.
         -5    1    3    3    0  502 -0.48011589770E+02  0.33377749564E+02  0.32976438331E+02  0.67295782952E+02  0.47000000000E+01 0.  1.
        -11    1    1    2    0    0  0.18115252577E+02 -0.16938039942E+02 -0.26291880059E+01  0.24939370533E+02  0.00000000000E+00 0.  1.
         11    1    1    2    0    0 -0.25118004232E+02  0.52465306224E+01  0.12988050035E+03  0.13239102912E+03  0.00000000000E+00 0. -1.
<mgrwt>
<rscale>  0 0.11645724E+03</rscale>
<asrwt>0</asrwt>
<pdfrwt beam="1">  1        2 0.33395540E-01 0.12574094E+03</pdfrwt>
<pdfrwt beam="2">  1       -2 0.10445708E-01 0.12574094E+03</pdfrwt>
<totfact> 0.90569459E+03</totfact>
</mgrwt>
</event>
<event>
 6    1  0.5400401E-006  0.2132170E+03  0.7546771E-02  0.1149719E+00
          2   -1    0    0  501    0  0.00000000000E+00  0.00000000000E+00  0.41898732348E+03  0.41898732348E+03  0.00000000000E+00 0. -1.
         -2   -1    0    0    0  501 -0.00000000000E+00 -0.00000000000E+00 -0.87126566574E+02  0.87126566574E+02  0.00000000000E+00 0.  1.
          5    1    1    2  502    0  0.34523854083E+02 -0.29255902949E+02  0.79836483835E+02  0.91889926049E+02  0.47000000000E+01 0. -1.
         -5    1    1    2    0  502 -0.14312193977E+03 -0.56068945868E+02  0.71613810373E+02  0.16964151665E+03  0.47000000000E+01 0.  1.
        -11    1    1    2    0    0 -0.12843764719E+01  0.48800232197E+02  0.44762593547E+02  0.66232937927E+02  0.00000000000E+00 0.  1.
         11    1    1    2    0    0  0.10988246216E+03  0.36524616620E+02  0.13564786915E+03  0.17834950943E+03  0.00000000000E+00 0. -1.
<mgrwt>
<rscale>  0 0.20002410E+03</rscale>
<asrwt>0</asrwt>
<pdfrwt beam="1">  1        2 0.64459587E-01 0.21321703E+03</pdfrwt>
<pdfrwt beam="2">  1       -2 0.13404087E-01 0.21321703E+03</pdfrwt>
<totfact> 0.30918009E+03</totfact>
</mgrwt>
</event>
<event>
 7    1  0.5400401E-006  0.1283050E+03  0.7546771E-02  0.1245289E+00
         -1   -1    0    0    0  501 -0.00000000000E+00  0.00000000000E+00  0.61501464050E+02  0.61501464050E+02  0.00000000000E+00 0. -1.
          1   -1    0    0  501    0  0.00000000000E+00 -0.00000000000E+00 -0.20077408654E+03  0.20077408654E+03  0.00000000000E+00 0.  1.
         23    2    1    2    0    0 -0.28588110906E+02  0.43877680197E+01 -0.81590394804E+02  0.15204984281E+03  0.12500251830E+03 0.  0.
          5    1    3    3  502    0  0.12952002754E+01  0.63463876191E+01 -0.11012689082E+03  0.11041728244E+03  0.47000000000E+01 0.  1.
         -5    1    3    3    0  502 -0.29883311181E+02 -0.19586195994E+01  0.28536496020E+02  0.41632560370E+02  0.47000000000E+01 0.  1.
        -11    1    1    2    0    0  0.76405678852E+01 -0.44885431225E+02 -0.42184172261E+02  0.62069192061E+02  0.00000000000E+00 0. -1.
         11    1    1    2    0    0  0.20947543021E+02  0.40497663205E+02 -0.15498055421E+02  0.48156515712E+02  0.00000000000E+00 0.  1.
<mgrwt>
<rscale>  0 0.11868104E+03</rscale>
<asrwt>0</asrwt>
<pdfrwt beam="2">  1        1 0.30888321E-01 0.12830496E+03</pdfrwt>
<pdfrwt beam="1">  1       -1 0.94617636E-02 0.12830496E+03</pdfrwt>
<totfact> 0.91157824E+03</totfact>
</mgrwt>
</event>
<event>
 7    1  0.5400401E-006  0.1310789E+03  0.7546771E-02  0.1246831E+00
          1   -1    0    0  501    0  0.00000000000E+00  0.00000000000E+00  0.67500627896E+02  0.67500627896E+02  0.00000000000E+00 0. -1.
         -1   -1    0    0    0  501 -0.00000000000E+00 -0.00000000000E+00 -0.23764804404E+03  0.23764804404E+03  0.00000000000E+00 0.  1.
         23    2    1    2    0    0  0.36841175773E+02  0.14102085994E+02 -0.17611299070E+03  0.21953917923E+03  0.12500209863E+03 0.  0.
          5    1    3    3  502    0  0.73799532510E+02  0.41249853465E+02 -0.10675880294E+03  0.13626244315E+03  0.47000000000E+01 0.  1.
         -5    1    3    3    0  502 -0.36958356737E+02 -0.27147767471E+02 -0.69354187763E+02  0.83276736077E+02  0.47000000000E+01 0.  1.
        -11    1    1    2    0    0 -0.29599149295E+02 -0.44581245579E+02  0.84829721706E+01  0.54180789152E+02  0.00000000000E+00 0. -1.
         11    1    1    2    0    0 -0.72420264779E+01  0.30479159585E+02 -0.25173976186E+01  0.31428703557E+02  0.00000000000E+00 0.  1.
<mgrwt>
<rscale>  0 0.11776486E+03</rscale>
<asrwt>0</asrwt>
<pdfrwt beam="1">  1        1 0.10384712E-01 0.13107885E+03</pdfrwt>
<pdfrwt beam="2">  1       -1 0.36561237E-01 0.13107885E+03</pdfrwt>
<totfact> 0.42183016E+03</totfact>
</mgrwt>
</event>
<event>
 6    1  0.5400401E-006  0.3836861E+03  0.7546771E-02  0.1083820E+00
         -2   -1    0    0    0  501 -0.00000000000E+00  0.00000000000E+00  0.22935119908E+03  0.22935119908E+03  0.00000000000E+00 0.  1.
          2   -1    0    0  501    0  0.00000000000E+00 -0.00000000000E+00 -0.31694737043E+03  0.31694737043E+03  0.00000000000E+00 0. -1.
          5    1    1    2  502    0 -0.24040199473E+02 -0.20872809617E+02 -0.17713786398E+03  0.18003754672E+03  0.47000000000E+01 0. -1.
         -5    1    1    2    0  502  0.12710835212E+03 -0.47359696363E+02  0.15285435245E+03  0.20441628380E+03  0.47000000000E+01 0.  1.
        -11    1    1    2    0    0  0.94449663152E+01  0.19246689367E+02 -0.25757071199E+02  0.33512223994E+02  0.00000000000E+00 0.  1.
         11    1    1    2    0    0 -0.11251311896E+03  0.48985816614E+02 -0.37555588623E+02  0.12833251500E+03  0.00000000000E+00 0. -1.
<mgrwt>
<rscale>  0 0.30285871E+03</rscale>
<asrwt>0</asrwt>
<pdfrwt beam="2">  1        2 0.48761134E-01 0.38368615E+03</pdfrwt>
<pdfrwt beam="1">  1       -2 0.35284800E-01 0.38368615E+03</pdfrwt>
<totfact> 0.78214157E+02</totfact>
</mgrwt>
</event>
<event>
 7    1  0.6723377E-006  0.1270840E+03  0.7546771E-02  0.1246669E+00
          1   -1    0    0  501    0  0.00000000000E+00  0.00000000000E+00  0.13862755495E+03  0.13862755495E+03  0.00000000000E+00 0. -1.
         -1   -1    0    0    0  501 -0.00000000000E+00 -0.00000000000E+00 -0.88682622901E+02  0.88682622901E+02  0.00000000000E+00 0.  1.
         23    2    1    2    0    0 -0.10886914864E+02 -0.20167014169E+02  0.20045233974E+02  0.12865515376E+03  0.12500041523E+03 0.  0.
          5    1    3    3  502    0  0.29205186450E+02 -0.70689010875E+01 -0.42992794917E+02  0.52662915728E+02  0.47000000000E+01 0.  1.
         -5    1    3    3    0  502 -0.40092101315E+02 -0.13098113081E+02  0.63038028891E+02  0.75992238029E+02  0.47000000000E+01 0.  1.
        -11    1    1    2    0    0 -0.50509172831E+01 -0.11605541328E+02 -0.27992558411E+02  0.30721062503E+02  0.00000000000E+00 0.  1.
         11    1    1    2    0    0  0.15937832147E+02  0.31772555497E+02  0.57892256485E+02  0.67933961590E+02  0.00000000000E+00 0. -1.
<mgrwt>
<rscale>  0 0.11786026E+03</rscale>
<asrwt>0</asrwt>
<pdfrwt beam="1">  1        1 0.21327316E-01 0.12708398E+03</pdfrwt>
<pdfrwt beam="2">  1       -1 0.13643480E-01 0.12708398E+03</pdfrwt>
<totfact> 0.82537679E+03</totfact>
</mgrwt>
</event>
<event>
 7    1  0.5400401E-006  0.1277889E+03  0.7546771E-02  0.1253930E+00
         -4   -1    0    0    0  501 -0.00000000000E+00  0.00000000000E+00  0.24691263747E+03  0.24691263747E+03  0.00000000000E+00 0.  1.
          4   -1    0    0  501    0  0.00000000000E+00 -0.00000000000E+00 -0.43944169721E+02  0.43944169721E+02  0.00000000000E+00 0. -1.
         23    2    1    2    0    0 -0.13931239196E+02 -0.22430711326E+02  0.13502047583E+03  0.18590464867E+03  0.12503116919E+03 0.  0.
          5    1    3    3  502    0 -0.50346144442E+02 -0.26424620215E+02  0.13752132535E+03  0.14888653310E+03  0.47000000000E+01 0.  1.
         -5    1    3    3    0  502  0.36414905246E+02  0.39939088893E+01 -0.25008495129E+01  0.37018115573E+02  0.47000000000E+01 0.  1.
        -11    1    1    2    0    0  0.72246920606E+01  0.48629313002E+02  0.27603128353E+02  0.56382080072E+02  0.00000000000E+00 0. -1.
         11    1    1    2    0    0  0.67065471352E+01 -0.26198601676E+02  0.40344863558E+02  0.48570078441E+02  0.00000000000E+00 0.  1.
<mgrwt>
<rscale>  0 0.11366471E+03</rscale>
<asrwt>0</asrwt>
<pdfrwt beam="2">  1        4 0.67606416E-02 0.12778893E+03</pdfrwt>
<pdfrwt beam="1">  1       -4 0.37986559E-01 0.12778893E+03</pdfrwt>
<totfact> 0.15969198E+03</totfact>
</mgrwt>
</event>
<event>
 7    1  0.5400401E-006  0.1544280E+03  0.7546771E-02  0.1204048E+00
          1   -1    0    0  501    0  0.00000000000E+00  0.00000000000E+00  0.16691199848E+03  0.16691199848E+03  0.00000000000E+00 0. -1.
         -1   -1    0    0    0  501 -0.00000000000E+00 -0.00000000000E+00 -0.17022149555E+03  0.17022149555E+03  0.00000000000E+00 0.  1.
         23    2    1    2    0    0  0.41194339116E+02  0.80784387610E+02 -0.94090842084E+02  0.18083447371E+03  0.12499971784E+03 0.  0.
          5    1    3    3  502    0  0.90130783965E+01 -0.24481002108E+02 -0.59856417340E+02  0.65463239632E+02  0.47000000000E+01 0.  1.
         -5    1    3    3    0  502  0.32181260720E+02  0.10526538972E+03 -0.34234424744E+02  0.11537123407E+03  0.47000000000E+01 0.  1.
        -11    1    1    2    0    0 -0.21230940042E+02 -0.32218991169E+02 -0.12397258684E+02  0.40527869792E+02  0.00000000000E+00 0.  1.
         11    1    1    2    0    0 -0.19963399075E+02 -0.48565396441E+02  0.10317860370E+03  0.11577115053E+03  0.00000000000E+00 0. -1.
<mgrwt>
<rscale>  0 0.14712762E+03</rscale>
<asrwt>0</asrwt>
<pdfrwt beam="1">  1        1 0.25678769E-01 0.15442804E+03</pdfrwt>
<pdfrwt beam="2">  1       -1 0.26187922E-01 0.15442804E+03</pdfrwt>
<totfact> 0.23259987E+03</totfact>
</mgrwt>
</event>
<event>
 7    1  0.5400401E-006  0.1831446E+03  0.7546771E-02  0.1171914E+00
          3   -1    0    0  501    0  0.00000000000E+00  0.00000000000E+00  0.15161555223E+03  0.15161555223E+03  0.00000000000E+00 0. -1.
         -3   -1    0    0    0  501 -0.00000000000E+00 -0.00000000000E+00 -0.32281058762E+03  0.32281058762E+03  0.00000000000E+00 0.  1.
         23    2    1    2    0    0  0.13084947559E+03 -0.28198068729E+02 -0.24202661726E+03  0.30351085943E+03  0.12500096796E+03 0.  0.
          5    1    3    3  502    0  0.65184845951E+02 -0.73439811242E+02 -0.16774931643E+03  0.19443351866E+03  0.47000000000E+01 0.  1.
         -5    1    3    3    0  502  0.65664629639E+02  0.45241742513E+02 -0.74277300829E+02  0.10907734077E+03  0.47000000000E+01 0.  1.
        -11    1    1    2    0    0 -0.50805094333E+02  0.38445320701E+02  0.25997393445E+00  0.63712384043E+02  0.00000000000E+00 0.  1.
         11    1    1    2    0    0 -0.80044381257E+02 -0.10247251972E+02  0.70571607930E+02  0.10720289637E+03  0.00000000000E+00 0. -1.
<mgrwt>
<rscale>  0 0.17581713E+03</rscale>
<asrwt>0</asrwt>
<pdfrwt beam="1">  1        3 0.23325470E-01 0.18314464E+03</pdfrwt>
<pdfrwt beam="2">  1       -3 0.49663167E-01 0.18314464E+03</pdfrwt>
<totfact> 0.16700280E+02</totfact>
</mgrwt>
</event>
<event>
 7    1  0.5400401E-006  0.1428753E+03  0.7546771E-02  0.1219713E+00
          2   -1    0    0  501    0  0.00000000000E+00  0.00000000000E+00  0.72079381029E+03  0.72079381029E+03  0.00000000000E+00 0. -1.
         -2   -1    0    0    0  501 -0.00000000000E+00 -0.00000000000E+00 -0.26156625407E+02  0.26156625407E+02  0.00000000000E+00 0.  1.
         23    2    1    2    0    0 -0.53668244882E+02 -0.43669750213E+02  0.25294749095E+03  0.29050954419E+03  0.12500413793E+03 0.  0.
          5    1    3    3  502    0  0.94403815968E+01  0.35532160756E+02  0.10336373426E+03  0.10980804531E+03  0.47000000000E+01 0. -1.
         -5    1    3    3    0  502 -0.63108626479E+02 -0.79201910969E+02  0.14958375668E+03  0.18070149889E+03  0.47000000000E+01 0. -1.
        -11    1    1    2    0    0  0.23636856291E+02 -0.24992143168E+02  0.80222760280E+02  0.87286880242E+02  0.00000000000E+00 0.  1.
         11    1    1    2    0    0  0.30031388591E+02  0.68661893381E+02  0.36146693366E+03  0.36915401126E+03  0.00000000000E+00 0. -1.
<mgrwt>
<rscale>  0 0.13535952E+03</rscale>
<asrwt>0</asrwt>
<pdfrwt beam="1">  1        2 0.11089134E+00 0.14287534E+03</pdfrwt>
<pdfrwt beam="2">  1       -2 0.40240968E-02 0.14287534E+03</pdfrwt>
<totfact> 0.10581728E+04</totfact>
</mgrwt>
</event>
<event>
 6    1  0.5400401E-006  0.1407179E+03  0.7546771E-02  0.1233311E+00
          1   -1    0    0  501    0  0.00000000000E+00  0.00000000000E+00  0.13917515259E+03  0.13917515259E+03  0.00000000000E+00 0. -1.
         -1   -1    0    0    0  501 -0.00000000000E+00 -0.00000000000E+00 -0.97998697968E+02  0.97998697968E+02  0.00000000000E+00 0.  1.
          5    1    1    2  502    0  0.69296965923E+02 -0.48676070315E+01  0.32521660323E+01  0.69702436602E+02  0.47000000000E+01 0. -1.
         -5    1    1    2    0  502 -0.66984514639E+02 -0.13892376445E+01  0.36896587636E+02  0.76630955637E+02  0.47000000000E+01 0.  1.
        -11    1    1    2    0    0  0.11296320124E+02  0.24939555787E+02 -0.37187523340E+02  0.46179001541E+02  0.00000000000E+00 0.  1.
         11    1    1    2    0    0 -0.13608771408E+02 -0.18682711111E+02  0.38215224297E+02  0.44661456780E+02  0.00000000000E+00 0. -1.
<mgrwt>
<rscale>  0 0.12613191E+03</rscale>
<asrwt>0</asrwt>
<pdfrwt beam="1">  1        1 0.21411562E-01 0.14071794E+03</pdfrwt>
<pdfrwt beam="2">  1       -1 0.15076723E-01 0.14071794E+03</pdfrwt>
<totfact> 0.70794450E+03</totfact>
</mgrwt>
</event>
<event>
 7    1  0.5400401E-006  0.4001543E+03  0.7546771E-02  0.1044670E+00
         -2   -1    0    0    0  501 -0.00000000000E+00  0.00000000000E+00  0.28946187613E+03  0.28946187613E+03  0.00000000000E+00 0.  1.
          2   -1    0    0  501    0  0.00000000000E+00 -0.00000000000E+00 -0.59934768069E+03  0.59934768069E+03  0.00000000000E+00 0. -1.
         23    2    1    2    0    0  0.38012992558E+03 -0.12432986029E+01 -0.29853082522E+03  0.49924356457E+03  0.12499270796E+03 0.  0.
          5    1    3    3  502    0  0.15624314967E+03 -0.28857756488E+02 -0.57377745893E+02  0.16899404620E+03  0.47000000000E+01 0.  1.
         -5    1    3    3    0  502  0.22388677591E+03  0.27614457885E+02 -0.24115307933E+03  0.33024951836E+03  0.47000000000E+01 0.  1.
        -11    1    1    2    0    0 -0.20505935336E+03  0.40900159702E+02 -0.18521015582E+02  0.20991710146E+03  0.00000000000E+00 0. -1.
         11    1    1    2    0    0 -0.17507057222E+03 -0.39656861099E+02  0.71660362365E+01  0.17964889080E+03  0.00000000000E+00 0.  1.
<mgrwt>
<rscale>  0 0.39743833E+03</rscale>
<asrwt>0</asrwt>
<pdfrwt beam="2">  1        2 0.92207336E-01 0.40015432E+03</pdfrwt>
<pdfrwt beam="1">  1       -2 0.44532596E-01 0.40015432E+03</pdfrwt>
<totfact> 0.24393948E+02</totfact>
</mgrwt>
</event>
<event>
 7    1  0.5400401E-006  0.1333261E+03  0.7546771E-02  0.1231223E+00
          2   -1    0    0  501    0  0.00000000000E+00  0.00000000000E+00  0.20199639624E+02  0.20199639624E+02  0.00000000000E+00 0. -1.
         -2   -1    0    0    0  501 -0.00000000000E+00 -0.00000000000E+00 -0.74177630282E+03  0.74177630282E+03  0.00000000000E+00 0.  1.
         23    2    1    2    0    0  0.41056000009E+02  0.48037742047E+02 -0.39001689494E+03  0.41217598067E+03  0.11739949279E+03 0.  0.
          5    1    3    3  502    0 -0.19740719591E+02  0.31312981629E+02 -0.33657666324E+02  0.50250645078E+02  0.47000000000E+01 0. -1.
         -5    1    3    3    0  502  0.60796719600E+02  0.16724760418E+02 -0.35635922862E+03  0.36192533559E+03  0.47000000000E+01 0.  1.
        -11    1    1    2    0    0 -0.40354894824E+02 -0.73999229544E+02 -0.27356770285E+03  0.28625808557E+03  0.00000000000E+00 0. -1.
         11    1    1    2    0    0 -0.70110518510E+00  0.25961487497E+02 -0.57992065397E+02  0.63541876196E+02  0.00000000000E+00 0.  1.
<mgrwt>
<rscale>  0 0.12749326E+03</rscale>
<asrwt>0</asrwt>
<pdfrwt beam="1">  1        2 0.31076371E-02 0.13332614E+03</pdfrwt>
<pdfrwt beam="2">  1       -2 0.11411942E+00 0.13332614E+03</pdfrwt>
<totfact> 0.17953586E+03</totfact>
</mgrwt>
</event>
<event>
 7    1  0.5400401E-006  0.1423709E+03  0.7546771E-02  0.1221565E+00
          4   -1    0    0  501    0  0.00000000000E+00  0.00000000000E+00  0.73556861723E+03  0.73556861723E+03  0.00000000000E+00 0. -1.
         -4   -1    0    0    0  501 -0.00000000000E+00 -0.00000000000E+00 -0.22193466336E+02  0.22193466336E+02  0.00000000000E+00 0.  1.
         23    2    1    2    0    0 -0.55923812366E+02  0.38953864771E+02  0.36158284543E+03  0.38860215703E+03  0.12499842386E+03 0.  0.
          5    1    3    3  502    0  0.53101819934E+01  0.71480378066E+02  0.16025294942E+03  0.17561531903E+03  0.47000000000E+01 0.  1.
         -5    1    3    3    0  502 -0.61233994359E+02 -0.32526513295E+02  0.20132989601E+03  0.21298683799E+03  0.47000000000E+01 0.  1.
        -11    1    1    2    0    0  0.18208992590E+02  0.25887593219E+02  0.16236491050E+03  0.16542097525E+03  0.00000000000E+00 0.  1.
         11    1    1    2    0    0  0.37714819776E+02 -0.64841457990E+02  0.18942739497E+03  0.20373895129E+03  0.00000000000E+00 0. -1.
<mgrwt>
<rscale>  0 0.13405155E+03</rscale>
<asrwt>0</asrwt>
<pdfrwt beam="1">  1        4 0.11316438E+00 0.14237093E+03</pdfrwt>
<pdfrwt beam="2">  1       -4 0.34143800E-02 0.14237093E+03</pdfrwt>
<totfact> 0.47162507E+02</totfact>
</mgrwt>
</event>
<event>
 7    1  0.7888344E-006  0.1536090E+03  0.7546771E-02  0.1204574E+00
         -1   -1    0    0    0  501 -0.00000000000E+00  0.00000000000E+00  0.60750883543E+03  0.60750883543E+03  0.00000000000E+00 0.  1.
          1   -1    0    0  501    0  0.00000000000E+00 -0.00000000000E+00 -0.33437712529E+02  0.33437712529E+02  0.00000000000E+00 0. -1.
         23    2    1    2    0    0  0.66321698924E+01 -0.89033411525E+02  0.36340490888E+03  0.39453626477E+03  0.12499920951E+03 0.  0.
          5    1    3    3  502    0 -0.10840313859E+02 -0.23960068404E+02  0.30222999476E+03  0.30340839971E+03  0.47000000000E+01 0. -1.
         -5    1    3    3    0  502  0.17472483751E+02 -0.65073343122E+02  0.61174914118E+02  0.91127865062E+02  0.47000000000E+01 0. -1.
        -11    1    1    2    0    0 -0.46855637824E+02  0.28032956080E+02  0.96031185225E+02  0.11046848400E+03  0.00000000000E+00 0.  1.
         11    1    1    2    0    0  0.40223467932E+02  0.61000455445E+02  0.11463502879E+03  0.13594179918E+03  0.00000000000E+00 0. -1.
<mgrwt>
<rscale>  0 0.14671067E+03</rscale>
<asrwt>0</asrwt>
<pdfrwt beam="2">  1        1 0.51442639E-02 0.15360904E+03</pdfrwt>
<pdfrwt beam="1">  1       -1 0.93462890E-01 0.15360904E+03</pdfrwt>
<totfact> 0.18313769E+03</totfact>
</mgrwt>
</event>
<event>
 7    1  0.5400401E-006  0.1263273E+03  0.7546771E-02  0.1248416E+00
         -1   -1    0    0    0  501 -0.00000000000E+00  0.00000000000E+00  0.23509564828E+02  0.23509564828E+02  0.00000000000E+00 0.  1.
          1   -1    0    0  501    0  0.00000000000E+00 -0.00000000000E+00 -0.51372091497E+03  0.51372091497E+03  0.00000000000E+00 0. -1.
         23    2    1    2    0    0 -0.11913350494E+02 -0.13690520513E+02 -0.25685701870E+03  0.28624134972E+03  0.12501689470E+03 0.  0.
          5    1    3    3  502    0  0.51352527035E+02  0.33684289890E+01 -0.16779189347E+03  0.17556946733E+03  0.47000000000E+01 0.  1.
         -5    1    3    3    0  502 -0.63265877529E+02 -0.17058949502E+02 -0.89065125233E+02  0.11067188238E+03  0.47000000000E+01 0.  1.
        -11    1    1    2    0    0 -0.31824196361E+02  0.15960249935E+02 -0.43816124655E+02  0.56456725302E+02  0.00000000000E+00 0.  1.
         11    1    1    2    0    0  0.43737546855E+02 -0.22697294225E+01 -0.18953820679E+03  0.19453240478E+03  0.00000000000E+00 0. -1.
<mgrwt>
<rscale>  0 0.11683242E+03</rscale>
<asrwt>0</asrwt>
<pdfrwt beam="2">  1        1 0.79033979E-01 0.12632728E+03</pdfrwt>
<pdfrwt beam="1">  1       -1 0.36168565E-02 0.12632728E+03</pdfrwt>
<totfact> 0.11756631E+04</totfact>
</mgrwt>
</event>
<event>
 6    1  0.5400401E-006  0.3035684E+03  0.7546771E-02  0.1083470E+00
          1   -1    0    0  501    0  0.00000000000E+00  0.00000000000E+00  0.10018140413E+04  0.10018140413E+04  0.00000000000E+00 0. -1.
         -1   -1    0    0    0  501 -0.00000000000E+00 -0.00000000000E+00 -0.22996726022E+02  0.22996726022E+02  0.00000000000E+00 0.  1.
          5    1    1    2  502    0  0.20228738871E+02 -0.26153101213E+02  0.12791881048E+03  0.13220627312E+03  0.47000000000E+01 0. -1.
         -5    1    1    2    0  502 -0.12771973374E+03  0.37138493484E+02  0.37156576220E+03  0.39468316879E+03  0.47000000000E+01 0.  1.
        -11    1    1    2    0    0  0.53959983372E+02 -0.42914015421E+02  0.30747303442E+03  0.31510785363E+03  0.00000000000E+00 0. -1.
         11    1    1    2    0    0  0.53531011499E+02  0.31928623150E+02  0.17185970822E+03  0.18281347182E+03  0.00000000000E+00 0.  1.
<mgrwt>
<rscale>  0 0.30356840E+03</rscale>
<asrwt>0</asrwt>
<pdfrwt beam="1">  1        1 0.15412520E+00 0.30356840E+03</pdfrwt>
<pdfrwt beam="2">  1       -1 0.35379586E-02 0.30356840E+03</pdfrwt>
<totfact> 0.47150295E+03</totfact>
</mgrwt>
</event>
<event>
 7    1  0.5400401E-006  0.1253415E+03  0.7546771E-02  0.1249166E+00
          1   -1    0    0  501    0  0.00000000000E+00  0.00000000000E+00  0.33527445039E+02  0.33527445039E+02  0.00000000000E+00 0. -1.
         -1   -1    0    0    0  501 -0.00000000000E+00 -0.00000000000E+00 -0.42078546339E+03  0.42078546339E+03  0.00000000000E+00 0.  1.
         23    2    1    2    0    0  0.28454722972E+01 -0.87670558074E+01 -0.30593429037E+03  0.33061499710E+03  0.12500211319E+03 0.  0.
          5    1    3    3  502    0  0.57158559452E+02 -0.12383750043E+02 -0.86784898368E+02  0.10475765733E+03  0.47000000000E+01 0.  1.
         -5    1    3    3    0  502 -0.54313087155E+02  0.36166942358E+01 -0.21914939200E+03  0.22585733977E+03  0.47000000000E+01 0.  1.
        -11    1    1    2    0    0 -0.26597255302E+02  0.39518387093E+02 -0.67165652834E+02  0.82342831070E+02  0.00000000000E+00 0.  1.
         11    1    1    2    0    0  0.23751783005E+02 -0.30751331286E+02 -0.14158075150E+02  0.41355080265E+02  0.00000000000E+00 0. -1.
<mgrwt>
<rscale>  0 0.11639484E+03</rscale>
<asrwt>0</asrwt>
<pdfrwt beam="1">  1        1 0.51580682E-02 0.12534148E+03</pdfrwt>
<pdfrwt beam="2">  1       -1 0.64736228E-01 0.12534148E+03</pdfrwt>
<totfact> 0.38112699E+03</totfact>
</mgrwt>
</event>
<event>
 7    1  0.5400401E-006  0.1452829E+03  0.7546771E-02  0.1215814E+00
         -2   -1    0    0    0  501 -0.00000000000E+00  0.00000000000E+00  0.12856530960E+03  0.12856530960E+03  0.00000000000E+00 0.  1.
          2   -1    0    0  501    0  0.00000000000E+00 -0.00000000000E+00 -0.16764519821E+03  0.16764519821E+03  0.00000000000E+00 0. -1.
         23    2    1    2    0    0 -0.59670482790E+02  0.43835115266E+02  0.43303944770E+02  0.15159927359E+03  0.12500009710E+03 0.  0.
          5    1    3    3  502    0  0.27750510219E+02 -0.25105159431E+01  0.44290095488E+02  0.52536616431E+02  0.47000000000E+01 0. -1.
         -5    1    3    3    0  502 -0.87420993009E+02  0.46345631209E+02 -0.98615071717E+00  0.99062657162E+02  0.47000000000E+01 0. -1.
        -11    1    1    2    0    0 -0.43966282985E+01 -0.30981004909E+02  0.87317563138E+01  0.32486867715E+02  0.00000000000E+00 0.  1.
         11    1    1    2    0    0  0.64067111089E+02 -0.12854110356E+02 -0.91115589703E+02  0.11212436650E+03  0.00000000000E+00 0. -1.
<mgrwt>
<rscale>  0 0.13816897E+03</rscale>
<asrwt>0</asrwt>
<pdfrwt beam="2">  1        2 0.25791569E-01 0.14528286E+03</pdfrwt>
<pdfrwt beam="1">  1       -2 0.19779278E-01 0.14528286E+03</pdfrwt>
<totfact> 0.42804737E+03</totfact>
</mgrwt>
</event>
<event>
 7    1  0.5400401E-006  0.1413229E+03  0.7546771E-02  0.1217893E+00
          1   -1    0    0  501    0  0.00000000000E+00  0.00000000000E+00  0.80623558324E+03  0.80623558324E+03  0.00000000000E+00 0. -1.
         -1   -1    0    0    0  501 -0.00000000000E+00 -0.00000000000E+00 -0.68989494532E+02  0.68989494532E+02  0.00000000000E+00 0.  1.
         23    2    1    2    0    0  0.44029806879E+02 -0.73116644406E+02  0.14584962897E+02  0.14207352173E+03  0.11263878929E+03 0.  0.
          5    1    3    3  502    0  0.31281478222E+02 -0.71014357919E+02  0.57703486274E+02  0.96816074278E+02  0.47000000000E+01 0. -1.
         -5    1    3    3    0  502  0.12748328657E+02 -0.21022864866E+01 -0.43118523377E+02  0.45257447456E+02  0.47000000000E+01 0.  1.
        -11    1    1    2    0    0 -0.65179234597E+02  0.22893769064E+02  0.40144480419E+03  0.40734553894E+03  0.00000000000E+00 0. -1.
         11    1    1    2    0    0  0.21149427718E+02  0.50222875342E+02  0.32121632162E+03  0.32580601710E+03  0.00000000000E+00 0.  1.
<mgrwt>
<rscale>  0 0.13666169E+03</rscale>
<asrwt>0</asrwt>
<pdfrwt beam="1">  1        1 0.12403624E+00 0.14132291E+03</pdfrwt>
<pdfrwt beam="2">  1       -1 0.10613769E-01 0.14132291E+03</pdfrwt>
<totfact> 0.12620655E+03</totfact>
</mgrwt>
</event>
<event>
 7    1  0.5400401E-006  0.1350548E+03  0.7546771E-02  0.1232597E+00
         -3   -1    0    0    0  501 -0.00000000000E+00  0.00000000000E+00  0.32220620046E+03  0.32220620046E+03  0.00000000000E+00 0.  1.
          3   -1    0    0  501    0  0.00000000000E+00 -0.00000000000E+00 -0.44555883111E+02  0.44555883111E+02  0.00000000000E+00 0. -1.
         23    2    1    2    0    0 -0.25979532533E+02 -0.44025369440E+02  0.14733321570E+03  0.19986715837E+03  0.12500654095E+03 0.  0.
          5    1    3    3  502    0  0.31943280636E+02 -0.29604224381E+02  0.13052114614E+03  0.13767586161E+03  0.47000000000E+01 0. -1.
         -5    1    3    3    0  502 -0.57922813168E+02 -0.14421145059E+02  0.16812069563E+02  0.62191296764E+02  0.47000000000E+01 0. -1.
        -11    1    1    2    0    0  0.24948225443E+02  0.27111354498E+02  0.14174570079E+03  0.14645573798E+03  0.00000000000E+00 0.  1.
         11    1    1    2    0    0  0.10313070900E+01  0.16914014942E+02 -0.11428599145E+02  0.20439187219E+02  0.00000000000E+00 0. -1.
<mgrwt>
<rscale>  0 0.12659545E+03</rscale>
<asrwt>0</asrwt>
<pdfrwt beam="2">  1        3 0.68547515E-02 0.13505482E+03</pdfrwt>
<pdfrwt beam="1">  1       -3 0.49570183E-01 0.13505482E+03</pdfrwt>
<totfact> 0.12832797E+03</totfact>
</mgrwt>
</event>
<event>
 7    1  0.5400401E-006  0.1400860E+03  0.7546771E-02  0.1223957E+00
         -4   -1    0    0    0  501 -0.00000000000E+00  0.00000000000E+00  0.81279162233E+02  0.81279162233E+02  0.00000000000E+00 0.  1.
          4   -1    0    0  501    0  0.00000000000E+00 -0.00000000000E+00 -0.20516436058E+03  0.20516436058E+03  0.00000000000E+00 0. -1.
         23    2    1    2    0    0 -0.57162372771E+02  0.28639394698E+02 -0.36964668325E+02  0.14488093318E+03  0.12464488079E+03 0.  0.
          5    1    3    3  502    0 -0.60381559838E+02  0.62043054290E+02 -0.58626006687E+02  0.10466313589E+03  0.47000000000E+01 0.  1.
         -5    1    3    3    0  502  0.32191870676E+01 -0.33403659593E+02  0.21661338362E+02  0.40217797294E+02  0.47000000000E+01 0.  1.
        -11    1    1    2    0    0  0.30279663315E+02 -0.39827991644E+02 -0.98300167104E+02  0.11029981769E+03  0.00000000000E+00 0. -1.
         11    1    1    2    0    0  0.26882709455E+02  0.11188596947E+02  0.11379637084E+02  0.31262771941E+02  0.00000000000E+00 0.  1.
<mgrwt>
<rscale>  0 0.13238653E+03</rscale>
<asrwt>0</asrwt>
<pdfrwt beam="2">  1        4 0.31563748E-01 0.14008604E+03</pdfrwt>
<pdfrwt beam="1">  1       -4 0.12504486E-01 0.14008604E+03</pdfrwt>
<totfact> 0.83094035E+02</totfact>
</mgrwt>
</event>
<event>
 7    1  0.5400401E-006  0.1582410E+03  0.7546771E-02  0.1198462E+00
          2   -1    0    0  501    0  0.00000000000E+00  0.00000000000E+00  0.92128633588E+03  0.92128633588E+03  0.00000000000E+00 0. -1.
         -2   -1    0    0    0  501 -0.00000000000E+00 -0.00000000000E+00 -0.24095082514E+02  0.24095082514E+02  0.00000000000E+00 0.  1.
         23    2    1    2    0    0  0.90033143745E+02  0.36194644694E+02  0.58121218493E+03  0.60236849890E+03  0.12499674106E+03 0.  0.
          5    1    3    3  502    0 -0.98901764231E+01  0.41496552838E+02  0.31540734658E+03  0.31831378192E+03  0.47000000000E+01 0. -1.
         -5    1    3    3    0  502  0.99923320168E+02 -0.53019081440E+01  0.26580483836E+03  0.28405471698E+03  0.47000000000E+01 0. -1.
        -11    1    1    2    0    0 -0.84804859224E+02 -0.56481946720E+02  0.19283579250E+03  0.21810024604E+03  0.00000000000E+00 0.  1.
         11    1    1    2    0    0 -0.52282845217E+01  0.20287302025E+02  0.12314327593E+03  0.12491267345E+03  0.00000000000E+00 0. -1.
<mgrwt>
<rscale>  0 0.15164836E+03</rscale>
<asrwt>0</asrwt>
<pdfrwt beam="1">  1        2 0.14173633E+00 0.15824097E+03</pdfrwt>
<pdfrwt beam="2">  1       -2 0.37069365E-02 0.15824097E+03</pdfrwt>
<totfact> 0.88263700E+03</totfact>
</mgrwt>
</event>
<event>
 7    1  0.5400401E-006  0.1721355E+03  0.7546771E-02  0.1181637E+00
         -4   -1    0    0    0  501 -0.00000000000E+00  0.00000000000E+00  0.21909895331E+03  0.21909895331E+03  0.00000000000E+00 0.  1.
          4   -1    0    0  501    0  0.00000000000E+00 -0.00000000000E+00 -0.12219223208E+03  0.12219223208E+03  0.00000000000E+00 0. -1.
         23    2    1    2    0    0  0.41032854141E+02 -0.11100383411E+03  0.80488216948E+02  0.19002368377E+03  0.12500040408E+03 0.  0.
          5    1    3    3  502    0 -0.99449171217E+01 -0.59207510276E+02 -0.22157291064E+02  0.64167485512E+02  0.47000000000E+01 0.  1.
         -5    1    3    3    0  502  0.50977771263E+02 -0.51796323836E+02  0.10264550801E+03  0.12585619826E+03  0.47000000000E+01 0.  1.
        -11    1    1    2    0    0 -0.49338093484E+02  0.16574214566E+02 -0.96937815332E+01  0.52942624203E+02  0.00000000000E+00 0. -1.
         11    1    1    2    0    0  0.83052393427E+01  0.94429619546E+02  0.26112285813E+02  0.98324877414E+02  0.00000000000E+00 0.  1.
<mgrwt>
<rscale>  0 0.16641635E+03</rscale>
<asrwt>0</asrwt>
<pdfrwt beam="2">  1        4 0.18798805E-01 0.17213555E+03</pdfrwt>
<pdfrwt beam="1">  1       -4 0.33707531E-01 0.17213555E+03</pdfrwt>
<totfact> 0.37220045E+02</totfact>
</mgrwt>
</event>
<event>
 7    1  0.5400401E-006  0.1701838E+03  0.7546771E-02  0.1184249E+00
         -1   -1    0    0    0  501 -0.00000000000E+00  0.00000000000E+00  0.39436745571E+03  0.39436745571E+03  0.00000000000E+00 0.  1.
          1   -1    0    0  501    0  0.00000000000E+00 -0.00000000000E+00 -0.64060107224E+02  0.64060107224E+02  0.00000000000E+00 0. -1.
         23    2    1    2    0    0  0.70147389636E+02  0.91742707525E+02  0.19469675559E+03  0.25859111368E+03  0.12500062711E+03 0.  0.
          5    1    3    3  502    0 -0.15024507212E+02  0.78834357427E+02  0.67906699225E+02  0.10523308191E+03  0.47000000000E+01 0. -1.
         -5    1    3    3    0  502  0.85171896848E+02  0.12908350098E+02  0.12679005637E+03  0.15335803177E+03  0.47000000000E+01 0. -1.
        -11    1    1    2    0    0 -0.65271432711E+02 -0.10697552584E+03  0.13445658022E+03  0.18380069374E+03  0.00000000000E+00 0.  1.
         11    1    1    2    0    0 -0.48759569257E+01  0.15232818313E+02  0.11540126759E+01  0.16035755515E+02  0.00000000000E+00 0. -1.
<mgrwt>
<rscale>  0 0.16400439E+03</rscale>
<asrwt>0</asrwt>
<pdfrwt beam="2">  1        1 0.98554013E-02 0.17018383E+03</pdfrwt>
<pdfrwt beam="1">  1       -1 0.60671915E-01 0.17018383E+03</pdfrwt>
<totfact> 0.18288288E+03</totfact>
</mgrwt>
</event>
<event>
 7    1  0.5400401E-006  0.1754168E+03  0.7546771E-02  0.1178079E+00
          2   -1    0    0  501    0  0.00000000000E+00  0.00000000000E+00  0.17503120896E+03  0.17503120896E+03  0.00000000000E+00 0. -1.
         -2   -1    0    0    0  501 -0.00000000000E+00 -0.00000000000E+00 -0.16242215850E+03  0.16242215850E+03  0.00000000000E+00 0.  1.
         23    2    1    2    0    0 -0.10596232273E+03  0.62592558858E+02 -0.29477490850E+02  0.17787629503E+03  0.12500084641E+03 0.  0.
          5    1    3    3  502    0 -0.36923610682E+02 -0.65076852351E+01  0.42188073024E+02  0.56635911738E+02  0.47000000000E+01 0.  1.
         -5    1    3    3    0  502 -0.69038712044E+02  0.69100244093E+02 -0.71665563874E+02  0.12124038329E+03  0.47000000000E+01 0.  1.
        -11    1    1    2    0    0  0.81711901139E+02 -0.69816143586E+02  0.64863272491E+02  0.12553235763E+03  0.00000000000E+00 0. -1.
         11    1    1    2    0    0  0.24250421586E+02  0.72235847283E+01 -0.22776731180E+02  0.34044714813E+02  0.00000000000E+00 0.  1.
<mgrwt>
<rscale>  0 0.16977830E+03</rscale>
<asrwt>0</asrwt>
<pdfrwt beam="1">  1        2 0.26927878E-01 0.17541680E+03</pdfrwt>
<pdfrwt beam="2">  1       -2 0.24988024E-01 0.17541680E+03</pdfrwt>
<totfact> 0.27542467E+03</totfact>
</mgrwt>
</event>
<event>
 7    1  0.5400401E-006  0.1498993E+03  0.7546771E-02  0.1209604E+00
          1   -1    0    0  501    0  0.00000000000E+00  0.00000000000E+00  0.52185216251E+03  0.52185216251E+03  0.00000000000E+00 0. -1.
         -1   -1    0    0    0  501 -0.00000000000E+00 -0.00000000000E+00 -0.36478628098E+02  0.36478628098E+02  0.00000000000E+00 0.  1.
         23    2    1    2    0    0 -0.47088315359E+02 -0.68040416232E+02  0.22785369050E+03  0.27274000195E+03  0.12499198655E+03 0.  0.
          5    1    3    3  502    0 -0.20845123566E+00 -0.94625755734E+02  0.12902664205E+03  0.16007511192E+03  0.47000000000E+01 0. -1.
         -5    1    3    3    0  502 -0.46879864123E+02  0.26585339502E+02  0.98827048458E+02  0.11266489002E+03  0.47000000000E+01 0. -1.
        -11    1    1    2    0    0  0.27433320016E+02  0.49783286488E+01  0.10339481722E+02  0.29736773287E+02  0.00000000000E+00 0.  1.
         11    1    1    2    0    0  0.19654995343E+02  0.63062087583E+02  0.24718036219E+03  0.25585401537E+03  0.00000000000E+00 0. -1.
<mgrwt>
<rscale>  0 0.14280483E+03</rscale>
<asrwt>0</asrwt>
<pdfrwt beam="1">  1        1 0.80284942E-01 0.14989931E+03</pdfrwt>
<pdfrwt beam="2">  1       -1 0.56120970E-02 0.14989931E+03</pdfrwt>
<totfact> 0.60922552E+03</totfact>
</mgrwt>
</event>
<event>
 7    1  0.5400401E-006  0.1645340E+03  0.7546771E-02  0.1191024E+00
          2   -1    0    0  501    0  0.00000000000E+00  0.00000000000E+00  0.53576318808E+02  0.53576318808E+02  0.00000000000E+00 0. -1.
         -2   -1    0    0    0  501 -0.00000000000E+00 -0.00000000000E+00 -0.59936234052E+03  0.59936234052E+03  0.00000000000E+00 0.  1.
         23    2    1    2    0    0 -0.17904211411E+02  0.10547944754E+03 -0.46097694955E+03  0.48946008929E+03  0.12499982538E+03 0.  0.
          5    1    3    3  502    0  0.36550068857E+02 -0.83026760576E+01 -0.12353153333E+03  0.12917806195E+03  0.47000000000E+01 0.  1.
         -5    1    3    3    0  502 -0.54454280268E+02  0.11378212359E+03 -0.33744541623E+03  0.36028202733E+03  0.47000000000E+01 0.  1.
        -11    1    1    2    0    0  0.19943064288E+02 -0.48449248264E+02 -0.92088288082E+02  0.10594955532E+03  0.00000000000E+00 0.  1.
         11    1    1    2    0    0 -0.20388528776E+01 -0.57030199271E+02  0.72792159274E+01  0.57529014719E+02  0.00000000000E+00 0. -1.
<mgrwt>
<rscale>  0 0.15795628E+03</rscale>
<asrwt>0</asrwt>
<pdfrwt beam="1">  1        2 0.82425105E-02 0.16453398E+03</pdfrwt>
<pdfrwt beam="2">  1       -2 0.92209592E-01 0.16453398E+03</pdfrwt>
<totfact> 0.83309620E+02</totfact>
</mgrwt>
</event>
<event>
 7    1  0.5400401E-006  0.1519658E+03  0.7546771E-02  0.1206795E+00
         -2   -1    0    0    0  501 -0.00000000000E+00  0.00000000000E+00  0.10434163944E+03  0.10434163944E+03  0.00000000000E+00 0.  1.
          2   -1    0    0  501    0  0.00000000000E+00 -0.00000000000E+00 -0.19792880458E+03  0.19792880458E+03  0.00000000000E+00 0. -1.
         23    2    1    2    0    0 -0.43066336964E+02 -0.74915657403E+02 -0.12331069539E+02  0.15246530200E+03  0.12500619159E+03 0.  0.
          5    1    3    3  502    0 -0.58697562482E+02 -0.75835560919E+02 -0.52263394339E+02  0.10931600308E+03  0.47000000000E+01 0.  1.
         -5    1    3    3    0  502  0.15631225518E+02  0.91990351578E+00  0.39932324800E+02  0.43149298924E+02  0.47000000000E+01 0.  1.
        -11    1    1    2    0    0  0.35769829021E+02  0.87934450269E+02 -0.91384258542E+02  0.13176885414E+03  0.00000000000E+00 0. -1.
         11    1    1    2    0    0  0.72965079431E+01 -0.13018792866E+02  0.10128162941E+02  0.18036287877E+02  0.00000000000E+00 0.  1.
<mgrwt>
<rscale>  0 0.14496913E+03</rscale>
<asrwt>0</asrwt>
<pdfrwt beam="2">  1        2 0.30450585E-01 0.15196583E+03</pdfrwt>
<pdfrwt beam="1">  1       -2 0.16052560E-01 0.15196583E+03</pdfrwt>
<totfact> 0.50731670E+03</totfact>
</mgrwt>
</event>
<event>
 7    1  0.5400401E-006  0.1270769E+03  0.7546771E-02  0.1247503E+00
         -1   -1    0    0    0  501 -0.00000000000E+00  0.00000000000E+00  0.15191861552E+03  0.15191861552E+03  0.00000000000E+00 0.  1.
          1   -1    0    0  501    0  0.00000000000E+00 -0.00000000000E+00 -0.80145265263E+02  0.80145265263E+02  0.00000000000E+00 0. -1.
         23    2    1    2    0    0 -0.64519257492E+01  0.21945685001E+02  0.53108226266E+02  0.13772810407E+03  0.12500122606E+03 0.  0.
          5    1    3    3  502    0 -0.60096562436E+02  0.35194635655E+02  0.17974254163E+02  0.72079282795E+02  0.47000000000E+01 0. -1.
         -5    1    3    3    0  502  0.53644636687E+02 -0.13248950654E+02  0.35133972103E+02  0.65648821273E+02  0.47000000000E+01 0. -1.
        -11    1    1    2    0    0  0.21799203303E+02  0.44838910262E+00  0.48996652592E+02  0.53629080568E+02  0.00000000000E+00 0.  1.
         11    1    1    2    0    0 -0.15347277554E+02 -0.22394074104E+02 -0.30331528605E+02  0.40706696142E+02  0.00000000000E+00 0. -1.
<mgrwt>
<rscale>  0 0.11736841E+03</rscale>
<asrwt>0</asrwt>
<pdfrwt beam="2">  1        1 0.12330041E-01 0.12707693E+03</pdfrwt>
<pdfrwt beam="1">  1       -1 0.23372095E-01 0.12707693E+03</pdfrwt>
<totfact> 0.71016528E+03</totfact>
</mgrwt>
</event>
<event>
 7    1  0.5400401E-006  0.1320120E+03  0.7546771E-02  0.1237545E+00
          2   -1    0    0  501    0  0.00000000000E+00  0.00000000000E+00  0.39252635054E+03  0.39252635054E+03  0.00000000000E+00 0. -1.
         -2   -1    0    0    0  501 -0.00000000000E+00 -0.00000000000E+00 -0.35775903987E+02  0.35775903987E+02  0.00000000000E+00 0.  1.
         23    2    1    2    0    0 -0.84140017748E+01  0.41578138609E+02  0.16204062983E+03  0.20900794865E+03  0.12501047896E+03 0.  0.
          5    1    3    3  502    0  0.34925497291E+02  0.37631989986E+02  0.12303269896E+02  0.53003938358E+02  0.47000000000E+01 0.  1.
         -5    1    3    3    0  502 -0.43339499066E+02  0.39461486232E+01  0.14973735993E+03  0.15600401029E+03  0.47000000000E+01 0.  1.
        -11    1    1    2    0    0  0.49407007260E+02 -0.22521133656E+02  0.12402433895E+03  0.13538940313E+03  0.00000000000E+00 0. -1.
         11    1    1    2    0    0 -0.40993005486E+02 -0.19057004953E+02  0.70685477776E+02  0.83904902747E+02  0.00000000000E+00 0.  1.
<mgrwt>
<rscale>  0 0.12342928E+03</rscale>
<asrwt>0</asrwt>
<pdfrwt beam="1">  1        2 0.60388666E-01 0.13201196E+03</pdfrwt>
<pdfrwt beam="2">  1       -2 0.55039855E-02 0.13201196E+03</pdfrwt>
<totfact> 0.12985737E+04</totfact>
</mgrwt>
</event>
<event>
 7    1  0.5400401E-006  0.1347107E+03  0.7546771E-02  0.1232780E+00
         -2   -1    0    0    0  501 -0.00000000000E+00  0.00000000000E+00  0.15307574362E+02  0.15307574362E+02  0.00000000000E+00 0.  1.
          2   -1    0    0  501    0  0.00000000000E+00 -0.00000000000E+00 -0.99201082317E+03  0.99201082317E+03  0.00000000000E+00 0. -1.
         23    2    1    2    0    0  0.50293772323E+02 -0.99579139273E+00 -0.42725101708E+03  0.44798483682E+03  0.12496610458E+03 0.  0.
          5    1    3    3  502    0  0.46955809113E+01 -0.28267808170E+02 -0.36438330623E+03  0.36553850867E+03  0.47000000000E+01 0. -1.
         -5    1    3    3    0  502  0.45598191411E+02  0.27272016777E+02 -0.62867710844E+02  0.82446328152E+02  0.47000000000E+01 0. -1.
        -11    1    1    2    0    0 -0.32992792918E+02 -0.44836882726E+02 -0.29703434220E+03  0.30220567646E+03  0.00000000000E+00 0. -1.
         11    1    1    2    0    0 -0.17300979405E+02  0.45832674119E+02 -0.25241788953E+03  0.25712788426E+03  0.00000000000E+00 0.  1.
<mgrwt>
<rscale>  0 0.12647641E+03</rscale>
<asrwt>0</asrwt>
<pdfrwt beam="2">  1        2 0.15261710E+00 0.13471074E+03</pdfrwt>
<pdfrwt beam="1">  1       -2 0.23550107E-02 0.13471074E+03</pdfrwt>
<totfact> 0.15429938E+04</totfact>
</mgrwt>
</event>
<event>
 7    1  0.5400401E-006  0.1153500E+03  0.7546771E-02  0.1262897E+00
          1   -1    0    0  501    0  0.00000000000E+00  0.00000000000E+00  0.22484124620E+03  0.22484124620E+03  0.00000000000E+00 0. -1.
         -1   -1    0    0    0  501 -0.00000000000E+00 -0.00000000000E+00 -0.12129926956E+03  0.12129926956E+03  0.00000000000E+00 0.  1.
         23    2    1    2    0    0  0.36780864508E+01  0.13518279125E+02 -0.80571703066E+02  0.14070329942E+03  0.11449605645E+03 0.  0.
          5    1    3    3  502    0 -0.40686012865E+02 -0.28881142870E+02 -0.53981527566E+02  0.73658450803E+02  0.47000000000E+01 0. -1.
         -5    1    3    3    0  502  0.44364099316E+02  0.42399421995E+02 -0.26590175500E+02  0.67044848622E+02  0.47000000000E+01 0.  1.
        -11    1    1    2    0    0 -0.22237507228E+02  0.31974803686E+02  0.55886010613E+02  0.68118580290E+02  0.00000000000E+00 0.  1.
         11    1    1    2    0    0  0.18559420777E+02 -0.45493082811E+02  0.12822766910E+03  0.13731863605E+03  0.00000000000E+00 0. -1.
<mgrwt>
<rscale>  0 0.10875296E+03</rscale>
<asrwt>0</asrwt>
<pdfrwt beam="1">  1        1 0.34590961E-01 0.11534999E+03</pdfrwt>
<pdfrwt beam="2">  1       -1 0.18661426E-01 0.11534999E+03</pdfrwt>
<totfact> 0.27461879E+03</totfact>
</mgrwt>
</event>
<event>
 7    1  0.5400401E-006  0.2289105E+03  0.7546771E-02  0.1130441E+00
         -2   -1    0    0    0  501 -0.00000000000E+00  0.00000000000E+00  0.98326585007E+02  0.98326585007E+02  0.00000000000E+00 0.  1.
          2   -1    0    0  501    0  0.00000000000E+00 -0.00000000000E+00 -0.59129194290E+03  0.59129194290E+03  0.00000000000E+00 0. -1.
         23    2    1    2    0    0 -0.18886437738E+03 -0.33181319813E+02 -0.11532444692E+03  0.25631962008E+03  0.12501706505E+03 0.  0.
          5    1    3    3  502    0 -0.17897816944E+03 -0.60365933607E+02 -0.12370779024E+03  0.22583830154E+03  0.47000000000E+01 0.  1.
         -5    1    3    3    0  502 -0.98862079400E+01  0.27184613794E+02  0.83833433245E+01  0.30481318539E+02  0.47000000000E+01 0.  1.
        -11    1    1    2    0    0  0.10215150468E+03 -0.28064166168E+02 -0.17613106454E+03  0.20553510462E+03  0.00000000000E+00 0. -1.
         11    1    1    2    0    0  0.86712872698E+02  0.61245485981E+02 -0.20150984643E+03  0.22776380321E+03  0.00000000000E+00 0.  1.
<mgrwt>
<rscale>  0 0.22467969E+03</rscale>
<asrwt>0</asrwt>
<pdfrwt beam="2">  1        2 0.90967992E-01 0.22891051E+03</pdfrwt>
<pdfrwt beam="1">  1       -2 0.15127167E-01 0.22891051E+03</pdfrwt>
<totfact> 0.17270565E+03</totfact>
</mgrwt>
</event>
<event>
 7    1  0.5400401E-006  0.1276764E+03  0.7546771E-02  0.1247530E+00
         -1   -1    0    0    0  501 -0.00000000000E+00  0.00000000000E+00  0.15791919807E+03  0.15791919807E+03  0.00000000000E+00 0.  1.
          1   -1    0    0  501    0  0.00000000000E+00 -0.00000000000E+00 -0.77519652055E+02  0.77519652055E+02  0.00000000000E+00 0. -1.
         23    2    1    2    0    0 -0.21257333652E+02  0.14986709436E+02  0.64114979897E+02  0.14287056216E+03  0.12499916476E+03 0.  0.
          5    1    3    3  502    0 -0.61520618905E+00  0.65603284763E+02  0.11343474371E+02  0.66745290929E+02  0.47000000000E+01 0.  1.
         -5    1    3    3    0  502 -0.20642127463E+02 -0.50616575328E+02  0.52771505527E+02  0.76125271229E+02  0.47000000000E+01 0.  1.
        -11    1    1    2    0    0  0.21354591465E+02  0.18954920848E+02  0.41437299817E+02  0.50322533890E+02  0.00000000000E+00 0.  1.
         11    1    1    2    0    0 -0.97257813381E-01 -0.33941630284E+02 -0.25152733696E+02  0.42245754080E+02  0.00000000000E+00 0. -1.
<mgrwt>
<rscale>  0 0.11735240E+03</rscale>
<asrwt>0</asrwt>
<pdfrwt beam="2">  1        1 0.11926100E-01 0.12767641E+03</pdfrwt>
<pdfrwt beam="1">  1       -1 0.24295261E-01 0.12767641E+03</pdfrwt>
<totfact> 0.69663336E+03</totfact>
</mgrwt>
</event>
<event>
 7    1  0.5400401E-006  0.1591724E+03  0.7546771E-02  0.1197916E+00
          2   -1    0    0  501    0  0.00000000000E+00  0.00000000000E+00  0.16793317520E+03  0.16793317520E+03  0.00000000000E+00 0. -1.
         -2   -1    0    0    0  501 -0.00000000000E+00 -0.00000000000E+00 -0.12728364660E+03  0.12728364660E+03  0.00000000000E+00 0.  1.
         23    2    1    2    0    0  0.92951668577E+02 -0.32722076957E+02  0.13404324971E+02  0.15973581423E+03  0.12500042963E+03 0.  0.
          5    1    3    3  502    0  0.99960292187E+02 -0.51516184491E+02  0.45660676421E+02  0.12146178267E+03  0.47000000000E+01 0. -1.
         -5    1    3    3    0  502 -0.70086236099E+01  0.18794107533E+02 -0.32256351450E+02  0.38274031558E+02  0.47000000000E+01 0. -1.
        -11    1    1    2    0    0 -0.10474632018E+03  0.41702258781E+02  0.10673851708E+02  0.11324663831E+03  0.00000000000E+00 0. -1.
         11    1    1    2    0    0  0.11794651602E+02 -0.89801818237E+01  0.16571351915E+02  0.22234369258E+02  0.00000000000E+00 0.  1.
<mgrwt>
<rscale>  0 0.15210006E+03</rscale>
<asrwt>0</asrwt>
<pdfrwt beam="1">  1        2 0.25835873E-01 0.15917240E+03</pdfrwt>
<pdfrwt beam="2">  1       -2 0.19582099E-01 0.15917240E+03</pdfrwt>
<totfact> 0.43682458E+03</totfact>
</mgrwt>
</event>
<event>
 7    1  0.5400401E-006  0.1418113E+03  0.7546771E-02  0.1222674E+00
          2   -1    0    0  501    0  0.00000000000E+00  0.00000000000E+00  0.29528535923E+03  0.29528535923E+03  0.00000000000E+00 0. -1.
         -2   -1    0    0    0  501 -0.00000000000E+00 -0.00000000000E+00 -0.60714286110E+02  0.60714286110E+02  0.00000000000E+00 0.  1.
         23    2    1    2    0    0 -0.53230785371E+02  0.40681141370E+02  0.71166161120E+02  0.15866648762E+03  0.12498783953E+03 0.  0.
          5    1    3    3  502    0 -0.83434900358E+02  0.16441387087E+02  0.81948258082E+02  0.11819183055E+03  0.47000000000E+01 0. -1.
         -5    1    3    3    0  502  0.30204114987E+02  0.24239754283E+02 -0.10782096962E+02  0.40474657068E+02  0.47000000000E+01 0. -1.
        -11    1    1    2    0    0  0.21854120835E+02 -0.16656755435E+02  0.15436876275E+03  0.15679529652E+03  0.00000000000E+00 0. -1.
         11    1    1    2    0    0  0.31376664536E+02 -0.24024385935E+02  0.90361492503E+01  0.40537861195E+02  0.00000000000E+00 0.  1.
<mgrwt>
<rscale>  0 0.13327608E+03</rscale>
<asrwt>0</asrwt>
<pdfrwt beam="1">  1        2 0.45428516E-01 0.14181125E+03</pdfrwt>
<pdfrwt beam="2">  1       -2 0.93406596E-02 0.14181125E+03</pdfrwt>
<totfact> 0.78461970E+03</totfact>
</mgrwt>
</event>
<event>
 7    1  0.5400401E-006  0.1315914E+03  0.7546771E-02  0.1240046E+00
          1   -1    0    0  501    0  0.00000000000E+00  0.00000000000E+00  0.17960221205E+03  0.17960221205E+03  0.00000000000E+00 0.  1.
         -1   -1    0    0    0  501 -0.00000000000E+00 -0.00000000000E+00 -0.85712857590E+02  0.85712857590E+02  0.00000000000E+00 0. -1.
         23    2    1    2    0    0  0.28724688968E+02  0.29411503018E+02  0.16472773409E+01  0.13160166640E+03  0.12500456316E+03 0.  0.
          5    1    3    3  502    0  0.74329560698E+02  0.20143253779E+02 -0.20526993463E+02  0.79837846458E+02  0.47000000000E+01 0.  1.
         -5    1    3    3    0  502 -0.45604871730E+02  0.92682492387E+01  0.22174270804E+02  0.51763819944E+02  0.47000000000E+01 0.  1.
        -11    1    1    2    0    0 -0.47519577365E+02  0.54141608129E+01  0.78308145282E+02  0.91758318357E+02  0.00000000000E+00 0.  1.
         11    1    1    2    0    0  0.18794888397E+02 -0.34825663831E+02  0.13933931841E+02  0.41955084885E+02  0.00000000000E+00 0. -1.
<mgrwt>
<rscale>  0 0.12186861E+03</rscale>
<asrwt>0</asrwt>
<pdfrwt beam="1">  1        1 0.27631109E-01 0.13159136E+03</pdfrwt>
<pdfrwt beam="2">  1       -1 0.13186594E-01 0.13159136E+03</pdfrwt>
<totfact> 0.63030697E+03</totfact>
</mgrwt>
</event>
<event>
 7    1  0.5400401E-006  0.1327079E+03  0.7546771E-02  0.1236474E+00
         -3   -1    0    0    0  501 -0.00000000000E+00  0.00000000000E+00  0.37205931590E+03  0.37205931590E+03  0.00000000000E+00 0.  1.
          3   -1    0    0  501    0  0.00000000000E+00 -0.00000000000E+00 -0.41463455320E+02  0.41463455320E+02  0.00000000000E+00 0. -1.
         23    2    1    2    0    0 -0.32707844779E+02  0.30291056005E+02  0.25323716369E+03  0.28590288546E+03  0.12499619058E+03 0.  0.
          5    1    3    3  502    0  0.73451744577E+01 -0.81990447094E+01  0.22136264649E+03  0.22168601035E+03  0.47000000000E+01 0. -1.
         -5    1    3    3    0  502 -0.40053019237E+02  0.38490100714E+02  0.31874517198E+02  0.64216875115E+02  0.47000000000E+01 0. -1.
        -11    1    1    2    0    0 -0.19287834589E+02  0.11285470186E+02 -0.37801380148E+01  0.22664329768E+02  0.00000000000E+00 0. -1.
         11    1    1    2    0    0  0.51995679368E+02 -0.41576526190E+02  0.81138834906E+02  0.10495555599E+03  0.00000000000E+00 0.  1.
<mgrwt>
<rscale>  0 0.12410531E+03</rscale>
<asrwt>0</asrwt>
<pdfrwt beam="2">  1        3 0.63789934E-02 0.13270795E+03</pdfrwt>
<pdfrwt beam="1">  1       -3 0.57239893E-01 0.13270795E+03</pdfrwt>
<totfact> 0.10747513E+03</totfact>
</mgrwt>
</event>
<event>
 7    1  0.5400401E-006  0.1656922E+03  0.7546771E-02  0.1189928E+00
         -2   -1    0    0    0  501 -0.00000000000E+00  0.00000000000E+00  0.81095717365E+02  0.81095717365E+02  0.00000000000E+00 0. -1.
          2   -1    0    0  501    0  0.00000000000E+00 -0.00000000000E+00 -0.34991694396E+03  0.34991694396E+03  0.00000000000E+00 0.  1.
         23    2    1    2    0    0  0.10442857881E+03 -0.30286728512E+02 -0.53585263796E+02  0.17414152309E+03  0.12502509976E+03 0.  0.
          5    1    3    3  502    0  0.74217632434E+02 -0.97586552343E+01 -0.93478519173E+02  0.11984912124E+03  0.47000000000E+01 0. -1.
         -5    1    3    3    0  502  0.30210946378E+02 -0.20528073278E+02  0.39893255377E+02  0.54292401845E+02  0.47000000000E+01 0. -1.
        -11    1    1    2    0    0 -0.74692355940E+02  0.58870316173E+02 -0.12022121767E+03  0.15328993229E+03  0.00000000000E+00 0. -1.
         11    1    1    2    0    0 -0.29736222872E+02 -0.28583587661E+02 -0.95014745131E+02  0.10358120595E+03  0.00000000000E+00 0.  1.
<mgrwt>
<rscale>  0 0.15891470E+03</rscale>
<asrwt>0</asrwt>
<pdfrwt beam="2">  1        2 0.53833377E-01 0.16569215E+03</pdfrwt>
<pdfrwt beam="1">  1       -2 0.12476264E-01 0.16569215E+03</pdfrwt>
<totfact> 0.41748402E+03</totfact>
</mgrwt>
</event>
<event>
 7    1  0.5400401E-006  0.1250285E+03  0.7546771E-02  0.1249598E+00
         -1   -1    0    0    0  501 -0.00000000000E+00  0.00000000000E+00  0.27966482231E+03  0.27966482231E+03  0.00000000000E+00 0.  1.
          1   -1    0    0  501    0  0.00000000000E+00 -0.00000000000E+00 -0.43742901511E+02  0.43742901511E+02  0.00000000000E+00 0. -1.
         23    2    1    2    0    0  0.67071379738E+00  0.27133622277E+01  0.16135386025E+03  0.20412546504E+03  0.12499730025E+03 0.  0.
          5    1    3    3  502    0 -0.35304994058E+02  0.48559516074E+02  0.11384257218E+03  0.12878932582E+03  0.47000000000E+01 0. -1.
         -5    1    3    3    0  502  0.35975707856E+02 -0.45846153846E+02  0.47511288072E+02  0.75336139220E+02  0.47000000000E+01 0. -1.
        -11    1    1    2    0    0  0.33575767491E+02 -0.31862805742E+02  0.25999409209E+02  0.53089922128E+02  0.00000000000E+00 0. -1.
         11    1    1    2    0    0 -0.34246481288E+02  0.29149443514E+02  0.48568651341E+02  0.66192336648E+02  0.00000000000E+00 0.  1.
<mgrwt>
<rscale>  0 0.11614376E+03</rscale>
<asrwt>0</asrwt>
<pdfrwt beam="2">  1        1 0.67296773E-02 0.12502855E+03</pdfrwt>
<pdfrwt beam="1">  1       -1 0.43025356E-01 0.12502855E+03</pdfrwt>
<totfact> 0.56463328E+03</totfact>
</mgrwt>
</event>
<event>
 7    1  0.5400401E-006  0.1654691E+03  0.7546771E-02  0.1190206E+00
         -2   -1    0    0    0  501 -0.00000000000E+00  0.00000000000E+00  0.58760832439E+03  0.58760832439E+03  0.00000000000E+00 0.  1.
          2   -1    0    0  501    0  0.00000000000E+00 -0.00000000000E+00 -0.39686809262E+02  0.39686809262E+02  0.00000000000E+00 0. -1.
         23    2    1    2    0    0 -0.20697633638E+02 -0.10642509787E+03  0.29146691982E+03  0.33516114948E+03  0.12500134911E+03 0.  0.
          5    1    3    3  502    0  0.20727417179E+01  0.21285504826E+01  0.17194747988E+03  0.17203735879E+03  0.47000000000E+01 0.  1.
         -5    1    3    3    0  502 -0.22770375356E+02 -0.10855364835E+03  0.11951943995E+03  0.16312379069E+03  0.47000000000E+01 0.  1.
        -11    1    1    2    0    0  0.37841984836E+02  0.66950865421E+01  0.79103763969E+02  0.87944559093E+02  0.00000000000E+00 0. -1.
         11    1    1    2    0    0 -0.17144351198E+02  0.99730011323E+02  0.17735083134E+03  0.20418942507E+03  0.00000000000E+00 0.  1.
<mgrwt>
<rscale>  0 0.15867034E+03</rscale>
<asrwt>0</asrwt>
<pdfrwt beam="2">  1        2 0.61056634E-02 0.16546912E+03</pdfrwt>
<pdfrwt beam="1">  1       -2 0.90401275E-01 0.16546912E+03</pdfrwt>
<totfact> 0.12780784E+03</totfact>
</mgrwt>
</event>
<event>
 7    1  0.5400401E-006  0.1252939E+03  0.7546771E-02  0.1251094E+00
          1   -1    0    0  501    0  0.00000000000E+00  0.00000000000E+00  0.48927428381E+02  0.48927428381E+02  0.00000000000E+00 0. -1.
         -1   -1    0    0    0  501 -0.00000000000E+00 -0.00000000000E+00 -0.29725867594E+03  0.29725867594E+03  0.00000000000E+00 0.  1.
         23    2    1    2    0    0  0.85345913935E+01  0.53788576699E-01 -0.21794905868E+03  0.25139678766E+03  0.12500284205E+03 0.  0.
          5    1    3    3  502    0 -0.16661934317E+02  0.49283529971E+02 -0.17067725495E+03  0.17849174137E+03  0.47000000000E+01 0. -1.
         -5    1    3    3    0  502  0.25196525710E+02 -0.49229741395E+02 -0.47271803735E+02  0.72905046287E+02  0.47000000000E+01 0. -1.
        -11    1    1    2    0    0 -0.11016805620E+02  0.23025673746E+02  0.24387917646E+02  0.35303288581E+02  0.00000000000E+00 0. -1.
         11    1    1    2    0    0  0.24822142267E+01 -0.23079462323E+02 -0.54770106519E+02  0.59486028079E+02  0.00000000000E+00 0.  1.
<mgrwt>
<rscale>  0 0.11527955E+03</rscale>
<asrwt>0</asrwt>
<pdfrwt beam="1">  1        1 0.75272968E-02 0.12529387E+03</pdfrwt>
<pdfrwt beam="2">  1       -1 0.45732103E-01 0.12529387E+03</pdfrwt>
<totfact> 0.43572164E+03</totfact>
</mgrwt>
</event>
<event>
 7    1  0.5400401E-006  0.3073106E+03  0.7546771E-02  0.1083271E+00
          2   -1    0    0  501    0  0.00000000000E+00  0.00000000000E+00  0.73306349796E+03  0.73306349796E+03  0.00000000000E+00 0. -1.
         -2   -1    0    0    0  501 -0.00000000000E+00 -0.00000000000E+00 -0.13284920773E+03  0.13284920773E+03  0.00000000000E+00 0.  1.
         23    2    1    2    0    0 -0.10799795890E+03  0.25913126774E+03  0.19063579854E+03  0.36163770961E+03  0.12500900879E+03 0.  0.
          5    1    3    3  502    0  0.35031305197E+01  0.86639120680E+02  0.88042151682E+01  0.87282377147E+02  0.47000000000E+01 0. -1.
         -5    1    3    3    0  502 -0.11150108942E+03  0.17249214706E+03  0.18183158337E+03  0.27435533246E+03  0.47000000000E+01 0. -1.
        -11    1    1    2    0    0  0.43225487656E+02 -0.10358052048E+03  0.24136060472E+03  0.26618096949E+03  0.00000000000E+00 0. -1.
         11    1    1    2    0    0  0.64772471240E+02 -0.15555074726E+03  0.16821788697E+03  0.23809402660E+03  0.00000000000E+00 0.  1.
<mgrwt>
<rscale>  0 0.30397265E+03</rscale>
<asrwt>0</asrwt>
<pdfrwt beam="1">  1        2 0.11277900E+00 0.30731063E+03</pdfrwt>
<pdfrwt beam="2">  1       -2 0.20438340E-01 0.30731063E+03</pdfrwt>
<totfact> 0.80383209E+02</totfact>
</mgrwt>
</event>
<event>
 7    1  0.5400401E-006  0.1259655E+03  0.7546771E-02  0.1248827E+00
          2   -1    0    0  501    0  0.00000000000E+00  0.00000000000E+00  0.24058140941E+03  0.24058140941E+03  0.00000000000E+00 0. -1.
         -2   -1    0    0    0  501 -0.00000000000E+00 -0.00000000000E+00 -0.74200746544E+02  0.74200746544E+02  0.00000000000E+00 0.  1.
         23    2    1    2    0    0  0.13782903769E+02  0.69181344612E+01  0.17621018019E+01  0.12597778535E+03  0.12501787223E+03 0.  0.
          5    1    3    3  502    0 -0.50973134534E+02 -0.62844124718E+01  0.22904594697E+02  0.56431061859E+02  0.47000000000E+01 0.  1.
         -5    1    3    3    0  502  0.64756038302E+02  0.13202546933E+02 -0.21142492895E+02  0.69546723488E+02  0.47000000000E+01 0.  1.
        -11    1    1    2    0    0  0.30526211001E+02 -0.85208786549E+01  0.19845150520E+02  0.37393648262E+02  0.00000000000E+00 0.  1.
         11    1    1    2    0    0 -0.44309114770E+02  0.16027441937E+01  0.14477341054E+03  0.15141072234E+03  0.00000000000E+00 0. -1.
<mgrwt>
<rscale>  0 0.11659248E+03</rscale>
<asrwt>0</asrwt>
<pdfrwt beam="1">  1        2 0.37012524E-01 0.12596546E+03</pdfrwt>
<pdfrwt beam="2">  1       -2 0.11415500E-01 0.12596546E+03</pdfrwt>
<totfact> 0.70534431E+03</totfact>
</mgrwt>
</event>
<event>
 7    1  0.5400401E-006  0.1772771E+03  0.7546771E-02  0.1173964E+00
          1   -1    0    0  501    0  0.00000000000E+00  0.00000000000E+00  0.83791735647E+03  0.83791735647E+03  0.00000000000E+00 0. -1.
         -1   -1    0    0    0  501 -0.00000000000E+00 -0.00000000000E+00 -0.48206207974E+02  0.48206207974E+02  0.00000000000E+00 0.  1.
         23    2    1    2    0    0  0.94098697596E+02  0.83351144107E+02  0.17167769144E+03  0.24678005487E+03  0.12500075053E+03 0.  0.
          5    1    3    3  502    0  0.10373625624E+02  0.32233994103E+02 -0.13831411321E+02  0.36878725893E+02  0.47000000000E+01 0.  1.
         -5    1    3    3    0  502  0.83725071972E+02  0.51117150004E+02  0.18550910276E+03  0.20990132898E+03  0.47000000000E+01 0.  1.
        -11    1    1    2    0    0 -0.10671305047E+03 -0.69888605122E+02  0.60047445029E+03  0.61387430124E+03  0.00000000000E+00 0. -1.
         11    1    1    2    0    0  0.12614352878E+02 -0.13462538985E+02  0.17559006763E+02  0.25469208330E+02  0.00000000000E+00 0.  1.
<mgrwt>
<rscale>  0 0.17377837E+03</rscale>
<asrwt>0</asrwt>
<pdfrwt beam="1">  1        1 0.12891035E+00 0.17727709E+03</pdfrwt>
<pdfrwt beam="2">  1       -1 0.74163403E-02 0.17727709E+03</pdfrwt>
<totfact> 0.20589251E+03</totfact>
</mgrwt>
</event>
<event>
 7    1  0.5400401E-006  0.1621983E+03  0.7546771E-02  0.1193318E+00
         -2   -1    0    0    0  501 -0.00000000000E+00  0.00000000000E+00  0.54887710681E+02  0.54887710681E+02  0.00000000000E+00 0.  1.
          2   -1    0    0  501    0  0.00000000000E+00 -0.00000000000E+00 -0.43369412723E+03  0.43369412723E+03  0.00000000000E+00 0. -1.
         23    2    1    2    0    0 -0.65010304876E+02  0.80359811299E+02 -0.14947736979E+03  0.22057146052E+03  0.12499698438E+03 0.  0.
          5    1    3    3  502    0 -0.51390214797E+02 -0.14542848636E+02 -0.97856312957E+02  0.11158134526E+03  0.47000000000E+01 0.  1.
         -5    1    3    3    0  502 -0.13620090078E+02  0.94902659935E+02 -0.51621056834E+02  0.10899011526E+03  0.47000000000E+01 0.  1.
        -11    1    1    2    0    0 -0.18837998863E+02 -0.15958135253E+02 -0.88695305526E+02  0.92067309640E+02  0.00000000000E+00 0. -1.
         11    1    1    2    0    0  0.83848303738E+02 -0.64401676046E+02 -0.14063374123E+03  0.17594306775E+03  0.00000000000E+00 0.  1.
<mgrwt>
<rscale>  0 0.15597464E+03</rscale>
<asrwt>0</asrwt>
<pdfrwt beam="2">  1        2 0.66722176E-01 0.16219829E+03</pdfrwt>
<pdfrwt beam="1">  1       -2 0.84442629E-02 0.16219829E+03</pdfrwt>
<totfact> 0.61407777E+03</totfact>
</mgrwt>
</event>
<event>
 7    1  0.5400401E-006  0.1264961E+03  0.7546771E-02  0.1248599E+00
          1   -1    0    0  501    0  0.00000000000E+00  0.00000000000E+00  0.30659206490E+03  0.30659206490E+03  0.00000000000E+00 0. -1.
         -1   -1    0    0    0  501 -0.00000000000E+00 -0.00000000000E+00 -0.39697920212E+02  0.39697920212E+02  0.00000000000E+00 0.  1.
         23    2    1    2    0    0 -0.10584602044E+02 -0.16269022167E+02  0.12891292209E+03  0.18060951807E+03  0.12499816660E+03 0.  0.
          5    1    3    3  502    0  0.19467784041E+02  0.13262881410E+02 -0.16500460629E+02  0.29141960122E+02  0.47000000000E+01 0.  1.
         -5    1    3    3    0  502 -0.30052386085E+02 -0.29531903578E+02  0.14541338272E+03  0.15146755795E+03  0.47000000000E+01 0.  1.
        -11    1    1    2    0    0  0.46831315562E+02  0.30011102556E+01  0.10461942412E+03  0.11466212402E+03  0.00000000000E+00 0.  1.
         11    1    1    2    0    0 -0.36246713518E+02  0.13267911912E+02  0.33361798477E+02  0.51018343024E+02  0.00000000000E+00 0. -1.
<mgrwt>
<rscale>  0 0.11672531E+03</rscale>
<asrwt>0</asrwt>
<pdfrwt beam="1">  1        1 0.47168008E-01 0.12649607E+03</pdfrwt>
<pdfrwt beam="2">  1       -1 0.61073725E-02 0.12649607E+03</pdfrwt>
<totfact> 0.10421240E+04</totfact>
</mgrwt>
</event>
<event>
 7    1  0.5400401E-006  0.1503219E+03  0.7546771E-02  0.1210070E+00
         -2   -1    0    0    0  501 -0.00000000000E+00  0.00000000000E+00  0.14932787633E+03  0.14932787633E+03  0.00000000000E+00 0.  1.
          2   -1    0    0  501    0  0.00000000000E+00 -0.00000000000E+00 -0.12383921937E+03  0.12383921937E+03  0.00000000000E+00 0. -1.
         23    2    1    2    0    0  0.82965881068E+02 -0.93786227232E+01  0.21760315467E+02  0.15188870073E+03  0.12500148037E+03 0.  0.
          5    1    3    3  502    0  0.11476786645E+03 -0.13302815628E+02  0.57839756970E+01  0.11577638986E+03  0.47000000000E+01 0.  1.
         -5    1    3    3    0  502 -0.31801985382E+02  0.39241929045E+01  0.15976339770E+02  0.36112310874E+02  0.47000000000E+01 0.  1.
        -11    1    1    2    0    0 -0.87337675549E+02 -0.70600437141E+01  0.27689353751E+02  0.91893493234E+02  0.00000000000E+00 0.  1.
         11    1    1    2    0    0  0.43717944809E+01  0.16438666437E+02 -0.23961012265E+02  0.29384901735E+02  0.00000000000E+00 0. -1.
<mgrwt>
<rscale>  0 0.14244958E+03</rscale>
<asrwt>0</asrwt>
<pdfrwt beam="2">  1        2 0.19052188E-01 0.15032187E+03</pdfrwt>
<pdfrwt beam="1">  1       -2 0.22973519E-01 0.15032187E+03</pdfrwt>
<totfact> 0.46618142E+03</totfact>
</mgrwt>
</event>
<event>
 7    1  0.5400401E-006  0.1266757E+03  0.7546771E-02  0.1246410E+00
          2   -1    0    0  501    0  0.00000000000E+00  0.00000000000E+00  0.22524034319E+03  0.22524034319E+03  0.00000000000E+00 0. -1.
         -2   -1    0    0    0  501 -0.00000000000E+00 -0.00000000000E+00 -0.58790269406E+02  0.58790269406E+02  0.00000000000E+00 0.  1.
         23    2    1    2    0    0  0.15163510329E+02 -0.13835081201E+02  0.57246189654E+02  0.13901032229E+03  0.12500160781E+03 0.  0.
          5    1    3    3  502    0  0.52146649456E+02 -0.41323252352E+02  0.17490368297E+01  0.66723559290E+02  0.47000000000E+01 0.  1.
         -5    1    3    3    0  502 -0.36983139127E+02  0.27488171151E+02  0.55497152825E+02  0.72286762997E+02  0.47000000000E+01 0.  1.
        -11    1    1    2    0    0  0.57331202349E+01 -0.32294250605E+02  0.11117360754E+02  0.34632109377E+02  0.00000000000E+00 0.  1.
         11    1    1    2    0    0 -0.20896630564E+02  0.46129331806E+02  0.98086523378E+02  0.11038818093E+03  0.00000000000E+00 0. -1.
<mgrwt>
<rscale>  0 0.11801371E+03</rscale>
<asrwt>0</asrwt>
<pdfrwt beam="1">  1        2 0.34652360E-01 0.12667574E+03</pdfrwt>
<pdfrwt beam="2">  1       -2 0.90446569E-02 0.12667574E+03</pdfrwt>
<totfact> 0.10912832E+04</totfact>
</mgrwt>
</event>
<event>
 7    1  0.5400401E-006  0.1428868E+03  0.7546771E-02  0.1218050E+00
          1   -1    0    0  501    0  0.00000000000E+00  0.00000000000E+00  0.20257267760E+03  0.20257267760E+03  0.00000000000E+00 0. -1.
         -1   -1    0    0    0  501 -0.00000000000E+00 -0.00000000000E+00 -0.13816965506E+03  0.13816965506E+03  0.00000000000E+00 0.  1.
         23    2    1    2    0    0 -0.68429337674E+02 -0.10357933612E+02 -0.71676537363E+02  0.15985669934E+03  0.12500710888E+03 0.  0.
          5    1    3    3  502    0 -0.56178905500E+02 -0.62162208761E+02 -0.64697967845E+02  0.10596285512E+03  0.47000000000E+01 0. -1.
         -5    1    3    3    0  502 -0.12250432174E+02  0.51804275149E+02 -0.69785695182E+01  0.53893844219E+02  0.47000000000E+01 0. -1.
        -11    1    1    2    0    0  0.10232124579E+02  0.23347742280E+02  0.11476406326E+03  0.11756106354E+03  0.00000000000E+00 0. -1.
         11    1    1    2    0    0  0.58197213095E+02 -0.12989808668E+02  0.21315496646E+02  0.63324569785E+02  0.00000000000E+00 0.  1.
<mgrwt>
<rscale>  0 0.13654872E+03</rscale>
<asrwt>0</asrwt>
<pdfrwt beam="1">  1        1 0.31165027E-01 0.14288680E+03</pdfrwt>
<pdfrwt beam="2">  1       -1 0.21256870E-01 0.14288680E+03</pdfrwt>
<totfact> 0.25604698E+03</totfact>
</mgrwt>
</event>
<event>
 7    1  0.5400401E-006  0.1273985E+03  0.7546771E-02  0.1245858E+00
         -2   -1    0    0    0  501 -0.00000000000E+00  0.00000000000E+00  0.17055207501E+03  0.17055207501E+03  0.00000000000E+00 0. -1.
          2   -1    0    0  501    0  0.00000000000E+00 -0.00000000000E+00 -0.72563548031E+02  0.72563548031E+02  0.00000000000E+00 0.  1.
         23    2    1    2    0    0 -0.21260487905E+02  0.12431686312E+02  0.61740281481E+02  0.14157066373E+03  0.12499534111E+03 0.  0.
          5    1    3    3  502    0 -0.39050362108E+02  0.49987536801E+02 -0.39153088434E+01  0.63726793891E+02  0.47000000000E+01 0. -1.
         -5    1    3    3    0  502  0.17789874203E+02 -0.37555850489E+02  0.65655590324E+02  0.77843869835E+02  0.47000000000E+01 0. -1.
        -11    1    1    2    0    0 -0.27581641341E+01 -0.32617613713E+02 -0.19117302981E+02  0.37907617532E+02  0.00000000000E+00 0.  1.
         11    1    1    2    0    0  0.24018652039E+02  0.20185927400E+02  0.55365548480E+02  0.63637341784E+02  0.00000000000E+00 0. -1.
<mgrwt>
<rscale>  0 0.11834182E+03</rscale>
<asrwt>0</asrwt>
<pdfrwt beam="2">  1        2 0.11163623E-01 0.12739855E+03</pdfrwt>
<pdfrwt beam="1">  1       -2 0.26238781E-01 0.12739855E+03</pdfrwt>
<totfact> 0.68529556E+03</totfact>
</mgrwt>
</event>
<event>
 7    1  0.5400401E-006  0.2211150E+03  0.7546771E-02  0.1136380E+00
          1   -1    0    0  501    0  0.00000000000E+00  0.00000000000E+00  0.97984359009E+03  0.97984359009E+03  0.00000000000E+00 0. -1.
         -1   -1    0    0    0  501 -0.00000000000E+00 -0.00000000000E+00 -0.47957869441E+02  0.47957869441E+02  0.00000000000E+00 0.  1.
         23    2    1    2    0    0 -0.88277475674E+02  0.15957267459E+03  0.38277400882E+03  0.44204954617E+03  0.12504202593E+03 0.  0.
          5    1    3    3  502    0 -0.98829338921E+02  0.49949017440E+02  0.19661944237E+03  0.22570653002E+03  0.47000000000E+01 0.  1.
         -5    1    3    3    0  502  0.10551863248E+02  0.10962365715E+03  0.18615456645E+03  0.21634301615E+03  0.47000000000E+01 0.  1.
        -11    1    1    2    0    0  0.27929235774E+02 -0.68712114988E+02  0.10573991783E+03  0.12916008354E+03  0.00000000000E+00 0.  1.
         11    1    1    2    0    0  0.60348239899E+02 -0.90860559607E+02  0.44337179399E+03  0.45659182982E+03  0.00000000000E+00 0. -1.
<mgrwt>
<rscale>  0 0.21668378E+03</rscale>
<asrwt>0</asrwt>
<pdfrwt beam="1">  1        1 0.15074515E+00 0.22111504E+03</pdfrwt>
<pdfrwt beam="2">  1       -1 0.73781345E-02 0.22111504E+03</pdfrwt>
<totfact> 0.16136009E+03</totfact>
</mgrwt>
</event>
<event>
 6    1  0.5400401E-006  0.1699529E+03  0.7546771E-02  0.1195836E+00
          2   -1    0    0  501    0  0.00000000000E+00  0.00000000000E+00  0.60271937622E+03  0.60271937622E+03  0.00000000000E+00 0. -1.
         -2   -1    0    0    0  501 -0.00000000000E+00 -0.00000000000E+00 -0.43618937044E+02  0.43618937044E+02  0.00000000000E+00 0.  1.
          5    1    1    2  502    0 -0.12028263826E+02  0.62693008988E+02  0.10466486634E+03  0.12268625331E+03  0.47000000000E+01 0. -1.
         -5    1    1    2    0  502 -0.37305978556E+02 -0.90014642641E+02  0.63477803907E+02  0.11638682707E+03  0.47000000000E+01 0.  1.
        -11    1    1    2    0    0 -0.21849481903E+02 -0.94295790390E+01  0.34468651760E+02  0.41885615364E+02  0.00000000000E+00 0.  1.
         11    1    1    2    0    0  0.71183724285E+02  0.36751212692E+02  0.35648911716E+03  0.36537961751E+03  0.00000000000E+00 0. -1.
<mgrwt>
<rscale>  0 0.15383679E+03</rscale>
<asrwt>0</asrwt>
<pdfrwt beam="1">  1        2 0.92726052E-01 0.16995288E+03</pdfrwt>
<pdfrwt beam="2">  1       -2 0.67106061E-02 0.16995288E+03</pdfrwt>
<totfact> 0.60885235E+03</totfact>
</mgrwt>
</event>
<event>
 7    1  0.5400401E-006  0.1478361E+03  0.7546771E-02  0.1212824E+00
          1   -1    0    0  501    0  0.00000000000E+00  0.00000000000E+00  0.40693555871E+03  0.40693555871E+03  0.00000000000E+00 0. -1.
         -1   -1    0    0    0  501 -0.00000000000E+00 -0.00000000000E+00 -0.44901791571E+02  0.44901791571E+02  0.00000000000E+00 0.  1.
         23    2    1    2    0    0 -0.57839935411E+01  0.78721068348E+02  0.16991008040E+03  0.22522198807E+03  0.12500018922E+03 0.  0.
          5    1    3    3  502    0  0.36291435586E+02  0.48672332963E+01  0.12215982702E+03  0.12761611025E+03  0.47000000000E+01 0. -1.
         -5    1    3    3    0  502 -0.42075429127E+02  0.73853835052E+02  0.47750253379E+02  0.97605877825E+02  0.47000000000E+01 0. -1.
        -11    1    1    2    0    0  0.38361828739E+02 -0.22926010344E+02  0.35124526936E+02  0.56841571468E+02  0.00000000000E+00 0.  1.
         11    1    1    2    0    0 -0.32577835198E+02 -0.55795058004E+02  0.15699915981E+03  0.16977379074E+03  0.00000000000E+00 0. -1.
<mgrwt>
<rscale>  0 0.14037590E+03</rscale>
<asrwt>0</asrwt>
<pdfrwt beam="1">  1        1 0.62605468E-01 0.14783609E+03</pdfrwt>
<pdfrwt beam="2">  1       -1 0.69079682E-02 0.14783609E+03</pdfrwt>
<totfact> 0.61509122E+03</totfact>
</mgrwt>
</event>
<event>
 7    1  0.5400401E-006  0.1436790E+03  0.7546771E-02  0.1218896E+00
         -1   -1    0    0    0  501 -0.00000000000E+00  0.00000000000E+00  0.12202078614E+03  0.12202078614E+03  0.00000000000E+00 0.  1.
          1   -1    0    0  501    0  0.00000000000E+00 -0.00000000000E+00 -0.21512234654E+03  0.21512234654E+03  0.00000000000E+00 0. -1.
         23    2    1    2    0    0  0.19058947952E+02  0.68139726445E+02  0.51203496383E+02  0.15253015344E+03  0.12504952559E+03 0.  0.
          5    1    3    3  502    0 -0.23595945871E+01  0.10118397110E+03  0.49674908575E+02  0.11284259053E+03  0.47000000000E+01 0.  1.
         -5    1    3    3    0  502  0.21418542539E+02 -0.33044244659E+02  0.15285878073E+01  0.39687562917E+02  0.47000000000E+01 0.  1.
        -11    1    1    2    0    0 -0.35800245482E+02 -0.49325912901E+02 -0.14714619534E+03  0.15926928788E+03  0.00000000000E+00 0. -1.
         11    1    1    2    0    0  0.16741297531E+02 -0.18813813545E+02  0.28411385501E+01  0.25343691353E+02  0.00000000000E+00 0.  1.
<mgrwt>
<rscale>  0 0.13594232E+03</rscale>
<asrwt>0</asrwt>
<pdfrwt beam="2">  1        1 0.33095745E-01 0.14367898E+03</pdfrwt>
<pdfrwt beam="1">  1       -1 0.18772429E-01 0.14367898E+03</pdfrwt>
<totfact> 0.29024114E+03</totfact>
</mgrwt>
</event>
<event>
 7    1  0.5400401E-006  0.1723790E+03  0.7546771E-02  0.1181454E+00
          1   -1    0    0  501    0  0.00000000000E+00  0.00000000000E+00  0.29098878540E+02  0.29098878540E+02  0.00000000000E+00 0. -1.
         -1   -1    0    0    0  501 -0.00000000000E+00 -0.00000000000E+00 -0.96443808876E+03  0.96443808876E+03  0.00000000000E+00 0.  1.
         23    2    1    2    0    0  0.53458005578E+02 -0.10598739129E+03 -0.63043914097E+03  0.65358093928E+03  0.12499379286E+03 0.  0.
          5    1    3    3  502    0  0.63891195075E+02 -0.23461921570E+01 -0.17540380176E+03  0.18675163479E+03  0.47000000000E+01 0.  1.
         -5    1    3    3    0  502 -0.10433189497E+02 -0.10364119913E+03 -0.45503533921E+03  0.46682930449E+03  0.47000000000E+01 0.  1.
        -11    1    1    2    0    0  0.11100265098E+02  0.75328015534E+02 -0.18940592620E+03  0.20413752886E+03  0.00000000000E+00 0.  1.
         11    1    1    2    0    0 -0.64558270677E+02  0.30659375754E+02 -0.11549414305E+03  0.13581849916E+03  0.00000000000E+00 0. -1.
<mgrwt>
<rscale>  0 0.16658712E+03</rscale>
<asrwt>0</asrwt>
<pdfrwt beam="1">  1        1 0.44767509E-02 0.17237904E+03</pdfrwt>
<pdfrwt beam="2">  1       -1 0.14837508E+00 0.17237904E+03</pdfrwt>
<totfact> 0.74995910E+02</totfact>
</mgrwt>
</event>
<event>
 7    1  0.5400401E-006  0.1324640E+03  0.7546771E-02  0.1240302E+00
          3   -1    0    0  501    0  0.00000000000E+00  0.00000000000E+00  0.11570526553E+03  0.11570526553E+03  0.00000000000E+00 0. -1.
         -3   -1    0    0    0  501 -0.00000000000E+00 -0.00000000000E+00 -0.13220963513E+03  0.13220963513E+03  0.00000000000E+00 0.  1.
         23    2    1    2    0    0  0.42208726483E+02 -0.11878263048E+02 -0.58226669892E+02  0.14469646440E+03  0.12499620794E+03 0.  0.
          5    1    3    3  502    0  0.63618159455E+02  0.40237534320E+02 -0.39493214371E+02  0.85135969848E+02  0.47000000000E+01 0. -1.
         -5    1    3    3    0  502 -0.21409432971E+02 -0.52115797368E+02 -0.18733455521E+02  0.59560494551E+02  0.47000000000E+01 0. -1.
        -11    1    1    2    0    0 -0.42259308085E+02  0.28712659900E+02  0.59708170761E+02  0.78583278209E+02  0.00000000000E+00 0. -1.
         11    1    1    2    0    0  0.50581601880E-01 -0.16834396852E+02 -0.17985870464E+02  0.24635158051E+02  0.00000000000E+00 0.  1.
<mgrwt>
<rscale>  0 0.12171057E+03</rscale>
<asrwt>0</asrwt>
<pdfrwt beam="1">  1        3 0.17800810E-01 0.13246404E+03</pdfrwt>
<pdfrwt beam="2">  1       -3 0.20339944E-01 0.13246404E+03</pdfrwt>
<totfact> 0.13749942E+03</totfact>
</mgrwt>
</event>
<event>
 7    1  0.5400401E-006  0.1713513E+03  0.7546771E-02  0.1181992E+00
          1   -1    0    0  501    0  0.00000000000E+00  0.00000000000E+00  0.63908344729E+02  0.63908344729E+02  0.00000000000E+00 0. -1.
         -1   -1    0    0    0  501 -0.00000000000E+00 -0.00000000000E+00 -0.77312948776E+03  0.77312948776E+03  0.00000000000E+00 0.  1.
         23    2    1    2    0    0  0.31421184705E+02 -0.11291354706E+03 -0.65392840286E+03  0.67600563992E+03  0.12499803670E+03 0.  0.
          5    1    3    3  502    0 -0.34879897394E+02 -0.81248127530E+02 -0.24515512372E+03  0.26065492544E+03  0.47000000000E+01 0. -1.
         -5    1    3    3    0  502  0.66301082099E+02 -0.31665419533E+02 -0.40877327914E+03  0.41535071448E+03  0.47000000000E+01 0. -1.
        -11    1    1    2    0    0 -0.18195112478E+02  0.64164713055E+02 -0.80534096543E+02  0.10456535385E+03  0.00000000000E+00 0.  1.
         11    1    1    2    0    0 -0.13226072227E+02  0.48748834008E+02  0.25241356371E+02  0.56466838721E+02  0.00000000000E+00 0. -1.
<mgrwt>
<rscale>  0 0.16608619E+03</rscale>
<asrwt>0</asrwt>
<pdfrwt beam="1">  1        1 0.98320531E-02 0.17135130E+03</pdfrwt>
<pdfrwt beam="2">  1       -1 0.11894300E+00 0.17135130E+03</pdfrwt>
<totfact> 0.44380496E+02</totfact>
</mgrwt>
</event>
<event>
 7    1  0.5400401E-006  0.1525308E+03  0.7546771E-02  0.1200256E+00
         -1   -1    0    0    0  501 -0.00000000000E+00  0.00000000000E+00  0.12440167193E+03  0.12440167193E+03  0.00000000000E+00 0. -1.
          1   -1    0    0  501    0  0.00000000000E+00 -0.00000000000E+00 -0.18191669015E+03  0.18191669015E+03  0.00000000000E+00 0.  1.
         23    2    1    2    0    0 -0.63893130872E+02  0.28906207432E+02 -0.78380343276E-01  0.14333180944E+03  0.12500440174E+03 0.  0.
          5    1    3    3  502    0 -0.21788494111E+02 -0.49154603768E+02  0.60154922123E+01  0.54306442471E+02  0.47000000000E+01 0.  1.
         -5    1    3    3    0  502 -0.42104636760E+02  0.78060811200E+02 -0.60938725556E+01  0.89025366973E+02  0.47000000000E+01 0.  1.
        -11    1    1    2    0    0  0.85166324028E+02 -0.13687650197E+02  0.13565871223E+02  0.87319455899E+02  0.00000000000E+00 0. -1.
         11    1    1    2    0    0 -0.21273193157E+02 -0.15218557235E+02 -0.71002509094E+02  0.75667096740E+02  0.00000000000E+00 0.  1.
<mgrwt>
<rscale>  0 0.15017714E+03</rscale>
<asrwt>0</asrwt>
<pdfrwt beam="2">  1        1 0.27987183E-01 0.15253081E+03</pdfrwt>
<pdfrwt beam="1">  1       -1 0.19138719E-01 0.15253081E+03</pdfrwt>
<totfact> 0.34778216E+03</totfact>
</mgrwt>
</event>
<event>
 7    1  0.5400401E-006  0.2360843E+03  0.7546771E-02  0.1125346E+00
          1   -1    0    0  501    0  0.00000000000E+00  0.00000000000E+00  0.26704656253E+03  0.26704656253E+03  0.00000000000E+00 0. -1.
         -1   -1    0    0    0  501 -0.00000000000E+00 -0.00000000000E+00 -0.27593543883E+03  0.27593543883E+03  0.00000000000E+00 0.  1.
         23    2    1    2    0    0 -0.16262293602E+03 -0.11689376199E+03 -0.15208466734E+03  0.28083009059E+03  0.12500169129E+03 0.  0.
          5    1    3    3  502    0 -0.15125822638E+01 -0.49960000605E+02 -0.13479112474E+01  0.50221473797E+02  0.47000000000E+01 0.  1.
         -5    1    3    3    0  502 -0.16111035376E+03 -0.66933761389E+02 -0.15073675609E+03  0.23060861679E+03  0.47000000000E+01 0.  1.
        -11    1    1    2    0    0  0.12644108331E+02 -0.15114488941E+02  0.10850002893E+02  0.22495417627E+02  0.00000000000E+00 0.  1.
         11    1    1    2    0    0  0.14997882769E+03  0.13200825094E+03  0.13234578814E+03  0.23965649315E+03  0.00000000000E+00 0. -1.
<mgrwt>
<rscale>  0 0.23184735E+03</rscale>
<asrwt>0</asrwt>
<pdfrwt beam="1">  1        1 0.41084087E-01 0.23608429E+03</pdfrwt>
<pdfrwt beam="2">  1       -1 0.42451606E-01 0.23608429E+03</pdfrwt>
<totfact> 0.56598515E+02</totfact>
</mgrwt>
</event>
<event>
 7    1  0.5400401E-006  0.1431350E+03  0.7546771E-02  0.1227277E+00
         -1   -1    0    0    0  501 -0.00000000000E+00  0.00000000000E+00  0.47221825715E+02  0.47221825715E+02  0.00000000000E+00 0.  1.
          1   -1    0    0  501    0  0.00000000000E+00 -0.00000000000E+00 -0.32955369668E+03  0.32955369668E+03  0.00000000000E+00 0. -1.
         23    2    1    2    0    0 -0.67680439821E+02 -0.16747552853E+02 -0.11772258482E+03  0.18532736692E+03  0.12500601383E+03 0.  0.
          5    1    3    3  502    0 -0.47926090779E+02 -0.59440453845E+02 -0.23697041695E+02  0.80085688583E+02  0.47000000000E+01 0.  1.
         -5    1    3    3    0  502 -0.19754349042E+02  0.42692900992E+02 -0.94025543120E+02  0.10524167834E+03  0.47000000000E+01 0.  1.
        -11    1    1    2    0    0 -0.13700341940E+02  0.77957752416E+01 -0.23206112753E+02  0.28053469482E+02  0.00000000000E+00 0. -1.
         11    1    1    2    0    0  0.81380781761E+02  0.89517776111E+01 -0.14140317340E+03  0.16339468599E+03  0.00000000000E+00 0.  1.
<mgrwt>
<rscale>  0 0.13012025E+03</rscale>
<asrwt>0</asrwt>
<pdfrwt beam="2">  1        1 0.50700568E-01 0.14313499E+03</pdfrwt>
<pdfrwt beam="1">  1       -1 0.72648964E-02 0.14313499E+03</pdfrwt>
<totfact> 0.74150682E+03</totfact>
</mgrwt>
</event>
<event>
 7    1  0.5400401E-006  0.2175241E+03  0.7546771E-02  0.1138362E+00
         -2   -1    0    0    0  501 -0.00000000000E+00  0.00000000000E+00  0.22121807832E+03  0.22121807832E+03  0.00000000000E+00 0.  1.
          2   -1    0    0  501    0  0.00000000000E+00 -0.00000000000E+00 -0.20544940049E+03  0.20544940049E+03  0.00000000000E+00 0. -1.
         23    2    1    2    0    0  0.41458003473E+02  0.17312654142E+03  0.39751163707E+02  0.22112642827E+03  0.12500070747E+03 0.  0.
          5    1    3    3  502    0  0.80418954422E+02  0.12727156669E+03  0.52367441248E+02  0.15946692077E+03  0.47000000000E+01 0. -1.
         -5    1    3    3    0  502 -0.38960950949E+02  0.45854974730E+02 -0.12616277540E+02  0.61659507501E+02  0.47000000000E+01 0. -1.
        -11    1    1    2    0    0  0.20609837103E+01 -0.14311742607E+03 -0.42855796033E+02  0.14941038971E+03  0.00000000000E+00 0. -1.
         11    1    1    2    0    0 -0.43518987183E+02 -0.30009115344E+02  0.18873310152E+02  0.56130660830E+02  0.00000000000E+00 0.  1.
<mgrwt>
<rscale>  0 0.21409724E+03</rscale>
<asrwt>0</asrwt>
<pdfrwt beam="2">  1        2 0.31607600E-01 0.21752412E+03</pdfrwt>
<pdfrwt beam="1">  1       -2 0.34033550E-01 0.21752412E+03</pdfrwt>
<totfact> 0.13326185E+03</totfact>
</mgrwt>
</event>
<event>
 7    1  0.5400401E-006  0.1361208E+03  0.7546771E-02  0.1231120E+00
         -1   -1    0    0    0  501 -0.00000000000E+00  0.00000000000E+00  0.64938067455E+02  0.64938067455E+02  0.00000000000E+00 0.  1.
          1   -1    0    0  501    0  0.00000000000E+00 -0.00000000000E+00 -0.29984305830E+03  0.29984305830E+03  0.00000000000E+00 0. -1.
         23    2    1    2    0    0 -0.37541946550E+02 -0.38668803711E+02 -0.37489282727E+02  0.14118892138E+03  0.12499676424E+03 0.  0.
          5    1    3    3  502    0  0.22696930550E+02  0.49579154544E+01 -0.59031200610E+02  0.63612138995E+02  0.47000000000E+01 0.  1.
         -5    1    3    3    0  502 -0.60238877101E+02 -0.43626719166E+02  0.21541917882E+02  0.77576782387E+02  0.47000000000E+01 0.  1.
        -11    1    1    2    0    0 -0.65573028172E+01  0.47029817475E+02 -0.15396558325E+03  0.16112170176E+03  0.00000000000E+00 0.  1.
         11    1    1    2    0    0  0.44099249367E+02 -0.83610137643E+01 -0.43450124866E+02  0.62470502614E+02  0.00000000000E+00 0. -1.
<mgrwt>
<rscale>  0 0.12756118E+03</rscale>
<asrwt>0</asrwt>
<pdfrwt beam="2">  1        1 0.46129701E-01 0.13612077E+03</pdfrwt>
<pdfrwt beam="1">  1       -1 0.99904719E-02 0.13612077E+03</pdfrwt>
<totfact> 0.51305891E+03</totfact>
</mgrwt>
</event>
<event>
 7    1  0.5400401E-006  0.1813711E+03  0.7546771E-02  0.1171736E+00
         -1   -1    0    0    0  501 -0.00000000000E+00  0.00000000000E+00  0.25757247860E+03  0.25757247860E+03  0.00000000000E+00 0.  1.
          1   -1    0    0  501    0  0.00000000000E+00 -0.00000000000E+00 -0.15249981945E+03  0.15249981945E+03  0.00000000000E+00 0. -1.
         23    2    1    2    0    0 -0.10181492485E+03  0.86074778633E+02  0.15824812164E+03  0.24070301326E+03  0.12296473540E+03 0.  0.
          5    1    3    3  502    0 -0.30872088668E+02 -0.27587658547E+02  0.14452411763E+02  0.44103593602E+02  0.47000000000E+01 0. -1.
         -5    1    3    3    0  502 -0.70942836185E+02  0.11366243718E+03  0.14379570987E+03  0.19659941966E+03  0.47000000000E+01 0.  1.
        -11    1    1    2    0    0  0.88663751496E+02 -0.46466291340E+02 -0.72279996645E+02  0.12346973303E+03  0.00000000000E+00 0. -1.
         11    1    1    2    0    0  0.13151173357E+02 -0.39608487294E+02  0.19104534148E+02  0.45899551756E+02  0.00000000000E+00 0.  1.
<mgrwt>
<rscale>  0 0.17599531E+03</rscale>
<asrwt>0</asrwt>
<pdfrwt beam="2">  1        1 0.23461511E-01 0.18137109E+03</pdfrwt>
<pdfrwt beam="1">  1       -1 0.39626535E-01 0.18137109E+03</pdfrwt>
<totfact> 0.12924002E+03</totfact>
</mgrwt>
</event>
<event>
 7    1  0.5400401E-006  0.2409962E+03  0.7546771E-02  0.1121378E+00
         -1   -1    0    0    0  501 -0.00000000000E+00  0.00000000000E+00  0.68796246374E+02  0.68796246374E+02  0.00000000000E+00 0.  1.
          1   -1    0    0  501    0  0.00000000000E+00 -0.00000000000E+00 -0.11626521801E+04  0.11626521801E+04  0.00000000000E+00 0. -1.
         23    2    1    2    0    0 -0.18691015559E+03  0.86721556819E+02 -0.21309214806E+03  0.32169461701E+03  0.12499251325E+03 0.  0.
          5    1    3    3  502    0 -0.25843341329E+02 -0.31116621359E+02 -0.45353260152E+02  0.60951871360E+02  0.47000000000E+01 0.  1.
         -5    1    3    3    0  502 -0.16106681427E+03  0.11783817818E+03 -0.16773888791E+03  0.26074274566E+03  0.47000000000E+01 0.  1.
        -11    1    1    2    0    0  0.12657809209E+03 -0.10436441530E+03 -0.59865202365E+03  0.62072392414E+03  0.00000000000E+00 0.  1.
         11    1    1    2    0    0  0.60332063504E+02  0.17642858483E+02 -0.28211176197E+03  0.28902988528E+03  0.00000000000E+00 0. -1.
<mgrwt>
<rscale>  0 0.23763534E+03</rscale>
<asrwt>0</asrwt>
<pdfrwt beam="2">  1        1 0.17886955E+00 0.24099619E+03</pdfrwt>
<pdfrwt beam="1">  1       -1 0.10584039E-01 0.24099619E+03</pdfrwt>
<totfact> 0.68218268E+02</totfact>
</mgrwt>
</event>
<event>
 7    1  0.5400401E-006  0.1709520E+03  0.7546771E-02  0.1182973E+00
          3   -1    0    0  501    0  0.00000000000E+00  0.00000000000E+00  0.32569341313E+02  0.32569341313E+02  0.00000000000E+00 0. -1.
         -3   -1    0    0    0  501 -0.00000000000E+00 -0.00000000000E+00 -0.82406512384E+03  0.82406512384E+03  0.00000000000E+00 0.  1.
         23    2    1    2    0    0 -0.10829788973E+03 -0.43266051029E+02 -0.51377549699E+03  0.54147007066E+03  0.12499676807E+03 0.  0.
          5    1    3    3  502    0  0.39735180482E+01 -0.54773341364E+02 -0.21797522012E+03  0.22483592764E+03  0.47000000000E+01 0.  1.
         -5    1    3    3    0  502 -0.11227140778E+03  0.11507290335E+02 -0.29580027686E+03  0.31663414302E+03  0.47000000000E+01 0.  1.
        -11    1    1    2    0    0  0.11056960494E+03  0.24183501616E+02 -0.27276951184E+03  0.29531963341E+03  0.00000000000E+00 0. -1.
         11    1    1    2    0    0 -0.22717152139E+01  0.19082549413E+02 -0.49507736978E+01  0.19844761080E+02  0.00000000000E+00 0.  1.
<mgrwt>
<rscale>  0 0.16517709E+03</rscale>
<asrwt>0</asrwt>
<pdfrwt beam="1">  1        3 0.50106680E-02 0.17095197E+03</pdfrwt>
<pdfrwt beam="2">  1       -3 0.12677925E+00 0.17095197E+03</pdfrwt>
<totfact> 0.28262173E+02</totfact>
</mgrwt>
</event>
<event>
 7    1  0.5400401E-006  0.1660111E+03  0.7546771E-02  0.1189162E+00
         -2   -1    0    0    0  501 -0.00000000000E+00  0.00000000000E+00  0.50656826304E+03  0.50656826304E+03  0.00000000000E+00 0.  1.
          2   -1    0    0  501    0  0.00000000000E+00 -0.00000000000E+00 -0.48554085048E+02  0.48554085048E+02  0.00000000000E+00 0. -1.
         23    2    1    2    0    0  0.83052102481E+02  0.70964985510E+02  0.29969121456E+03  0.34259961985E+03  0.12500397810E+03 0.  0.
          5    1    3    3  502    0  0.11313375639E+03  0.74180779419E+02  0.24684117734E+03  0.28152209807E+03  0.47000000000E+01 0. -1.
         -5    1    3    3    0  502 -0.30081653911E+02 -0.32157939091E+01  0.52850037227E+02  0.61077521785E+02  0.47000000000E+01 0. -1.
        -11    1    1    2    0    0 -0.21925714801E+02 -0.57751491732E+02  0.27697949089E+02  0.67698952359E+02  0.00000000000E+00 0. -1.
         11    1    1    2    0    0 -0.61126387680E+02 -0.13213493778E+02  0.13062501434E+03  0.14482377588E+03  0.00000000000E+00 0.  1.
<mgrwt>
<rscale>  0 0.15958851E+03</rscale>
<asrwt>0</asrwt>
<pdfrwt beam="2">  1        2 0.74698596E-02 0.16601107E+03</pdfrwt>
<pdfrwt beam="1">  1       -2 0.77933575E-01 0.16601107E+03</pdfrwt>
<totfact> 0.13718234E+03</totfact>
</mgrwt>
</event>
<event>
 7    1  0.5400401E-006  0.1169117E+03  0.7546771E-02  0.1269601E+00
         -1   -1    0    0    0  501 -0.00000000000E+00  0.00000000000E+00  0.70053956358E+03  0.70053956358E+03  0.00000000000E+00 0.  1.
          1   -1    0    0  501    0  0.00000000000E+00 -0.00000000000E+00 -0.13498419929E+02  0.13498419929E+02  0.00000000000E+00 0. -1.
         23    2    1    2    0    0  0.34589119959E+01  0.19431628132E+02  0.44455657056E+03  0.45967260247E+03  0.11523369639E+03 0.  0.
          5    1    3    3  502    0  0.42135094261E+02 -0.18163373775E+02  0.91278677647E+02  0.10227004111E+03  0.47000000000E+01 0. -1.
         -5    1    3    3    0  502 -0.38676182265E+02  0.37595001907E+02  0.35327789291E+03  0.35740256136E+03  0.47000000000E+01 0.  1.
        -11    1    1    2    0    0 -0.18344540253E+02 -0.43862731693E+02  0.13452349986E+03  0.14267807612E+03  0.00000000000E+00 0. -1.
         11    1    1    2    0    0  0.14885628257E+02  0.24431103561E+02  0.10796107322E+03  0.11168730492E+03  0.00000000000E+00 0.  1.
<mgrwt>
<rscale>  0 0.10526343E+03</rscale>
<asrwt>0</asrwt>
<pdfrwt beam="2">  1        1 0.20766805E-02 0.11691175E+03</pdfrwt>
<pdfrwt beam="1">  1       -1 0.10777529E+00 0.11691175E+03</pdfrwt>
<totfact> 0.46104422E+03</totfact>
</mgrwt>
</event>
<event>
 7    1  0.5400401E-006  0.1250795E+03  0.7546771E-02  0.1252325E+00
         -1   -1    0    0    0  501 -0.00000000000E+00  0.00000000000E+00  0.15553807037E+03  0.15553807037E+03  0.00000000000E+00 0.  1.
          1   -1    0    0  501    0  0.00000000000E+00 -0.00000000000E+00 -0.73314289640E+02  0.73314289640E+02  0.00000000000E+00 0. -1.
         23    2    1    2    0    0  0.42338420418E+01  0.17011289121E+01  0.55349363263E+02  0.13677874083E+03  0.12499621063E+03 0.  0.
          5    1    3    3  502    0 -0.44222915289E+02  0.42092719895E+02  0.20609259317E+02  0.64608783261E+02  0.47000000000E+01 0. -1.
         -5    1    3    3    0  502  0.48456757331E+02 -0.40391590983E+02  0.34740103946E+02  0.72169957568E+02  0.47000000000E+01 0. -1.
        -11    1    1    2    0    0 -0.25168360543E+02 -0.38203594184E+02  0.17359998706E+02  0.48931896918E+02  0.00000000000E+00 0.  1.
         11    1    1    2    0    0  0.20934518501E+02  0.36502465271E+02  0.95144187657E+01  0.43141722268E+02  0.00000000000E+00 0. -1.
<mgrwt>
<rscale>  0 0.11457489E+03</rscale>
<asrwt>0</asrwt>
<pdfrwt beam="2">  1        1 0.11279122E-01 0.12507946E+03</pdfrwt>
<pdfrwt beam="1">  1       -1 0.23928934E-01 0.12507946E+03</pdfrwt>
<totfact> 0.76712661E+03</totfact>
</mgrwt>
</event>
<event>
 7    1  0.5400401E-006  0.2301554E+03  0.7546771E-02  0.1129537E+00
         -2   -1    0    0    0  501 -0.00000000000E+00  0.00000000000E+00  0.10074704038E+03  0.10074704038E+03  0.00000000000E+00 0. -1.
          2   -1    0    0  501    0  0.00000000000E+00 -0.00000000000E+00 -0.59269973924E+03  0.59269973924E+03  0.00000000000E+00 0.  1.
         23    2    1    2    0    0  0.13177503102E+03 -0.14134959162E+03 -0.10847530630E+03  0.25443746241E+03  0.12500865710E+03 0.  0.
          5    1    3    3  502    0  0.63909788712E+02 -0.24676665190E+02 -0.97064887063E+02  0.11889945836E+03  0.47000000000E+01 0.  1.
         -5    1    3    3    0  502  0.67865242306E+02 -0.11667292643E+03 -0.11410419237E+02  0.13553800405E+03  0.47000000000E+01 0.  1.
        -11    1    1    2    0    0 -0.50268689646E+02  0.56145067350E+02 -0.24902571226E+03  0.26017881373E+03  0.00000000000E+00 0.  1.
         11    1    1    2    0    0 -0.81506341371E+02  0.85204524266E+02 -0.13445168030E+03  0.17883050348E+03  0.00000000000E+00 0. -1.
<mgrwt>
<rscale>  0 0.22593052E+03</rscale>
<asrwt>0</asrwt>
<pdfrwt beam="2">  1        2 0.91184574E-01 0.23015545E+03</pdfrwt>
<pdfrwt beam="1">  1       -2 0.15499545E-01 0.23015545E+03</pdfrwt>
<totfact> 0.16544257E+03</totfact>
</mgrwt>
</event>
<event>
 6    1  0.5400401E-006  0.2162286E+03  0.7546771E-02  0.1165698E+00
         -2   -1    0    0    0  501 -0.00000000000E+00  0.00000000000E+00  0.16254465078E+03  0.16254465078E+03  0.00000000000E+00 0.  1.
          2   -1    0    0  501    0  0.00000000000E+00 -0.00000000000E+00 -0.32808389385E+03  0.32808389385E+03  0.00000000000E+00 0. -1.
          5    1    1    2  502    0  0.13498248482E+02  0.66301435762E+02 -0.59072783618E+02  0.89943131259E+02  0.47000000000E+01 0. -1.
         -5    1    1    2    0  502 -0.37537453008E+02 -0.14970345135E+02  0.13219612707E+03  0.13831513881E+03  0.47000000000E+01 0.  1.
        -11    1    1    2    0    0  0.10060986224E+02  0.27302740444E+02 -0.66176916072E+02  0.72291405439E+02  0.00000000000E+00 0.  1.
         11    1    1    2    0    0  0.13978218302E+02 -0.78633831071E+02 -0.17248567045E+03  0.19007886912E+03  0.00000000000E+00 0. -1.
<mgrwt>
<rscale>  0 0.18219200E+03</rscale>
<asrwt>0</asrwt>
<pdfrwt beam="2">  1        2 0.50474445E-01 0.21622862E+03</pdfrwt>
<pdfrwt beam="1">  1       -2 0.25006870E-01 0.21622862E+03</pdfrwt>
<totfact> 0.14025746E+03</totfact>
</mgrwt>
</event>
<event>
 6    1  0.5400401E-006  0.1866995E+03  0.7546771E-02  0.1171284E+00
          2   -1    0    0  501    0  0.00000000000E+00  0.00000000000E+00  0.31785368173E+03  0.31785368173E+03  0.00000000000E+00 0. -1.
         -2   -1    0    0    0  501 -0.00000000000E+00 -0.00000000000E+00 -0.99048446075E+02  0.99048446075E+02  0.00000000000E+00 0.  1.
          5    1    1    2  502    0  0.73734275754E+02  0.10150905512E+03  0.29003034978E+02  0.12885688857E+03  0.47000000000E+01 0. -1.
         -5    1    1    2    0  502  0.30883722587E+02 -0.51963760274E+02  0.24127554082E+02  0.65255387277E+02  0.47000000000E+01 0.  1.
        -11    1    1    2    0    0 -0.22698674558E+02 -0.60666553805E+02  0.57283365424E+02  0.86469905352E+02  0.00000000000E+00 0.  1.
         11    1    1    2    0    0 -0.81919323783E+02  0.11121258955E+02  0.10839128117E+03  0.13631994661E+03  0.00000000000E+00 0. -1.
<mgrwt>
<rscale>  0 0.17644945E+03</rscale>
<asrwt>0</asrwt>
<pdfrwt beam="1">  1        2 0.48900566E-01 0.18669953E+03</pdfrwt>
<pdfrwt beam="2">  1       -2 0.15238223E-01 0.18669953E+03</pdfrwt>
<totfact> 0.33581622E+03</totfact>
</mgrwt>
</event>
<event>
 7    1  0.5400401E-006  0.1284617E+03  0.7546771E-02  0.1243539E+00
          1   -1    0    0  501    0  0.00000000000E+00  0.00000000000E+00  0.62522151944E+03  0.62522151944E+03  0.00000000000E+00 0. -1.
         -1   -1    0    0    0  501 -0.00000000000E+00 -0.00000000000E+00 -0.20792060487E+02  0.20792060487E+02  0.00000000000E+00 0.  1.
         23    2    1    2    0    0 -0.90814337197E+00  0.29594771858E+02  0.39191128998E+03  0.41242800879E+03  0.12500291186E+03 0.  0.
          5    1    3    3  502    0 -0.43873543381E+02  0.60771269054E+02  0.23583626473E+03  0.24750529027E+03  0.47000000000E+01 0. -1.
         -5    1    3    3    0  502  0.42965400009E+02 -0.31176497195E+02  0.15607502526E+03  0.16492271852E+03  0.47000000000E+01 0. -1.
        -11    1    1    2    0    0  0.20768145446E+02  0.20188572265E+02  0.14246746410E+03  0.14538181676E+03  0.00000000000E+00 0. -1.
         11    1    1    2    0    0 -0.19860002074E+02 -0.49783344123E+02  0.70050704862E+02  0.88203754377E+02  0.00000000000E+00 0.  1.
<mgrwt>
<rscale>  0 0.11973223E+03</rscale>
<asrwt>0</asrwt>
<pdfrwt beam="1">  1        1 0.96187912E-01 0.12846168E+03</pdfrwt>
<pdfrwt beam="2">  1       -1 0.31987790E-02 0.12846168E+03</pdfrwt>
<totfact> 0.10824986E+04</totfact>
</mgrwt>
</event>
<event>
 7    1  0.5400401E-006  0.1286957E+03  0.7546771E-02  0.1238654E+00
         -1   -1    0    0    0  501 -0.00000000000E+00  0.00000000000E+00  0.10406172787E+03  0.10406172787E+03  0.00000000000E+00 0.  1.
          1   -1    0    0  501    0  0.00000000000E+00 -0.00000000000E+00 -0.13334816518E+03  0.13334816518E+03  0.00000000000E+00 0. -1.
         23    2    1    2    0    0 -0.26069832090E+02  0.15765223031E+02 -0.87552441839E+01  0.12899319869E+03  0.12503764475E+03 0.  0.
          5    1    3    3  502    0 -0.23402141685E+02 -0.13960570723E+02 -0.61936407050E+02  0.67828948751E+02  0.47000000000E+01 0. -1.
         -5    1    3    3    0  502 -0.26676904054E+01  0.29725793754E+02  0.53181162866E+02  0.61164249936E+02  0.47000000000E+01 0. -1.
        -11    1    1    2    0    0 -0.12834730096E+02 -0.18875684948E+02 -0.52962528073E+02  0.57671926955E+02  0.00000000000E+00 0. -1.
         11    1    1    2    0    0  0.38904562186E+02  0.31104619168E+01  0.32431334950E+02  0.50744767404E+02  0.00000000000E+00 0.  1.
<mgrwt>
<rscale>  0 0.12273390E+03</rscale>
<asrwt>0</asrwt>
<pdfrwt beam="2">  1        1 0.20515102E-01 0.12869573E+03</pdfrwt>
<pdfrwt beam="1">  1       -1 0.16009497E-01 0.12869573E+03</pdfrwt>
<totfact> 0.67584695E+03</totfact>
</mgrwt>
</event>
<event>
 7    1  0.5400401E-006  0.1389415E+03  0.7546771E-02  0.1226151E+00
          1   -1    0    0  501    0  0.00000000000E+00  0.00000000000E+00  0.38792243960E+03  0.38792243960E+03  0.00000000000E+00 0. -1.
         -1   -1    0    0    0  501 -0.00000000000E+00 -0.00000000000E+00 -0.57681192538E+02  0.57681192538E+02  0.00000000000E+00 0.  1.
         23    2    1    2    0    0  0.14050572708E+02 -0.59018484154E+02  0.55028356982E+02  0.14944186026E+03  0.12499659779E+03 0.  0.
          5    1    3    3  502    0  0.28887505301E+02 -0.74306985064E+02  0.82191863342E+02  0.11460195632E+03  0.47000000000E+01 0. -1.
         -5    1    3    3    0  502 -0.14836932593E+02  0.15288500910E+02 -0.27163506359E+02  0.34839903940E+02  0.47000000000E+01 0. -1.
        -11    1    1    2    0    0 -0.46167627296E+02  0.14532061008E+02  0.81115984211E+02  0.94458633813E+02  0.00000000000E+00 0.  1.
         11    1    1    2    0    0  0.32117054588E+02  0.44486423145E+02  0.19409690587E+03  0.20170313807E+03  0.00000000000E+00 0. -1.
<mgrwt>
<rscale>  0 0.13088332E+03</rscale>
<asrwt>0</asrwt>
<pdfrwt beam="1">  1        1 0.59680374E-01 0.13894153E+03</pdfrwt>
<pdfrwt beam="2">  1       -1 0.88740299E-02 0.13894153E+03</pdfrwt>
<totfact> 0.44621600E+03</totfact>
</mgrwt>
</event>
<event>
 7    1  0.6225190E-006  0.1738000E+03  0.7546771E-02  0.1179980E+00
          1   -1    0    0  501    0  0.00000000000E+00  0.00000000000E+00  0.48340064279E+03  0.48340064279E+03  0.00000000000E+00 0. -1.
         -1   -1    0    0    0  501 -0.00000000000E+00 -0.00000000000E+00 -0.59672434752E+02  0.59672434752E+02  0.00000000000E+00 0.  1.
         23    2    1    2    0    0 -0.11176851704E+03  0.45711109794E+02  0.14745996509E+03  0.22792736088E+03  0.12499893429E+03 0.  0.
          5    1    3    3  502    0  0.12369436846E+02 -0.24667743331E+02  0.41792028632E+02  0.50300737431E+02  0.47000000000E+01 0. -1.
         -5    1    3    3    0  502 -0.12413795389E+03  0.70378853125E+02  0.10566793646E+03  0.17762662345E+03  0.47000000000E+01 0. -1.
        -11    1    1    2    0    0 -0.88391881819E+01 -0.12786202772E+02  0.47933911498E+01  0.16266371069E+02  0.00000000000E+00 0.  1.
         11    1    1    2    0    0  0.12060770523E+03 -0.32924907022E+02  0.27147485180E+03  0.29887934559E+03  0.00000000000E+00 0. -1.
<mgrwt>
<rscale>  0 0.16797167E+03</rscale>
<asrwt>0</asrwt>
<pdfrwt beam="1">  1        1 0.74369327E-01 0.17380000E+03</pdfrwt>
<pdfrwt beam="2">  1       -1 0.91803749E-02 0.17380000E+03</pdfrwt>
<totfact> 0.32287049E+03</totfact>
</mgrwt>
</event>
<event>
 7    1  0.5400401E-006  0.1308740E+03  0.7546771E-02  0.1238422E+00
          3   -1    0    0  501    0  0.00000000000E+00  0.00000000000E+00  0.23732266489E+03  0.23732266489E+03  0.00000000000E+00 0. -1.
         -3   -1    0    0    0  501 -0.00000000000E+00 -0.00000000000E+00 -0.57409410077E+02  0.57409410077E+02  0.00000000000E+00 0.  1.
         23    2    1    2    0    0 -0.82585402714E+01  0.37887148982E+02  0.88555891689E+02  0.15801946404E+03  0.12499746205E+03 0.  0.
          5    1    3    3  502    0  0.11830283335E+01 -0.45960328897E+02  0.34961528421E+02  0.57949545795E+02  0.47000000000E+01 0. -1.
         -5    1    3    3    0  502 -0.94415686050E+01  0.83847477878E+02  0.53594363267E+02  0.10006991825E+03  0.47000000000E+01 0. -1.
        -11    1    1    2    0    0  0.26286869024E+02 -0.81517264837E+01 -0.10212127599E+02  0.29355368808E+02  0.00000000000E+00 0.  1.
         11    1    1    2    0    0 -0.18028328752E+02 -0.29735422498E+02  0.10156949072E+03  0.10735724211E+03  0.00000000000E+00 0. -1.
<mgrwt>
<rscale>  0 0.12287881E+03</rscale>
<asrwt>0</asrwt>
<pdfrwt beam="1">  1        3 0.36511179E-01 0.13087400E+03</pdfrwt>
<pdfrwt beam="2">  1       -3 0.88322171E-02 0.13087400E+03</pdfrwt>
<totfact> 0.15336778E+03</totfact>
</mgrwt>
</event>
<event>
 7    1  0.5400401E-006  0.1474941E+03  0.7546771E-02  0.1210857E+00
          1   -1    0    0  501    0  0.00000000000E+00  0.00000000000E+00  0.26642131188E+03  0.26642131188E+03  0.00000000000E+00 0. -1.
         -1   -1    0    0    0  501 -0.00000000000E+00 -0.00000000000E+00 -0.71753305012E+02  0.71753305012E+02  0.00000000000E+00 0.  1.
         23    2    1    2    0    0 -0.27433553131E+02 -0.82393489523E+02  0.80652420694E+02  0.16810509716E+03  0.11921922569E+03 0.  0.
          5    1    3    3  502    0 -0.43110528794E+02  0.10023329565E+02  0.55105219838E+02  0.70835443684E+02  0.47000000000E+01 0. -1.
         -5    1    3    3    0  502  0.15676975663E+02 -0.92416819088E+02  0.25547200855E+02  0.97269653478E+02  0.47000000000E+01 0.  1.
        -11    1    1    2    0    0 -0.91973079535E+01  0.61508577314E+02  0.11169136268E+03  0.12783918044E+03  0.00000000000E+00 0.  1.
         11    1    1    2    0    0  0.36630861085E+02  0.20884912209E+02  0.23242234906E+01  0.42230339291E+02  0.00000000000E+00 0. -1.
<mgrwt>
<rscale>  0 0.14185277E+03</rscale>
<asrwt>0</asrwt>
<pdfrwt beam="1">  1        1 0.40987894E-01 0.14749410E+03</pdfrwt>
<pdfrwt beam="2">  1       -1 0.11038970E-01 0.14749410E+03</pdfrwt>
<totfact> 0.51201268E+03</totfact>
</mgrwt>
</event>
<event>
 7    1  0.5400401E-006  0.1530076E+03  0.7546771E-02  0.1204797E+00
         -2   -1    0    0    0  501 -0.00000000000E+00  0.00000000000E+00  0.35175521885E+03  0.35175521885E+03  0.00000000000E+00 0.  1.
          2   -1    0    0  501    0  0.00000000000E+00 -0.00000000000E+00 -0.56518004159E+02  0.56518004159E+02  0.00000000000E+00 0. -1.
         23    2    1    2    0    0 -0.40887239141E+02  0.78194098886E+02  0.16932287414E+03  0.22821387032E+03  0.12500100588E+03 0.  0.
          5    1    3    3  502    0  0.24139688427E+02 -0.78331688191E+01 -0.18202390235E+01  0.25874434510E+02  0.47000000000E+01 0. -1.
         -5    1    3    3    0  502 -0.65026927567E+02  0.86027267705E+02  0.17114311317E+03  0.20233943581E+03  0.47000000000E+01 0. -1.
        -11    1    1    2    0    0  0.39249573072E+01 -0.34516409778E+02 -0.69238175414E+01  0.35422127028E+02  0.00000000000E+00 0. -1.
         11    1    1    2    0    0  0.36962281833E+02 -0.43677689108E+02  0.13283815809E+03  0.14463722567E+03  0.00000000000E+00 0.  1.
<mgrwt>
<rscale>  0 0.14653458E+03</rscale>
<asrwt>0</asrwt>
<pdfrwt beam="2">  1        2 0.86950778E-02 0.15300763E+03</pdfrwt>
<pdfrwt beam="1">  1       -2 0.54116186E-01 0.15300763E+03</pdfrwt>
<totfact> 0.24237662E+03</totfact>
</mgrwt>
</event>
<event>
 6    1  0.5400401E-006  0.1757436E+03  0.7546771E-02  0.1194727E+00
          2   -1    0    0  501    0  0.00000000000E+00  0.00000000000E+00  0.38383605661E+03  0.38383605661E+03  0.00000000000E+00 0. -1.
         -2   -1    0    0    0  501 -0.00000000000E+00 -0.00000000000E+00 -0.94573090610E+02  0.94573090610E+02  0.00000000000E+00 0.  1.
          5    1    1    2  502    0  0.16722098004E+02  0.40208067660E+02  0.82248010786E+02  0.93183381270E+02  0.47000000000E+01 0. -1.
         -5    1    1    2    0  502 -0.28783809775E+02  0.11447534197E+02 -0.76486238607E+02  0.82654633510E+02  0.47000000000E+01 0.  1.
        -11    1    1    2    0    0 -0.35967554807E+02 -0.44405900685E+02  0.15319404988E+03  0.16350524742E+03  0.00000000000E+00 0. -1.
         11    1    1    2    0    0  0.48029266579E+02 -0.72497011718E+01  0.13030714395E+03  0.13906588503E+03  0.00000000000E+00 0.  1.
<mgrwt>
<rscale>  0 0.15477371E+03</rscale>
<asrwt>0</asrwt>
<pdfrwt beam="1">  1        2 0.59051700E-01 0.17574359E+03</pdfrwt>
<pdfrwt beam="2">  1       -2 0.14549706E-01 0.17574359E+03</pdfrwt>
<totfact> 0.29524205E+03</totfact>
</mgrwt>
</event>
<event>
 7    1  0.5400401E-006  0.1676673E+03  0.7546771E-02  0.1187079E+00
         -2   -1    0    0    0  501 -0.00000000000E+00  0.00000000000E+00  0.37103732925E+02  0.37103732925E+02  0.00000000000E+00 0.  1.
          2   -1    0    0  501    0  0.00000000000E+00 -0.00000000000E+00 -0.67190868423E+03  0.67190868423E+03  0.00000000000E+00 0. -1.
         23    2    1    2    0    0 -0.10475430942E+03  0.38928449308E+02 -0.28466961261E+03  0.33037723575E+03  0.12499376005E+03 0.  0.
          5    1    3    3  502    0 -0.31611550837E+02 -0.30469062742E+02 -0.22729069782E+02  0.49662405740E+02  0.47000000000E+01 0.  1.
         -5    1    3    3    0  502 -0.73142758587E+02  0.69397512050E+02 -0.26194054283E+03  0.28071483001E+03  0.47000000000E+01 0.  1.
        -11    1    1    2    0    0  0.88017969740E+02 -0.16580328159E+02 -0.33522301546E+03  0.34698204619E+03  0.00000000000E+00 0. -1.
         11    1    1    2    0    0  0.16736339684E+02 -0.22348121150E+02 -0.14912323236E+02  0.31653135219E+02  0.00000000000E+00 0.  1.
<mgrwt>
<rscale>  0 0.16144161E+03</rscale>
<asrwt>0</asrwt>
<pdfrwt beam="2">  1        2 0.10337057E+00 0.16766732E+03</pdfrwt>
<pdfrwt beam="1">  1       -2 0.57082665E-02 0.16766732E+03</pdfrwt>
<totfact> 0.68631554E+03</totfact>
</mgrwt>
</event>
<event>
 7    1  0.5400401E-006  0.1506211E+03  0.7546771E-02  0.1208637E+00
          3   -1    0    0  501    0  0.00000000000E+00  0.00000000000E+00  0.17272542515E+03  0.17272542515E+03  0.00000000000E+00 0. -1.
         -3   -1    0    0    0  501 -0.00000000000E+00 -0.00000000000E+00 -0.10942450017E+03  0.10942450017E+03  0.00000000000E+00 0.  1.
         23    2    1    2    0    0  0.47131987666E+02  0.69568535984E+02  0.38193414893E+02  0.15538811365E+03  0.12500209383E+03 0.  0.
          5    1    3    3  502    0  0.33415584448E+02  0.99393305950E+02  0.21066686907E+00  0.10496554164E+03  0.47000000000E+01 0.  1.
         -5    1    3    3    0  502  0.13716403218E+02 -0.29824769965E+02  0.37982748023E+02  0.50422572010E+02  0.47000000000E+01 0.  1.
        -11    1    1    2    0    0 -0.20048475928E+02 -0.29440858962E+02 -0.34760053011E+02  0.49769135504E+02  0.00000000000E+00 0.  1.
         11    1    1    2    0    0 -0.27083511738E+02 -0.40127677022E+02  0.59867563097E+02  0.76992676161E+02  0.00000000000E+00 0. -1.
<mgrwt>
<rscale>  0 0.14354529E+03</rscale>
<asrwt>0</asrwt>
<pdfrwt beam="1">  1        3 0.26573142E-01 0.15062114E+03</pdfrwt>
<pdfrwt beam="2">  1       -3 0.16834539E-01 0.15062114E+03</pdfrwt>
<totfact> 0.95722704E+02</totfact>
</mgrwt>
</event>
<event>
 7    1  0.5400401E-006  0.1904880E+03  0.7546771E-02  0.1162655E+00
          2   -1    0    0  501    0  0.00000000000E+00  0.00000000000E+00  0.44753401753E+03  0.44753401753E+03  0.00000000000E+00 0. -1.
         -2   -1    0    0    0  501 -0.00000000000E+00 -0.00000000000E+00 -0.73383702100E+02  0.73383702100E+02  0.00000000000E+00 0.  1.
         23    2    1    2    0    0  0.13485620528E+03 -0.49761088249E+02  0.17843375610E+03  0.26100632611E+03  0.12499333962E+03 0.  0.
          5    1    3    3  502    0  0.13022913620E+02  0.69268122175E+01  0.10821558062E+03  0.10931733118E+03  0.47000000000E+01 0.  1.
         -5    1    3    3    0  502  0.12183329166E+03 -0.56687900466E+02  0.70218175477E+02  0.15168899494E+03  0.47000000000E+01 0.  1.
        -11    1    1    2    0    0 -0.93287673521E+02 -0.12095121229E+02  0.87200981793E+02  0.12826883181E+03  0.00000000000E+00 0.  1.
         11    1    1    2    0    0 -0.41568531764E+02  0.61856209477E+02  0.10851557753E+03  0.13164256170E+03  0.00000000000E+00 0. -1.
<mgrwt>
<rscale>  0 0.18542343E+03</rscale>
<asrwt>0</asrwt>
<pdfrwt beam="1">  1        2 0.68851385E-01 0.19048805E+03</pdfrwt>
<pdfrwt beam="2">  1       -2 0.11289801E-01 0.19048805E+03</pdfrwt>
<totfact> 0.37809698E+03</totfact>
</mgrwt>
</event>
<event>
 7    1  0.5400401E-006  0.1274176E+03  0.7546771E-02  0.1245461E+00
         -1   -1    0    0    0  501 -0.00000000000E+00  0.00000000000E+00  0.41346599102E+03  0.41346599102E+03  0.00000000000E+00 0.  1.
          1   -1    0    0  501    0  0.00000000000E+00 -0.00000000000E+00 -0.34504946181E+02  0.34504946181E+02  0.00000000000E+00 0. -1.
         23    2    1    2    0    0  0.16944892752E+02  0.17982707814E+02  0.29268012278E+03  0.31921291726E+03  0.12499890043E+03 0.  0.
          5    1    3    3  502    0  0.35674301962E+02  0.54438336009E+02  0.83348015085E+02  0.10585447495E+03  0.47000000000E+01 0. -1.
         -5    1    3    3    0  502 -0.18729409210E+02 -0.36455628195E+02  0.20933210769E+03  0.21335844232E+03  0.47000000000E+01 0. -1.
        -11    1    1    2    0    0  0.23193833767E+02  0.84091634484E+01  0.75631587561E+02  0.79553786784E+02  0.00000000000E+00 0.  1.
         11    1    1    2    0    0 -0.40138726519E+02 -0.26391871262E+02  0.10649334505E+02  0.49204233158E+02  0.00000000000E+00 0. -1.
<mgrwt>
<rscale>  0 0.11857849E+03</rscale>
<asrwt>0</asrwt>
<pdfrwt beam="2">  1        1 0.53084536E-02 0.12741755E+03</pdfrwt>
<pdfrwt beam="1">  1       -1 0.63610149E-01 0.12741755E+03</pdfrwt>
<totfact> 0.37950536E+03</totfact>
</mgrwt>
</event>
<event>
 7    1  0.5400401E-006  0.1858696E+03  0.7546771E-02  0.1167057E+00
         -1   -1    0    0    0  501 -0.00000000000E+00  0.00000000000E+00  0.12018384045E+03  0.12018384045E+03  0.00000000000E+00 0.  1.
          1   -1    0    0  501    0  0.00000000000E+00 -0.00000000000E+00 -0.25803092794E+03  0.25803092794E+03  0.00000000000E+00 0. -1.
         23    2    1    2    0    0  0.10139932111E+03 -0.92958913635E+02 -0.70640617116E+02  0.19884068110E+03  0.12499735088E+03 0.  0.
          5    1    3    3  502    0 -0.17027263708E+02  0.16368971349E+02 -0.42046701898E+01  0.24446680425E+02  0.47000000000E+01 0.  1.
         -5    1    3    3    0  502  0.11842658482E+03 -0.10932788498E+03 -0.66435946926E+02  0.17439400067E+03  0.47000000000E+01 0.  1.
        -11    1    1    2    0    0 -0.95305411568E+02  0.10744056619E+03 -0.41934880030E+02  0.14961661305E+03  0.00000000000E+00 0.  1.
         11    1    1    2    0    0 -0.60939095440E+01 -0.14481652553E+02 -0.25271590351E+02  0.29757474239E+02  0.00000000000E+00 0. -1.
<mgrwt>
<rscale>  0 0.18077344E+03</rscale>
<asrwt>0</asrwt>
<pdfrwt beam="2">  1        1 0.39697066E-01 0.18586963E+03</pdfrwt>
<pdfrwt beam="1">  1       -1 0.18489822E-01 0.18586963E+03</pdfrwt>
<totfact> 0.23954883E+03</totfact>
</mgrwt>
</event>
<event>
 7    1  0.5400401E-006  0.1387278E+03  0.7546771E-02  0.1226596E+00
         -1   -1    0    0    0  501 -0.00000000000E+00  0.00000000000E+00  0.24199062862E+02  0.24199062862E+02  0.00000000000E+00 0.  1.
          1   -1    0    0  501    0  0.00000000000E+00 -0.00000000000E+00 -0.63403566337E+03  0.63403566337E+03  0.00000000000E+00 0. -1.
         23    2    1    2    0    0 -0.37297747239E+02  0.47205248895E+02 -0.33211081854E+03  0.35992082625E+03  0.12500379155E+03 0.  0.
          5    1    3    3  502    0 -0.77988915398E+02  0.49674501492E+01 -0.21606722294E+03  0.22981314435E+03  0.47000000000E+01 0.  1.
         -5    1    3    3    0  502  0.40691168160E+02  0.42237798746E+02 -0.11604359560E+03  0.13010768190E+03  0.47000000000E+01 0.  1.
        -11    1    1    2    0    0  0.18028109091E+02  0.26857528911E+02 -0.79562227476E+02  0.85886480994E+02  0.00000000000E+00 0.  1.
         11    1    1    2    0    0  0.19269638148E+02 -0.74062777806E+02 -0.19816355449E+03  0.21242741899E+03  0.00000000000E+00 0. -1.
<mgrwt>
<rscale>  0 0.13058139E+03</rscale>
<asrwt>0</asrwt>
<pdfrwt beam="2">  1        1 0.97543946E-01 0.13872781E+03</pdfrwt>
<pdfrwt beam="1">  1       -1 0.37229328E-02 0.13872781E+03</pdfrwt>
<totfact> 0.85496814E+03</totfact>
</mgrwt>
</event>
<event>
 7    1  0.5400401E-006  0.1746840E+03  0.7546771E-02  0.1178828E+00
          1   -1    0    0  501    0  0.00000000000E+00  0.00000000000E+00  0.12811013958E+04  0.12811013958E+04  0.00000000000E+00 0. -1.
         -1   -1    0    0    0  501 -0.00000000000E+00 -0.00000000000E+00 -0.23695020733E+02  0.23695020733E+02  0.00000000000E+00 0.  1.
         23    2    1    2    0    0 -0.12022837998E+03 -0.20813734117E+02  0.44496986136E+03  0.47802998724E+03  0.12500566507E+03 0.  0.
          5    1    3    3  502    0 -0.50740734370E+02 -0.44760123744E+02  0.35660567616E+03  0.36299833205E+03  0.47000000000E+01 0. -1.
         -5    1    3    3    0  502 -0.69487645614E+02  0.23946389627E+02  0.88364185197E+02  0.11503165519E+03  0.47000000000E+01 0. -1.
        -11    1    1    2    0    0  0.53223083513E+01  0.36423318296E+02  0.16877103811E+03  0.17273867079E+03  0.00000000000E+00 0. -1.
         11    1    1    2    0    0  0.11490607163E+03 -0.15609584179E+02  0.64366547555E+03  0.65402775846E+03  0.00000000000E+00 0.  1.
<mgrwt>
<rscale>  0 0.16906330E+03</rscale>
<asrwt>0</asrwt>
<pdfrwt beam="1">  1        1 0.19709247E+00 0.17468398E+03</pdfrwt>
<pdfrwt beam="2">  1       -1 0.36453888E-02 0.17468398E+03</pdfrwt>
<totfact> 0.28248598E+03</totfact>
</mgrwt>
</event>
<event>
 7    1  0.5400401E-006  0.2194671E+03  0.7546771E-02  0.1138085E+00
          2   -1    0    0  501    0  0.00000000000E+00  0.00000000000E+00  0.57651213989E+02  0.57651213989E+02  0.00000000000E+00 0. -1.
         -2   -1    0    0    0  501 -0.00000000000E+00 -0.00000000000E+00 -0.85830475709E+03  0.85830475709E+03  0.00000000000E+00 0.  1.
         23    2    1    2    0    0  0.17857578984E+03 -0.25521660062E+02 -0.56892790576E+03  0.60979075437E+03  0.12500053728E+03 0.  0.
          5    1    3    3  502    0  0.19066668390E+03 -0.22080733858E+01 -0.46750592019E+03  0.50491834523E+03  0.47000000000E+01 0. -1.
         -5    1    3    3    0  502 -0.12090894060E+02 -0.23313586676E+02 -0.10142198557E+03  0.10487240914E+03  0.47000000000E+01 0. -1.
        -11    1    1    2    0    0 -0.10844720092E+03 -0.13679268316E+02 -0.18007426626E+03  0.21065293527E+03  0.00000000000E+00 0.  1.
         11    1    1    2    0    0 -0.70128588925E+02  0.39200928378E+02 -0.51651371081E+02  0.95512281435E+02  0.00000000000E+00 0. -1.
<mgrwt>
<rscale>  0 0.21445655E+03</rscale>
<asrwt>0</asrwt>
<pdfrwt beam="1">  1        2 0.88694177E-02 0.21946709E+03</pdfrwt>
<pdfrwt beam="2">  1       -2 0.13204688E+00 0.21946709E+03</pdfrwt>
<totfact> 0.32631907E+02</totfact>
</mgrwt>
</event>
<event>
 6    1  0.5400401E-006  0.2698149E+03  0.7546771E-02  0.1140606E+00
          1   -1    0    0  501    0  0.00000000000E+00  0.00000000000E+00  0.25573219629E+03  0.25573219629E+03  0.00000000000E+00 0. -1.
         -1   -1    0    0    0  501 -0.00000000000E+00 -0.00000000000E+00 -0.14716699076E+03  0.14716699076E+03  0.00000000000E+00 0.  1.
          5    1    1    2  502    0  0.66907004232E+02  0.73205152280E+02  0.89216774095E+02  0.13348132572E+03  0.47000000000E+01 0. -1.
         -5    1    1    2    0  502 -0.46476055280E+02 -0.11149705130E+03 -0.65291158186E+02  0.13739229055E+03  0.47000000000E+01 0.  1.
        -11    1    1    2    0    0  0.18044882595E+01  0.55353209941E+02  0.87813825831E+02  0.10381956480E+03  0.00000000000E+00 0. -1.
         11    1    1    2    0    0 -0.22235437211E+02 -0.17061310917E+02 -0.31742362063E+01  0.28206005986E+02  0.00000000000E+00 0.  1.
<mgrwt>
<rscale>  0 0.21121722E+03</rscale>
<asrwt>0</asrwt>
<pdfrwt beam="1">  1        1 0.39343415E-01 0.26981490E+03</pdfrwt>
<pdfrwt beam="2">  1       -1 0.22641076E-01 0.26981490E+03</pdfrwt>
<totfact> 0.17595426E+03</totfact>
</mgrwt>
</event>
<event>
 7    1  0.5400401E-006  0.1467832E+03  0.7546771E-02  0.1211854E+00
         -1   -1    0    0    0  501 -0.00000000000E+00  0.00000000000E+00  0.21113746042E+03  0.21113746042E+03  0.00000000000E+00 0.  1.
          1   -1    0    0  501    0  0.00000000000E+00 -0.00000000000E+00 -0.91541148994E+02  0.91541148994E+02  0.00000000000E+00 0. -1.
         23    2    1    2    0    0  0.60361960521E+02 -0.47706194089E+02  0.95283212271E+02  0.17499774379E+03  0.12500349019E+03 0.  0.
          5    1    3    3  502    0  0.44303750462E+01  0.23251851505E+01 -0.28966268852E+02  0.29768598224E+02  0.47000000000E+01 0. -1.
         -5    1    3    3    0  502  0.55931585475E+02 -0.50031379239E+02  0.12424948112E+03  0.14522914557E+03  0.47000000000E+01 0. -1.
        -11    1    1    2    0    0  0.25543691225E+02  0.24526483418E+02 -0.10788055822E+00  0.35412429859E+02  0.00000000000E+00 0.  1.
         11    1    1    2    0    0 -0.85905651747E+02  0.23179710671E+02  0.24420979716E+02  0.92268435768E+02  0.00000000000E+00 0. -1.
<mgrwt>
<rscale>  0 0.14110220E+03</rscale>
<asrwt>0</asrwt>
<pdfrwt beam="2">  1        1 0.14083254E-01 0.14678324E+03</pdfrwt>
<pdfrwt beam="1">  1       -1 0.32482686E-01 0.14678324E+03</pdfrwt>
<totfact> 0.34859784E+03</totfact>
</mgrwt>
</event>
<event>
 7    1  0.5400401E-006  0.1270064E+03  0.7546771E-02  0.1247795E+00
          1   -1    0    0  501    0  0.00000000000E+00  0.00000000000E+00  0.18808268311E+02  0.18808268311E+02  0.00000000000E+00 0. -1.
         -1   -1    0    0    0  501 -0.00000000000E+00 -0.00000000000E+00 -0.66284781995E+03  0.66284781995E+03  0.00000000000E+00 0.  1.
         23    2    1    2    0    0  0.38608270597E+01 -0.22142941187E+02 -0.43658075970E+03  0.45467943972E+03  0.12500166934E+03 0.  0.
          5    1    3    3  502    0  0.29954617373E+02 -0.37111671120E+02 -0.59629261235E+02  0.76500287782E+02  0.47000000000E+01 0.  1.
         -5    1    3    3    0  502 -0.26093790313E+02  0.14968729934E+02 -0.37695149847E+03  0.37817915194E+03  0.47000000000E+01 0.  1.
        -11    1    1    2    0    0  0.23043557674E+02  0.40812668845E+02 -0.17382876495E+03  0.18003643801E+03  0.00000000000E+00 0.  1.
         11    1    1    2    0    0 -0.26904384734E+02 -0.18669727659E+02 -0.33630026995E+02  0.46940210529E+02  0.00000000000E+00 0. -1.
<mgrwt>
<rscale>  0 0.11719631E+03</rscale>
<asrwt>0</asrwt>
<pdfrwt beam="1">  1        1 0.28935802E-02 0.12700643E+03</pdfrwt>
<pdfrwt beam="2">  1       -1 0.10197657E+00 0.12700643E+03</pdfrwt>
<totfact> 0.33126857E+03</totfact>
</mgrwt>
</event>
<event>
 6    1  0.5400401E-006  0.1815704E+03  0.7546771E-02  0.1180787E+00
         -1   -1    0    0    0  501 -0.00000000000E+00  0.00000000000E+00  0.54681917439E+02  0.54681917439E+02  0.00000000000E+00 0.  1.
          1   -1    0    0  501    0  0.00000000000E+00 -0.00000000000E+00 -0.67085233876E+03  0.67085233876E+03  0.00000000000E+00 0. -1.
          5    1    1    2  502    0 -0.52488107528E+02  0.16236477655E+02 -0.86666889588E+02  0.10272226823E+03  0.47000000000E+01 0. -1.
         -5    1    1    2    0  502  0.90104634504E+02  0.68467401493E+02 -0.46455198595E+02  0.12242060980E+03  0.47000000000E+01 0.  1.
        -11    1    1    2    0    0  0.29075364536E+02 -0.27753106483E+02 -0.10831099349E+03  0.11552871094E+03  0.00000000000E+00 0.  1.
         11    1    1    2    0    0 -0.66691891511E+02 -0.56950772665E+02 -0.37473733965E+03  0.38486266724E+03  0.00000000000E+00 0. -1.
<mgrwt>
<rscale>  0 0.16721221E+03</rscale>
<asrwt>0</asrwt>
<pdfrwt beam="2">  1        1 0.10320806E+00 0.18157044E+03</pdfrwt>
<pdfrwt beam="1">  1       -1 0.84126022E-02 0.18157044E+03</pdfrwt>
<totfact> 0.23663660E+03</totfact>
</mgrwt>
</event>
<event>
 7    1  0.5400401E-006  0.2206970E+03  0.7546771E-02  0.1136733E+00
         -1   -1    0    0    0  501 -0.00000000000E+00  0.00000000000E+00  0.12013057461E+03  0.12013057461E+03  0.00000000000E+00 0.  1.
          1   -1    0    0  501    0  0.00000000000E+00 -0.00000000000E+00 -0.45438803631E+03  0.45438803631E+03  0.00000000000E+00 0. -1.
         23    2    1    2    0    0  0.18166960563E+03 -0.86855097431E+01 -0.52150329203E+02  0.22677478842E+03  0.12501145603E+03 0.  0.
          5    1    3    3  502    0  0.19829440430E+03 -0.47084988246E+01 -0.33808773551E+02  0.20126590349E+03  0.47000000000E+01 0. -1.
         -5    1    3    3    0  502 -0.16624798671E+02 -0.39770109185E+01 -0.18341555652E+02  0.25508884931E+02  0.47000000000E+01 0. -1.
        -11    1    1    2    0    0 -0.51851024622E+02 -0.25005510202E+02 -0.37266071018E+02  0.68575245854E+02  0.00000000000E+00 0.  1.
         11    1    1    2    0    0 -0.12981858101E+03  0.33691019946E+02 -0.24484106148E+03  0.27916857665E+03  0.00000000000E+00 0. -1.
<mgrwt>
<rscale>  0 0.21621973E+03</rscale>
<asrwt>0</asrwt>
<pdfrwt beam="2">  1        1 0.69905852E-01 0.22069696E+03</pdfrwt>
<pdfrwt beam="1">  1       -1 0.18481627E-01 0.22069696E+03</pdfrwt>
<totfact> 0.11756003E+03</totfact>
</mgrwt>
</event>
<event>
 7    1  0.5400401E-006  0.1715018E+03  0.7546771E-02  0.1182851E+00
         -4   -1    0    0    0  501 -0.00000000000E+00  0.00000000000E+00  0.83516916409E+03  0.83516916409E+03  0.00000000000E+00 0.  1.
          4   -1    0    0  501    0  0.00000000000E+00 -0.00000000000E+00 -0.33472625486E+02  0.33472625486E+02  0.00000000000E+00 0. -1.
         23    2    1    2    0    0 -0.44661825138E+02 -0.10858885725E+03  0.55578414175E+03  0.58164325724E+03  0.12500659156E+03 0.  0.
          5    1    3    3  502    0 -0.52614940730E+02 -0.13403119018E+03  0.48100219306E+03  0.50211342509E+03  0.47000000000E+01 0.  1.
         -5    1    3    3    0  502  0.79531155924E+01  0.25442332928E+02  0.74781948682E+02  0.79529832146E+02  0.47000000000E+01 0.  1.
        -11    1    1    2    0    0  0.21290053282E+02  0.10255855812E+02  0.13454541848E+03  0.13660497275E+03  0.00000000000E+00 0.  1.
         11    1    1    2    0    0  0.23371771855E+02  0.98333001436E+02  0.11136697838E+03  0.15039355959E+03  0.00000000000E+00 0. -1.
<mgrwt>
<rscale>  0 0.16528949E+03</rscale>
<asrwt>0</asrwt>
<pdfrwt beam="2">  1        4 0.51496353E-02 0.17150180E+03</pdfrwt>
<pdfrwt beam="1">  1       -4 0.12848755E+00 0.17150180E+03</pdfrwt>
<totfact> 0.18580998E+02</totfact>
</mgrwt>
</event>
<event>
 7    1  0.5400401E-006  0.1473396E+03  0.7546771E-02  0.1212954E+00
          2   -1    0    0  501    0  0.00000000000E+00  0.00000000000E+00  0.68840867190E+03  0.68840867190E+03  0.00000000000E+00 0. -1.
         -2   -1    0    0    0  501 -0.00000000000E+00 -0.00000000000E+00 -0.26674163811E+02  0.26674163811E+02  0.00000000000E+00 0.  1.
         23    2    1    2    0    0 -0.11303453818E+02 -0.77177747396E+02  0.31332183970E+03  0.34623623939E+03  0.12499914187E+03 0.  0.
          5    1    3    3  502    0 -0.49412410749E+02 -0.84687840056E+02  0.15756553462E+03  0.18564106304E+03  0.47000000000E+01 0.  1.
         -5    1    3    3    0  502  0.38108956930E+02  0.75100926595E+01  0.15575630509E+03  0.16059517634E+03  0.47000000000E+01 0.  1.
        -11    1    1    2    0    0  0.46170587429E+02  0.17010989977E+02  0.18092287692E+03  0.18749449143E+03  0.00000000000E+00 0.  1.
         11    1    1    2    0    0 -0.34867133610E+02  0.60166757420E+02  0.16748979147E+03  0.18135210490E+03  0.00000000000E+00 0. -1.
<mgrwt>
<rscale>  0 0.14027915E+03</rscale>
<asrwt>0</asrwt>
<pdfrwt beam="1">  1        2 0.10590901E+00 0.14733960E+03</pdfrwt>
<pdfrwt beam="2">  1       -2 0.41037180E-02 0.14733960E+03</pdfrwt>
<totfact> 0.10877818E+04</totfact>
</mgrwt>
</event>
<event>
 7    1  0.5400401E-006  0.1286339E+03  0.7546771E-02  0.1243574E+00
          3   -1    0    0  501    0  0.00000000000E+00  0.00000000000E+00  0.11320032164E+03  0.11320032164E+03  0.00000000000E+00 0. -1.
         -3   -1    0    0    0  501 -0.00000000000E+00 -0.00000000000E+00 -0.11266397448E+03  0.11266397448E+03  0.00000000000E+00 0.  1.
         23    2    1    2    0    0  0.15866436036E+02  0.25864535015E+02 -0.87423917918E+01  0.12893063404E+03  0.12500384401E+03 0.  0.
          5    1    3    3  502    0  0.33877137069E+02  0.31786335843E+02 -0.58866046669E+02  0.75135431141E+02  0.47000000000E+01 0. -1.
         -5    1    3    3    0  502 -0.18010701033E+02 -0.59218008282E+01  0.50123654878E+02  0.53795202900E+02  0.47000000000E+01 0. -1.
        -11    1    1    2    0    0 -0.15773785259E+02  0.33182140892E+02 -0.21001013480E+01  0.36800505448E+02  0.00000000000E+00 0.  1.
         11    1    1    2    0    0 -0.92650776701E-01 -0.59046675907E+02  0.11378840292E+02  0.60133156629E+02  0.00000000000E+00 0. -1.
<mgrwt>
<rscale>  0 0.11971140E+03</rscale>
<asrwt>0</asrwt>
<pdfrwt beam="1">  1        3 0.17415434E-01 0.12863390E+03</pdfrwt>
<pdfrwt beam="2">  1       -3 0.17332919E-01 0.12863390E+03</pdfrwt>
<totfact> 0.18792341E+03</totfact>
</mgrwt>
</event>
<event>
 7    1  0.5400401E-006  0.1913816E+03  0.7546771E-02  0.1162025E+00
         -1   -1    0    0    0  501 -0.00000000000E+00  0.00000000000E+00  0.26911025825E+03  0.26911025825E+03  0.00000000000E+00 0.  1.
          1   -1    0    0  501    0  0.00000000000E+00 -0.00000000000E+00 -0.14433973758E+03  0.14433973758E+03  0.00000000000E+00 0. -1.
         23    2    1    2    0    0  0.34335284798E+02  0.14079504945E+03  0.14641395510E+03  0.24096468817E+03  0.12499910786E+03 0.  0.
          5    1    3    3  502    0  0.76421649894E+01  0.15191171925E+03  0.88439575973E+02  0.17600915240E+03  0.47000000000E+01 0. -1.
         -5    1    3    3    0  502  0.26693119809E+02 -0.11116669797E+02  0.57974379124E+02  0.64955535771E+02  0.47000000000E+01 0. -1.
        -11    1    1    2    0    0 -0.37342624496E+02 -0.73637526130E+02  0.29860465341E+02  0.87798657445E+02  0.00000000000E+00 0.  1.
         11    1    1    2    0    0  0.30073396982E+01 -0.67157523324E+02 -0.51503899768E+02  0.84686650202E+02  0.00000000000E+00 0. -1.
<mgrwt>
<rscale>  0 0.18610228E+03</rscale>
<asrwt>0</asrwt>
<pdfrwt beam="2">  1        1 0.22206113E-01 0.19138165E+03</pdfrwt>
<pdfrwt beam="1">  1       -1 0.41401578E-01 0.19138165E+03</pdfrwt>
<totfact> 0.12842174E+03</totfact>
</mgrwt>
</event>
<event>
 7    1  0.5400401E-006  0.2630837E+03  0.7546771E-02  0.1107270E+00
         -1   -1    0    0    0  501 -0.00000000000E+00  0.00000000000E+00  0.11497550050E+03  0.11497550050E+03  0.00000000000E+00 0.  1.
          1   -1    0    0  501    0  0.00000000000E+00 -0.00000000000E+00 -0.59478433619E+03  0.59478433619E+03  0.00000000000E+00 0. -1.
         23    2    1    2    0    0 -0.23015226856E+03  0.24861265699E+02 -0.31399943415E+03  0.40964460580E+03  0.12499963664E+03 0.  0.
          5    1    3    3  502    0 -0.80998807912E+02  0.58318585127E+02 -0.18200016418E+03  0.20762469510E+03  0.47000000000E+01 0.  1.
         -5    1    3    3    0  502 -0.14915346065E+03 -0.33457319428E+02 -0.13199926996E+03  0.20201991070E+03  0.47000000000E+01 0.  1.
        -11    1    1    2    0    0  0.18310498262E+03 -0.44395333653E+02 -0.90055358217E+02  0.20882611870E+03  0.00000000000E+00 0.  1.
         11    1    1    2    0    0  0.47047285944E+02  0.19534067953E+02 -0.75754043324E+02  0.91289112195E+02  0.00000000000E+00 0. -1.
<mgrwt>
<rscale>  0 0.25978964E+03</rscale>
<asrwt>0</asrwt>
<pdfrwt beam="2">  1        1 0.91505284E-01 0.26308375E+03</pdfrwt>
<pdfrwt beam="1">  1       -1 0.17688538E-01 0.26308375E+03</pdfrwt>
<totfact> 0.87950803E+02</totfact>
</mgrwt>
</event>
<event>
 7    1  0.5400401E-006  0.1315426E+03  0.7546771E-02  0.1238819E+00
          1   -1    0    0  501    0  0.00000000000E+00  0.00000000000E+00  0.11538280424E+03  0.11538280424E+03  0.00000000000E+00 0. -1.
         -1   -1    0    0    0  501 -0.00000000000E+00 -0.00000000000E+00 -0.12721712505E+03  0.12721712505E+03  0.00000000000E+00 0.  1.
         23    2    1    2    0    0 -0.23065301879E+02  0.33844127452E+02 -0.43125729407E+02  0.13843147838E+03  0.12500405016E+03 0.  0.
          5    1    3    3  502    0 -0.69070220935E+02  0.10197931929E+02 -0.50048712804E+02  0.86032882603E+02  0.47000000000E+01 0. -1.
         -5    1    3    3    0  502  0.46004919056E+02  0.23646195522E+02  0.69229833962E+01  0.52398595775E+02  0.47000000000E+01 0. -1.
        -11    1    1    2    0    0  0.45757676481E+02 -0.32700661887E+01 -0.11089808381E+02  0.47195785190E+02  0.00000000000E+00 0.  1.
         11    1    1    2    0    0 -0.22692374601E+02 -0.30574061263E+02  0.42381216981E+02  0.56972665726E+02  0.00000000000E+00 0. -1.
<mgrwt>
<rscale>  0 0.12263089E+03</rscale>
<asrwt>0</asrwt>
<pdfrwt beam="1">  1        1 0.17751201E-01 0.13154256E+03</pdfrwt>
<pdfrwt beam="2">  1       -1 0.19571865E-01 0.13154256E+03</pdfrwt>
<totfact> 0.59173539E+03</totfact>
</mgrwt>
</event>
<event>
 7    1  0.5400401E-006  0.1589231E+03  0.7546771E-02  0.1195539E+00
         -1   -1    0    0    0  501 -0.00000000000E+00  0.00000000000E+00  0.57597486447E+03  0.57597486447E+03  0.00000000000E+00 0.  1.
          1   -1    0    0  501    0  0.00000000000E+00 -0.00000000000E+00 -0.40343832934E+02  0.40343832934E+02  0.00000000000E+00 0. -1.
         23    2    1    2    0    0 -0.68691706726E+02 -0.70074046845E+02  0.34196107371E+03  0.37708608872E+03  0.12501047861E+03 0.  0.
          5    1    3    3  502    0 -0.34733528622E+02 -0.66633046889E+02  0.33311106422E+03  0.34151347273E+03  0.47000000000E+01 0. -1.
         -5    1    3    3    0  502 -0.33958178104E+02 -0.34409999557E+01  0.88500094880E+01  0.35572615995E+02  0.47000000000E+01 0. -1.
        -11    1    1    2    0    0 -0.18871416429E+02  0.17513891929E+00  0.69362988390E+02  0.71884526778E+02  0.00000000000E+00 0.  1.
         11    1    1    2    0    0  0.87563123155E+02  0.69898907926E+02  0.12430696944E+03  0.16734808190E+03  0.00000000000E+00 0. -1.
<mgrwt>
<rscale>  0 0.15408668E+03</rscale>
<asrwt>0</asrwt>
<pdfrwt beam="2">  1        1 0.62067439E-02 0.15892307E+03</pdfrwt>
<pdfrwt beam="1">  1       -1 0.88611512E-01 0.15892307E+03</pdfrwt>
<totfact> 0.15900672E+03</totfact>
</mgrwt>
</event>
<event>
 7    1  0.5400401E-006  0.1473816E+03  0.7546771E-02  0.1213158E+00
         -1   -1    0    0    0  501 -0.00000000000E+00  0.00000000000E+00  0.24230186839E+03  0.24230186839E+03  0.00000000000E+00 0.  1.
          1   -1    0    0  501    0  0.00000000000E+00 -0.00000000000E+00 -0.83696565948E+02  0.83696565948E+02  0.00000000000E+00 0. -1.
         23    2    1    2    0    0  0.76663578575E+02 -0.14913076061E+02  0.14157239804E+03  0.20436259103E+03  0.12498648170E+03 0.  0.
          5    1    3    3  502    0  0.40677308502E+02 -0.50667373537E+02  0.13500162767E+02  0.66529471386E+02  0.47000000000E+01 0.  1.
         -5    1    3    3    0  502  0.35986270073E+02  0.35754297476E+02  0.12807223528E+03  0.13783311964E+03  0.47000000000E+01 0.  1.
        -11    1    1    2    0    0 -0.76933602311E+02  0.40395233240E+02  0.31385638912E+02  0.92388377856E+02  0.00000000000E+00 0.  1.
         11    1    1    2    0    0  0.27002373548E+00 -0.25482157178E+02 -0.14352734515E+02  0.29247465451E+02  0.00000000000E+00 0. -1.
<mgrwt>
<rscale>  0 0.14012727E+03</rscale>
<asrwt>0</asrwt>
<pdfrwt beam="2">  1        1 0.12876395E-01 0.14738156E+03</pdfrwt>
<pdfrwt beam="1">  1       -1 0.37277210E-01 0.14738156E+03</pdfrwt>
<totfact> 0.30938488E+03</totfact>
</mgrwt>
</event>
<event>
 7    1  0.5400401E-006  0.1491060E+03  0.7546771E-02  0.1210925E+00
          2   -1    0    0  501    0  0.00000000000E+00  0.00000000000E+00  0.97007378395E+03  0.97007378395E+03  0.00000000000E+00 0. -1.
         -2   -1    0    0    0  501 -0.00000000000E+00 -0.00000000000E+00 -0.23003875623E+02  0.23003875623E+02  0.00000000000E+00 0.  1.
         23    2    1    2    0    0  0.74073153814E+02 -0.33463289515E+02  0.30464015816E+03  0.33917283862E+03  0.12500385846E+03 0.  0.
          5    1    3    3  502    0 -0.81326727993E+01  0.35037850251E+02  0.41792462178E+02  0.55339779652E+02  0.47000000000E+01 0. -1.
         -5    1    3    3    0  502  0.82205826614E+02 -0.68501139766E+02  0.26284769598E+03  0.28383305897E+03  0.47000000000E+01 0. -1.
        -11    1    1    2    0    0  0.21526798327E+02  0.43476565185E+01  0.12439881057E+03  0.12632248111E+03  0.00000000000E+00 0.  1.
         11    1    1    2    0    0 -0.95599952142E+02  0.29115632997E+02  0.51803093959E+03  0.52758233984E+03  0.00000000000E+00 0. -1.
<mgrwt>
<rscale>  0 0.14180134E+03</rscale>
<asrwt>0</asrwt>
<pdfrwt beam="1">  1        2 0.14924209E+00 0.14910596E+03</pdfrwt>
<pdfrwt beam="2">  1       -2 0.35390585E-02 0.14910596E+03</pdfrwt>
<totfact> 0.87945654E+03</totfact>
</mgrwt>
</event>
<event>
 6    1  0.5400401E-006  0.1597356E+03  0.7546771E-02  0.1213345E+00
          3   -1    0    0  501    0  0.00000000000E+00  0.00000000000E+00  0.45621380991E+03  0.45621380991E+03  0.00000000000E+00 0. -1.
         -3   -1    0    0    0  501 -0.00000000000E+00 -0.00000000000E+00 -0.38229020196E+02  0.38229020196E+02  0.00000000000E+00 0.  1.
          5    1    1    2  502    0 -0.35665113606E+02  0.69460256899E+02  0.53715352253E+02  0.94890234928E+02  0.47000000000E+01 0. -1.
         -5    1    1    2    0  502  0.49659474975E+02 -0.48310628091E+02  0.13930890253E+03  0.15565680379E+03  0.47000000000E+01 0.  1.
        -11    1    1    2    0    0 -0.88266510068E+01 -0.56893633050E+02  0.12534220712E+03  0.13793282472E+03  0.00000000000E+00 0.  1.
         11    1    1    2    0    0 -0.51677103625E+01  0.35744004242E+02  0.99618327808E+02  0.10596296667E+03  0.00000000000E+00 0. -1.
<mgrwt>
<rscale>  0 0.13998778E+03</rscale>
<asrwt>0</asrwt>
<pdfrwt beam="1">  1        3 0.70186736E-01 0.15973558E+03</pdfrwt>
<pdfrwt beam="2">  1       -3 0.58813881E-02 0.15973558E+03</pdfrwt>
<totfact> 0.82443707E+02</totfact>
</mgrwt>
</event>
<event>
 7    1  0.5400401E-006  0.2267907E+03  0.7546771E-02  0.1133421E+00
         -2   -1    0    0    0  501 -0.00000000000E+00  0.00000000000E+00  0.78381699055E+03  0.78381699055E+03  0.00000000000E+00 0.  1.
          2   -1    0    0  501    0  0.00000000000E+00 -0.00000000000E+00 -0.58944666278E+02  0.58944666278E+02  0.00000000000E+00 0. -1.
         23    2    1    2    0    0 -0.29785535051E+02 -0.18694519853E+03  0.38322098445E+03  0.44530029937E+03  0.12489334789E+03 0.  0.
          5    1    3    3  502    0 -0.12082653754E+02  0.54110246270E+01  0.10864689132E+03  0.10955138841E+03  0.47000000000E+01 0. -1.
         -5    1    3    3    0  502 -0.17702881297E+02 -0.19235622316E+03  0.27457409313E+03  0.33574891097E+03  0.47000000000E+01 0. -1.
        -11    1    1    2    0    0 -0.14921738869E+01  0.37203125291E+02  0.13691652363E+03  0.14188880702E+03  0.00000000000E+00 0.  1.
         11    1    1    2    0    0  0.31277708938E+02  0.14974207324E+03  0.20473481619E+03  0.25557255044E+03  0.00000000000E+00 0. -1.
<mgrwt>
<rscale>  0 0.22062099E+03</rscale>
<asrwt>0</asrwt>
<pdfrwt beam="2">  1        2 0.90684108E-02 0.22679073E+03</pdfrwt>
<pdfrwt beam="1">  1       -2 0.12058722E+00 0.22679073E+03</pdfrwt>
<totfact> 0.39689104E+02</totfact>
</mgrwt>
</event>
<event>
 7    1  0.5400401E-006  0.1589790E+03  0.7546771E-02  0.1198234E+00
          2   -1    0    0  501    0  0.00000000000E+00  0.00000000000E+00  0.15897506355E+03  0.15897506355E+03  0.00000000000E+00 0. -1.
         -2   -1    0    0    0  501 -0.00000000000E+00 -0.00000000000E+00 -0.13405254603E+03  0.13405254603E+03  0.00000000000E+00 0.  1.
         23    2    1    2    0    0 -0.47951360960E+02  0.85736818141E+02  0.34414331612E+01  0.15901629049E+03  0.12499680866E+03 0.  0.
          5    1    3    3  502    0  0.18428555707E+02  0.81993882515E+02 -0.23087208784E+02  0.87279537377E+02  0.47000000000E+01 0.  1.
         -5    1    3    3    0  502 -0.66379916667E+02  0.37429356262E+01  0.26528641945E+02  0.71736753113E+02  0.47000000000E+01 0.  1.
        -11    1    1    2    0    0  0.54245885196E+02 -0.15069961138E+02  0.27788762059E+02  0.62784831657E+02  0.00000000000E+00 0. -1.
         11    1    1    2    0    0 -0.62945242365E+01 -0.70666857003E+02 -0.63076777022E+01  0.71226487433E+02  0.00000000000E+00 0.  1.
<mgrwt>
<rscale>  0 0.15183686E+03</rscale>
<asrwt>0</asrwt>
<pdfrwt beam="1">  1        2 0.24457702E-01 0.15897905E+03</pdfrwt>
<pdfrwt beam="2">  1       -2 0.20623469E-01 0.15897905E+03</pdfrwt>
<totfact> 0.42501760E+03</totfact>
</mgrwt>
</event>
<event>
 6    1  0.5400401E-006  0.1408153E+03  0.7546771E-02  0.1227296E+00
         -1   -1    0    0    0  501 -0.00000000000E+00  0.00000000000E+00  0.23853281876E+03  0.23853281876E+03  0.00000000000E+00 0.  1.
          1   -1    0    0  501    0  0.00000000000E+00 -0.00000000000E+00 -0.63409045093E+02  0.63409045093E+02  0.00000000000E+00 0. -1.
          5    1    1    2  502    0  0.18536795910E+02 -0.40838446124E+02  0.54463918399E+01  0.45421852324E+02  0.47000000000E+01 0. -1.
         -5    1    1    2    0  502 -0.68379576958E+02  0.39389629421E+02  0.11689259319E+03  0.14111441384E+03  0.47000000000E+01 0.  1.
        -11    1    1    2    0    0  0.47913574015E+02  0.40120076040E+02  0.23133933571E+02  0.66637151490E+02  0.00000000000E+00 0.  1.
         11    1    1    2    0    0  0.19292070337E+01 -0.38671259336E+02  0.29650855066E+02  0.48768446198E+02  0.00000000000E+00 0. -1.
<mgrwt>
<rscale>  0 0.13010752E+03</rscale>
<asrwt>0</asrwt>
<pdfrwt beam="2">  1        1 0.97552378E-02 0.14081531E+03</pdfrwt>
<pdfrwt beam="1">  1       -1 0.36697356E-01 0.14081531E+03</pdfrwt>
<totfact> 0.45736029E+03</totfact>
</mgrwt>
</event>
<event>
 7    1  0.5400401E-006  0.1275734E+03  0.7546771E-02  0.1245076E+00
          2   -1    0    0  501    0  0.00000000000E+00  0.00000000000E+00  0.24502273773E+03  0.24502273773E+03  0.00000000000E+00 0.  1.
         -2   -1    0    0    0  501 -0.00000000000E+00 -0.00000000000E+00 -0.53963864342E+02  0.53963864342E+02  0.00000000000E+00 0. -1.
         23    2    1    2    0    0 -0.17094942192E+02  0.18885167410E+02  0.73497111190E+02  0.14723041107E+03  0.12500432790E+03 0.  0.
          5    1    3    3  502    0 -0.18347220300E+02  0.55091693562E+02  0.89947933198E+02  0.10716546029E+03  0.47000000000E+01 0.  1.
         -5    1    3    3    0  502  0.12522781084E+01 -0.36206526152E+02 -0.16450822008E+02  0.40064950782E+02  0.47000000000E+01 0.  1.
        -11    1    1    2    0    0  0.30655420026E+02 -0.49338256781E+02  0.50935876739E+02  0.77255950569E+02  0.00000000000E+00 0.  1.
         11    1    1    2    0    0 -0.13560477834E+02  0.30453089370E+02  0.66625885460E+02  0.74500240433E+02  0.00000000000E+00 0. -1.
<mgrwt>
<rscale>  0 0.11880854E+03</rscale>
<asrwt>0</asrwt>
<pdfrwt beam="1">  1        2 0.37695805E-01 0.12757339E+03</pdfrwt>
<pdfrwt beam="2">  1       -2 0.83021331E-02 0.12757339E+03</pdfrwt>
<totfact> 0.11399159E+04</totfact>
</mgrwt>
</event>
<event>
 7    1  0.5400401E-006  0.1415680E+03  0.7546771E-02  0.1222317E+00
         -3   -1    0    0    0  501 -0.00000000000E+00  0.00000000000E+00  0.14548043499E+03  0.14548043499E+03  0.00000000000E+00 0.  1.
          3   -1    0    0  501    0  0.00000000000E+00 -0.00000000000E+00 -0.11064575790E+03  0.11064575790E+03  0.00000000000E+00 0. -1.
         23    2    1    2    0    0  0.10276446163E+02  0.65668704459E+02  0.23693343852E+02  0.14353697658E+03  0.12499401990E+03 0.  0.
          5    1    3    3  502    0 -0.50951133258E+02  0.10084111618E+02 -0.11725240564E+02  0.53453517692E+02  0.47000000000E+01 0. -1.
         -5    1    3    3    0  502  0.61227579420E+02  0.55584592840E+02  0.35418584416E+02  0.90083458886E+02  0.47000000000E+01 0. -1.
        -11    1    1    2    0    0  0.70474038024E+01 -0.44381952576E+02 -0.36308980041E+02  0.57773399124E+02  0.00000000000E+00 0. -1.
         11    1    1    2    0    0 -0.17323849965E+02 -0.21286751883E+02  0.47450313285E+02  0.54815817189E+02  0.00000000000E+00 0.  1.
<mgrwt>
<rscale>  0 0.13352535E+03</rscale>
<asrwt>0</asrwt>
<pdfrwt beam="2">  1        3 0.17022424E-01 0.14156797E+03</pdfrwt>
<pdfrwt beam="1">  1       -3 0.22381605E-01 0.14156797E+03</pdfrwt>
<totfact> 0.12674835E+03</totfact>
</mgrwt>
</event>
<event>
 7    1  0.5400401E-006  0.1887913E+03  0.7546771E-02  0.1164552E+00
         -2   -1    0    0    0  501 -0.00000000000E+00  0.00000000000E+00  0.10544708408E+03  0.10544708408E+03  0.00000000000E+00 0.  1.
          2   -1    0    0  501    0  0.00000000000E+00 -0.00000000000E+00 -0.31753988431E+03  0.31753988431E+03  0.00000000000E+00 0. -1.
         23    2    1    2    0    0 -0.49620723308E+02  0.13249317880E+03 -0.65229632686E+02  0.19974249478E+03  0.12500200251E+03 0.  0.
          5    1    3    3  502    0 -0.11311634776E+02  0.14632902726E+03 -0.59089822236E+02  0.15828403076E+03  0.47000000000E+01 0. -1.
         -5    1    3    3    0  502 -0.38309088531E+02 -0.13835848465E+02 -0.61398104500E+01  0.41458464024E+02  0.47000000000E+01 0. -1.
        -11    1    1    2    0    0  0.25049103083E+02  0.48928735510E+01 -0.40068345959E+02  0.47506527180E+02  0.00000000000E+00 0.  1.
         11    1    1    2    0    0  0.24571620225E+02 -0.13738605235E+03 -0.10679482158E+03  0.17573794643E+03  0.00000000000E+00 0. -1.
<mgrwt>
<rscale>  0 0.18340066E+03</rscale>
<asrwt>0</asrwt>
<pdfrwt beam="2">  1        2 0.48852290E-01 0.18879131E+03</pdfrwt>
<pdfrwt beam="1">  1       -2 0.16222628E-01 0.18879131E+03</pdfrwt>
<totfact> 0.30323143E+03</totfact>
</mgrwt>
</event>
<event>
 7    1  0.5400401E-006  0.1393619E+03  0.7546771E-02  0.1225449E+00
          2   -1    0    0  501    0  0.00000000000E+00  0.00000000000E+00  0.20451973710E+03  0.20451973710E+03  0.00000000000E+00 0. -1.
         -2   -1    0    0    0  501 -0.00000000000E+00 -0.00000000000E+00 -0.76423011977E+02  0.76423011977E+02  0.00000000000E+00 0.  1.
         23    2    1    2    0    0 -0.62084273536E+02 -0.28250094898E+01  0.61379727312E+02  0.15228005627E+03  0.12473695088E+03 0.  0.
          5    1    3    3  502    0 -0.38542960140E+02  0.69512837199E+01 -0.34840825857E+02  0.52629395475E+02  0.47000000000E+01 0.  1.
         -5    1    3    3    0  502 -0.23541313397E+02 -0.97762932096E+01  0.96220553168E+02  0.99650660797E+02  0.47000000000E+01 0.  1.
        -11    1    1    2    0    0  0.55708055179E+02 -0.38577762997E+02  0.46237664335E+02  0.82033851627E+02  0.00000000000E+00 0.  1.
         11    1    1    2    0    0  0.63762183571E+01  0.41402772486E+02  0.20479333480E+02  0.46628841181E+02  0.00000000000E+00 0. -1.
<mgrwt>
<rscale>  0 0.13136190E+03</rscale>
<asrwt>0</asrwt>
<pdfrwt beam="1">  1        2 0.31464575E-01 0.13936192E+03</pdfrwt>
<pdfrwt beam="2">  1       -2 0.11757387E-01 0.13936192E+03</pdfrwt>
<totfact> 0.80674599E+03</totfact>
</mgrwt>
</event>
<event>
 6    1  0.5400401E-006  0.1501861E+03  0.7546771E-02  0.1216055E+00
          2   -1    0    0  501    0  0.00000000000E+00  0.00000000000E+00  0.72901666656E+02  0.72901666656E+02  0.00000000000E+00 0. -1.
         -2   -1    0    0    0  501 -0.00000000000E+00 -0.00000000000E+00 -0.25007121006E+03  0.25007121006E+03  0.00000000000E+00 0.  1.
          5    1    1    2  502    0 -0.69872233849E+02  0.16261697174E+02 -0.60256913341E+02  0.93805956439E+02  0.47000000000E+01 0. -1.
         -5    1    1    2    0  502  0.41563051302E+02 -0.64973500873E+02 -0.90339010853E+02  0.11887922414E+03  0.47000000000E+01 0.  1.
        -11    1    1    2    0    0  0.43833975662E+02  0.21887503140E+02 -0.51078334166E+02  0.70777654929E+02  0.00000000000E+00 0.  1.
         11    1    1    2    0    0 -0.15524793114E+02  0.26824300560E+02  0.24504714954E+02  0.39510041214E+02  0.00000000000E+00 0. -1.
<mgrwt>
<rscale>  0 0.13799302E+03</rscale>
<asrwt>0</asrwt>
<pdfrwt beam="1">  1        2 0.11215641E-01 0.15018606E+03</pdfrwt>
<pdfrwt beam="2">  1       -2 0.38472494E-01 0.15018606E+03</pdfrwt>
<totfact> 0.34374437E+03</totfact>
</mgrwt>
</event>
<event>
 7    1  0.5400401E-006  0.1778422E+03  0.7546771E-02  0.1175873E+00
          1   -1    0    0  501    0  0.00000000000E+00  0.00000000000E+00  0.55104437734E+03  0.55104437734E+03  0.00000000000E+00 0. -1.
         -1   -1    0    0    0  501 -0.00000000000E+00 -0.00000000000E+00 -0.55211363319E+02  0.55211363319E+02  0.00000000000E+00 0.  1.
         23    2    1    2    0    0  0.33923277190E+02  0.12187120224E+03  0.35307509520E+03  0.39533513339E+03  0.12499786467E+03 0.  0.
          5    1    3    3  502    0  0.47431442565E+02  0.70554504051E+02  0.32326262563E+03  0.33428804184E+03  0.47000000000E+01 0.  1.
         -5    1    3    3    0  502 -0.13508165375E+02  0.51316698192E+02  0.29812469566E+02  0.61047091551E+02  0.47000000000E+01 0.  1.
        -11    1    1    2    0    0 -0.20447334306E+01  0.12952262733E+02  0.17275779673E+01  0.13225980883E+02  0.00000000000E+00 0.  1.
         11    1    1    2    0    0 -0.31878543759E+02 -0.13482346498E+03  0.14103034085E+03  0.19769462638E+03  0.00000000000E+00 0. -1.
<mgrwt>
<rscale>  0 0.17190778E+03</rscale>
<asrwt>0</asrwt>
<pdfrwt beam="1">  1        1 0.84776054E-01 0.17784219E+03</pdfrwt>
<pdfrwt beam="2">  1       -1 0.84940563E-02 0.17784219E+03</pdfrwt>
<totfact> 0.30584729E+03</totfact>
</mgrwt>
</event>
<event>
 7    1  0.5400401E-006  0.1468879E+03  0.7546771E-02  0.1214441E+00
          3   -1    0    0  501    0  0.00000000000E+00  0.00000000000E+00  0.68888427390E+03  0.68888427390E+03  0.00000000000E+00 0. -1.
         -3   -1    0    0    0  501 -0.00000000000E+00 -0.00000000000E+00 -0.25844765498E+02  0.25844765498E+02  0.00000000000E+00 0.  1.
         23    2    1    2    0    0 -0.77127488710E+02 -0.16128108911E+01  0.32800514225E+03  0.35939314680E+03  0.12499923981E+03 0.  0.
          5    1    3    3  502    0 -0.10122759998E+03  0.68561310501E+01  0.31371661200E+03  0.32974874704E+03  0.47000000000E+01 0. -1.
         -5    1    3    3    0  502  0.24100111267E+02 -0.84689419412E+01  0.14288530253E+02  0.29644399766E+02  0.47000000000E+01 0. -1.
        -11    1    1    2    0    0  0.48701754822E+02  0.45115156039E+02  0.19215716574E+03  0.20330178202E+03  0.00000000000E+00 0.  1.
         11    1    1    2    0    0  0.28425733888E+02 -0.43502345148E+02  0.14287720041E+03  0.15203411057E+03  0.00000000000E+00 0. -1.
<mgrwt>
<rscale>  0 0.13917650E+03</rscale>
<asrwt>0</asrwt>
<pdfrwt beam="1">  1        3 0.10598218E+00 0.14688792E+03</pdfrwt>
<pdfrwt beam="2">  1       -3 0.39761183E-02 0.14688792E+03</pdfrwt>
<totfact> 0.60952321E+02</totfact>
</mgrwt>
</event>
<event>
 7    1  0.5400401E-006  0.1463988E+03  0.7546771E-02  0.1214720E+00
         -1   -1    0    0    0  501 -0.00000000000E+00  0.00000000000E+00  0.19733108460E+03  0.19733108460E+03  0.00000000000E+00 0.  1.
          1   -1    0    0  501    0  0.00000000000E+00 -0.00000000000E+00 -0.94583954289E+02  0.94583954289E+02  0.00000000000E+00 0. -1.
         23    2    1    2    0    0 -0.60650795017E+02 -0.46191371014E+02  0.91201375676E+02  0.17248271032E+03  0.12498172963E+03 0.  0.
          5    1    3    3  502    0  0.90645353971E+01 -0.64797727791E+02  0.72547947371E+02  0.97806983373E+02  0.47000000000E+01 0.  1.
         -5    1    3    3    0  502 -0.69715330414E+02  0.18606356777E+02  0.18653428305E+02  0.74675726945E+02  0.47000000000E+01 0.  1.
        -11    1    1    2    0    0  0.48128899527E+02  0.39866334142E+02 -0.34438109705E+02  0.71356141766E+02  0.00000000000E+00 0. -1.
         11    1    1    2    0    0  0.12521895490E+02  0.63250368716E+01  0.45983864342E+02  0.48076186808E+02  0.00000000000E+00 0.  1.
<mgrwt>
<rscale>  0 0.13897087E+03</rscale>
<asrwt>0</asrwt>
<pdfrwt beam="2">  1        1 0.14551378E-01 0.14639875E+03</pdfrwt>
<pdfrwt beam="1">  1       -1 0.30358628E-01 0.14639875E+03</pdfrwt>
<totfact> 0.37455884E+03</totfact>
</mgrwt>
</event>
<event>
 6    1  0.5400401E-006  0.2037251E+03  0.7546771E-02  0.1159694E+00
         -3   -1    0    0    0  501 -0.00000000000E+00  0.00000000000E+00  0.40959038644E+03  0.40959038644E+03  0.00000000000E+00 0.  1.
          3   -1    0    0  501    0  0.00000000000E+00 -0.00000000000E+00 -0.82983857006E+02  0.82983857006E+02  0.00000000000E+00 0. -1.
          5    1    1    2  502    0  0.27855796444E+02 -0.59274799597E+02  0.13456375967E+03  0.14972956515E+03  0.47000000000E+01 0. -1.
         -5    1    1    2    0  502  0.83292220263E+02  0.98803324302E+02  0.12096626748E+03  0.17707235447E+03  0.47000000000E+01 0.  1.
        -11    1    1    2    0    0 -0.57909613837E+02 -0.46124175959E+02 -0.32542804304E+01  0.74105015510E+02  0.00000000000E+00 0. -1.
         11    1    1    2    0    0 -0.53238402870E+02  0.65956512543E+01  0.74330782711E+02  0.91667308317E+02  0.00000000000E+00 0.  1.
<mgrwt>
<rscale>  0 0.18863992E+03</rscale>
<asrwt>0</asrwt>
<pdfrwt beam="2">  1        3 0.12766747E-01 0.20372506E+03</pdfrwt>
<pdfrwt beam="1">  1       -3 0.63013905E-01 0.20372506E+03</pdfrwt>
<totfact> 0.29745760E+02</totfact>
</mgrwt>
</event>
<event>
 7    1  0.5400401E-006  0.1756870E+03  0.7546771E-02  0.1178276E+00
          4   -1    0    0  501    0  0.00000000000E+00  0.00000000000E+00  0.10124890657E+03  0.10124890657E+03  0.00000000000E+00 0. -1.
         -4   -1    0    0    0  501 -0.00000000000E+00 -0.00000000000E+00 -0.26601275236E+03  0.26601275236E+03  0.00000000000E+00 0.  1.
         23    2    1    2    0    0 -0.10720297579E+03 -0.61244979819E+02 -0.88579852992E+02  0.19675443422E+03  0.12498996543E+03 0.  0.
          5    1    3    3  502    0 -0.45364604903E+02  0.35014721457E+02 -0.11270959577E+02  0.58592684070E+02  0.47000000000E+01 0. -1.
         -5    1    3    3    0  502 -0.61838370884E+02 -0.96259701276E+02 -0.77308893415E+02  0.13816175015E+03  0.47000000000E+01 0. -1.
        -11    1    1    2    0    0 -0.58101785145E+01  0.27868573647E+02 -0.36236630663E+02  0.46081546994E+02  0.00000000000E+00 0. -1.
         11    1    1    2    0    0  0.11301315430E+03  0.33376406171E+02 -0.39947362141E+02  0.12442567772E+03  0.00000000000E+00 0.  1.
<mgrwt>
<rscale>  0 0.16959039E+03</rscale>
<asrwt>0</asrwt>
<pdfrwt beam="1">  1        4 0.15576755E-01 0.17568699E+03</pdfrwt>
<pdfrwt beam="2">  1       -4 0.40925039E-01 0.17568699E+03</pdfrwt>
<totfact> 0.35694718E+02</totfact>
</mgrwt>
</event>
<event>
 7    1  0.5400401E-006  0.1298329E+03  0.7546771E-02  0.1242887E+00
          2   -1    0    0  501    0  0.00000000000E+00  0.00000000000E+00  0.84340159294E+03  0.84340159294E+03  0.00000000000E+00 0. -1.
         -2   -1    0    0    0  501 -0.00000000000E+00 -0.00000000000E+00 -0.15540448818E+02  0.15540448818E+02  0.00000000000E+00 0.  1.
         23    2    1    2    0    0 -0.28023616604E+02 -0.21108422902E+02  0.39666688624E+03  0.41737418121E+03  0.12500279956E+03 0.  0.
          5    1    3    3  502    0  0.39287628637E+02 -0.15148901232E+02  0.57016502356E+02  0.71035051301E+02  0.47000000000E+01 0. -1.
         -5    1    3    3    0  502 -0.67311245241E+02 -0.59595216701E+01  0.33965038389E+03  0.34633912991E+03  0.47000000000E+01 0. -1.
        -11    1    1    2    0    0 -0.30320328095E+02  0.20678242516E+02  0.17670574335E+03  0.18047667922E+03  0.00000000000E+00 0. -1.
         11    1    1    2    0    0  0.58343944699E+02  0.43018038587E+00  0.25448851453E+03  0.26109118133E+03  0.00000000000E+00 0.  1.
<mgrwt>
<rscale>  0 0.12012733E+03</rscale>
<asrwt>0</asrwt>
<pdfrwt beam="1">  1        2 0.12975406E+00 0.12983293E+03</pdfrwt>
<pdfrwt beam="2">  1       -2 0.23908389E-02 0.12983293E+03</pdfrwt>
<totfact> 0.18638778E+04</totfact>
</mgrwt>
</event>
<event>
 7    1  0.5400401E-006  0.1480617E+03  0.7546771E-02  0.1212182E+00
         -1   -1    0    0    0  501 -0.00000000000E+00  0.00000000000E+00  0.13939279453E+04  0.13939279453E+04  0.00000000000E+00 0.  1.
          1   -1    0    0  501    0  0.00000000000E+00 -0.00000000000E+00 -0.18636283533E+02  0.18636283533E+02  0.00000000000E+00 0. -1.
         23    2    1    2    0    0 -0.75419968512E+02  0.24692251518E+02  0.11221090925E+04  0.11318352747E+04  0.12499757872E+03 0.  0.
          5    1    3    3  502    0 -0.24313327276E+02  0.63688697470E+02  0.32400075133E+03  0.33112832095E+03  0.47000000000E+01 0. -1.
         -5    1    3    3    0  502 -0.51106641235E+02 -0.38996445952E+02  0.79810834120E+03  0.80070695380E+03  0.47000000000E+01 0. -1.
        -11    1    1    2    0    0  0.14554231839E+02  0.14579660639E+01 -0.39897927593E+01  0.15161456913E+02  0.00000000000E+00 0. -1.
         11    1    1    2    0    0  0.60865736673E+02 -0.26150217582E+02  0.25717236198E+03  0.26556749716E+03  0.00000000000E+00 0.  1.
<mgrwt>
<rscale>  0 0.14085551E+03</rscale>
<asrwt>0</asrwt>
<pdfrwt beam="2">  1        1 0.28671216E-02 0.14806172E+03</pdfrwt>
<pdfrwt beam="1">  1       -1 0.21445037E+00 0.14806172E+03</pdfrwt>
<totfact> 0.48438081E+02</totfact>
</mgrwt>
</event>
<event>
 7    1  0.5400401E-006  0.1491814E+03  0.7546771E-02  0.1211409E+00
          2   -1    0    0  501    0  0.00000000000E+00  0.00000000000E+00  0.33834158992E+03  0.33834158992E+03  0.00000000000E+00 0. -1.
         -2   -1    0    0    0  501 -0.00000000000E+00 -0.00000000000E+00 -0.54569070574E+02  0.54569070574E+02  0.00000000000E+00 0.  1.
         23    2    1    2    0    0  0.67540698375E+02  0.45473018574E+02  0.13281653158E+03  0.19973809599E+03  0.12500213828E+03 0.  0.
          5    1    3    3  502    0  0.70018020116E+02  0.48270423864E+02  0.15494344902E+03  0.17681097069E+03  0.47000000000E+01 0. -1.
         -5    1    3    3    0  502 -0.24773217404E+01 -0.27974052902E+01 -0.22126917439E+02  0.22927125305E+02  0.47000000000E+01 0. -1.
        -11    1    1    2    0    0  0.46973781533E+01 -0.43427628376E+02  0.83888433285E+02  0.94579561782E+02  0.00000000000E+00 0. -1.
         11    1    1    2    0    0 -0.72238076529E+02 -0.20453901985E+01  0.67067554483E+02  0.98593002723E+02  0.00000000000E+00 0.  1.
<mgrwt>
<rscale>  0 0.14143646E+03</rscale>
<asrwt>0</asrwt>
<pdfrwt beam="1">  1        2 0.52052551E-01 0.14918135E+03</pdfrwt>
<pdfrwt beam="2">  1       -2 0.83952419E-02 0.14918135E+03</pdfrwt>
<totfact> 0.80456533E+03</totfact>
</mgrwt>
</event>
<event>
 7    1  0.5400401E-006  0.1459973E+03  0.7546771E-02  0.1214511E+00
         -2   -1    0    0    0  501 -0.00000000000E+00  0.00000000000E+00  0.23701567579E+02  0.23701567579E+02  0.00000000000E+00 0.  1.
          2   -1    0    0  501    0  0.00000000000E+00 -0.00000000000E+00 -0.78579752630E+03  0.78579752630E+03  0.00000000000E+00 0. -1.
         23    2    1    2    0    0 -0.71462685052E+02 -0.24159571467E+02 -0.32814604022E+03  0.35915879498E+03  0.12499846420E+03 0.  0.
          5    1    3    3  502    0 -0.29356942398E+02  0.27031178615E+02 -0.26317500975E+03  0.26622488697E+03  0.47000000000E+01 0. -1.
         -5    1    3    3    0  502 -0.42105742654E+02 -0.51190750082E+02 -0.64971030467E+02  0.92933908012E+02  0.47000000000E+01 0. -1.
        -11    1    1    2    0    0 -0.62592168137E+01  0.39954402194E+02 -0.12538155704E+03  0.13174242633E+03  0.00000000000E+00 0.  1.
         11    1    1    2    0    0  0.77721901866E+02 -0.15794830727E+02 -0.30856836146E+03  0.31859787256E+03  0.00000000000E+00 0. -1.
<mgrwt>
<rscale>  0 0.13912547E+03</rscale>
<asrwt>0</asrwt>
<pdfrwt beam="2">  1        2 0.12089194E+00 0.14599732E+03</pdfrwt>
<pdfrwt beam="1">  1       -2 0.36463947E-02 0.14599732E+03</pdfrwt>
<totfact> 0.11040911E+04</totfact>
</mgrwt>
</event>
<event>
 7    1  0.5400401E-006  0.1267079E+03  0.7546771E-02  0.1248237E+00
          2   -1    0    0  501    0  0.00000000000E+00  0.00000000000E+00  0.16119393253E+03  0.16119393253E+03  0.00000000000E+00 0. -1.
         -2   -1    0    0    0  501 -0.00000000000E+00 -0.00000000000E+00 -0.19105147361E+03  0.19105147361E+03  0.00000000000E+00 0.  1.
         23    2    1    2    0    0 -0.47791567403E+01  0.20196894973E+02 -0.15295249045E+03  0.19861862808E+03  0.12499656067E+03 0.  0.
          5    1    3    3  502    0  0.13450856550E+02  0.71058835685E+02 -0.87256725514E+02  0.11342887559E+03  0.47000000000E+01 0. -1.
         -5    1    3    3    0  502 -0.18230013290E+02 -0.50861940712E+02 -0.65695764941E+02  0.85189752486E+02  0.47000000000E+01 0. -1.
        -11    1    1    2    0    0  0.20962494561E+02  0.28720271395E+02  0.27204485404E+02  0.44770126126E+02  0.00000000000E+00 0.  1.
         11    1    1    2    0    0 -0.16183337821E+02 -0.48917166368E+02  0.95890463972E+02  0.10885665193E+03  0.00000000000E+00 0. -1.
<mgrwt>
<rscale>  0 0.11693710E+03</rscale>
<asrwt>0</asrwt>
<pdfrwt beam="1">  1        2 0.24799067E-01 0.12670791E+03</pdfrwt>
<pdfrwt beam="2">  1       -2 0.29392534E-01 0.12670791E+03</pdfrwt>
<totfact> 0.22293966E+03</totfact>
</mgrwt>
</event>
<event>
 7    1  0.5400401E-006  0.1826991E+03  0.7546771E-02  0.1170581E+00
         -2   -1    0    0    0  501 -0.00000000000E+00  0.00000000000E+00  0.62250387114E+02  0.62250387114E+02  0.00000000000E+00 0. -1.
          2   -1    0    0  501    0  0.00000000000E+00 -0.00000000000E+00 -0.50037777274E+03  0.50037777274E+03  0.00000000000E+00 0.  1.
         23    2    1    2    0    0  0.25329392929E+00  0.13323921003E+03 -0.16973002825E+03  0.24937369612E+03  0.12500482623E+03 0.  0.
          5    1    3    3  502    0  0.46156674701E+02  0.30788979764E+02 -0.10716374251E+03  0.12076654174E+03  0.47000000000E+01 0. -1.
         -5    1    3    3    0  502 -0.45903380772E+02  0.10245023027E+03 -0.62566285735E+02  0.12860715439E+03  0.47000000000E+01 0. -1.
        -11    1    1    2    0    0 -0.41803354078E+02 -0.98704075715E+02 -0.16915754733E+03  0.20026055726E+03  0.00000000000E+00 0.  1.
         11    1    1    2    0    0  0.41550060149E+02 -0.34535134319E+02 -0.99239810054E+02  0.11299390647E+03  0.00000000000E+00 0. -1.
<mgrwt>
<rscale>  0 0.17715935E+03</rscale>
<asrwt>0</asrwt>
<pdfrwt beam="2">  1        2 0.76981193E-01 0.18269909E+03</pdfrwt>
<pdfrwt beam="1">  1       -2 0.95769830E-02 0.18269909E+03</pdfrwt>
<totfact> 0.43345535E+03</totfact>
</mgrwt>
</event>
<event>
 7    1  0.5400401E-006  0.1426610E+03  0.7546771E-02  0.1219734E+00
          2   -1    0    0  501    0  0.00000000000E+00  0.00000000000E+00  0.18887224643E+03  0.18887224643E+03  0.00000000000E+00 0.  1.
         -2   -1    0    0    0  501 -0.00000000000E+00 -0.00000000000E+00 -0.89144956913E+02  0.89144956913E+02  0.00000000000E+00 0. -1.
         23    2    1    2    0    0  0.52465708903E+02 -0.44448325731E+02  0.41310964156E+02  0.14852187961E+03  0.12499539469E+03 0.  0.
          5    1    3    3  502    0  0.16462430875E+02  0.20923393584E+02  0.64740919381E+02  0.70158938644E+02  0.47000000000E+01 0.  1.
         -5    1    3    3    0  502  0.36003278028E+02 -0.65371719315E+02 -0.23429955225E+02  0.78362940966E+02  0.47000000000E+01 0.  1.
        -11    1    1    2    0    0  0.25907319071E+02  0.13698716982E+02  0.26335867188E+02  0.39400785893E+02  0.00000000000E+00 0.  1.
         11    1    1    2    0    0 -0.78373027974E+02  0.30749608749E+02  0.32080458174E+02  0.90094537841E+02  0.00000000000E+00 0. -1.
<mgrwt>
<rscale>  0 0.13534455E+03</rscale>
<asrwt>0</asrwt>
<pdfrwt beam="1">  1        2 0.29057269E-01 0.14266097E+03</pdfrwt>
<pdfrwt beam="2">  1       -2 0.13714609E-01 0.14266097E+03</pdfrwt>
<totfact> 0.68773609E+03</totfact>
</mgrwt>
</event>
<event>
 7    1  0.5400401E-006  0.1552742E+03  0.7546771E-02  0.1203035E+00
          4   -1    0    0  501    0  0.00000000000E+00  0.00000000000E+00  0.13769975171E+03  0.13769975171E+03  0.00000000000E+00 0. -1.
         -4   -1    0    0    0  501 -0.00000000000E+00 -0.00000000000E+00 -0.15079054825E+03  0.15079054825E+03  0.00000000000E+00 0.  1.
         23    2    1    2    0    0 -0.49121117033E+02  0.77928023050E+02 -0.33756819719E+02  0.15890125167E+03  0.12499769594E+03 0.  0.
          5    1    3    3  502    0 -0.40727362622E+02  0.59031768107E+02  0.39933641989E+02  0.82220760605E+02  0.47000000000E+01 0.  1.
         -5    1    3    3    0  502 -0.83937544107E+01  0.18896254943E+02 -0.73690461708E+02  0.76680491069E+02  0.47000000000E+01 0.  1.
        -11    1    1    2    0    0  0.19859272480E+02 -0.90056421713E+02  0.84702216803E+00  0.92224005778E+02  0.00000000000E+00 0. -1.
         11    1    1    2    0    0  0.29261844553E+02  0.12128398663E+02  0.19819001008E+02  0.37365042509E+02  0.00000000000E+00 0.  1.
<mgrwt>
<rscale>  0 0.14793404E+03</rscale>
<asrwt>0</asrwt>
<pdfrwt beam="1">  1        4 0.21184577E-01 0.15527422E+03</pdfrwt>
<pdfrwt beam="2">  1       -4 0.23198546E-01 0.15527422E+03</pdfrwt>
<totfact> 0.59460352E+02</totfact>
</mgrwt>
</event>
<event>
 7    1  0.5400401E-006  0.1265615E+03  0.7546771E-02  0.1251761E+00
          1   -1    0    0  501    0  0.00000000000E+00  0.00000000000E+00  0.42016914156E+02  0.42016914156E+02  0.00000000000E+00 0. -1.
         -1   -1    0    0    0  501 -0.00000000000E+00 -0.00000000000E+00 -0.31329473599E+03  0.31329473599E+03  0.00000000000E+00 0.  1.
         23    2    1    2    0    0  0.19800663206E+02 -0.40652084564E+00 -0.22379714365E+03  0.25710500085E+03  0.12500235372E+03 0.  0.
          5    1    3    3  502    0  0.23671441543E+02  0.26093421376E+02 -0.22696453809E+03  0.22973070177E+03  0.47000000000E+01 0. -1.
         -5    1    3    3    0  502 -0.38707783375E+01 -0.26499942221E+02  0.31673944465E+01  0.27374299083E+02  0.47000000000E+01 0. -1.
        -11    1    1    2    0    0 -0.13292845179E+02 -0.14306629777E+02 -0.68788762868E+02  0.71507155484E+02  0.00000000000E+00 0.  1.
         11    1    1    2    0    0 -0.65078180269E+01  0.14713150623E+02  0.21308084683E+02  0.26699493808E+02  0.00000000000E+00 0. -1.
<mgrwt>
<rscale>  0 0.11489676E+03</rscale>
<asrwt>0</asrwt>
<pdfrwt beam="1">  1        1 0.64641408E-02 0.12656153E+03</pdfrwt>
<pdfrwt beam="2">  1       -1 0.48199189E-01 0.12656153E+03</pdfrwt>
<totfact> 0.48693913E+03</totfact>
</mgrwt>
</event>
<event>
 7    1  0.5400401E-006  0.1519473E+03  0.7546771E-02  0.1207845E+00
          2   -1    0    0  501    0  0.00000000000E+00  0.00000000000E+00  0.17868244969E+03  0.17868244969E+03  0.00000000000E+00 0.  1.
         -2   -1    0    0    0  501 -0.00000000000E+00 -0.00000000000E+00 -0.11741013030E+03  0.11741013030E+03  0.00000000000E+00 0. -1.
         23    2    1    2    0    0  0.75505953713E+02 -0.41992800053E+02 -0.12705480461E+02  0.15247760368E+03  0.12499378420E+03 0.  0.
          5    1    3    3  502    0  0.86359380721E+02 -0.76396647646E+02 -0.65715739261E+01  0.11558402136E+03  0.47000000000E+01 0.  1.
         -5    1    3    3    0  502 -0.10853427009E+02  0.34403847593E+02 -0.61339065352E+01  0.36893582320E+02  0.47000000000E+01 0.  1.
        -11    1    1    2    0    0  0.14122501853E+02  0.26384891090E+02  0.72565454973E+01  0.30793911557E+02  0.00000000000E+00 0.  1.
         11    1    1    2    0    0 -0.89628455566E+02  0.15607908963E+02  0.66721254355E+02  0.11282106475E+03  0.00000000000E+00 0. -1.
<mgrwt>
<rscale>  0 0.14415526E+03</rscale>
<asrwt>0</asrwt>
<pdfrwt beam="1">  1        2 0.27489608E-01 0.15194733E+03</pdfrwt>
<pdfrwt beam="2">  1       -2 0.18063097E-01 0.15194733E+03</pdfrwt>
<totfact> 0.46615754E+03</totfact>
</mgrwt>
</event>
<event>
 7    1  0.5400401E-006  0.1471295E+03  0.7546771E-02  0.1213399E+00
         -2   -1    0    0    0  501 -0.00000000000E+00  0.00000000000E+00  0.97426422709E+02  0.97426422709E+02  0.00000000000E+00 0. -1.
          2   -1    0    0  501    0  0.00000000000E+00 -0.00000000000E+00 -0.18405369418E+03  0.18405369418E+03  0.00000000000E+00 0.  1.
         23    2    1    2    0    0 -0.37041234885E+02 -0.68187099530E+02 -0.53681637658E+02  0.15661671715E+03  0.12500217696E+03 0.  0.
          5    1    3    3  502    0 -0.76176686937E+02 -0.21334264525E+02 -0.53088036831E+02  0.95385890624E+02  0.47000000000E+01 0.  1.
         -5    1    3    3    0  502  0.39135452052E+02 -0.46852835004E+02 -0.59360082682E+00  0.61230826527E+02  0.47000000000E+01 0.  1.
        -11    1    1    2    0    0  0.34089798414E+02  0.29707616959E+02 -0.61871551238E+02  0.76633841832E+02  0.00000000000E+00 0.  1.
         11    1    1    2    0    0  0.29514364709E+01  0.38479482571E+02  0.28925917430E+02  0.48229557901E+02  0.00000000000E+00 0. -1.
<mgrwt>
<rscale>  0 0.13994782E+03</rscale>
<asrwt>0</asrwt>
<pdfrwt beam="2">  1        2 0.28315953E-01 0.14712946E+03</pdfrwt>
<pdfrwt beam="1">  1       -2 0.14988680E-01 0.14712946E+03</pdfrwt>
<totfact> 0.61334505E+03</totfact>
</mgrwt>
</event>
<event>
 7    1  0.5400401E-006  0.1369139E+03  0.7546771E-02  0.1230013E+00
         -2   -1    0    0    0  501 -0.00000000000E+00  0.00000000000E+00  0.74041637157E+03  0.74041637157E+03  0.00000000000E+00 0.  1.
          2   -1    0    0  501    0  0.00000000000E+00 -0.00000000000E+00 -0.25861895289E+02  0.25861895289E+02  0.00000000000E+00 0. -1.
         23    2    1    2    0    0  0.58476868660E+02  0.93182283018E+01  0.57629899025E+03  0.59233938542E+03  0.12344653826E+03 0.  0.
          5    1    3    3  502    0  0.37218567426E+02  0.12732547178E+02  0.42555793742E+02  0.58141423270E+02  0.47000000000E+01 0. -1.
         -5    1    3    3    0  502  0.21258301233E+02 -0.34143188758E+01  0.53374319650E+03  0.53419796215E+03  0.47000000000E+01 0.  1.
        -11    1    1    2    0    0 -0.70325745724E+01 -0.39696481798E+02  0.29857839146E+02  0.50167303403E+02  0.00000000000E+00 0.  1.
         11    1    1    2    0    0 -0.51444294087E+02  0.30378253497E+02  0.10839764689E+03  0.12377157804E+03  0.00000000000E+00 0. -1.
<mgrwt>
<rscale>  0 0.12829127E+03</rscale>
<asrwt>0</asrwt>
<pdfrwt beam="2">  1        2 0.39787537E-02 0.13691392E+03</pdfrwt>
<pdfrwt beam="1">  1       -2 0.11391019E+00 0.13691392E+03</pdfrwt>
<totfact> 0.12990947E+03</totfact>
</mgrwt>
</event>
<event>
 7    1  0.5400401E-006  0.1329407E+03  0.7546771E-02  0.1235660E+00
          2   -1    0    0  501    0  0.00000000000E+00  0.00000000000E+00  0.53585610552E+03  0.53585610552E+03  0.00000000000E+00 0.  1.
         -2   -1    0    0    0  501 -0.00000000000E+00 -0.00000000000E+00 -0.44565444901E+02  0.44565444901E+02  0.00000000000E+00 0. -1.
         23    2    1    2    0    0  0.42274250746E+02  0.16148459650E+02  0.77063646169E+02  0.15366211824E+03  0.12500142398E+03 0.  0.
          5    1    3    3  502    0  0.72940276500E+02  0.86206782636E+01  0.92495463251E+02  0.11820364103E+03  0.47000000000E+01 0. -1.
         -5    1    3    3    0  502 -0.30666025754E+02  0.75277813865E+01 -0.15431817083E+02  0.35458477218E+02  0.47000000000E+01 0. -1.
        -11    1    1    2    0    0  0.24277064545E+02 -0.21004208741E+02  0.85495128772E+02  0.91323434514E+02  0.00000000000E+00 0. -1.
         11    1    1    2    0    0 -0.66551315291E+02  0.48557490906E+01  0.32873188568E+03  0.33543599766E+03  0.00000000000E+00 0.  1.
<mgrwt>
<rscale>  0 0.12462253E+03</rscale>
<asrwt>0</asrwt>
<pdfrwt beam="1">  1        2 0.82439396E-01 0.13294074E+03</pdfrwt>
<pdfrwt beam="2">  1       -2 0.68562227E-02 0.13294074E+03</pdfrwt>
<totfact> 0.66408114E+03</totfact>
</mgrwt>
</event>
<event>
 7    1  0.5400401E-006  0.1709600E+03  0.7546771E-02  0.1183139E+00
          1   -1    0    0  501    0  0.00000000000E+00  0.00000000000E+00  0.60742491638E+03  0.60742491638E+03  0.00000000000E+00 0. -1.
         -1   -1    0    0    0  501 -0.00000000000E+00 -0.00000000000E+00 -0.67892208210E+02  0.67892208210E+02  0.00000000000E+00 0.  1.
         23    2    1    2    0    0  0.72630621917E+02  0.91258304084E+02  0.73268139724E+02  0.18599877143E+03  0.12499614942E+03 0.  0.
          5    1    3    3  502    0 -0.14683895441E+02 -0.50436319138E+01  0.51650367251E+02  0.54137837465E+02  0.47000000000E+01 0. -1.
         -5    1    3    3    0  502  0.87314517358E+02  0.96301935998E+02  0.21617772472E+02  0.13186093396E+03  0.47000000000E+01 0. -1.
        -11    1    1    2    0    0 -0.60419568031E+02 -0.97945291132E+02  0.45977372974E+03  0.47395747363E+03  0.00000000000E+00 0. -1.
         11    1    1    2    0    0 -0.12211053886E+02  0.66869870478E+01  0.64908387064E+01  0.15360879529E+02  0.00000000000E+00 0.  1.
<mgrwt>
<rscale>  0 0.16502404E+03</rscale>
<asrwt>0</asrwt>
<pdfrwt beam="1">  1        1 0.93449984E-01 0.17096000E+03</pdfrwt>
<pdfrwt beam="2">  1       -1 0.10444956E-01 0.17096000E+03</pdfrwt>
<totfact> 0.19499252E+03</totfact>
</mgrwt>
</event>
<event>
 7    1  0.5400401E-006  0.1395128E+03  0.7546771E-02  0.1224660E+00
          1   -1    0    0  501    0  0.00000000000E+00  0.00000000000E+00  0.34776991726E+03  0.34776991726E+03  0.00000000000E+00 0. -1.
         -1   -1    0    0    0  501 -0.00000000000E+00 -0.00000000000E+00 -0.47831640866E+02  0.47831640866E+02  0.00000000000E+00 0.  1.
         23    2    1    2    0    0  0.35129421185E+02 -0.51033771633E+02  0.12045192117E+03  0.18431625232E+03  0.12500117390E+03 0.  0.
          5    1    3    3  502    0  0.31062076786E+02  0.26857830051E+02  0.71401565823E+00  0.41337579364E+02  0.47000000000E+01 0.  1.
         -5    1    3    3    0  502  0.40673443995E+01 -0.77891601684E+02  0.11973790551E+03  0.14297867296E+03  0.47000000000E+01 0.  1.
        -11    1    1    2    0    0 -0.49821653620E+02  0.43937935077E+01  0.13925057137E+03  0.14796021160E+03  0.00000000000E+00 0. -1.
         11    1    1    2    0    0  0.14692232434E+02  0.46639978125E+02  0.40235783846E+02  0.63325094197E+02  0.00000000000E+00 0.  1.
<mgrwt>
<rscale>  0 0.13190233E+03</rscale>
<asrwt>0</asrwt>
<pdfrwt beam="1">  1        1 0.53503063E-01 0.13951278E+03</pdfrwt>
<pdfrwt beam="2">  1       -1 0.73587142E-02 0.13951278E+03</pdfrwt>
<totfact> 0.67904999E+03</totfact>
</mgrwt>
</event>
<event>
 7    1  0.5400401E-006  0.1574565E+03  0.7546771E-02  0.1198538E+00
          2   -1    0    0  501    0  0.00000000000E+00  0.00000000000E+00  0.43989298849E+03  0.43989298849E+03  0.00000000000E+00 0. -1.
         -2   -1    0    0    0  501 -0.00000000000E+00 -0.00000000000E+00 -0.14769801315E+03  0.14769801315E+03  0.00000000000E+00 0.  1.
         23    2    1    2    0    0 -0.27813821392E+02  0.92039105976E+02 -0.90559613517E+02  0.18164139570E+03  0.12469060647E+03 0.  0.
          5    1    3    3  502    0 -0.57802149106E+02  0.26229918830E+02  0.24913516880E+01  0.63697675910E+02  0.47000000000E+01 0. -1.
         -5    1    3    3    0  502  0.29988327713E+02  0.65809187146E+02 -0.93050965205E+02  0.11794371979E+03  0.47000000000E+01 0.  1.
        -11    1    1    2    0    0  0.15804233897E+02  0.18051493419E+02  0.55467788255E+02  0.60434309441E+02  0.00000000000E+00 0.  1.
         11    1    1    2    0    0  0.12009587495E+02 -0.11009059939E+03  0.32728680060E+03  0.34551529650E+03  0.00000000000E+00 0. -1.
<mgrwt>
<rscale>  0 0.15158599E+03</rscale>
<asrwt>0</asrwt>
<pdfrwt beam="1">  1        2 0.67675844E-01 0.15745651E+03</pdfrwt>
<pdfrwt beam="2">  1       -2 0.22722772E-01 0.15745651E+03</pdfrwt>
<totfact> 0.12013436E+03</totfact>
</mgrwt>
</event>
<event>
 7    1  0.5400401E-006  0.1388108E+03  0.7546771E-02  0.1227449E+00
         -2   -1    0    0    0  501 -0.00000000000E+00  0.00000000000E+00  0.47116174814E+02  0.47116174814E+02  0.00000000000E+00 0.  1.
          2   -1    0    0  501    0  0.00000000000E+00 -0.00000000000E+00 -0.38522500119E+03  0.38522500119E+03  0.00000000000E+00 0. -1.
         23    2    1    2    0    0 -0.46207483482E+02  0.38820097937E+02 -0.99097152330E+02  0.17055402276E+03  0.12500519008E+03 0.  0.
          5    1    3    3  502    0  0.30477783826E+00  0.56132138114E+02  0.35505685068E+01  0.56441176064E+02  0.47000000000E+01 0.  1.
         -5    1    3    3    0  502 -0.46512261320E+02 -0.17312040177E+02 -0.10264772084E+03  0.11411284670E+03  0.47000000000E+01 0.  1.
        -11    1    1    2    0    0 -0.10214342866E+02  0.20471430730E+02 -0.33401763509E+02  0.40485677490E+02  0.00000000000E+00 0.  1.
         11    1    1    2    0    0  0.56421826348E+02 -0.59291528667E+02 -0.20560991054E+03  0.22130147575E+03  0.00000000000E+00 0. -1.
<mgrwt>
<rscale>  0 0.13000460E+03</rscale>
<asrwt>0</asrwt>
<pdfrwt beam="2">  1        2 0.59265385E-01 0.13881077E+03</pdfrwt>
<pdfrwt beam="1">  1       -2 0.72486423E-02 0.13881077E+03</pdfrwt>
<totfact> 0.87473163E+03</totfact>
</mgrwt>
</event>
<event>
 7    1  0.5400401E-006  0.3328965E+03  0.7546771E-02  0.1071042E+00
         -2   -1    0    0    0  501 -0.00000000000E+00  0.00000000000E+00  0.11719868952E+03  0.11719868952E+03  0.00000000000E+00 0.  1.
          2   -1    0    0  501    0  0.00000000000E+00 -0.00000000000E+00 -0.10451371461E+04  0.10451371461E+04  0.00000000000E+00 0. -1.
         23    2    1    2    0    0  0.51269040983E+01  0.30849772415E+03 -0.26604494966E+03  0.42614550966E+03  0.12499179658E+03 0.  0.
          5    1    3    3  502    0 -0.41541933407E+02  0.33976252938E+02 -0.34579838919E+02  0.64015414195E+02  0.47000000000E+01 0.  1.
         -5    1    3    3    0  502  0.46668837505E+02  0.27452147121E+03 -0.23146511074E+03  0.36213009546E+03  0.47000000000E+01 0.  1.
        -11    1    1    2    0    0  0.41379292493E+02 -0.18883497509E+03 -0.37558616437E+03  0.42241669064E+03  0.00000000000E+00 0.  1.
         11    1    1    2    0    0 -0.46506196592E+02 -0.11966274906E+03 -0.28630734257E+03  0.31377363535E+03  0.00000000000E+00 0. -1.
<mgrwt>
<rscale>  0 0.33021352E+03</rscale>
<asrwt>0</asrwt>
<pdfrwt beam="2">  1        2 0.16079033E+00 0.33289650E+03</pdfrwt>
<pdfrwt beam="1">  1       -2 0.18030567E-01 0.33289650E+03</pdfrwt>
<totfact> 0.61844740E+02</totfact>
</mgrwt>
</event>
<event>
 7    1  0.5400401E-006  0.1573027E+03  0.7546771E-02  0.1199559E+00
          2   -1    0    0  501    0  0.00000000000E+00  0.00000000000E+00  0.54152033961E+03  0.54152033961E+03  0.00000000000E+00 0.  1.
         -2   -1    0    0    0  501 -0.00000000000E+00 -0.00000000000E+00 -0.45963283684E+02  0.45963283684E+02  0.00000000000E+00 0. -1.
         23    2    1    2    0    0 -0.88362927383E+02 -0.36241637264E+02  0.15010079571E+03  0.21742676023E+03  0.12499073560E+03 0.  0.
          5    1    3    3  502    0  0.82478866432E+01  0.14962550746E+01 -0.17677734518E+02  0.20121101138E+02  0.47000000000E+01 0. -1.
         -5    1    3    3    0  502 -0.96610814026E+02 -0.37737892339E+02  0.16777853023E+03  0.19730565910E+03  0.47000000000E+01 0. -1.
        -11    1    1    2    0    0  0.98958412491E+02  0.43364069275E+01  0.25736319973E+03  0.27576690955E+03  0.00000000000E+00 0. -1.
         11    1    1    2    0    0 -0.10595485109E+02  0.31905230337E+02  0.88093060486E+02  0.94289953512E+02  0.00000000000E+00 0.  1.
<mgrwt>
<rscale>  0 0.15074663E+03</rscale>
<asrwt>0</asrwt>
<pdfrwt beam="1">  1        2 0.83310817E-01 0.15730272E+03</pdfrwt>
<pdfrwt beam="2">  1       -2 0.70712748E-02 0.15730272E+03</pdfrwt>
<totfact> 0.63184943E+03</totfact>
</mgrwt>
</event>
<event>
 7    1  0.5400401E-006  0.1250344E+03  0.7546771E-02  0.1250849E+00
         -1   -1    0    0    0  501 -0.00000000000E+00  0.00000000000E+00  0.79214036778E+02  0.79214036778E+02  0.00000000000E+00 0.  1.
          1   -1    0    0  501    0  0.00000000000E+00 -0.00000000000E+00 -0.17315180357E+03  0.17315180357E+03  0.00000000000E+00 0. -1.
         23    2    1    2    0    0  0.15569036348E+01  0.18318255564E+01 -0.47913713199E+01  0.12512617155E+03  0.12501128763E+03 0.  0.
          5    1    3    3  502    0  0.62508228725E+02  0.84670859135E+01 -0.66813879058E+01  0.63605826357E+02  0.47000000000E+01 0. -1.
         -5    1    3    3    0  502 -0.60951325090E+02 -0.66352603571E+01  0.18900165859E+01  0.61520345195E+02  0.47000000000E+01 0. -1.
        -11    1    1    2    0    0  0.22774208928E+02  0.55809697917E+01  0.95501546248E+01  0.25318318851E+02  0.00000000000E+00 0.  1.
         11    1    1    2    0    0 -0.24331112563E+02 -0.74127953481E+01 -0.98696550092E+02  0.10192134994E+03  0.00000000000E+00 0. -1.
<mgrwt>
<rscale>  0 0.11542020E+03</rscale>
<asrwt>0</asrwt>
<pdfrwt beam="2">  1        1 0.26638739E-01 0.12503440E+03</pdfrwt>
<pdfrwt beam="1">  1       -1 0.12186775E-01 0.12503440E+03</pdfrwt>
<totfact> 0.74254202E+03</totfact>
</mgrwt>
</event>
<event>
 7    1  0.5400401E-006  0.1451503E+03  0.7546771E-02  0.1215389E+00
          2   -1    0    0  501    0  0.00000000000E+00  0.00000000000E+00  0.37891194228E+03  0.37891194228E+03  0.00000000000E+00 0. -1.
         -2   -1    0    0    0  501 -0.00000000000E+00 -0.00000000000E+00 -0.47636580175E+02  0.47636580175E+02  0.00000000000E+00 0.  1.
         23    2    1    2    0    0  0.74599511548E+02 -0.24561422432E+02  0.14762638895E+03  0.20703177084E+03  0.12206659177E+03 0.  0.
          5    1    3    3  502    0  0.95900950465E+02 -0.50915957010E+02  0.12670672946E+03  0.16693145980E+03  0.47000000000E+01 0. -1.
         -5    1    3    3    0  502 -0.21301438917E+02  0.26354534578E+02  0.20919659492E+02  0.40100311046E+02  0.47000000000E+01 0.  1.
        -11    1    1    2    0    0  0.55164312822E+01  0.37693184258E+02  0.72194198653E+02  0.81628484445E+02  0.00000000000E+00 0.  1.
         11    1    1    2    0    0 -0.80115942831E+02 -0.13131761826E+02  0.11145477450E+03  0.13788826717E+03  0.00000000000E+00 0. -1.
<mgrwt>
<rscale>  0 0.13847996E+03</rscale>
<asrwt>0</asrwt>
<pdfrwt beam="1">  1        2 0.58294143E-01 0.14515028E+03</pdfrwt>
<pdfrwt beam="2">  1       -2 0.73287049E-02 0.14515028E+03</pdfrwt>
<totfact> 0.87802526E+03</totfact>
</mgrwt>
</event>
<event>
 7    1  0.5400401E-006  0.1304015E+03  0.7546771E-02  0.1240859E+00
         -1   -1    0    0    0  501 -0.00000000000E+00  0.00000000000E+00  0.32258024729E+02  0.32258024729E+02  0.00000000000E+00 0.  1.
          1   -1    0    0  501    0  0.00000000000E+00 -0.00000000000E+00 -0.50144897263E+03  0.50144897263E+03  0.00000000000E+00 0. -1.
         23    2    1    2    0    0 -0.28905791770E+02 -0.23328804741E+02 -0.14472064975E+03  0.19480403639E+03  0.12499907281E+03 0.  0.
          5    1    3    3  502    0  0.27133752821E+02  0.14928693626E+02 -0.11739859368E+03  0.12150566338E+03  0.47000000000E+01 0.  1.
         -5    1    3    3    0  502 -0.56039544591E+02 -0.38257498366E+02 -0.27322056070E+02  0.73298373018E+02  0.47000000000E+01 0.  1.
        -11    1    1    2    0    0  0.41158954261E+02  0.39398458394E+02 -0.30683992723E+03  0.31208498680E+03  0.00000000000E+00 0. -1.
         11    1    1    2    0    0 -0.12253162491E+02 -0.16069653653E+02 -0.17630370918E+02  0.26817974164E+02  0.00000000000E+00 0.  1.
<mgrwt>
<rscale>  0 0.12136681E+03</rscale>
<asrwt>0</asrwt>
<pdfrwt beam="2">  1        1 0.77145995E-01 0.13040148E+03</pdfrwt>
<pdfrwt beam="1">  1       -1 0.49627731E-02 0.13040148E+03</pdfrwt>
<totfact> 0.76409155E+03</totfact>
</mgrwt>
</event>
<event>
 6    1  0.5400401E-006  0.1732848E+03  0.7546771E-02  0.1182281E+00
         -1   -1    0    0    0  501 -0.00000000000E+00  0.00000000000E+00  0.24506026100E+02  0.24506026100E+02  0.00000000000E+00 0.  1.
          1   -1    0    0  501    0  0.00000000000E+00 -0.00000000000E+00 -0.10388158200E+04  0.10388158200E+04  0.00000000000E+00 0. -1.
          5    1    1    2  502    0  0.20474035647E+02  0.53640489782E+02 -0.25675429008E+03  0.26313749971E+03  0.47000000000E+01 0. -1.
         -5    1    1    2    0  502 -0.10886694592E+03  0.72982531572E+01 -0.26428642685E+03  0.28596272804E+03  0.47000000000E+01 0.  1.
        -11    1    1    2    0    0  0.12355539289E+02 -0.49851281530E+02 -0.89358782490E+02  0.10306697642E+03  0.00000000000E+00 0.  1.
         11    1    1    2    0    0  0.76037370981E+02 -0.11087461410E+02 -0.40391029448E+03  0.41115464192E+03  0.00000000000E+00 0. -1.
<mgrwt>
<rscale>  0 0.16581741E+03</rscale>
<asrwt>0</asrwt>
<pdfrwt beam="2">  1        1 0.15981781E+00 0.17328483E+03</pdfrwt>
<pdfrwt beam="1">  1       -1 0.37701582E-02 0.17328483E+03</pdfrwt>
<totfact> 0.39704131E+03</totfact>
</mgrwt>
</event>
<event>
 7    1  0.5400401E-006  0.1463537E+03  0.7546771E-02  0.1214400E+00
         -1   -1    0    0    0  501 -0.00000000000E+00  0.00000000000E+00  0.27814647260E+02  0.27814647260E+02  0.00000000000E+00 0.  1.
          1   -1    0    0  501    0  0.00000000000E+00 -0.00000000000E+00 -0.65975704102E+03  0.65975704102E+03  0.00000000000E+00 0. -1.
         23    2    1    2    0    0  0.15039056823E+02 -0.74634181581E+02 -0.28238924826E+03  0.31806144722E+03  0.12499184927E+03 0.  0.
          5    1    3    3  502    0 -0.13106798567E+02  0.29214755906E+02 -0.11118911485E+03  0.11580327885E+03  0.47000000000E+01 0.  1.
         -5    1    3    3    0  502  0.28145855390E+02 -0.10384893749E+03 -0.17120013340E+03  0.20225816837E+03  0.47000000000E+01 0.  1.
        -11    1    1    2    0    0  0.14083046134E+02 -0.96860716361E+01 -0.13392382526E+02  0.21714236848E+02  0.00000000000E+00 0.  1.
         11    1    1    2    0    0 -0.29122102956E+02  0.84320253217E+02 -0.33616076298E+03  0.34779600421E+03  0.00000000000E+00 0. -1.
<mgrwt>
<rscale>  0 0.13920690E+03</rscale>
<asrwt>0</asrwt>
<pdfrwt beam="2">  1        1 0.10150108E+00 0.14635367E+03</pdfrwt>
<pdfrwt beam="1">  1       -1 0.42791767E-02 0.14635367E+03</pdfrwt>
<totfact> 0.66115644E+03</totfact>
</mgrwt>
</event>
<event>
 7    1  0.5400401E-006  0.1448783E+03  0.7546771E-02  0.1218089E+00
         -2   -1    0    0    0  501 -0.00000000000E+00  0.00000000000E+00  0.60259546837E+02  0.60259546837E+02  0.00000000000E+00 0.  1.
          2   -1    0    0  501    0  0.00000000000E+00 -0.00000000000E+00 -0.30641900426E+03  0.30641900426E+03  0.00000000000E+00 0. -1.
         23    2    1    2    0    0  0.34603028118E+02  0.64557083004E+02 -0.81358998276E+02  0.16615961986E+03  0.12499898460E+03 0.  0.
          5    1    3    3  502    0  0.28879690601E+01  0.82615397403E+02 -0.95806393516E+02  0.12662779826E+03  0.47000000000E+01 0. -1.
         -5    1    3    3    0  502  0.31715059058E+02 -0.18058314400E+02  0.14447395239E+02  0.39531821602E+02  0.47000000000E+01 0. -1.
        -11    1    1    2    0    0 -0.57589201582E+01  0.22023209385E+02 -0.37925904525E+02  0.44233032306E+02  0.00000000000E+00 0. -1.
         11    1    1    2    0    0 -0.28844107960E+02 -0.86580292389E+02 -0.12687455463E+03  0.15628589893E+03  0.00000000000E+00 0.  1.
<mgrwt>
<rscale>  0 0.13652063E+03</rscale>
<asrwt>0</asrwt>
<pdfrwt beam="2">  1        2 0.47141385E-01 0.14487834E+03</pdfrwt>
<pdfrwt beam="1">  1       -2 0.92706995E-02 0.14487834E+03</pdfrwt>
<totfact> 0.76441034E+03</totfact>
</mgrwt>
</event>
<event>
 7    1  0.5400401E-006  0.1496990E+03  0.7546771E-02  0.1209388E+00
          2   -1    0    0  501    0  0.00000000000E+00  0.00000000000E+00  0.70120825106E+03  0.70120825106E+03  0.00000000000E+00 0. -1.
         -2   -1    0    0    0  501 -0.00000000000E+00 -0.00000000000E+00 -0.31522876464E+02  0.31522876464E+02  0.00000000000E+00 0.  1.
         23    2    1    2    0    0  0.76842503394E+02 -0.29708945966E+02  0.21987510357E+03  0.26599784988E+03  0.12498961225E+03 0.  0.
          5    1    3    3  502    0 -0.16605158878E+02  0.20366112184E+02  0.11019143961E+03  0.11337880398E+03  0.47000000000E+01 0. -1.
         -5    1    3    3    0  502  0.93447662272E+02 -0.50075058149E+02  0.10968366396E+03  0.15261904590E+03  0.47000000000E+01 0. -1.
        -11    1    1    2    0    0 -0.86371375990E+02 -0.28295137740E+00  0.38649898630E+03  0.39603227275E+03  0.00000000000E+00 0.  1.
         11    1    1    2    0    0  0.95288725963E+01  0.29991897343E+02  0.63311284722E+02  0.70701004889E+02  0.00000000000E+00 0. -1.
<mgrwt>
<rscale>  0 0.14296938E+03</rscale>
<asrwt>0</asrwt>
<pdfrwt beam="1">  1        2 0.10787818E+00 0.14969901E+03</pdfrwt>
<pdfrwt beam="2">  1       -2 0.48496738E-02 0.14969901E+03</pdfrwt>
<totfact> 0.82961840E+03</totfact>
</mgrwt>
</event>
<event>
 7    1  0.5400401E-006  0.1491887E+03  0.7546771E-02  0.1210747E+00
         -3   -1    0    0    0  501 -0.00000000000E+00  0.00000000000E+00  0.10366146937E+04  0.10366146937E+04  0.00000000000E+00 0.  1.
          3   -1    0    0  501    0  0.00000000000E+00 -0.00000000000E+00 -0.20836374072E+02  0.20836374072E+02  0.00000000000E+00 0. -1.
         23    2    1    2    0    0  0.24155491149E+02  0.77824343167E+02  0.75301685194E+03  0.76765334164E+03  0.12496862605E+03 0.  0.
          5    1    3    3  502    0  0.62785230193E+02  0.66127814367E+01  0.42810782384E+03  0.43276334508E+03  0.47000000000E+01 0. -1.
         -5    1    3    3    0  502 -0.38629739044E+02  0.71211561730E+02  0.32490902809E+03  0.33488999656E+03  0.47000000000E+01 0. -1.
        -11    1    1    2    0    0  0.25699241035E+02 -0.48284999674E+02  0.18437111588E+03  0.19231380750E+03  0.00000000000E+00 0.  1.
         11    1    1    2    0    0 -0.49854732184E+02 -0.29539343493E+02  0.78390351834E+02  0.97483918652E+02  0.00000000000E+00 0. -1.
<mgrwt>
<rscale>  0 0.14193603E+03</rscale>
<asrwt>0</asrwt>
<pdfrwt beam="2">  1        3 0.32055968E-02 0.14918872E+03</pdfrwt>
<pdfrwt beam="1">  1       -3 0.15947914E+00 0.14918872E+03</pdfrwt>
<totfact> 0.31826586E+02</totfact>
</mgrwt>
</event>
<event>
 7    1  0.5400401E-006  0.1355760E+03  0.7546771E-02  0.1232156E+00
         -1   -1    0    0    0  501 -0.00000000000E+00  0.00000000000E+00  0.30966538112E+02  0.30966538112E+02  0.00000000000E+00 0.  1.
          1   -1    0    0  501    0  0.00000000000E+00 -0.00000000000E+00 -0.50185121716E+03  0.50185121716E+03  0.00000000000E+00 0. -1.
         23    2    1    2    0    0  0.49755582939E+02  0.16718985857E+02 -0.19094002680E+03  0.23417718245E+03  0.12500286565E+03 0.  0.
          5    1    3    3  502    0  0.89756608299E+02 -0.38218066058E+01 -0.13540915248E+03  0.16256870398E+03  0.47000000000E+01 0. -1.
         -5    1    3    3    0  502 -0.40001025360E+02  0.20540792462E+02 -0.55530874321E+02  0.71608478462E+02  0.47000000000E+01 0. -1.
        -11    1    1    2    0    0  0.50796160308E+00  0.10090225333E+02  0.25822545344E+01  0.10427785515E+02  0.00000000000E+00 0.  1.
         11    1    1    2    0    0 -0.50263544542E+02 -0.26809211190E+02 -0.28252690678E+03  0.28821278731E+03  0.00000000000E+00 0. -1.
<mgrwt>
<rscale>  0 0.12688242E+03</rscale>
<asrwt>0</asrwt>
<pdfrwt beam="2">  1        1 0.77207874E-01 0.13557603E+03</pdfrwt>
<pdfrwt beam="1">  1       -1 0.47640831E-02 0.13557603E+03</pdfrwt>
<totfact> 0.81280430E+03</totfact>
</mgrwt>
</event>
<event>
 7    1  0.5400401E-006  0.2247421E+03  0.7546771E-02  0.1133632E+00
         -2   -1    0    0    0  501 -0.00000000000E+00  0.00000000000E+00  0.23157691853E+03  0.23157691853E+03  0.00000000000E+00 0.  1.
          2   -1    0    0  501    0  0.00000000000E+00 -0.00000000000E+00 -0.22080976756E+03  0.22080976756E+03  0.00000000000E+00 0. -1.
         23    2    1    2    0    0 -0.13834492185E+03 -0.12547911258E+03  0.71861904539E+02  0.23595152986E+03  0.12499866410E+03 0.  0.
          5    1    3    3  502    0 -0.62355325112E+02 -0.10650822690E+03 -0.82919873784E+01  0.12378625134E+03  0.47000000000E+01 0.  1.
         -5    1    3    3    0  502 -0.75989596740E+02 -0.18970885680E+02  0.80153891917E+02  0.11216527852E+03  0.47000000000E+01 0.  1.
        -11    1    1    2    0    0  0.11158685950E+03  0.13066168872E+03 -0.73004136085E+02  0.18669147811E+03  0.00000000000E+00 0. -1.
         11    1    1    2    0    0  0.26758062352E+02 -0.51825761393E+01  0.11909382513E+02  0.29743678120E+02  0.00000000000E+00 0.  1.
<mgrwt>
<rscale>  0 0.22033705E+03</rscale>
<asrwt>0</asrwt>
<pdfrwt beam="2">  1        2 0.33970734E-01 0.22474205E+03</pdfrwt>
<pdfrwt beam="1">  1       -2 0.35627218E-01 0.22474205E+03</pdfrwt>
<totfact> 0.11319375E+03</totfact>
</mgrwt>
</event>
<event>
 7    1  0.5400401E-006  0.1633461E+03  0.7546771E-02  0.1191817E+00
          1   -1    0    0  501    0  0.00000000000E+00  0.00000000000E+00  0.15346807434E+03  0.15346807434E+03  0.00000000000E+00 0. -1.
         -1   -1    0    0    0  501 -0.00000000000E+00 -0.00000000000E+00 -0.17408606586E+03  0.17408606586E+03  0.00000000000E+00 0.  1.
         23    2    1    2    0    0  0.10367100144E+03 -0.17589748146E+02 -0.71435227035E+02  0.17828332487E+03  0.12499950594E+03 0.  0.
          5    1    3    3  502    0  0.25598150605E+02 -0.27822002777E+02  0.30915601767E+02  0.49063159147E+02  0.47000000000E+01 0.  1.
         -5    1    3    3    0  502  0.78072850835E+02  0.10232254631E+02 -0.10235082880E+03  0.12922016572E+03  0.47000000000E+01 0.  1.
        -11    1    1    2    0    0 -0.92907334078E+02 -0.23385937551E+02  0.22806993384E+02  0.98482657092E+02  0.00000000000E+00 0.  1.
         11    1    1    2    0    0 -0.10763667362E+02  0.40975685697E+02  0.28010242128E+02  0.50788158240E+02  0.00000000000E+00 0. -1.
<mgrwt>
<rscale>  0 0.15726721E+03</rscale>
<asrwt>0</asrwt>
<pdfrwt beam="1">  1        1 0.23610473E-01 0.16334611E+03</pdfrwt>
<pdfrwt beam="2">  1       -1 0.26782471E-01 0.16334611E+03</pdfrwt>
<totfact> 0.24970317E+03</totfact>
</mgrwt>
</event>
<event>
 7    1  0.5400401E-006  0.1270438E+03  0.7546771E-02  0.1246951E+00
          2   -1    0    0  501    0  0.00000000000E+00  0.00000000000E+00  0.71295241825E+03  0.71295241825E+03  0.00000000000E+00 0. -1.
         -2   -1    0    0    0  501 -0.00000000000E+00 -0.00000000000E+00 -0.17434083438E+02  0.17434083438E+02  0.00000000000E+00 0.  1.
         23    2    1    2    0    0 -0.21897368693E+02 -0.61591494966E+01  0.34702093931E+03  0.36954522174E+03  0.12499083453E+03 0.  0.
          5    1    3    3  502    0 -0.71517043244E+02 -0.21271108626E+02  0.19423108215E+03  0.20812244187E+03  0.47000000000E+01 0.  1.
         -5    1    3    3    0  502  0.49619674550E+02  0.15111959129E+02  0.15278985716E+03  0.16142277987E+03  0.47000000000E+01 0.  1.
        -11    1    1    2    0    0  0.17268791451E+02  0.46776686491E+02  0.23430585895E+03  0.23955271882E+03  0.00000000000E+00 0.  1.
         11    1    1    2    0    0  0.46285772420E+01 -0.40617536994E+02  0.11419153655E+03  0.12128856112E+03  0.00000000000E+00 0. -1.
<mgrwt>
<rscale>  0 0.11769375E+03</rscale>
<asrwt>0</asrwt>
<pdfrwt beam="1">  1        2 0.10968497E+00 0.12704385E+03</pdfrwt>
<pdfrwt beam="2">  1       -2 0.26821672E-02 0.12704385E+03</pdfrwt>
<totfact> 0.19334828E+04</totfact>
</mgrwt>
</event>
<event>
 6    1  0.5400401E-006  0.1803016E+03  0.7546771E-02  0.1188825E+00
          2   -1    0    0  501    0  0.00000000000E+00  0.00000000000E+00  0.47214780398E+02  0.47214780398E+02  0.00000000000E+00 0. -1.
         -2   -1    0    0    0  501 -0.00000000000E+00 -0.00000000000E+00 -0.45190759410E+03  0.45190759410E+03  0.00000000000E+00 0.  1.
          5    1    1    2  502    0 -0.91894258732E+02 -0.25756657500E+02 -0.64718939193E+02  0.11540620124E+03  0.47000000000E+01 0. -1.
         -5    1    1    2    0  502  0.30773527436E+02  0.34476352905E+02 -0.19703342688E+03  0.20243490363E+03  0.47000000000E+01 0.  1.
        -11    1    1    2    0    0  0.83221739074E+02 -0.20572519954E+02 -0.10166751194E+03  0.13298635049E+03  0.00000000000E+00 0.  1.
         11    1    1    2    0    0 -0.22101007779E+02  0.11852824550E+02 -0.41272935694E+02  0.48294919147E+02  0.00000000000E+00 0. -1.
<mgrwt>
<rscale>  0 0.15988681E+03</rscale>
<asrwt>0</asrwt>
<pdfrwt beam="1">  1        2 0.72638126E-02 0.18030160E+03</pdfrwt>
<pdfrwt beam="2">  1       -2 0.69524243E-01 0.18030160E+03</pdfrwt>
<totfact> 0.18255691E+03</totfact>
</mgrwt>
</event>
<event>
 7    1  0.5400401E-006  0.1601957E+03  0.7546771E-02  0.1196757E+00
          2   -1    0    0  501    0  0.00000000000E+00  0.00000000000E+00  0.80641045675E+02  0.80641045675E+02  0.00000000000E+00 0. -1.
         -2   -1    0    0    0  501 -0.00000000000E+00 -0.00000000000E+00 -0.29738271240E+03  0.29738271240E+03  0.00000000000E+00 0.  1.
         23    2    1    2    0    0  0.50713608445E+02 -0.86393825898E+02 -0.17696555623E+03  0.23870375068E+03  0.12500763681E+03 0.  0.
          5    1    3    3  502    0  0.58339974341E+01  0.24394950346E+02 -0.82259476941E+02  0.86127003170E+02  0.47000000000E+01 0. -1.
         -5    1    3    3    0  502  0.44879611010E+02 -0.11078877624E+03 -0.94706079289E+02  0.15257674751E+03  0.47000000000E+01 0. -1.
        -11    1    1    2    0    0 -0.75452257441E+02  0.54553394960E+02 -0.25373169050E+02  0.96503439121E+02  0.00000000000E+00 0. -1.
         11    1    1    2    0    0  0.24738648996E+02  0.31840430938E+02 -0.14402941442E+02  0.42816568272E+02  0.00000000000E+00 0.  1.
<mgrwt>
<rscale>  0 0.15306497E+03</rscale>
<asrwt>0</asrwt>
<pdfrwt beam="1">  1        2 0.12406315E-01 0.16019573E+03</pdfrwt>
<pdfrwt beam="2">  1       -2 0.45751187E-01 0.16019573E+03</pdfrwt>
<totfact> 0.21911376E+03</totfact>
</mgrwt>
</event>
<event>
 7    1  0.5400401E-006  0.1266714E+03  0.7546771E-02  0.1248499E+00
         -2   -1    0    0    0  501 -0.00000000000E+00  0.00000000000E+00  0.62312084847E+03  0.62312084847E+03  0.00000000000E+00 0.  1.
          2   -1    0    0  501    0  0.00000000000E+00 -0.00000000000E+00 -0.22123559136E+02  0.22123559136E+02  0.00000000000E+00 0. -1.
         23    2    1    2    0    0  0.56910533617E+00 -0.20504340205E+02  0.46022730317E+03  0.47734139901E+03  0.12499955511E+03 0.  0.
          5    1    3    3  502    0 -0.58782053447E+02 -0.12563508521E+00  0.15832269700E+03  0.16894825237E+03  0.47000000000E+01 0.  1.
         -5    1    3    3    0  502  0.59351158783E+02 -0.20378705120E+02  0.30190460617E+03  0.30839314664E+03  0.47000000000E+01 0.  1.
        -11    1    1    2    0    0  0.95532898834E+01 -0.28745752221E+02  0.95701713523E+02  0.10038128107E+03  0.00000000000E+00 0. -1.
         11    1    1    2    0    0 -0.10122395220E+02  0.49250092426E+02  0.45068272640E+02  0.67521727523E+02  0.00000000000E+00 0.  1.
<mgrwt>
<rscale>  0 0.11678404E+03</rscale>
<asrwt>0</asrwt>
<pdfrwt beam="2">  1        2 0.34036250E-02 0.12667139E+03</pdfrwt>
<pdfrwt beam="1">  1       -2 0.95864732E-01 0.12667139E+03</pdfrwt>
<totfact> 0.23754641E+03</totfact>
</mgrwt>
</event>
<event>
 7    1  0.5400401E-006  0.1408724E+03  0.7546771E-02  0.1222772E+00
         -1   -1    0    0    0  501 -0.00000000000E+00  0.00000000000E+00  0.53009338662E+02  0.53009338662E+02  0.00000000000E+00 0.  1.
          1   -1    0    0  501    0  0.00000000000E+00 -0.00000000000E+00 -0.34481531562E+03  0.34481531562E+03  0.00000000000E+00 0. -1.
         23    2    1    2    0    0  0.64281752893E+02  0.93080682358E+01 -0.91357345339E+02  0.16790235456E+03  0.12500500882E+03 0.  0.
          5    1    3    3  502    0 -0.33771099456E+02 -0.80667811292E+01 -0.38423825932E+01  0.35247893841E+02  0.47000000000E+01 0. -1.
         -5    1    3    3    0  502  0.98052852349E+02  0.17374849365E+02 -0.87514962746E+02  0.13265446072E+03  0.47000000000E+01 0. -1.
        -11    1    1    2    0    0 -0.26893038488E+02  0.20095878350E+01 -0.13223268791E+01  0.27000416863E+02  0.00000000000E+00 0.  1.
         11    1    1    2    0    0 -0.37388714405E+02 -0.11317656071E+02 -0.19912630474E+03  0.20292188286E+03  0.00000000000E+00 0. -1.
<mgrwt>
<rscale>  0 0.13320763E+03</rscale>
<asrwt>0</asrwt>
<pdfrwt beam="2">  1        1 0.53048511E-01 0.14087241E+03</pdfrwt>
<pdfrwt beam="1">  1       -1 0.81552827E-02 0.14087241E+03</pdfrwt>
<totfact> 0.58815556E+03</totfact>
</mgrwt>
</event>
<event>
 7    1  0.5400401E-006  0.1703379E+03  0.7546771E-02  0.1184251E+00
          2   -1    0    0  501    0  0.00000000000E+00  0.00000000000E+00  0.75532941355E+03  0.75532941355E+03  0.00000000000E+00 0.  1.
         -2   -1    0    0    0  501 -0.00000000000E+00 -0.00000000000E+00 -0.34880142647E+02  0.34880142647E+02  0.00000000000E+00 0. -1.
         23    2    1    2    0    0  0.26772267316E+02  0.11256271722E+03  0.29967391446E+03  0.34470197003E+03  0.12501149359E+03 0.  0.
          5    1    3    3  502    0 -0.16936520640E+02 -0.21854076387E+02  0.37632235640E+02  0.46933160403E+02  0.47000000000E+01 0.  1.
         -5    1    3    3    0  502  0.43708787956E+02  0.13441679361E+03  0.26204167882E+03  0.29776880963E+03  0.47000000000E+01 0.  1.
        -11    1    1    2    0    0 -0.18143777119E+02 -0.62677756867E+02  0.36244457712E+03  0.36827132571E+03  0.00000000000E+00 0.  1.
         11    1    1    2    0    0 -0.86284901974E+01 -0.49884960358E+02  0.58330779317E+02  0.77236260453E+02  0.00000000000E+00 0. -1.
<mgrwt>
<rscale>  0 0.16400187E+03</rscale>
<asrwt>0</asrwt>
<pdfrwt beam="1">  1        2 0.11620451E+00 0.17033788E+03</pdfrwt>
<pdfrwt beam="2">  1       -2 0.53661763E-02 0.17033788E+03</pdfrwt>
<totfact> 0.65514302E+03</totfact>
</mgrwt>
</event>
<event>
 7    1  0.5400401E-006  0.1593985E+03  0.7546771E-02  0.1197022E+00
         -1   -1    0    0    0  501 -0.00000000000E+00  0.00000000000E+00  0.66732746470E+03  0.66732746470E+03  0.00000000000E+00 0.  1.
          1   -1    0    0  501    0  0.00000000000E+00 -0.00000000000E+00 -0.32726994074E+02  0.32726994074E+02  0.00000000000E+00 0. -1.
         23    2    1    2    0    0  0.98222711392E+02  0.11686212072E+02  0.37770872024E+03  0.40996555704E+03  0.12499444799E+03 0.  0.
          5    1    3    3  502    0  0.53039184386E+02  0.40980159057E+02  0.68076306528E+02  0.95650415719E+02  0.47000000000E+01 0.  1.
         -5    1    3    3    0  502  0.45183527006E+02 -0.29293946984E+02  0.30963241372E+03  0.31431514133E+03  0.47000000000E+01 0.  1.
        -11    1    1    2    0    0 -0.13707609556E+02  0.33395587500E+02  0.46084971062E+02  0.58540484982E+02  0.00000000000E+00 0.  1.
         11    1    1    2    0    0 -0.84515101836E+02 -0.45081799572E+02  0.21080677932E+03  0.23154841674E+03  0.00000000000E+00 0. -1.
<mgrwt>
<rscale>  0 0.15284360E+03</rscale>
<asrwt>0</asrwt>
<pdfrwt beam="2">  1        1 0.50349227E-02 0.15939850E+03</pdfrwt>
<pdfrwt beam="1">  1       -1 0.10266575E+00 0.15939850E+03</pdfrwt>
<totfact> 0.15376957E+03</totfact>
</mgrwt>
</event>
<event>
 7    1  0.5400401E-006  0.1371350E+03  0.7546771E-02  0.1229055E+00
          1   -1    0    0  501    0  0.00000000000E+00  0.00000000000E+00  0.65646856638E+03  0.65646856638E+03  0.00000000000E+00 0. -1.
         -1   -1    0    0    0  501 -0.00000000000E+00 -0.00000000000E+00 -0.22891634065E+02  0.22891634065E+02  0.00000000000E+00 0.  1.
         23    2    1    2    0    0 -0.51910539165E+02 -0.22014535378E+02  0.32651430969E+03  0.35414348187E+03  0.12500666972E+03 0.  0.
          5    1    3    3  502    0  0.28380993756E+02 -0.44967764358E+02  0.13426187042E+03  0.14448501821E+03  0.47000000000E+01 0.  1.
         -5    1    3    3    0  502 -0.80291532921E+02  0.22953228980E+02  0.19225243927E+03  0.20965846367E+03  0.47000000000E+01 0.  1.
        -11    1    1    2    0    0  0.43942124482E+02  0.42887926515E+02  0.29172306245E+03  0.29811512828E+03  0.00000000000E+00 0. -1.
         11    1    1    2    0    0  0.79684146834E+01 -0.20873391137E+02  0.15339560175E+02  0.27101590294E+02  0.00000000000E+00 0.  1.
<mgrwt>
<rscale>  0 0.12892784E+03</rscale>
<asrwt>0</asrwt>
<pdfrwt beam="1">  1        1 0.10099515E+00 0.13713501E+03</pdfrwt>
<pdfrwt beam="2">  1       -1 0.35217904E-02 0.13713501E+03</pdfrwt>
<totfact> 0.88298058E+03</totfact>
</mgrwt>
</event>
<event>
 7    1  0.5400401E-006  0.1256013E+03  0.7546771E-02  0.1249324E+00
         -2   -1    0    0    0  501 -0.00000000000E+00  0.00000000000E+00  0.26283440973E+03  0.26283440973E+03  0.00000000000E+00 0.  1.
          2   -1    0    0  501    0  0.00000000000E+00 -0.00000000000E+00 -0.52929357547E+02  0.52929357547E+02  0.00000000000E+00 0. -1.
         23    2    1    2    0    0 -0.23467360295E+01  0.12020387183E+02  0.17844205990E+03  0.21821377733E+03  0.12500274795E+03 0.  0.
          5    1    3    3  502    0  0.23275960760E+02 -0.22147124116E+02  0.17167483367E+03  0.17471864231E+03  0.47000000000E+01 0.  1.
         -5    1    3    3    0  502 -0.25622696790E+02  0.34167511299E+02  0.67672262377E+01  0.43495135017E+02  0.47000000000E+01 0.  1.
        -11    1    1    2    0    0  0.12697429467E+02 -0.50385897322E+02  0.12124715389E+02  0.53357024723E+02  0.00000000000E+00 0. -1.
         11    1    1    2    0    0 -0.10350693438E+02  0.38365510139E+02  0.19338276895E+02  0.44192965233E+02  0.00000000000E+00 0.  1.
<mgrwt>
<rscale>  0 0.11630255E+03</rscale>
<asrwt>0</asrwt>
<pdfrwt beam="2">  1        2 0.81429782E-02 0.12560129E+03</pdfrwt>
<pdfrwt beam="1">  1       -2 0.40436062E-01 0.12560129E+03</pdfrwt>
<totfact> 0.45894088E+03</totfact>
</mgrwt>
</event>
<event>
 7    1  0.5400401E-006  0.1398862E+03  0.7546771E-02  0.1223985E+00
          2   -1    0    0  501    0  0.00000000000E+00  0.00000000000E+00  0.79983751214E+03  0.79983751214E+03  0.00000000000E+00 0. -1.
         -2   -1    0    0    0  501 -0.00000000000E+00 -0.00000000000E+00 -0.19939169943E+02  0.19939169943E+02  0.00000000000E+00 0.  1.
         23    2    1    2    0    0  0.61127660789E+02  0.14472366897E+02  0.40613754877E+03  0.42955308627E+03  0.12498841983E+03 0.  0.
          5    1    3    3  502    0  0.11890405901E+02 -0.27010947404E+02  0.32259158709E+03  0.32397283079E+03  0.47000000000E+01 0. -1.
         -5    1    3    3    0  502  0.49237254888E+02  0.41483314301E+02  0.83545961677E+02  0.10558025548E+03  0.47000000000E+01 0. -1.
        -11    1    1    2    0    0 -0.84025170205E+02 -0.22403351684E+02  0.31159044899E+03  0.32349767742E+03  0.00000000000E+00 0. -1.
         11    1    1    2    0    0  0.22897509416E+02  0.79309847871E+01  0.62170344445E+02  0.66725918394E+02  0.00000000000E+00 0.  1.
<mgrwt>
<rscale>  0 0.13236698E+03</rscale>
<asrwt>0</asrwt>
<pdfrwt beam="1">  1        2 0.12305190E+00 0.13988619E+03</pdfrwt>
<pdfrwt beam="2">  1       -2 0.30675652E-02 0.13988619E+03</pdfrwt>
<totfact> 0.13904841E+04</totfact>
</mgrwt>
</event>
<event>
 7    1  0.5400401E-006  0.1252229E+03  0.7546771E-02  0.1248225E+00
         -2   -1    0    0    0  501 -0.00000000000E+00  0.00000000000E+00  0.48200626396E+02  0.48200626396E+02  0.00000000000E+00 0.  1.
          2   -1    0    0  501    0  0.00000000000E+00 -0.00000000000E+00 -0.28413408613E+03  0.28413408613E+03  0.00000000000E+00 0. -1.
         23    2    1    2    0    0  0.65023359745E+01 -0.38664868125E+01 -0.76873340105E+02  0.14693632632E+03  0.12499417378E+03 0.  0.
          5    1    3    3  502    0 -0.42380398472E+02 -0.29633024994E+02 -0.75285642131E+02  0.91456176697E+02  0.47000000000E+01 0.  1.
         -5    1    3    3    0  502  0.48882734447E+02  0.25766538181E+02 -0.15876979737E+01  0.55480149619E+02  0.47000000000E+01 0.  1.
        -11    1    1    2    0    0  0.35020851117E+02  0.20099708978E+02 -0.34536136395E+02  0.53133821913E+02  0.00000000000E+00 0.  1.
         11    1    1    2    0    0 -0.41523187091E+02 -0.16233222166E+02 -0.12452398323E+03  0.13226456430E+03  0.00000000000E+00 0. -1.
<mgrwt>
<rscale>  0 0.11694410E+03</rscale>
<asrwt>0</asrwt>
<pdfrwt beam="2">  1        2 0.43712937E-01 0.12522290E+03</pdfrwt>
<pdfrwt beam="1">  1       -2 0.74154809E-02 0.12522290E+03</pdfrwt>
<totfact> 0.11575606E+04</totfact>
</mgrwt>
</event>
<event>
 7    1  0.5400401E-006  0.1420623E+03  0.7546771E-02  0.1221164E+00
          1   -1    0    0  501    0  0.00000000000E+00  0.00000000000E+00  0.56576865357E+02  0.56576865357E+02  0.00000000000E+00 0. -1.
         -1   -1    0    0    0  501 -0.00000000000E+00 -0.00000000000E+00 -0.36190569044E+03  0.36190569044E+03  0.00000000000E+00 0.  1.
         23    2    1    2    0    0 -0.47330535903E+02 -0.48132351773E+02 -0.25982963373E+03  0.29613029119E+03  0.12499923154E+03 0.  0.
          5    1    3    3  502    0 -0.44325341007E+02  0.31684322762E+02 -0.15425395939E+03  0.16366125428E+03  0.47000000000E+01 0. -1.
         -5    1    3    3    0  502 -0.30051948957E+01 -0.79816674535E+02 -0.10557567434E+03  0.13246903692E+03  0.47000000000E+01 0. -1.
        -11    1    1    2    0    0  0.17887429785E+02 -0.15985921730E+02  0.15934276190E+02  0.28799496446E+02  0.00000000000E+00 0. -1.
         11    1    1    2    0    0  0.29443106117E+02  0.64118273503E+02 -0.61433467543E+02  0.93552768154E+02  0.00000000000E+00 0.  1.
<mgrwt>
<rscale>  0 0.13433294E+03</rscale>
<asrwt>0</asrwt>
<pdfrwt beam="1">  1        1 0.87041330E-02 0.14206235E+03</pdfrwt>
<pdfrwt beam="2">  1       -1 0.55677800E-01 0.14206235E+03</pdfrwt>
<totfact> 0.25208108E+03</totfact>
</mgrwt>
</event>
<event>
 7    1  0.5400401E-006  0.1497827E+03  0.7546771E-02  0.1210134E+00
         -2   -1    0    0    0  501 -0.00000000000E+00  0.00000000000E+00  0.13598547358E+03  0.13598547358E+03  0.00000000000E+00 0.  1.
          2   -1    0    0  501    0  0.00000000000E+00 -0.00000000000E+00 -0.15636751601E+03  0.15636751601E+03  0.00000000000E+00 0. -1.
         23    2    1    2    0    0 -0.15113279610E+02 -0.81113645063E+02  0.41223939365E+02  0.15535204860E+03  0.12500804450E+03 0.  0.
          5    1    3    3  502    0 -0.24281712956E+02  0.28566803861E+02  0.21382551864E+02  0.43416211155E+02  0.47000000000E+01 0.  1.
         -5    1    3    3    0  502  0.91684333461E+01 -0.10968044892E+03  0.19841387502E+02  0.11193583744E+03  0.47000000000E+01 0.  1.
        -11    1    1    2    0    0  0.26138968439E+02  0.41384765319E+02  0.13976015853E+02  0.50904552750E+02  0.00000000000E+00 0.  1.
         11    1    1    2    0    0 -0.11025688829E+02  0.39728879744E+02 -0.75581997652E+02  0.86096388246E+02  0.00000000000E+00 0. -1.
<mgrwt>
<rscale>  0 0.14240107E+03</rscale>
<asrwt>0</asrwt>
<pdfrwt beam="2">  1        2 0.24056541E-01 0.14978266E+03</pdfrwt>
<pdfrwt beam="1">  1       -2 0.20920842E-01 0.14978266E+03</pdfrwt>
<totfact> 0.42101670E+03</totfact>
</mgrwt>
</event>
<event>
 7    1  0.5400401E-006  0.1660376E+03  0.7546771E-02  0.1189164E+00
          2   -1    0    0  501    0  0.00000000000E+00  0.00000000000E+00  0.95707492130E+03  0.95707492130E+03  0.00000000000E+00 0. -1.
         -2   -1    0    0    0  501 -0.00000000000E+00 -0.00000000000E+00 -0.28288201767E+02  0.28288201767E+02  0.00000000000E+00 0.  1.
         23    2    1    2    0    0  0.44934173887E+02 -0.99609937069E+02  0.32243811401E+03  0.36267729702E+03  0.12500905912E+03 0.  0.
          5    1    3    3  502    0  0.24970892115E+02 -0.96342740847E+02  0.32663155649E+03  0.34149045794E+03  0.47000000000E+01 0. -1.
         -5    1    3    3    0  502  0.19963281772E+02 -0.32671962220E+01 -0.41934424859E+01  0.21186839078E+02  0.47000000000E+01 0. -1.
        -11    1    1    2    0    0 -0.70788218156E+02  0.53527843080E+02  0.36790756991E+03  0.37846027772E+03  0.00000000000E+00 0.  1.
         11    1    1    2    0    0  0.25854044270E+02  0.46082093989E+02  0.23844103562E+03  0.24422554833E+03  0.00000000000E+00 0. -1.
<mgrwt>
<rscale>  0 0.15958704E+03</rscale>
<asrwt>0</asrwt>
<pdfrwt beam="1">  1        2 0.14724227E+00 0.16603760E+03</pdfrwt>
<pdfrwt beam="2">  1       -2 0.43520318E-02 0.16603760E+03</pdfrwt>
<totfact> 0.66142921E+03</totfact>
</mgrwt>
</event>
<event>
 6    1  0.5400401E-006  0.2021456E+03  0.7546771E-02  0.1156523E+00
          2   -1    0    0  501    0  0.00000000000E+00  0.00000000000E+00  0.46340384093E+03  0.46340384093E+03  0.00000000000E+00 0. -1.
         -2   -1    0    0    0  501 -0.00000000000E+00 -0.00000000000E+00 -0.72795290268E+02  0.72795290268E+02  0.00000000000E+00 0.  1.
          5    1    1    2  502    0 -0.51811444714E+02 -0.17604884816E+02  0.20222523451E+03  0.20955069374E+03  0.47000000000E+01 0. -1.
         -5    1    1    2    0  502 -0.58721299754E+02 -0.65648011224E+02  0.19200548646E+02  0.90269615546E+02  0.47000000000E+01 0.  1.
        -11    1    1    2    0    0 -0.43787836603E+01  0.42464220685E+02  0.51804701006E+02  0.67127571318E+02  0.00000000000E+00 0. -1.
         11    1    1    2    0    0  0.11491152813E+03  0.40788675355E+02  0.11737806651E+03  0.16925125060E+03  0.00000000000E+00 0.  1.
<mgrwt>
<rscale>  0 0.19216455E+03</rscale>
<asrwt>0</asrwt>
<pdfrwt beam="1">  1        2 0.71292897E-01 0.20214559E+03</pdfrwt>
<pdfrwt beam="2">  1       -2 0.11199276E-01 0.20214559E+03</pdfrwt>
<totfact> 0.36946224E+03</totfact>
</mgrwt>
</event>
<event>
 7    1  0.5400401E-006  0.1870784E+03  0.7546771E-02  0.1164431E+00
         -1   -1    0    0    0  501 -0.00000000000E+00  0.00000000000E+00  0.44070075513E+03  0.44070075513E+03  0.00000000000E+00 0.  1.
          1   -1    0    0  501    0  0.00000000000E+00 -0.00000000000E+00 -0.92906944941E+02  0.92906944941E+02  0.00000000000E+00 0. -1.
         23    2    1    2    0    0  0.13415403641E+03 -0.63735272662E+02  0.30052663177E+03  0.35399800994E+03  0.11374904030E+03 0.  0.
          5    1    3    3  502    0  0.25046783893E+02  0.25971392519E+02  0.24414528071E+02  0.43817961999E+02  0.47000000000E+01 0. -1.
         -5    1    3    3    0  502  0.10910725251E+03 -0.89706665181E+02  0.27611210370E+03  0.31018004794E+03  0.47000000000E+01 0.  1.
        -11    1    1    2    0    0 -0.66145052362E+02  0.12653072892E+02  0.64020719991E+02  0.92918893632E+02  0.00000000000E+00 0.  1.
         11    1    1    2    0    0 -0.68008984043E+02  0.51082199770E+02 -0.16753541569E+02  0.86690796507E+02  0.00000000000E+00 0. -1.
<mgrwt>
<rscale>  0 0.18352869E+03</rscale>
<asrwt>0</asrwt>
<pdfrwt beam="2">  1        1 0.14293376E-01 0.18707842E+03</pdfrwt>
<pdfrwt beam="1">  1       -1 0.67800115E-01 0.18707842E+03</pdfrwt>
<totfact> 0.90346218E+02</totfact>
</mgrwt>
</event>
<event>
 7    1  0.5400401E-006  0.1449636E+03  0.7546771E-02  0.1216994E+00
          2   -1    0    0  501    0  0.00000000000E+00  0.00000000000E+00  0.37212066897E+03  0.37212066897E+03  0.00000000000E+00 0.  1.
         -2   -1    0    0    0  501 -0.00000000000E+00 -0.00000000000E+00 -0.57878332805E+02  0.57878332805E+02  0.00000000000E+00 0. -1.
         23    2    1    2    0    0  0.26630492509E+02  0.68428652549E+02  0.73647717844E+02  0.16259895462E+03  0.12499108000E+03 0.  0.
          5    1    3    3  502    0  0.63340548506E+02  0.48436038358E+02  0.87344599627E+02  0.11836065216E+03  0.47000000000E+01 0. -1.
         -5    1    3    3    0  502 -0.36710055997E+02  0.19992614190E+02 -0.13696881783E+02  0.44238302454E+02  0.47000000000E+01 0. -1.
        -11    1    1    2    0    0 -0.49093633717E+02 -0.57631914323E+02  0.22638977764E+03  0.23871312038E+03  0.00000000000E+00 0.  1.
         11    1    1    2    0    0  0.22463141208E+02 -0.10796738226E+02  0.14204840678E+02  0.28686926777E+02  0.00000000000E+00 0. -1.
<mgrwt>
<rscale>  0 0.13731070E+03</rscale>
<asrwt>0</asrwt>
<pdfrwt beam="1">  1        2 0.57249332E-01 0.14496356E+03</pdfrwt>
<pdfrwt beam="2">  1       -2 0.89043591E-02 0.14496356E+03</pdfrwt>
<totfact> 0.66210518E+03</totfact>
</mgrwt>
</event>
<event>
 7    1  0.5400401E-006  0.1841622E+03  0.7546771E-02  0.1169454E+00
         -1   -1    0    0    0  501 -0.00000000000E+00  0.00000000000E+00  0.68042475095E+02  0.68042475095E+02  0.00000000000E+00 0.  1.
          1   -1    0    0  501    0  0.00000000000E+00 -0.00000000000E+00 -0.45895414420E+03  0.45895414420E+03  0.00000000000E+00 0. -1.
         23    2    1    2    0    0 -0.12720336187E+03  0.45933782711E+02 -0.15386479890E+03  0.23997936407E+03  0.12500044469E+03 0.  0.
          5    1    3    3  502    0 -0.14183406211E+03  0.65454923713E+02 -0.11572816536E+03  0.19446425500E+03  0.47000000000E+01 0.  1.
         -5    1    3    3    0  502  0.14630700248E+02 -0.19521141002E+02 -0.38136633543E+02  0.45515109071E+02  0.47000000000E+01 0.  1.
        -11    1    1    2    0    0  0.10284933822E+03 -0.66775573332E+02 -0.14697817721E+03  0.19141459752E+03  0.00000000000E+00 0.  1.
         11    1    1    2    0    0  0.24354023645E+02  0.20841790621E+02 -0.90068692989E+02  0.95602657708E+02  0.00000000000E+00 0. -1.
<mgrwt>
<rscale>  0 0.17830459E+03</rscale>
<asrwt>0</asrwt>
<pdfrwt beam="2">  1        1 0.70608332E-01 0.18416221E+03</pdfrwt>
<pdfrwt beam="1">  1       -1 0.10468073E-01 0.18416221E+03</pdfrwt>
<totfact> 0.28297231E+03</totfact>
</mgrwt>
</event>
<event>
 7    1  0.5400401E-006  0.2790083E+03  0.7546771E-02  0.1097959E+00
          2   -1    0    0  501    0  0.00000000000E+00  0.00000000000E+00  0.20681991203E+03  0.20681991203E+03  0.00000000000E+00 0. -1.
         -2   -1    0    0    0  501 -0.00000000000E+00 -0.00000000000E+00 -0.36025851511E+03  0.36025851511E+03  0.00000000000E+00 0.  1.
         23    2    1    2    0    0 -0.13603981903E+03  0.20907694524E+03 -0.70736220209E+02  0.28783543530E+03  0.12500249428E+03 0.  0.
          5    1    3    3  502    0 -0.14121349931E+03  0.22198069840E+03 -0.72795433287E+02  0.27301638770E+03  0.47000000000E+01 0. -1.
         -5    1    3    3    0  502  0.51736802812E+01 -0.12903753159E+02  0.20592130783E+01  0.14819047599E+02  0.47000000000E+01 0. -1.
        -11    1    1    2    0    0  0.13494938330E+03 -0.12972948292E+03 -0.62585672465E+02  0.19737791464E+03  0.00000000000E+00 0. -1.
         11    1    1    2    0    0  0.10904357298E+01 -0.79347462318E+02 -0.20116710402E+02  0.81865077192E+02  0.00000000000E+00 0.  1.
<mgrwt>
<rscale>  0 0.27588288E+03</rscale>
<asrwt>0</asrwt>
<pdfrwt beam="1">  1        2 0.31818448E-01 0.27900829E+03</pdfrwt>
<pdfrwt beam="2">  1       -2 0.55424386E-01 0.27900829E+03</pdfrwt>
<totfact> 0.51375624E+02</totfact>
</mgrwt>
</event>
<event>
 7    1  0.5400401E-006  0.1252268E+03  0.7546771E-02  0.1250074E+00
         -2   -1    0    0    0  501 -0.00000000000E+00  0.00000000000E+00  0.22049432005E+03  0.22049432005E+03  0.00000000000E+00 0.  1.
          2   -1    0    0  501    0  0.00000000000E+00 -0.00000000000E+00 -0.54065833899E+02  0.54065833899E+02  0.00000000000E+00 0. -1.
         23    2    1    2    0    0  0.17686038904E+01 -0.73269585993E+01  0.11099704975E+03  0.16733827415E+03  0.12499976265E+03 0.  0.
          5    1    3    3  502    0  0.24458490260E+02  0.52541959994E+02  0.35046189027E+02  0.67891094196E+02  0.47000000000E+01 0.  1.
         -5    1    3    3    0  502 -0.22689886370E+02 -0.59868918594E+02  0.75950860718E+02  0.99447179954E+02  0.47000000000E+01 0.  1.
        -11    1    1    2    0    0 -0.16270366075E+02  0.14132736231E+02  0.77224070369E+02  0.80174909354E+02  0.00000000000E+00 0.  1.
         11    1    1    2    0    0  0.14501762185E+02 -0.68057776321E+01 -0.21792633959E+02  0.27046970450E+02  0.00000000000E+00 0. -1.
<mgrwt>
<rscale>  0 0.11586761E+03</rscale>
<asrwt>0</asrwt>
<pdfrwt beam="2">  1        2 0.83178207E-02 0.12522681E+03</pdfrwt>
<pdfrwt beam="1">  1       -2 0.33922203E-01 0.12522681E+03</pdfrwt>
<totfact> 0.61975286E+03</totfact>
</mgrwt>
</event>
<event>
 7    1  0.5400401E-006  0.1693668E+03  0.7546771E-02  0.1185286E+00
         -2   -1    0    0    0  501 -0.00000000000E+00  0.00000000000E+00  0.27405993920E+02  0.27405993920E+02  0.00000000000E+00 0.  1.
          2   -1    0    0  501    0  0.00000000000E+00 -0.00000000000E+00 -0.90444354440E+03  0.90444354440E+03  0.00000000000E+00 0. -1.
         23    2    1    2    0    0  0.11174946563E+03  0.23829501633E+02 -0.47296616882E+03  0.50237646764E+03  0.12501731946E+03 0.  0.
          5    1    3    3  502    0  0.62673288914E+02 -0.49102257383E+02 -0.25921163375E+03  0.27120422912E+03  0.47000000000E+01 0.  1.
         -5    1    3    3    0  502  0.49076176717E+02  0.72931759016E+02 -0.21375453508E+03  0.23117223852E+03  0.47000000000E+01 0.  1.
        -11    1    1    2    0    0 -0.26335704007E+02 -0.13142301860E+02 -0.19313559081E+02  0.35203735144E+02  0.00000000000E+00 0.  1.
         11    1    1    2    0    0 -0.85413761624E+02 -0.10687199773E+02 -0.38475782257E+03  0.39426933553E+03  0.00000000000E+00 0. -1.
<mgrwt>
<rscale>  0 0.16305915E+03</rscale>
<asrwt>0</asrwt>
<pdfrwt beam="2">  1        2 0.13914517E+00 0.16936682E+03</pdfrwt>
<pdfrwt beam="1">  1       -2 0.42163064E-02 0.16936682E+03</pdfrwt>
<totfact> 0.74881171E+03</totfact>
</mgrwt>
</event>
<event>
 7    1  0.5400401E-006  0.1313220E+03  0.7546771E-02  0.1239051E+00
          1   -1    0    0  501    0  0.00000000000E+00  0.00000000000E+00  0.17742886927E+02  0.17742886927E+02  0.00000000000E+00 0. -1.
         -1   -1    0    0    0  501 -0.00000000000E+00 -0.00000000000E+00 -0.78754458817E+03  0.78754458817E+03  0.00000000000E+00 0.  1.
         23    2    1    2    0    0  0.36245183514E+02  0.17483407661E+02 -0.52276590370E+03  0.53900803125E+03  0.12500433918E+03 0.  0.
          5    1    3    3  502    0  0.10303814559E+02 -0.20832267655E+02 -0.46139871543E+03  0.46200759363E+03  0.47000000000E+01 0. -1.
         -5    1    3    3    0  502  0.25941368955E+02  0.38315675316E+02 -0.61367188266E+02  0.77000437621E+02  0.47000000000E+01 0. -1.
        -11    1    1    2    0    0 -0.10803934793E+02  0.30878042616E+02 -0.16148887161E+03  0.16476903282E+03  0.00000000000E+00 0.  1.
         11    1    1    2    0    0 -0.25441248721E+02 -0.48361450277E+02 -0.85546925937E+02  0.10151041103E+03  0.00000000000E+00 0. -1.
<mgrwt>
<rscale>  0 0.12248617E+03</rscale>
<asrwt>0</asrwt>
<pdfrwt beam="1">  1        1 0.27296747E-02 0.13132200E+03</pdfrwt>
<pdfrwt beam="2">  1       -1 0.12116071E+00 0.13132200E+03</pdfrwt>
<totfact> 0.24286804E+03</totfact>
</mgrwt>
</event>
<event>
 7    1  0.5400401E-006  0.2996020E+03  0.7546771E-02  0.1086993E+00
          3   -1    0    0  501    0  0.00000000000E+00  0.00000000000E+00  0.48490102641E+03  0.48490102641E+03  0.00000000000E+00 0. -1.
         -3   -1    0    0    0  501 -0.00000000000E+00 -0.00000000000E+00 -0.26126750007E+03  0.26126750007E+03  0.00000000000E+00 0.  1.
         23    2    1    2    0    0  0.20881388531E+03  0.17473830769E+03 -0.97592530136E+02  0.31509629649E+03  0.12499863700E+03 0.  0.
          5    1    3    3  502    0  0.10697155160E+03  0.27311745151E+02  0.10372991412E+01  0.11050796471E+03  0.47000000000E+01 0.  1.
         -5    1    3    3    0  502  0.10184233371E+03  0.14742656254E+03 -0.98629829277E+02  0.20458833178E+03  0.47000000000E+01 0.  1.
        -11    1    1    2    0    0 -0.98220266084E+02 -0.12282225078E+03  0.12946946738E+03  0.20370289379E+03  0.00000000000E+00 0. -1.
         11    1    1    2    0    0 -0.11059361922E+03 -0.51916056913E+02  0.19175658910E+03  0.22736933619E+03  0.00000000000E+00 0.  1.
<mgrwt>
<rscale>  0 0.29652099E+03</rscale>
<asrwt>0</asrwt>
<pdfrwt beam="1">  1        3 0.74600158E-01 0.29960203E+03</pdfrwt>
<pdfrwt beam="2">  1       -3 0.40195000E-01 0.29960203E+03</pdfrwt>
<totfact> 0.26697645E+01</totfact>
</mgrwt>
</event>
<event>
 7    1  0.5400401E-006  0.1460331E+03  0.7546771E-02  0.1215259E+00
          1   -1    0    0  501    0  0.00000000000E+00  0.00000000000E+00  0.54330538246E+03  0.54330538246E+03  0.00000000000E+00 0. -1.
         -1   -1    0    0    0  501 -0.00000000000E+00 -0.00000000000E+00 -0.32235299499E+02  0.32235299499E+02  0.00000000000E+00 0.  1.
         23    2    1    2    0    0 -0.55390640706E+02  0.51314118305E+02  0.27014556585E+03  0.30709003849E+03  0.12499761267E+03 0.  0.
          5    1    3    3  502    0 -0.29072123722E+02 -0.23793261459E+02  0.19112845476E+03  0.19484220253E+03  0.47000000000E+01 0.  1.
         -5    1    3    3    0  502 -0.26318516984E+02  0.75107379763E+02  0.79017111095E+02  0.11224783596E+03  0.47000000000E+01 0.  1.
        -11    1    1    2    0    0 -0.16009687131E+02 -0.43586651543E+02  0.87867794429E+02  0.99382370532E+02  0.00000000000E+00 0.  1.
         11    1    1    2    0    0  0.71400327836E+02 -0.77274667613E+01  0.15305672267E+03  0.16906827294E+03  0.00000000000E+00 0. -1.
<mgrwt>
<rscale>  0 0.13857546E+03</rscale>
<asrwt>0</asrwt>
<pdfrwt beam="1">  1        1 0.83585437E-01 0.14603310E+03</pdfrwt>
<pdfrwt beam="2">  1       -1 0.49592772E-02 0.14603310E+03</pdfrwt>
<totfact> 0.69299563E+03</totfact>
</mgrwt>
</event>
<event>
 7    1  0.5400401E-006  0.1407898E+03  0.7546771E-02  0.1223086E+00
         -1   -1    0    0    0  501 -0.00000000000E+00  0.00000000000E+00  0.35146572453E+02  0.35146572453E+02  0.00000000000E+00 0.  1.
          1   -1    0    0  501    0  0.00000000000E+00 -0.00000000000E+00 -0.45807353481E+03  0.45807353481E+03  0.00000000000E+00 0. -1.
         23    2    1    2    0    0 -0.64710938628E+02  0.29545479637E+01 -0.21477770902E+03  0.25680974342E+03  0.12500218035E+03 0.  0.
          5    1    3    3  502    0  0.19184717915E+02  0.29111890855E+02 -0.14502772925E+02  0.38052279999E+02  0.47000000000E+01 0. -1.
         -5    1    3    3    0  502 -0.83895656544E+02 -0.26157342891E+02 -0.20027493610E+03  0.21875746342E+03  0.47000000000E+01 0. -1.
        -11    1    1    2    0    0  0.66132372327E+00  0.35651128482E+02 -0.87192416990E+02  0.94201687307E+02  0.00000000000E+00 0. -1.
         11    1    1    2    0    0  0.64049614905E+02 -0.38605676445E+02 -0.12095683634E+03  0.14220867653E+03  0.00000000000E+00 0.  1.
<mgrwt>
<rscale>  0 0.13298982E+03</rscale>
<asrwt>0</asrwt>
<pdfrwt beam="2">  1        1 0.70472854E-01 0.14078984E+03</pdfrwt>
<pdfrwt beam="1">  1       -1 0.54071648E-02 0.14078984E+03</pdfrwt>
<totfact> 0.76018256E+03</totfact>
</mgrwt>
</event>
<event>
 7    1  0.5400401E-006  0.1690769E+03  0.7546771E-02  0.1195863E+00
         -1   -1    0    0    0  501 -0.00000000000E+00  0.00000000000E+00  0.98791052809E+02  0.98791052809E+02  0.00000000000E+00 0.  1.
          1   -1    0    0  501    0  0.00000000000E+00 -0.00000000000E+00 -0.29562239142E+03  0.29562239142E+03  0.00000000000E+00 0. -1.
         23    2    1    2    0    0 -0.93691566150E+02  0.64686820118E+02 -0.35737993534E+01  0.16911470566E+03  0.12499806944E+03 0.  0.
          5    1    3    3  502    0 -0.58609029085E+02  0.77351872378E+02 -0.50084292673E+02  0.10931082665E+03  0.47000000000E+01 0.  1.
         -5    1    3    3    0  502 -0.35082537066E+02 -0.12665052259E+02  0.46510493319E+02  0.59803879009E+02  0.47000000000E+01 0.  1.
        -11    1    1    2    0    0  0.84692040139E+02 -0.50804470715E+02 -0.15756804844E+03  0.18596108678E+03  0.00000000000E+00 0.  1.
         11    1    1    2    0    0  0.89995260108E+01 -0.13882349404E+02 -0.35689490816E+02  0.39337651786E+02  0.00000000000E+00 0. -1.
<mgrwt>
<rscale>  0 0.15381409E+03</rscale>
<asrwt>0</asrwt>
<pdfrwt beam="2">  1        1 0.45480367E-01 0.16907694E+03</pdfrwt>
<pdfrwt beam="1">  1       -1 0.15198624E-01 0.16907694E+03</pdfrwt>
<totfact> 0.27528286E+03</totfact>
</mgrwt>
</event>
<event>
 7    1  0.5400401E-006  0.1321160E+03  0.7546771E-02  0.1235621E+00
          4   -1    0    0  501    0  0.00000000000E+00  0.00000000000E+00  0.24431583822E+03  0.24431583822E+03  0.00000000000E+00 0. -1.
         -4   -1    0    0    0  501 -0.00000000000E+00 -0.00000000000E+00 -0.58157137816E+02  0.58157137816E+02  0.00000000000E+00 0.  1.
         23    2    1    2    0    0 -0.23433276595E+02 -0.35867580113E+02  0.86327769493E+02  0.15781986964E+03  0.12497610057E+03 0.  0.
          5    1    3    3  502    0 -0.70748186109E+02  0.22448519535E+01  0.41694652602E+02  0.82285352607E+02  0.47000000000E+01 0.  1.
         -5    1    3    3    0  502  0.47314909514E+02 -0.38112432066E+02  0.44633116892E+02  0.75534517036E+02  0.47000000000E+01 0.  1.
        -11    1    1    2    0    0 -0.17463440581E+02  0.10897951538E+02  0.94180968237E+02  0.96404314648E+02  0.00000000000E+00 0. -1.
         11    1    1    2    0    0  0.40896717176E+02  0.24969628575E+02  0.56499626749E+01  0.48248791748E+02  0.00000000000E+00 0.  1.
<mgrwt>
<rscale>  0 0.12464774E+03</rscale>
<asrwt>0</asrwt>
<pdfrwt beam="1">  1        4 0.37587051E-01 0.13211596E+03</pdfrwt>
<pdfrwt beam="2">  1       -4 0.89472521E-02 0.13211596E+03</pdfrwt>
<totfact> 0.10337091E+03</totfact>
</mgrwt>
</event>
<event>
 7    1  0.5400401E-006  0.1685659E+03  0.7546771E-02  0.1183333E+00
          1   -1    0    0  501    0  0.00000000000E+00  0.00000000000E+00  0.54392899240E+02  0.54392899240E+02  0.00000000000E+00 0. -1.
         -1   -1    0    0    0  501 -0.00000000000E+00 -0.00000000000E+00 -0.54556508943E+03  0.54556508943E+03  0.00000000000E+00 0.  1.
         23    2    1    2    0    0 -0.41586735653E+02  0.11546235392E+03 -0.36011287892E+03  0.39761257880E+03  0.11555719579E+03 0.  0.
          5    1    3    3  502    0 -0.67186116180E+02  0.23893196861E+02 -0.18451287283E+03  0.19786851519E+03  0.47000000000E+01 0. -1.
         -5    1    3    3    0  502  0.25599380527E+02  0.91569157055E+02 -0.17560000609E+03  0.19974406360E+03  0.47000000000E+01 0.  1.
        -11    1    1    2    0    0  0.70352142893E+02 -0.84511170798E+02 -0.10835609717E+03  0.15437812602E+03  0.00000000000E+00 0. -1.
         11    1    1    2    0    0 -0.28765407240E+02 -0.30951183119E+02 -0.22703214110E+02  0.47967283861E+02  0.00000000000E+00 0.  1.
<mgrwt>
<rscale>  0 0.16484450E+03</rscale>
<asrwt>0</asrwt>
<pdfrwt beam="1">  1        1 0.83681379E-02 0.16856594E+03</pdfrwt>
<pdfrwt beam="2">  1       -1 0.83933095E-01 0.16856594E+03</pdfrwt>
<totfact> 0.11912022E+03</totfact>
</mgrwt>
</event>
<event>
 7    1  0.5400401E-006  0.1363433E+03  0.7546771E-02  0.1230503E+00
         -2   -1    0    0    0  501 -0.00000000000E+00  0.00000000000E+00  0.11886790591E+03  0.11886790591E+03  0.00000000000E+00 0.  1.
          2   -1    0    0  501    0  0.00000000000E+00 -0.00000000000E+00 -0.15725376117E+03  0.15725376117E+03  0.00000000000E+00 0. -1.
         23    2    1    2    0    0  0.34919288734E+01  0.54338987520E+02  0.42641047532E+02  0.14285569246E+03  0.12499828319E+03 0.  0.
          5    1    3    3  502    0  0.50122932613E+02  0.38222196582E+02  0.63030311733E+02  0.89264521969E+02  0.47000000000E+01 0. -1.
         -5    1    3    3    0  502 -0.46631003740E+02  0.16116790938E+02 -0.20389264201E+02  0.53591170490E+02  0.47000000000E+01 0. -1.
        -11    1    1    2    0    0 -0.13913006184E+02  0.22069898028E+02 -0.85978114620E+01  0.27469519508E+02  0.00000000000E+00 0.  1.
         11    1    1    2    0    0  0.10421077311E+02 -0.76408885548E+02 -0.72429091329E+02  0.10579645511E+03  0.00000000000E+00 0. -1.
<mgrwt>
<rscale>  0 0.12796780E+03</rscale>
<asrwt>0</asrwt>
<pdfrwt beam="2">  1        2 0.24192886E-01 0.13634328E+03</pdfrwt>
<pdfrwt beam="1">  1       -2 0.18287370E-01 0.13634328E+03</pdfrwt>
<totfact> 0.52220009E+03</totfact>
</mgrwt>
</event>
<event>
 6    1  0.5400401E-006  0.1459445E+03  0.7546771E-02  0.1280840E+00
         -2   -1    0    0    0  501 -0.00000000000E+00  0.00000000000E+00  0.26853055294E+02  0.26853055294E+02  0.00000000000E+00 0.  1.
          2   -1    0    0  501    0  0.00000000000E+00 -0.00000000000E+00 -0.29525015473E+03  0.29525015473E+03  0.00000000000E+00 0. -1.
          5    1    1    2  502    0 -0.17406092263E+02  0.14972036019E+02 -0.21061491627E+03  0.21191476320E+03  0.47000000000E+01 0. -1.
         -5    1    1    2    0  502  0.13118863558E+02 -0.43962697513E+02 -0.22454630269E+01  0.46173103187E+02  0.47000000000E+01 0.  1.
        -11    1    1    2    0    0  0.70172998271E+01  0.17601834707E+02 -0.25450268805E+02  0.31729848158E+02  0.00000000000E+00 0.  1.
         11    1    1    2    0    0 -0.27300711227E+01  0.11388826787E+02 -0.30086451336E+02  0.32285495473E+02  0.00000000000E+00 0. -1.
<mgrwt>
<rscale>  0 0.99741563E+02</rscale>
<asrwt>0</asrwt>
<pdfrwt beam="2">  1        2 0.45423099E-01 0.14594453E+03</pdfrwt>
<pdfrwt beam="1">  1       -2 0.41312394E-02 0.14594453E+03</pdfrwt>
<totfact> 0.27258923E+04</totfact>
</mgrwt>
</event>
<event>
 7    1  0.5400401E-006  0.1279465E+03  0.7546771E-02  0.1246144E+00
          3   -1    0    0  501    0  0.00000000000E+00  0.00000000000E+00  0.14022232085E+02  0.14022232085E+02  0.00000000000E+00 0. -1.
         -3   -1    0    0    0  501 -0.00000000000E+00 -0.00000000000E+00 -0.11285154054E+04  0.11285154054E+04  0.00000000000E+00 0.  1.
         23    2    1    2    0    0 -0.24282023118E+02  0.12473006088E+02 -0.89522391212E+03  0.90432083452E+03  0.12500050557E+03 0.  0.
          5    1    3    3  502    0 -0.42214159012E+02  0.53903467783E+02 -0.72182015149E+03  0.72507519621E+03  0.47000000000E+01 0.  1.
         -5    1    3    3    0  502  0.17932135894E+02 -0.41430461695E+02 -0.17340376063E+03  0.17924563832E+03  0.47000000000E+01 0.  1.
        -11    1    1    2    0    0 -0.14854544553E+02  0.27194499597E+02 -0.12431856483E+03  0.12812222236E+03  0.00000000000E+00 0.  1.
         11    1    1    2    0    0  0.39136567670E+02 -0.39667505685E+02 -0.94950696338E+02  0.11009458057E+03  0.00000000000E+00 0. -1.
<mgrwt>
<rscale>  0 0.11817151E+03</rscale>
<asrwt>0</asrwt>
<pdfrwt beam="1">  1        3 0.21572662E-02 0.12794655E+03</pdfrwt>
<pdfrwt beam="2">  1       -3 0.17361778E+00 0.12794655E+03</pdfrwt>
<totfact> 0.46107541E+02</totfact>
</mgrwt>
</event>
<event>
 7    1  0.5400401E-006  0.1301942E+03  0.7546771E-02  0.1240916E+00
          1   -1    0    0  501    0  0.00000000000E+00  0.00000000000E+00  0.12773180979E+03  0.12773180979E+03  0.00000000000E+00 0. -1.
         -1   -1    0    0    0  501 -0.00000000000E+00 -0.00000000000E+00 -0.10528865501E+03  0.10528865501E+03  0.00000000000E+00 0.  1.
         23    2    1    2    0    0  0.34563598222E+02  0.11409151753E+02 -0.73409554254E+01  0.13040094893E+03  0.12500282713E+03 0.  0.
          5    1    3    3  502    0 -0.39936663537E+02  0.18983836814E+02 -0.28034996600E+02  0.52567805633E+02  0.47000000000E+01 0. -1.
         -5    1    3    3    0  502  0.74500261759E+02 -0.75746850618E+01  0.20694041175E+02  0.77833143301E+02  0.47000000000E+01 0. -1.
        -11    1    1    2    0    0 -0.45997079989E+02  0.13015974677E+02  0.49803231835E+02  0.69032665207E+02  0.00000000000E+00 0. -1.
         11    1    1    2    0    0  0.11433481767E+02 -0.24425126430E+02 -0.20019121627E+02  0.33586850658E+02  0.00000000000E+00 0.  1.
<mgrwt>
<rscale>  0 0.12133160E+03</rscale>
<asrwt>0</asrwt>
<pdfrwt beam="1">  1        1 0.19651048E-01 0.13019415E+03</pdfrwt>
<pdfrwt beam="2">  1       -1 0.16198255E-01 0.13019415E+03</pdfrwt>
<totfact> 0.70132675E+03</totfact>
</mgrwt>
</event>
<event>
 7    1  0.5400401E-006  0.2008490E+03  0.7546771E-02  0.1151822E+00
         -1   -1    0    0    0  501 -0.00000000000E+00  0.00000000000E+00  0.89782086282E+02  0.89782086282E+02  0.00000000000E+00 0.  1.
          1   -1    0    0  501    0  0.00000000000E+00 -0.00000000000E+00 -0.42549054749E+03  0.42549054749E+03  0.00000000000E+00 0. -1.
         23    2    1    2    0    0 -0.65541846068E+02 -0.14289432837E+03 -0.14683346288E+03  0.24879788143E+03  0.12500318923E+03 0.  0.
          5    1    3    3  502    0 -0.19109351314E+02 -0.10682186332E+03 -0.15497870426E+03  0.18925265273E+03  0.47000000000E+01 0. -1.
         -5    1    3    3    0  502 -0.46432494754E+02 -0.36072465050E+02  0.81452413865E+01  0.59545228701E+02  0.47000000000E+01 0. -1.
        -11    1    1    2    0    0  0.35571454754E+02  0.36378795770E+02 -0.40267848682E+01  0.51038810443E+02  0.00000000000E+00 0. -1.
         11    1    1    2    0    0  0.29970391314E+02  0.10651553260E+03 -0.18484821346E+03  0.21543594189E+03  0.00000000000E+00 0.  1.
<mgrwt>
<rscale>  0 0.19755041E+03</rscale>
<asrwt>0</asrwt>
<pdfrwt beam="2">  1        1 0.65460084E-01 0.20084900E+03</pdfrwt>
<pdfrwt beam="1">  1       -1 0.13812629E-01 0.20084900E+03</pdfrwt>
<totfact> 0.20317197E+03</totfact>
</mgrwt>
</event>
<event>
 7    1  0.5400401E-006  0.1627297E+03  0.7546771E-02  0.1192156E+00
         -1   -1    0    0    0  501 -0.00000000000E+00  0.00000000000E+00  0.35340939639E+03  0.35340939639E+03  0.00000000000E+00 0.  1.
          1   -1    0    0  501    0  0.00000000000E+00 -0.00000000000E+00 -0.82048332374E+02  0.82048332374E+02  0.00000000000E+00 0. -1.
         23    2    1    2    0    0 -0.10416509574E+03 -0.25135752219E+01  0.24185118537E+03  0.29150119533E+03  0.12499706311E+03 0.  0.
          5    1    3    3  502    0  0.20873950399E+02  0.19575803868E+01  0.10006064306E+03  0.10234146870E+03  0.47000000000E+01 0.  1.
         -5    1    3    3    0  502 -0.12503904614E+03 -0.44711556087E+01  0.14179054231E+03  0.18915972664E+03  0.47000000000E+01 0.  1.
        -11    1    1    2    0    0  0.87416875302E+02  0.21303247979E+02  0.57135788862E+02  0.10658347354E+03  0.00000000000E+00 0.  1.
         11    1    1    2    0    0  0.16748220441E+02 -0.18789672757E+02 -0.27625910218E+02  0.37373059891E+02  0.00000000000E+00 0. -1.
<mgrwt>
<rscale>  0 0.15697388E+03</rscale>
<asrwt>0</asrwt>
<pdfrwt beam="2">  1        1 0.12622821E-01 0.16272969E+03</pdfrwt>
<pdfrwt beam="1">  1       -1 0.54370676E-01 0.16272969E+03</pdfrwt>
<totfact> 0.16183438E+03</totfact>
</mgrwt>
</event>
<event>
 7    1  0.5400401E-006  0.1262303E+03  0.7546771E-02  0.1247781E+00
          4   -1    0    0  501    0  0.00000000000E+00  0.00000000000E+00  0.88763904346E+02  0.88763904346E+02  0.00000000000E+00 0. -1.
         -4   -1    0    0    0  501 -0.00000000000E+00 -0.00000000000E+00 -0.13672774612E+03  0.13672774612E+03  0.00000000000E+00 0.  1.
         23    2    1    2    0    0 -0.17018314841E+02 -0.44624468070E+01 -0.33153738431E+02  0.13051152189E+03  0.12499820200E+03 0.  0.
          5    1    3    3  502    0  0.42157425315E+02 -0.35634931392E+02 -0.30876990881E+02  0.63423776381E+02  0.47000000000E+01 0.  1.
         -5    1    3    3    0  502 -0.59175740156E+02  0.31172484585E+02 -0.22767475498E+01  0.67087745510E+02  0.47000000000E+01 0.  1.
        -11    1    1    2    0    0 -0.23715447025E+01 -0.42515367697E+02 -0.11201304843E+02  0.44030102712E+02  0.00000000000E+00 0.  1.
         11    1    1    2    0    0  0.19389859544E+02  0.46977814504E+02 -0.36087984975E+01  0.50950025862E+02  0.00000000000E+00 0. -1.
<mgrwt>
<rscale>  0 0.11720460E+03</rscale>
<asrwt>0</asrwt>
<pdfrwt beam="1">  1        4 0.13655985E-01 0.12623029E+03</pdfrwt>
<pdfrwt beam="2">  1       -4 0.21035038E-01 0.12623029E+03</pdfrwt>
<totfact> 0.14813005E+03</totfact>
</mgrwt>
</event>
<event>
 7    1  0.5400401E-006  0.2211680E+03  0.7546771E-02  0.1136317E+00
          1   -1    0    0  501    0  0.00000000000E+00  0.00000000000E+00  0.56764480241E+03  0.56764480241E+03  0.00000000000E+00 0. -1.
         -1   -1    0    0    0  501 -0.00000000000E+00 -0.00000000000E+00 -0.80263641380E+02  0.80263641380E+02  0.00000000000E+00 0.  1.
         23    2    1    2    0    0  0.17201266274E+03 -0.60846781959E+02  0.22496236024E+03  0.31547324095E+03  0.12499846083E+03 0.  0.
          5    1    3    3  502    0  0.11757564624E+03 -0.98991204743E+02  0.16865638312E+03  0.22823311936E+03  0.47000000000E+01 0. -1.
         -5    1    3    3    0  502  0.54437016507E+02  0.38144422784E+02  0.56305977119E+02  0.87240121590E+02  0.47000000000E+01 0. -1.
        -11    1    1    2    0    0 -0.10874194051E+03  0.25844581633E+02  0.83680467765E+02  0.13962511490E+03  0.00000000000E+00 0.  1.
         11    1    1    2    0    0 -0.63270722240E+02  0.35002200326E+02  0.17873833302E+03  0.19281008794E+03  0.00000000000E+00 0. -1.
<mgrwt>
<rscale>  0 0.21676694E+03</rscale>
<asrwt>0</asrwt>
<pdfrwt beam="1">  1        1 0.87329967E-01 0.22116804E+03</pdfrwt>
<pdfrwt beam="2">  1       -1 0.12348253E-01 0.22116804E+03</pdfrwt>
<totfact> 0.16579136E+03</totfact>
</mgrwt>
</event>
<event>
 7    1  0.5400401E-006  0.1905264E+03  0.7546771E-02  0.1162827E+00
          1   -1    0    0  501    0  0.00000000000E+00  0.00000000000E+00  0.14156116232E+03  0.14156116232E+03  0.00000000000E+00 0. -1.
         -1   -1    0    0    0  501 -0.00000000000E+00 -0.00000000000E+00 -0.23628306959E+03  0.23628306959E+03  0.00000000000E+00 0.  1.
         23    2    1    2    0    0  0.78162967313E+02 -0.12068409307E+03 -0.81075723288E+02  0.20705938385E+03  0.12500486293E+03 0.  0.
          5    1    3    3  502    0  0.17455086238E+02 -0.10628882993E+02 -0.78504260569E+02  0.81256766590E+02  0.47000000000E+01 0.  1.
         -5    1    3    3    0  502  0.60707881076E+02 -0.11005521007E+03 -0.25714627188E+01  0.12580261726E+03  0.47000000000E+01 0.  1.
        -11    1    1    2    0    0 -0.75534959554E+02  0.13379106878E+03 -0.29581455839E+01  0.15366955075E+03  0.00000000000E+00 0. -1.
         11    1    1    2    0    0 -0.26280077590E+01 -0.13106975716E+02 -0.10688038404E+02  0.17115297314E+02  0.00000000000E+00 0.  1.
<mgrwt>
<rscale>  0 0.18523840E+03</rscale>
<asrwt>0</asrwt>
<pdfrwt beam="1">  1        1 0.21778641E-01 0.19052642E+03</pdfrwt>
<pdfrwt beam="2">  1       -1 0.36351241E-01 0.19052642E+03</pdfrwt>
<totfact> 0.16546958E+03</totfact>
</mgrwt>
</event>
<event>
 7    1  0.5400401E-006  0.1242872E+03  0.7546771E-02  0.1249983E+00
          2   -1    0    0  501    0  0.00000000000E+00  0.00000000000E+00  0.13606397033E+03  0.13606397033E+03  0.00000000000E+00 0. -1.
         -2   -1    0    0    0  501 -0.00000000000E+00 -0.00000000000E+00 -0.64216727564E+03  0.64216727564E+03  0.00000000000E+00 0.  1.
         23    2    1    2    0    0 -0.94170314129E+01  0.88512418881E+01 -0.61896404191E+03  0.63131908467E+03  0.12361341564E+03 0.  0.
          5    1    3    3  502    0 -0.50299226351E+02 -0.37043844580E+02 -0.31184236413E+03  0.31807233243E+03  0.47000000000E+01 0. -1.
         -5    1    3    3    0  502  0.40882194938E+02  0.45895086468E+02 -0.30712167778E+03  0.31324675224E+03  0.47000000000E+01 0.  1.
        -11    1    1    2    0    0  0.37059782273E+01 -0.45420150751E+02  0.95945207244E+02  0.10621773469E+03  0.00000000000E+00 0. -1.
         11    1    1    2    0    0  0.57110531856E+01  0.36568908863E+02  0.16915529363E+02  0.40694426615E+02  0.00000000000E+00 0.  1.
<mgrwt>
<rscale>  0 0.11592067E+03</rscale>
<asrwt>0</asrwt>
<pdfrwt beam="1">  1        2 0.20932918E-01 0.12428717E+03</pdfrwt>
<pdfrwt beam="2">  1       -2 0.98794967E-01 0.12428717E+03</pdfrwt>
<totfact> 0.23336845E+02</totfact>
</mgrwt>
</event>
<event>
 7    1  0.5400401E-006  0.1683951E+03  0.7546771E-02  0.1186795E+00
         -2   -1    0    0    0  501 -0.00000000000E+00  0.00000000000E+00  0.59470686144E+02  0.59470686144E+02  0.00000000000E+00 0.  1.
          2   -1    0    0  501    0  0.00000000000E+00 -0.00000000000E+00 -0.49515724577E+03  0.49515724577E+03  0.00000000000E+00 0. -1.
         23    2    1    2    0    0  0.95755183101E+02 -0.59683233230E+02 -0.11637814259E+03  0.20469676615E+03  0.12500300228E+03 0.  0.
          5    1    3    3  502    0  0.49319246879E+02 -0.51159805194E+02  0.79159677059E+01  0.71655190495E+02  0.47000000000E+01 0. -1.
         -5    1    3    3    0  502  0.46435936223E+02 -0.85234280365E+01 -0.12429411030E+03  0.13304157566E+03  0.47000000000E+01 0. -1.
        -11    1    1    2    0    0 -0.25668364550E+02  0.51866678773E+02 -0.22408749901E+03  0.23143946189E+03  0.00000000000E+00 0. -1.
         11    1    1    2    0    0 -0.70086818551E+02  0.78165544572E+01 -0.95220918025E+02  0.11849170388E+03  0.00000000000E+00 0.  1.
<mgrwt>
<rscale>  0 0.16169635E+03</rscale>
<asrwt>0</asrwt>
<pdfrwt beam="2">  1        2 0.76178036E-01 0.16839505E+03</pdfrwt>
<pdfrwt beam="1">  1       -2 0.91493365E-02 0.16839505E+03</pdfrwt>
<totfact> 0.46950191E+03</totfact>
</mgrwt>
</event>
<event>
 6    1  0.5400401E-006  0.1383045E+03  0.7546771E-02  0.1230922E+00
         -1   -1    0    0    0  501 -0.00000000000E+00  0.00000000000E+00  0.28140037465E+02  0.28140037465E+02  0.00000000000E+00 0.  1.
          1   -1    0    0  501    0  0.00000000000E+00 -0.00000000000E+00 -0.50931964504E+03  0.50931964504E+03  0.00000000000E+00 0. -1.
          5    1    1    2  502    0  0.41988686364E+02 -0.58603469775E+02 -0.20510616196E+03  0.21745814339E+03  0.47000000000E+01 0. -1.
         -5    1    1    2    0  502  0.21440060335E+01  0.53593825571E+02 -0.54038007822E+02  0.76282967894E+02  0.47000000000E+01 0.  1.
        -11    1    1    2    0    0  0.18478463472E+02 -0.24939646665E+02 -0.65136444681E+02  0.72153974345E+02  0.00000000000E+00 0. -1.
         11    1    1    2    0    0 -0.62611155869E+02  0.29949290868E+02 -0.15689899312E+03  0.17156459688E+03  0.00000000000E+00 0.  1.
<mgrwt>
<rscale>  0 0.12769153E+03</rscale>
<asrwt>0</asrwt>
<pdfrwt beam="2">  1        1 0.78356865E-01 0.13830452E+03</pdfrwt>
<pdfrwt beam="1">  1       -1 0.43292367E-02 0.13830452E+03</pdfrwt>
<totfact> 0.91931515E+03</totfact>
</mgrwt>
</event>
<event>
 6    1  0.5400401E-006  0.3909682E+03  0.7546771E-02  0.1046953E+00
         -2   -1    0    0    0  501 -0.00000000000E+00  0.00000000000E+00  0.85037453476E+03  0.85037453476E+03  0.00000000000E+00 0.  1.
          2   -1    0    0  501    0  0.00000000000E+00 -0.00000000000E+00 -0.44937885374E+02  0.44937885374E+02  0.00000000000E+00 0. -1.
          5    1    1    2  502    0 -0.40710579360E+01  0.22873361776E+00 -0.10936543513E+02  0.12582679198E+02  0.47000000000E+01 0. -1.
         -5    1    1    2    0  502 -0.88958957788E+01 -0.29837543427E+02  0.76812476808E+03  0.76876990400E+03  0.47000000000E+01 0.  1.
        -11    1    1    2    0    0 -0.27039754841E+02  0.42831883186E+02  0.10139640970E+01  0.50663070202E+02  0.00000000000E+00 0. -1.
         11    1    1    2    0    0  0.40006708556E+02 -0.13223073377E+02  0.47234460721E+02  0.63296766731E+02  0.00000000000E+00 0.  1.
<mgrwt>
<rscale>  0 0.39096820E+03</rscale>
<asrwt>0</asrwt>
<pdfrwt beam="2">  1        2 0.69135214E-02 0.39096820E+03</pdfrwt>
<pdfrwt beam="1">  1       -2 0.13082684E+00 0.39096820E+03</pdfrwt>
<totfact> 0.46295159E+02</totfact>
</mgrwt>
</event>
<event>
 7    1  0.5400401E-006  0.1389526E+03  0.7546771E-02  0.1225022E+00
          2   -1    0    0  501    0  0.00000000000E+00  0.00000000000E+00  0.66433859884E+03  0.66433859884E+03  0.00000000000E+00 0. -1.
         -2   -1    0    0    0  501 -0.00000000000E+00 -0.00000000000E+00 -0.34797076608E+02  0.34797076608E+02  0.00000000000E+00 0.  1.
         23    2    1    2    0    0  0.46022005348E+02  0.39551733949E+02  0.14114004510E+03  0.19806145804E+03  0.12500185677E+03 0.  0.
          5    1    3    3  502    0 -0.42229265818E+02  0.84031880384E+01  0.29986718404E+02  0.52680335433E+02  0.47000000000E+01 0.  1.
         -5    1    3    3    0  502  0.88251271166E+02  0.31148545911E+02  0.11115332670E+03  0.14538112261E+03  0.47000000000E+01 0.  1.
        -11    1    1    2    0    0  0.63831302535E+01  0.19772862932E+02  0.34123845331E+02  0.39951811981E+02  0.00000000000E+00 0.  1.
         11    1    1    2    0    0 -0.52405135601E+02 -0.59324596881E+02  0.45427763180E+03  0.46112240543E+03  0.00000000000E+00 0. -1.
<mgrwt>
<rscale>  0 0.13165413E+03</rscale>
<asrwt>0</asrwt>
<pdfrwt beam="1">  1        2 0.10220593E+00 0.13895261E+03</pdfrwt>
<pdfrwt beam="2">  1       -2 0.53533969E-02 0.13895261E+03</pdfrwt>
<totfact> 0.75886333E+03</totfact>
</mgrwt>
</event>
<event>
 7    1  0.5400401E-006  0.1413219E+03  0.7546771E-02  0.1222367E+00
          1   -1    0    0  501    0  0.00000000000E+00  0.00000000000E+00  0.37410751270E+03  0.37410751270E+03  0.00000000000E+00 0. -1.
         -1   -1    0    0    0  501 -0.00000000000E+00 -0.00000000000E+00 -0.45765431433E+02  0.45765431433E+02  0.00000000000E+00 0.  1.
         23    2    1    2    0    0  0.34688148992E+02  0.56057842852E+02  0.13091997361E+03  0.19264456307E+03  0.12500455498E+03 0.  0.
          5    1    3    3  502    0  0.51345913873E+02  0.31650631567E+02  0.14679445648E+03  0.15877300716E+03  0.47000000000E+01 0.  1.
         -5    1    3    3    0  502 -0.16657764881E+02  0.24407211285E+02 -0.15874482869E+02  0.33871555912E+02  0.47000000000E+01 0.  1.
        -11    1    1    2    0    0 -0.45871399119E+02 -0.33897825193E+02  0.19395218306E+03  0.20216502448E+03  0.00000000000E+00 0. -1.
         11    1    1    2    0    0  0.11183250127E+02 -0.22160017659E+02  0.34699245921E+01  0.25063356573E+02  0.00000000000E+00 0.  1.
<mgrwt>
<rscale>  0 0.13349026E+03</rscale>
<asrwt>0</asrwt>
<pdfrwt beam="1">  1        1 0.57555000E-01 0.14132193E+03</pdfrwt>
<pdfrwt beam="2">  1       -1 0.70408358E-02 0.14132193E+03</pdfrwt>
<totfact> 0.66280070E+03</totfact>
</mgrwt>
</event>
<event>
 7    1  0.5400401E-006  0.1453325E+03  0.7546771E-02  0.1216430E+00
          1   -1    0    0  501    0  0.00000000000E+00  0.00000000000E+00  0.55975871451E+03  0.55975871451E+03  0.00000000000E+00 0. -1.
         -1   -1    0    0    0  501 -0.00000000000E+00 -0.00000000000E+00 -0.33545740515E+02  0.33545740515E+02  0.00000000000E+00 0.  1.
         23    2    1    2    0    0  0.36206540565E+02  0.64693154367E+02  0.20427248704E+03  0.25069657712E+03  0.12500162806E+03 0.  0.
          5    1    3    3  502    0  0.62649557606E+02  0.69300000029E+02  0.78823300860E+02  0.12232195155E+03  0.47000000000E+01 0.  1.
         -5    1    3    3    0  502 -0.26443017041E+02 -0.46068456628E+01  0.12544918619E+03  0.12837462558E+03  0.47000000000E+01 0.  1.
        -11    1    1    2    0    0 -0.39342753479E+02  0.78994881499E+01  0.73265361774E+02  0.83534827469E+02  0.00000000000E+00 0.  1.
         11    1    1    2    0    0  0.31362129139E+01 -0.72592642517E+02  0.24867512517E+03  0.25907305043E+03  0.00000000000E+00 0. -1.
<mgrwt>
<rscale>  0 0.13772047E+03</rscale>
<asrwt>0</asrwt>
<pdfrwt beam="1">  1        1 0.86116718E-01 0.14533246E+03</pdfrwt>
<pdfrwt beam="2">  1       -1 0.51608836E-02 0.14533246E+03</pdfrwt>
<totfact> 0.62755318E+03</totfact>
</mgrwt>
</event>
<event>
 7    1  0.5400401E-006  0.1516620E+03  0.7546771E-02  0.1207304E+00
          1   -1    0    0  501    0  0.00000000000E+00  0.00000000000E+00  0.16421842000E+03  0.16421842000E+03  0.00000000000E+00 0. -1.
         -1   -1    0    0    0  501 -0.00000000000E+00 -0.00000000000E+00 -0.11832495146E+03  0.11832495146E+03  0.00000000000E+00 0.  1.
         23    2    1    2    0    0 -0.28645669963E+02 -0.80950632005E+02  0.87416404926E+01  0.15191369241E+03  0.12501109724E+03 0.  0.
          5    1    3    3  502    0 -0.54217656196E+02 -0.10242374018E+03  0.16929116916E+02  0.11721289091E+03  0.47000000000E+01 0.  1.
         -5    1    3    3    0  502  0.25571986233E+02  0.21473108174E+02 -0.81874764236E+01  0.34700801500E+02  0.47000000000E+01 0.  1.
        -11    1    1    2    0    0  0.18040227082E+02  0.48282701167E+02 -0.26758532776E+02  0.58074849130E+02  0.00000000000E+00 0.  1.
         11    1    1    2    0    0  0.10605442880E+02  0.32667930838E+02  0.63910360820E+02  0.72554829916E+02  0.00000000000E+00 0. -1.
<mgrwt>
<rscale>  0 0.14457364E+03</rscale>
<asrwt>0</asrwt>
<pdfrwt beam="1">  1        1 0.25264372E-01 0.15166197E+03</pdfrwt>
<pdfrwt beam="2">  1       -1 0.18203839E-01 0.15166197E+03</pdfrwt>
<totfact> 0.42832399E+03</totfact>
</mgrwt>
</event>
<event>
 7    1  0.5400401E-006  0.1451684E+03  0.7546771E-02  0.1216959E+00
          1   -1    0    0  501    0  0.00000000000E+00  0.00000000000E+00  0.27323594501E+03  0.27323594501E+03  0.00000000000E+00 0.  1.
         -1   -1    0    0    0  501 -0.00000000000E+00 -0.00000000000E+00 -0.67610398194E+02  0.67610398194E+02  0.00000000000E+00 0. -1.
         23    2    1    2    0    0 -0.19555624209E+02  0.71184105229E+02  0.66935860818E+02  0.15985707637E+03  0.12499710447E+03 0.  0.
          5    1    3    3  502    0  0.86122205257E+01  0.97775387356E+02  0.22669170158E+02  0.10084730036E+03  0.47000000000E+01 0. -1.
         -5    1    3    3    0  502 -0.28167844735E+02 -0.26591282128E+02  0.44266690660E+02  0.59009776005E+02  0.47000000000E+01 0. -1.
        -11    1    1    2    0    0  0.25365619999E+02 -0.84346464172E+02  0.74966660813E+02  0.11566218453E+03  0.00000000000E+00 0. -1.
         11    1    1    2    0    0 -0.58099957898E+01  0.13162358943E+02  0.63723025189E+02  0.65327082311E+02  0.00000000000E+00 0.  1.
<mgrwt>
<rscale>  0 0.13733632E+03</rscale>
<asrwt>0</asrwt>
<pdfrwt beam="1">  1        1 0.42036299E-01 0.14516844E+03</pdfrwt>
<pdfrwt beam="2">  1       -1 0.10401600E-01 0.14516844E+03</pdfrwt>
<totfact> 0.54318778E+03</totfact>
</mgrwt>
</event>
<event>
 7    1  0.5400401E-006  0.1648321E+03  0.7546771E-02  0.1188708E+00
          1   -1    0    0  501    0  0.00000000000E+00  0.00000000000E+00  0.23778237985E+03  0.23778237985E+03  0.00000000000E+00 0. -1.
         -1   -1    0    0    0  501 -0.00000000000E+00 -0.00000000000E+00 -0.10413163074E+03  0.10413163074E+03  0.00000000000E+00 0.  1.
         23    2    1    2    0    0  0.64391895713E+02  0.95683608820E+02  0.45051070660E+02  0.17087775548E+03  0.11776221431E+03 0.  0.
          5    1    3    3  502    0  0.18848272178E+02  0.11310976617E+03  0.40395474647E+02  0.12166741938E+03  0.47000000000E+01 0. -1.
         -5    1    3    3    0  502  0.45543623535E+02 -0.17426157348E+02  0.46555960134E+01  0.49210336098E+02  0.47000000000E+01 0.  1.
        -11    1    1    2    0    0 -0.61811771828E+02 -0.54193823635E+02  0.98507449036E+02  0.12830192194E+03  0.00000000000E+00 0.  1.
         11    1    1    2    0    0 -0.25801238852E+01 -0.41489785185E+02 -0.99077705903E+01  0.42734333177E+02  0.00000000000E+00 0. -1.
<mgrwt>
<rscale>  0 0.15998964E+03</rscale>
<asrwt>0</asrwt>
<pdfrwt beam="1">  1        1 0.36581905E-01 0.16483206E+03</pdfrwt>
<pdfrwt beam="2">  1       -1 0.16020251E-01 0.16483206E+03</pdfrwt>
<totfact> 0.33178190E+03</totfact>
</mgrwt>
</event>
<event>
 7    1  0.5400401E-006  0.1423475E+03  0.7546771E-02  0.1220383E+00
         -2   -1    0    0    0  501 -0.00000000000E+00  0.00000000000E+00  0.10393474791E+03  0.10393474791E+03  0.00000000000E+00 0.  1.
          2   -1    0    0  501    0  0.00000000000E+00 -0.00000000000E+00 -0.16943974034E+03  0.16943974034E+03  0.00000000000E+00 0. -1.
         23    2    1    2    0    0 -0.21997362176E+02  0.64433534169E+02 -0.23161213851E+01  0.14236638861E+03  0.12500903935E+03 0.  0.
          5    1    3    3  502    0 -0.35268568759E+02 -0.28780473614E+01 -0.47991440421E+02  0.59811566211E+02  0.47000000000E+01 0.  1.
         -5    1    3    3    0  502  0.13271206583E+02  0.67311581531E+02  0.45675319035E+02  0.82554822399E+02  0.47000000000E+01 0.  1.
        -11    1    1    2    0    0  0.91245643753E+01 -0.70271059273E+01  0.23540873215E+02  0.26207071650E+02  0.00000000000E+00 0.  1.
         11    1    1    2    0    0  0.12872797801E+02 -0.57406428242E+02 -0.86729744260E+02  0.10480102798E+03  0.00000000000E+00 0. -1.
<mgrwt>
<rscale>  0 0.13488446E+03</rscale>
<asrwt>0</asrwt>
<pdfrwt beam="2">  1        2 0.26067652E-01 0.14234755E+03</pdfrwt>
<pdfrwt beam="1">  1       -2 0.15989961E-01 0.14234755E+03</pdfrwt>
<totfact> 0.60258697E+03</totfact>
</mgrwt>
</event>
<event>
 7    1  0.5400401E-006  0.1619254E+03  0.7546771E-02  0.1193801E+00
         -1   -1    0    0    0  501 -0.00000000000E+00  0.00000000000E+00  0.46875491434E+02  0.46875491434E+02  0.00000000000E+00 0.  1.
          1   -1    0    0  501    0  0.00000000000E+00 -0.00000000000E+00 -0.48161152429E+03  0.48161152429E+03  0.00000000000E+00 0. -1.
         23    2    1    2    0    0 -0.10046240170E+03 -0.22413234437E+02 -0.21740440788E+03  0.27108029485E+03  0.12499920982E+03 0.  0.
          5    1    3    3  502    0 -0.89510180653E+02 -0.68057480916E+02 -0.13157980108E+03  0.17314510447E+03  0.47000000000E+01 0. -1.
         -5    1    3    3    0  502 -0.10952221048E+02  0.45644246480E+02 -0.85824606799E+02  0.97935190380E+02  0.47000000000E+01 0. -1.
        -11    1    1    2    0    0  0.79599932624E+02 -0.26328976342E+02 -0.14836374422E+03  0.17041468501E+03  0.00000000000E+00 0.  1.
         11    1    1    2    0    0  0.20862469077E+02  0.48742210778E+02 -0.68967880757E+02  0.86992035864E+02  0.00000000000E+00 0. -1.
<mgrwt>
<rscale>  0 0.15556161E+03</rscale>
<asrwt>0</asrwt>
<pdfrwt beam="2">  1        1 0.74094079E-01 0.16192544E+03</pdfrwt>
<pdfrwt beam="1">  1       -1 0.72116142E-02 0.16192544E+03</pdfrwt>
<totfact> 0.46665129E+03</totfact>
</mgrwt>
</event>
<event>
 7    1  0.5400401E-006  0.1364781E+03  0.7546771E-02  0.1230142E+00
         -3   -1    0    0    0  501 -0.00000000000E+00  0.00000000000E+00  0.26746651188E+03  0.26746651188E+03  0.00000000000E+00 0.  1.
          3   -1    0    0  501    0  0.00000000000E+00 -0.00000000000E+00 -0.10763829716E+03  0.10763829716E+03  0.00000000000E+00 0. -1.
         23    2    1    2    0    0 -0.55854193595E+02 -0.13560358375E+02  0.21553558808E+03  0.25511146016E+03  0.12378486627E+03 0.  0.
          5    1    3    3  502    0 -0.40517858725E+02 -0.65767430319E+01  0.25354487424E+01  0.41394068716E+02  0.47000000000E+01 0. -1.
         -5    1    3    3    0  502 -0.15336334870E+02 -0.69836153431E+01  0.21300013933E+03  0.21371739145E+03  0.47000000000E+01 0.  1.
        -11    1    1    2    0    0  0.68479852030E+02  0.33785384702E+01 -0.70283157584E+02  0.98186694089E+02  0.00000000000E+00 0. -1.
         11    1    1    2    0    0 -0.12625658435E+02  0.10181819905E+02  0.14575784220E+02  0.21806654790E+02  0.00000000000E+00 0.  1.
<mgrwt>
<rscale>  0 0.12820602E+03</rscale>
<asrwt>0</asrwt>
<pdfrwt beam="2">  1        3 0.16559738E-01 0.13647808E+03</pdfrwt>
<pdfrwt beam="1">  1       -3 0.41148694E-01 0.13647808E+03</pdfrwt>
<totfact> 0.42720920E+02</totfact>
</mgrwt>
</event>
<event>
 7    1  0.5400401E-006  0.1378529E+03  0.7546771E-02  0.1228157E+00
          2   -1    0    0  501    0  0.00000000000E+00  0.00000000000E+00  0.56664005646E+03  0.56664005646E+03  0.00000000000E+00 0. -1.
         -2   -1    0    0    0  501 -0.00000000000E+00 -0.00000000000E+00 -0.27491316773E+02  0.27491316773E+02  0.00000000000E+00 0.  1.
         23    2    1    2    0    0  0.76098282631E+01  0.57625402452E+02  0.24724452689E+03  0.28307821358E+03  0.12499928973E+03 0.  0.
          5    1    3    3  502    0  0.59408456208E+02  0.23317612238E+01  0.83697891900E+02  0.10277270498E+03  0.47000000000E+01 0. -1.
         -5    1    3    3    0  502 -0.51798627945E+02  0.55293641228E+02  0.16354663499E+03  0.18030550860E+03  0.47000000000E+01 0. -1.
        -11    1    1    2    0    0 -0.66071913637E+01  0.22117316975E+02  0.11062411511E+03  0.11300674994E+03  0.00000000000E+00 0. -1.
         11    1    1    2    0    0 -0.10026368994E+01 -0.79742719427E+02  0.18128009769E+03  0.19804640971E+03  0.00000000000E+00 0.  1.
<mgrwt>
<rscale>  0 0.12952865E+03</rscale>
<asrwt>0</asrwt>
<pdfrwt beam="1">  1        2 0.87175385E-01 0.13785289E+03</pdfrwt>
<pdfrwt beam="2">  1       -2 0.42294338E-02 0.13785289E+03</pdfrwt>
<totfact> 0.12956170E+04</totfact>
</mgrwt>
</event>
<event>
 7    1  0.5400401E-006  0.2387797E+03  0.7546771E-02  0.1123330E+00
         -1   -1    0    0    0  501 -0.00000000000E+00  0.00000000000E+00  0.51503095485E+02  0.51503095485E+02  0.00000000000E+00 0.  1.
          1   -1    0    0  501    0  0.00000000000E+00 -0.00000000000E+00 -0.10357271180E+04  0.10357271180E+04  0.00000000000E+00 0. -1.
         23    2    1    2    0    0 -0.16502607767E+03 -0.11898051276E+03 -0.51364429001E+03  0.56643288031E+03  0.12500313002E+03 0.  0.
          5    1    3    3  502    0 -0.53443757480E+02 -0.10983524726E+03 -0.32216381374E+03  0.34457456325E+03  0.47000000000E+01 0. -1.
         -5    1    3    3    0  502 -0.11158232019E+03 -0.91452655075E+01 -0.19148047626E+03  0.22185831706E+03  0.47000000000E+01 0. -1.
        -11    1    1    2    0    0  0.86552074433E+02  0.10533481695E+03 -0.22994551580E+03  0.26732307324E+03  0.00000000000E+00 0.  1.
         11    1    1    2    0    0  0.78474003233E+02  0.13645695816E+02 -0.24063421670E+03  0.25347425992E+03  0.00000000000E+00 0. -1.
<mgrwt>
<rscale>  0 0.23476585E+03</rscale>
<asrwt>0</asrwt>
<pdfrwt beam="2">  1        1 0.15934264E+00 0.23877971E+03</pdfrwt>
<pdfrwt beam="1">  1       -1 0.79235529E-02 0.23877971E+03</pdfrwt>
<totfact> 0.13152872E+03</totfact>
</mgrwt>
</event>
<event>
 7    1  0.5400401E-006  0.1368746E+03  0.7546771E-02  0.1228912E+00
          1   -1    0    0  501    0  0.00000000000E+00  0.00000000000E+00  0.13513925494E+03  0.13513925494E+03  0.00000000000E+00 0. -1.
         -1   -1    0    0    0  501 -0.00000000000E+00 -0.00000000000E+00 -0.15084527138E+03  0.15084527138E+03  0.00000000000E+00 0.  1.
         23    2    1    2    0    0 -0.55465248493E+02 -0.55981912929E+01 -0.81656264067E+02  0.15938131411E+03  0.12500769692E+03 0.  0.
          5    1    3    3  502    0  0.14037688539E+02  0.46903321017E+02 -0.35788794837E+02  0.60826853098E+02  0.47000000000E+01 0.  1.
         -5    1    3    3    0  502 -0.69502937033E+02 -0.52501512309E+02 -0.45867469230E+02  0.98554461008E+02  0.47000000000E+01 0.  1.
        -11    1    1    2    0    0  0.67936602584E+02  0.83287349178E+01  0.81536096629E+02  0.10645602308E+03  0.00000000000E+00 0. -1.
         11    1    1    2    0    0 -0.12471354090E+02 -0.27305436249E+01 -0.15585849000E+02  0.20147189144E+02  0.00000000000E+00 0.  1.
<mgrwt>
<rscale>  0 0.12902313E+03</rscale>
<asrwt>0</asrwt>
<pdfrwt beam="1">  1        1 0.20790655E-01 0.13687461E+03</pdfrwt>
<pdfrwt beam="2">  1       -1 0.23206965E-01 0.13687461E+03</pdfrwt>
<totfact> 0.36832416E+03</totfact>
</mgrwt>
</event>
<event>
 7    1  0.5400401E-006  0.1341889E+03  0.7546771E-02  0.1234419E+00
         -1   -1    0    0    0  501 -0.00000000000E+00  0.00000000000E+00  0.41340581765E+03  0.41340581765E+03  0.00000000000E+00 0.  1.
          1   -1    0    0  501    0  0.00000000000E+00 -0.00000000000E+00 -0.55119907712E+02  0.55119907712E+02  0.00000000000E+00 0. -1.
         23    2    1    2    0    0  0.40789511932E+02 -0.26805965874E+02  0.33864713698E+03  0.36426437521E+03  0.12499723028E+03 0.  0.
          5    1    3    3  502    0 -0.22375777730E+02 -0.52028467309E+02  0.22195997663E+03  0.22911996435E+03  0.47000000000E+01 0.  1.
         -5    1    3    3    0  502  0.63165289662E+02  0.25222501435E+02  0.11668716034E+03  0.13514441086E+03  0.47000000000E+01 0.  1.
        -11    1    1    2    0    0  0.86813943887E+01 -0.66435194025E+01  0.39767197146E+02  0.41242368111E+02  0.00000000000E+00 0.  1.
         11    1    1    2    0    0 -0.49470906321E+02  0.33449485276E+02 -0.20128424181E+02  0.63018982041E+02  0.00000000000E+00 0. -1.
<mgrwt>
<rscale>  0 0.12541720E+03</rscale>
<asrwt>0</asrwt>
<pdfrwt beam="2">  1        1 0.84799861E-02 0.13418887E+03</pdfrwt>
<pdfrwt beam="1">  1       -1 0.63600893E-01 0.13418887E+03</pdfrwt>
<totfact> 0.20228463E+03</totfact>
</mgrwt>
</event>
<event>
 7    1  0.5400401E-006  0.1487351E+03  0.7546771E-02  0.1211331E+00
          2   -1    0    0  501    0  0.00000000000E+00  0.00000000000E+00  0.73256749322E+03  0.73256749322E+03  0.00000000000E+00 0. -1.
         -2   -1    0    0    0  501 -0.00000000000E+00 -0.00000000000E+00 -0.29205418017E+02  0.29205418017E+02  0.00000000000E+00 0.  1.
         23    2    1    2    0    0  0.73968522798E+02  0.32025530093E+02  0.23736091030E+03  0.28011130135E+03  0.12500064984E+03 0.  0.
          5    1    3    3  502    0 -0.29540615540E+02 -0.10900822725E+02  0.86165645256E+02  0.91859045962E+02  0.47000000000E+01 0.  1.
         -5    1    3    3    0  502  0.10350913834E+03  0.42926352817E+02  0.15119526505E+03  0.18825225539E+03  0.47000000000E+01 0.  1.
        -11    1    1    2    0    0  0.83526929864E+01  0.20557510766E+02  0.57230014587E+02  0.61381212912E+02  0.00000000000E+00 0.  1.
         11    1    1    2    0    0 -0.82321215785E+02 -0.52583040859E+02  0.40877115031E+03  0.42028039697E+03  0.00000000000E+00 0. -1.
<mgrwt>
<rscale>  0 0.14149543E+03</rscale>
<asrwt>0</asrwt>
<pdfrwt beam="1">  1        2 0.11270268E+00 0.14873513E+03</pdfrwt>
<pdfrwt beam="2">  1       -2 0.44931418E-02 0.14873513E+03</pdfrwt>
<totfact> 0.88236520E+03</totfact>
</mgrwt>
</event>
<event>
 7    1  0.5400401E-006  0.1418682E+03  0.7546771E-02  0.1221327E+00
          1   -1    0    0  501    0  0.00000000000E+00  0.00000000000E+00  0.48537695660E+03  0.48537695660E+03  0.00000000000E+00 0. -1.
         -1   -1    0    0    0  501 -0.00000000000E+00 -0.00000000000E+00 -0.34018856774E+02  0.34018856774E+02  0.00000000000E+00 0.  1.
         23    2    1    2    0    0 -0.54789202289E+02  0.38747050062E+02  0.22271302648E+03  0.26405999351E+03  0.12499358958E+03 0.  0.
          5    1    3    3  502    0  0.98089776488E+01  0.86668873010E+01 -0.12219655596E+02  0.18513264458E+02  0.47000000000E+01 0. -1.
         -5    1    3    3    0  502 -0.64598179938E+02  0.30080162761E+02  0.23493268207E+03  0.24554672905E+03  0.47000000000E+01 0. -1.
        -11    1    1    2    0    0  0.83625006276E+01 -0.11463302904E+02 -0.53950390277E+01  0.15180420822E+02  0.00000000000E+00 0.  1.
         11    1    1    2    0    0  0.46426701662E+02 -0.27283747158E+02  0.23404011237E+03  0.24015539904E+03  0.00000000000E+00 0. -1.
<mgrwt>
<rscale>  0 0.13421851E+03</rscale>
<asrwt>0</asrwt>
<pdfrwt beam="1">  1        1 0.74673373E-01 0.14186821E+03</pdfrwt>
<pdfrwt beam="2">  1       -1 0.52336706E-02 0.14186821E+03</pdfrwt>
<totfact> 0.74072510E+03</totfact>
</mgrwt>
</event>
<event>
 7    1  0.5400401E-006  0.1305221E+03  0.7546771E-02  0.1239876E+00
         -2   -1    0    0    0  501 -0.00000000000E+00  0.00000000000E+00  0.70069902297E+02  0.70069902297E+02  0.00000000000E+00 0. -1.
          2   -1    0    0  501    0  0.00000000000E+00 -0.00000000000E+00 -0.30970516177E+03  0.30970516177E+03  0.00000000000E+00 0.  1.
         23    2    1    2    0    0  0.37044912181E+02 -0.63726836865E+01 -0.11693137388E+02  0.13104479936E+03  0.12499229320E+03 0.  0.
          5    1    3    3  502    0  0.83273352801E+02 -0.66619358653E+01 -0.27010364723E+01  0.83715101829E+02  0.47000000000E+01 0. -1.
         -5    1    3    3    0  502 -0.46228440621E+02  0.28925217880E+00 -0.89921009154E+01  0.47329697526E+02  0.47000000000E+01 0. -1.
        -11    1    1    2    0    0 -0.33675495185E+02 -0.27109317733E+02 -0.43811786810E+02  0.61550196973E+02  0.00000000000E+00 0. -1.
         11    1    1    2    0    0 -0.33694169958E+01  0.33482001419E+02 -0.18413033528E+03  0.18718006774E+03  0.00000000000E+00 0.  1.
<mgrwt>
<rscale>  0 0.12197404E+03</rscale>
<asrwt>0</asrwt>
<pdfrwt beam="2">  1        2 0.47646948E-01 0.13052207E+03</pdfrwt>
<pdfrwt beam="1">  1       -2 0.10779985E-01 0.13052207E+03</pdfrwt>
<totfact> 0.59233913E+03</totfact>
</mgrwt>
</event>
<event>
 7    1  0.5400401E-006  0.1294697E+03  0.7546771E-02  0.1241465E+00
          1   -1    0    0  501    0  0.00000000000E+00  0.00000000000E+00  0.54183825842E+03  0.54183825842E+03  0.00000000000E+00 0. -1.
         -1   -1    0    0    0  501 -0.00000000000E+00 -0.00000000000E+00 -0.25364108437E+02  0.25364108437E+02  0.00000000000E+00 0.  1.
         23    2    1    2    0    0  0.28417399373E+02  0.18169265511E+02  0.22674599788E+03  0.26110561056E+03  0.12499888605E+03 0.  0.
          5    1    3    3  502    0  0.44748446638E+02 -0.11609631753E+02  0.22161838190E+03  0.22643763870E+03  0.47000000000E+01 0.  1.
         -5    1    3    3    0  502 -0.16331047265E+02  0.29778897265E+02  0.51276159825E+01  0.34667971858E+02  0.47000000000E+01 0.  1.
        -11    1    1    2    0    0 -0.40120122077E+02 -0.49935111490E+02  0.16973685417E+03  0.18142144090E+03  0.00000000000E+00 0.  1.
         11    1    1    2    0    0  0.11702722704E+02  0.31765845979E+02  0.11999129793E+03  0.12467531540E+03  0.00000000000E+00 0. -1.
<mgrwt>
<rscale>  0 0.12099496E+03</rscale>
<asrwt>0</asrwt>
<pdfrwt beam="1">  1        1 0.83359723E-01 0.12946966E+03</pdfrwt>
<pdfrwt beam="2">  1       -1 0.39021710E-02 0.12946966E+03</pdfrwt>
<totfact> 0.98258928E+03</totfact>
</mgrwt>
</event>
<event>
 7    1  0.5400401E-006  0.1123963E+03  0.7546771E-02  0.1266563E+00
          1   -1    0    0  501    0  0.00000000000E+00  0.00000000000E+00  0.92210247007E+02  0.92210247007E+02  0.00000000000E+00 0. -1.
         -1   -1    0    0    0  501 -0.00000000000E+00 -0.00000000000E+00 -0.14471084354E+03  0.14471084354E+03  0.00000000000E+00 0.  1.
         23    2    1    2    0    0 -0.19684381097E+02  0.80544968431E+01 -0.83595365937E+02  0.14007541699E+03  0.11036569874E+03 0.  0.
          5    1    3    3  502    0 -0.61420325443E+02  0.24422981799E+02 -0.59004354709E+02  0.88727348051E+02  0.47000000000E+01 0. -1.
         -5    1    3    3    0  502  0.41735944346E+02 -0.16368484956E+02 -0.24591011228E+02  0.51348068935E+02  0.47000000000E+01 0.  1.
        -11    1    1    2    0    0 -0.59351426150E+01  0.35157675988E+02 -0.35355831214E+01  0.35829993675E+02  0.00000000000E+00 0. -1.
         11    1    1    2    0    0  0.25619523712E+02 -0.43212172831E+02  0.34630352525E+02  0.61015679887E+02  0.00000000000E+00 0.  1.
<mgrwt>
<rscale>  0 0.10682621E+03</rscale>
<asrwt>0</asrwt>
<pdfrwt beam="1">  1        1 0.14186192E-01 0.11239634E+03</pdfrwt>
<pdfrwt beam="2">  1       -1 0.22263207E-01 0.11239634E+03</pdfrwt>
<totfact> 0.63449852E+03</totfact>
</mgrwt>
</event>
<event>
 7    1  0.5400401E-006  0.1816211E+03  0.7546771E-02  0.1169583E+00
          1   -1    0    0  501    0  0.00000000000E+00  0.00000000000E+00  0.98104838777E+02  0.98104838777E+02  0.00000000000E+00 0. -1.
         -1   -1    0    0    0  501 -0.00000000000E+00 -0.00000000000E+00 -0.33815833565E+03  0.33815833565E+03  0.00000000000E+00 0.  1.
         23    2    1    2    0    0  0.13143793583E+03  0.92448299307E+01 -0.18504198425E+03  0.25928126868E+03  0.12499936998E+03 0.  0.
          5    1    3    3  502    0  0.13472136731E+03 -0.20323837575E+02 -0.10002240516E+03  0.16908422966E+03  0.47000000000E+01 0. -1.
         -5    1    3    3    0  502 -0.32834314790E+01  0.29568667506E+02 -0.85019579087E+02  0.90197039023E+02  0.47000000000E+01 0. -1.
        -11    1    1    2    0    0 -0.31901493135E+02 -0.46831983128E+02  0.11406091768E+01  0.56676634491E+02  0.00000000000E+00 0. -1.
         11    1    1    2    0    0 -0.99536442696E+02  0.37587153198E+02 -0.56152121802E+02  0.12030527126E+03  0.00000000000E+00 0.  1.
<mgrwt>
<rscale>  0 0.17817266E+03</rscale>
<asrwt>0</asrwt>
<pdfrwt beam="1">  1        1 0.15093052E-01 0.18162115E+03</pdfrwt>
<pdfrwt beam="2">  1       -1 0.52024359E-01 0.18162115E+03</pdfrwt>
<totfact> 0.13945148E+03</totfact>
</mgrwt>
</event>
<event>
 7    1  0.5400401E-006  0.1745783E+03  0.7546771E-02  0.1178870E+00
         -2   -1    0    0    0  501 -0.00000000000E+00  0.00000000000E+00  0.28251603841E+02  0.28251603841E+02  0.00000000000E+00 0.  1.
          2   -1    0    0  501    0  0.00000000000E+00 -0.00000000000E+00 -0.95750610442E+03  0.95750610442E+03  0.00000000000E+00 0. -1.
         23    2    1    2    0    0  0.94037541577E+02 -0.77542389295E+02 -0.53220285838E+03  0.56010486540E+03  0.12498678499E+03 0.  0.
          5    1    3    3  502    0  0.84983900831E+02 -0.86909739356E+02 -0.25471729722E+03  0.28227390545E+03  0.47000000000E+01 0.  1.
         -5    1    3    3    0  502  0.90536407463E+01  0.93673500606E+01 -0.27748556116E+03  0.27783095995E+03  0.47000000000E+01 0.  1.
        -11    1    1    2    0    0 -0.22845569113E+02  0.39340391175E+02 -0.43345431482E+02  0.62836397384E+02  0.00000000000E+00 0.  1.
         11    1    1    2    0    0 -0.71191972464E+02  0.38201998120E+02 -0.35370621072E+03  0.36281644547E+03  0.00000000000E+00 0. -1.
<mgrwt>
<rscale>  0 0.16902315E+03</rscale>
<asrwt>0</asrwt>
<pdfrwt beam="2">  1        2 0.14730864E+00 0.17457829E+03</pdfrwt>
<pdfrwt beam="1">  1       -2 0.43464004E-02 0.17457829E+03</pdfrwt>
<totfact> 0.66366671E+03</totfact>
</mgrwt>
</event>
<event>
 7    1  0.5400401E-006  0.1421341E+03  0.7546771E-02  0.1221533E+00
          2   -1    0    0  501    0  0.00000000000E+00  0.00000000000E+00  0.37612843573E+03  0.37612843573E+03  0.00000000000E+00 0. -1.
         -2   -1    0    0    0  501 -0.00000000000E+00 -0.00000000000E+00 -0.63280311804E+02  0.63280311804E+02  0.00000000000E+00 0.  1.
         23    2    1    2    0    0 -0.57398034078E+02  0.35859991150E+02  0.45333459553E+02  0.14918855742E+03  0.12498651859E+03 0.  0.
          5    1    3    3  502    0 -0.92602550726E+02  0.21791691298E+02  0.54724220742E+02  0.10984962697E+03  0.47000000000E+01 0. -1.
         -5    1    3    3    0  502  0.35204516648E+02  0.14068299853E+02 -0.93907611890E+01  0.39338930449E+02  0.47000000000E+01 0. -1.
        -11    1    1    2    0    0  0.43818014223E+02  0.12287045905E+02  0.20582643893E+03  0.21079732643E+03  0.00000000000E+00 0. -1.
         11    1    1    2    0    0  0.13580019855E+02 -0.48147037056E+02  0.61688225438E+02  0.79422863674E+02  0.00000000000E+00 0.  1.
<mgrwt>
<rscale>  0 0.13407371E+03</rscale>
<asrwt>0</asrwt>
<pdfrwt beam="1">  1        2 0.57865912E-01 0.14213410E+03</pdfrwt>
<pdfrwt beam="2">  1       -2 0.97354328E-02 0.14213410E+03</pdfrwt>
<totfact> 0.56864422E+03</totfact>
</mgrwt>
</event>
<event>
 6    1  0.5400401E-006  0.2520935E+03  0.7546771E-02  0.1111989E+00
          2   -1    0    0  501    0  0.00000000000E+00  0.00000000000E+00  0.24377220752E+02  0.24377220752E+02  0.00000000000E+00 0. -1.
         -2   -1    0    0    0  501 -0.00000000000E+00 -0.00000000000E+00 -0.65174728447E+03  0.65174728447E+03  0.00000000000E+00 0.  1.
          5    1    1    2  502    0  0.38095570566E+02 -0.21295276251E+02 -0.46285396381E+02  0.63790196782E+02  0.47000000000E+01 0. -1.
         -5    1    1    2    0  502 -0.68953873584E+01  0.15149161568E+02 -0.44297129851E+03  0.44330881422E+03  0.47000000000E+01 0.  1.
        -11    1    1    2    0    0 -0.96090003521E+01  0.40389771648E+02 -0.24023972086E+02  0.47966840383E+02  0.00000000000E+00 0. -1.
         11    1    1    2    0    0 -0.21591182856E+02 -0.34243656965E+02 -0.11408939673E+03  0.12105865383E+03  0.00000000000E+00 0.  1.
<mgrwt>
<rscale>  0 0.25209353E+03</rscale>
<asrwt>0</asrwt>
<pdfrwt beam="1">  1        2 0.37503418E-02 0.25209353E+03</pdfrwt>
<pdfrwt beam="2">  1       -2 0.10026881E+00 0.25209353E+03</pdfrwt>
<totfact> 0.19610970E+03</totfact>
</mgrwt>
</event>
<event>
 7    1  0.5400401E-006  0.2001160E+03  0.7546771E-02  0.1153952E+00
          2   -1    0    0  501    0  0.00000000000E+00  0.00000000000E+00  0.22723115053E+03  0.22723115053E+03  0.00000000000E+00 0. -1.
         -2   -1    0    0    0  501 -0.00000000000E+00 -0.00000000000E+00 -0.15961663975E+03  0.15961663975E+03  0.00000000000E+00 0.  1.
         23    2    1    2    0    0  0.11434698151E+03  0.10647861596E+03  0.32991697809E+02  0.20281730483E+03  0.12503391211E+03 0.  0.
          5    1    3    3  502    0  0.11848735171E+03  0.41157269281E+02 -0.74403915823E+01  0.12574029886E+03  0.47000000000E+01 0. -1.
         -5    1    3    3    0  502 -0.41403702016E+01  0.65321346677E+02  0.40432089392E+02  0.77077005972E+02  0.47000000000E+01 0. -1.
        -11    1    1    2    0    0 -0.90900536615E+00  0.99622221020E+01 -0.11313726901E+02  0.15102071922E+02  0.00000000000E+00 0.  1.
         11    1    1    2    0    0 -0.11343797614E+03 -0.11644083806E+03  0.45936539870E+02  0.16892841352E+03  0.00000000000E+00 0. -1.
<mgrwt>
<rscale>  0 0.19508660E+03</rscale>
<asrwt>0</asrwt>
<pdfrwt beam="1">  1        2 0.34958639E-01 0.20011598E+03</pdfrwt>
<pdfrwt beam="2">  1       -2 0.24556406E-01 0.20011598E+03</pdfrwt>
<totfact> 0.21464620E+03</totfact>
</mgrwt>
</event>
<event>
 7    1  0.5400401E-006  0.1724850E+03  0.7546771E-02  0.1181780E+00
         -3   -1    0    0    0  501 -0.00000000000E+00  0.00000000000E+00  0.28788815472E+03  0.28788815472E+03  0.00000000000E+00 0.  1.
          3   -1    0    0  501    0  0.00000000000E+00 -0.00000000000E+00 -0.90251949418E+02  0.90251949418E+02  0.00000000000E+00 0. -1.
         23    2    1    2    0    0 -0.10933658777E+03 -0.46591818750E+02  0.12016610822E+03  0.21021646171E+03  0.12500312079E+03 0.  0.
          5    1    3    3  502    0 -0.16252098982E+02 -0.72545323902E+02  0.39890751829E+02  0.84500395400E+02  0.47000000000E+01 0. -1.
         -5    1    3    3    0  502 -0.93084488790E+02  0.25953505152E+02  0.80275356393E+02  0.12571606630E+03  0.47000000000E+01 0. -1.
        -11    1    1    2    0    0  0.10777928809E+03  0.63225272409E+01  0.63596104373E+02  0.12530288817E+03  0.00000000000E+00 0. -1.
         11    1    1    2    0    0  0.15572996862E+01  0.40269291509E+02  0.13873992710E+02  0.42620754272E+02  0.00000000000E+00 0.  1.
<mgrwt>
<rscale>  0 0.16628367E+03</rscale>
<asrwt>0</asrwt>
<pdfrwt beam="2">  1        3 0.13884915E-01 0.17248498E+03</pdfrwt>
<pdfrwt beam="1">  1       -3 0.44290485E-01 0.17248498E+03</pdfrwt>
<totfact> 0.51673035E+02</totfact>
</mgrwt>
</event>
<event>
 7    1  0.5400401E-006  0.1690265E+03  0.7546771E-02  0.1185348E+00
          2   -1    0    0  501    0  0.00000000000E+00  0.00000000000E+00  0.27234227812E+03  0.27234227812E+03  0.00000000000E+00 0. -1.
         -2   -1    0    0    0  501 -0.00000000000E+00 -0.00000000000E+00 -0.95606631521E+02  0.95606631521E+02  0.00000000000E+00 0.  1.
         23    2    1    2    0    0  0.21913346485E+02 -0.11163812027E+03  0.55120223617E+02  0.17778695984E+03  0.12500679736E+03 0.  0.
          5    1    3    3  502    0 -0.38035013460E+02 -0.83212903673E+02  0.62446340256E+02  0.11087238158E+03  0.47000000000E+01 0.  1.
         -5    1    3    3    0  502  0.59948359945E+02 -0.28425216600E+02 -0.73261166388E+01  0.66914578261E+02  0.47000000000E+01 0.  1.
        -11    1    1    2    0    0 -0.44896248836E+02  0.84455485854E+02  0.12141626690E+03  0.15456491231E+03  0.00000000000E+00 0.  1.
         11    1    1    2    0    0  0.22982902351E+02  0.27182634420E+02  0.19915608194E+00  0.35597037483E+02  0.00000000000E+00 0. -1.
<mgrwt>
<rscale>  0 0.16300273E+03</rscale>
<asrwt>0</asrwt>
<pdfrwt beam="1">  1        2 0.41898812E-01 0.16902652E+03</pdfrwt>
<pdfrwt beam="2">  1       -2 0.14708713E-01 0.16902652E+03</pdfrwt>
<totfact> 0.41794491E+03</totfact>
</mgrwt>
</event>
<event>
 7    1  0.5400401E-006  0.1521166E+03  0.7546771E-02  0.1206196E+00
         -2   -1    0    0    0  501 -0.00000000000E+00  0.00000000000E+00  0.27282071398E+03  0.27282071398E+03  0.00000000000E+00 0.  1.
          2   -1    0    0  501    0  0.00000000000E+00 -0.00000000000E+00 -0.73252666824E+02  0.73252666824E+02  0.00000000000E+00 0. -1.
         23    2    1    2    0    0 -0.52636269115E+02 -0.68906251165E+02  0.13559524128E+03  0.20377816150E+03  0.12498328436E+03 0.  0.
          5    1    3    3  502    0  0.20046690012E+02 -0.52367890305E+02  0.92754811377E+01  0.57029731420E+02  0.47000000000E+01 0.  1.
         -5    1    3    3    0  502 -0.72682959127E+02 -0.16538360859E+02  0.12631976015E+03  0.14674843008E+03  0.47000000000E+01 0.  1.
        -11    1    1    2    0    0  0.77076768794E+02  0.34746234555E+02  0.48901168420E+02  0.97670125301E+02  0.00000000000E+00 0.  1.
         11    1    1    2    0    0 -0.24440499679E+02  0.34160016610E+02  0.15071637452E+02  0.44625094004E+02  0.00000000000E+00 0. -1.
<mgrwt>
<rscale>  0 0.14543612E+03</rscale>
<asrwt>0</asrwt>
<pdfrwt beam="2">  1        2 0.11269641E-01 0.15211663E+03</pdfrwt>
<pdfrwt beam="1">  1       -2 0.41972417E-01 0.15211663E+03</pdfrwt>
<totfact> 0.28989876E+03</totfact>
</mgrwt>
</event>
<event>
 7    1  0.5400401E-006  0.1333139E+03  0.7546771E-02  0.1235254E+00
         -1   -1    0    0    0  501 -0.00000000000E+00  0.00000000000E+00  0.32273731653E+03  0.32273731653E+03  0.00000000000E+00 0.  1.
          1   -1    0    0  501    0  0.00000000000E+00 -0.00000000000E+00 -0.64098069063E+02  0.64098069063E+02  0.00000000000E+00 0. -1.
         23    2    1    2    0    0  0.46327297934E+02 -0.94634111851E-01  0.25061684956E+03  0.28386863373E+03  0.12500547364E+03 0.  0.
          5    1    3    3  502    0  0.26868608175E+02 -0.50679445207E+02  0.50759661826E+02  0.76739569587E+02  0.47000000000E+01 0. -1.
         -5    1    3    3    0  502  0.19458689759E+02  0.50584811096E+02  0.19985718774E+03  0.20712906414E+03  0.47000000000E+01 0. -1.
        -11    1    1    2    0    0 -0.40377078112E+02 -0.41148568501E+02  0.17470299873E+02  0.60238895277E+02  0.00000000000E+00 0.  1.
         11    1    1    2    0    0 -0.59502198216E+01  0.41243202612E+02 -0.94479019647E+01  0.42727856595E+02  0.00000000000E+00 0. -1.
<mgrwt>
<rscale>  0 0.12488213E+03</rscale>
<asrwt>0</asrwt>
<pdfrwt beam="2">  1        1 0.98612416E-02 0.13331390E+03</pdfrwt>
<pdfrwt beam="1">  1       -1 0.49651894E-01 0.13331390E+03</pdfrwt>
<totfact> 0.26290561E+03</totfact>
</mgrwt>
</event>
<event>
 7    1  0.5400401E-006  0.1533502E+03  0.7546771E-02  0.1204682E+00
          1   -1    0    0  501    0  0.00000000000E+00  0.00000000000E+00  0.17241364201E+02  0.17241364201E+02  0.00000000000E+00 0. -1.
         -1   -1    0    0    0  501 -0.00000000000E+00 -0.00000000000E+00 -0.11547207854E+04  0.11547207854E+04  0.00000000000E+00 0.  1.
         23    2    1    2    0    0  0.76772561110E+02 -0.44712631441E+02 -0.65983056130E+03  0.67741614866E+03  0.12499209294E+03 0.  0.
          5    1    3    3  502    0  0.10427580938E+03 -0.30335507022E+02 -0.60085131072E+03  0.61060467980E+03  0.47000000000E+01 0. -1.
         -5    1    3    3    0  502 -0.27503248272E+02 -0.14377124419E+02 -0.58979250580E+02  0.66811468859E+02  0.47000000000E+01 0. -1.
        -11    1    1    2    0    0 -0.74435755188E+02  0.32411009085E+02 -0.47481756783E+03  0.48170829127E+03  0.00000000000E+00 0.  1.
         11    1    1    2    0    0 -0.23368059220E+01  0.12301622356E+02 -0.28312920653E+01  0.12837709658E+02  0.00000000000E+00 0. -1.
<mgrwt>
<rscale>  0 0.14662532E+03</rscale>
<asrwt>0</asrwt>
<pdfrwt beam="1">  1        1 0.26525171E-02 0.15335015E+03</pdfrwt>
<pdfrwt beam="2">  1       -1 0.17764938E+00 0.15335015E+03</pdfrwt>
<totfact> 0.94970543E+02</totfact>
</mgrwt>
</event>
<event>
 7    1  0.5400401E-006  0.1268411E+03  0.7546771E-02  0.1244146E+00
         -1   -1    0    0    0  501 -0.00000000000E+00  0.00000000000E+00  0.86677042070E+02  0.86677042070E+02  0.00000000000E+00 0.  1.
          1   -1    0    0  501    0  0.00000000000E+00 -0.00000000000E+00 -0.15553236996E+03  0.15553236996E+03  0.00000000000E+00 0. -1.
         23    2    1    2    0    0  0.13490201627E+02  0.16750201892E+02 -0.11462942370E+02  0.12735805891E+03  0.12500448519E+03 0.  0.
          5    1    3    3  502    0  0.65511998532E+02  0.29627801500E+02  0.13074712908E+01  0.72065442859E+02  0.47000000000E+01 0. -1.
         -5    1    3    3    0  502 -0.52021796905E+02 -0.12877599608E+02 -0.12770413660E+02  0.55292616052E+02  0.47000000000E+01 0. -1.
        -11    1    1    2    0    0  0.16814813345E+02 -0.49311815880E+02 -0.17101975350E+02  0.54834940449E+02  0.00000000000E+00 0.  1.
         11    1    1    2    0    0 -0.30305014971E+02  0.32561613988E+02 -0.40290410172E+02  0.60016412670E+02  0.00000000000E+00 0. -1.
<mgrwt>
<rscale>  0 0.11936659E+03</rscale>
<asrwt>0</asrwt>
<pdfrwt beam="2">  1        1 0.23928057E-01 0.12684115E+03</pdfrwt>
<pdfrwt beam="1">  1       -1 0.13334930E-01 0.12684115E+03</pdfrwt>
<totfact> 0.73972658E+03</totfact>
</mgrwt>
</event>
<event>
 7    1  0.5400401E-006  0.1374462E+03  0.7546771E-02  0.1228078E+00
         -2   -1    0    0    0  501 -0.00000000000E+00  0.00000000000E+00  0.77653357823E+02  0.77653357823E+02  0.00000000000E+00 0.  1.
          2   -1    0    0  501    0  0.00000000000E+00 -0.00000000000E+00 -0.19488691717E+03  0.19488691717E+03  0.00000000000E+00 0. -1.
         23    2    1    2    0    0  0.26458421615E+02  0.50680866119E+02 -0.64629332225E+02  0.15188291094E+03  0.12499147885E+03 0.  0.
          5    1    3    3  502    0  0.67179690439E+02 -0.52015545418E+01 -0.38972072109E+02  0.77981275840E+02  0.47000000000E+01 0. -1.
         -5    1    3    3    0  502 -0.40721268824E+02  0.55882420661E+02 -0.25657260116E+02  0.73901635099E+02  0.47000000000E+01 0. -1.
        -11    1    1    2    0    0 -0.48185083555E+02  0.53589548526E+01 -0.23527011776E+02  0.53889154358E+02  0.00000000000E+00 0.  1.
         11    1    1    2    0    0  0.21726661940E+02 -0.56039820972E+02 -0.29077215343E+02  0.66768209693E+02  0.00000000000E+00 0. -1.
<mgrwt>
<rscale>  0 0.12958163E+03</rscale>
<asrwt>0</asrwt>
<pdfrwt beam="2">  1        2 0.29982602E-01 0.13744624E+03</pdfrwt>
<pdfrwt beam="1">  1       -2 0.11946671E-01 0.13744624E+03</pdfrwt>
<totfact> 0.82776023E+03</totfact>
</mgrwt>
</event>
<event>
 7    1  0.5400401E-006  0.1286917E+03  0.7546771E-02  0.1241417E+00
         -3   -1    0    0    0  501 -0.00000000000E+00  0.00000000000E+00  0.29975569423E+03  0.29975569423E+03  0.00000000000E+00 0.  1.
          3   -1    0    0  501    0  0.00000000000E+00 -0.00000000000E+00 -0.45248626815E+02  0.45248626815E+02  0.00000000000E+00 0. -1.
         23    2    1    2    0    0 -0.21118694331E+02  0.22156913095E+02  0.17223567475E+03  0.21500388072E+03  0.12499845207E+03 0.  0.
          5    1    3    3  502    0 -0.44891002961E+02  0.44734536774E+02  0.32462557657E+02  0.71360273100E+02  0.47000000000E+01 0. -1.
         -5    1    3    3    0  502  0.23772308630E+02 -0.22577623679E+02  0.13977311710E+03  0.14364360762E+03  0.47000000000E+01 0. -1.
        -11    1    1    2    0    0  0.60124003791E+01 -0.44360160052E+02  0.14009284507E+01  0.44787669717E+02  0.00000000000E+00 0. -1.
         11    1    1    2    0    0  0.15106293952E+02  0.22203246957E+02  0.80870464212E+02  0.85212770605E+02  0.00000000000E+00 0.  1.
<mgrwt>
<rscale>  0 0.12102419E+03</rscale>
<asrwt>0</asrwt>
<pdfrwt beam="2">  1        3 0.69613274E-02 0.12869165E+03</pdfrwt>
<pdfrwt beam="1">  1       -3 0.46116259E-01 0.12869165E+03</pdfrwt>
<totfact> 0.14325882E+03</totfact>
</mgrwt>
</event>
<event>
 7    1  0.5400401E-006  0.1296103E+03  0.7546771E-02  0.1240938E+00
         -2   -1    0    0    0  501 -0.00000000000E+00  0.00000000000E+00  0.30484489470E+02  0.30484489470E+02  0.00000000000E+00 0. -1.
          2   -1    0    0  501    0  0.00000000000E+00 -0.00000000000E+00 -0.45265307665E+03  0.45265307665E+03  0.00000000000E+00 0.  1.
         23    2    1    2    0    0 -0.34198147667E+02  0.20400892674E+01 -0.18440701078E+03  0.22539914359E+03  0.12500061215E+03 0.  0.
          5    1    3    3  502    0 -0.23948247172E+02  0.23396605068E+00 -0.20252074436E+03  0.20398606614E+03  0.47000000000E+01 0. -1.
         -5    1    3    3    0  502 -0.10249900496E+02  0.18061232167E+01  0.18113733586E+02  0.21413077445E+02  0.47000000000E+01 0. -1.
        -11    1    1    2    0    0  0.13550517758E+02  0.45405213292E+02 -0.10269018460E+03  0.11309519856E+03  0.00000000000E+00 0.  1.
         11    1    1    2    0    0  0.20647629909E+02 -0.47445302559E+02 -0.13507139180E+03  0.14464322397E+03  0.00000000000E+00 0. -1.
<mgrwt>
<rscale>  0 0.12131820E+03</rscale>
<asrwt>0</asrwt>
<pdfrwt beam="2">  1        2 0.69638931E-01 0.12961029E+03</pdfrwt>
<pdfrwt beam="1">  1       -2 0.46899217E-02 0.12961029E+03</pdfrwt>
<totfact> 0.14150742E+04</totfact>
</mgrwt>
</event>
<event>
 7    1  0.5400401E-006  0.1782522E+03  0.7546771E-02  0.1175198E+00
          2   -1    0    0  501    0  0.00000000000E+00  0.00000000000E+00  0.21784575793E+03  0.21784575793E+03  0.00000000000E+00 0. -1.
         -2   -1    0    0    0  501 -0.00000000000E+00 -0.00000000000E+00 -0.13140009953E+03  0.13140009953E+03  0.00000000000E+00 0.  1.
         23    2    1    2    0    0 -0.25831942311E+02  0.12439653262E+03  0.20774501328E+02  0.17945865515E+03  0.12502816654E+03 0.  0.
          5    1    3    3  502    0 -0.59285310756E+02  0.96731029799E+02  0.52881381004E+02  0.12526041136E+03  0.47000000000E+01 0.  1.
         -5    1    3    3    0  502  0.33453368445E+02  0.27665502822E+02 -0.32106879676E+02  0.54198243784E+02  0.47000000000E+01 0.  1.
        -11    1    1    2    0    0  0.46108725034E+02 -0.75131740362E+02  0.74953576380E+02  0.11571011860E+03  0.00000000000E+00 0. -1.
         11    1    1    2    0    0 -0.20276782723E+02 -0.49264792260E+02 -0.92824193080E+01  0.54077083706E+02  0.00000000000E+00 0.  1.
<mgrwt>
<rscale>  0 0.17256593E+03</rscale>
<asrwt>0</asrwt>
<pdfrwt beam="1">  1        2 0.33514732E-01 0.17825215E+03</pdfrwt>
<pdfrwt beam="2">  1       -2 0.20215400E-01 0.17825215E+03</pdfrwt>
<totfact> 0.31315999E+03</totfact>
</mgrwt>
</event>
<event>
 7    1  0.5400401E-006  0.1353358E+03  0.7546771E-02  0.1233065E+00
         -2   -1    0    0    0  501 -0.00000000000E+00  0.00000000000E+00  0.49007344896E+02  0.49007344896E+02  0.00000000000E+00 0.  1.
          2   -1    0    0  501    0  0.00000000000E+00 -0.00000000000E+00 -0.34688142810E+03  0.34688142810E+03  0.00000000000E+00 0. -1.
         23    2    1    2    0    0 -0.18946850344E+02  0.48287922783E+02 -0.85671495439E+02  0.16017297041E+03  0.12500027477E+03 0.  0.
          5    1    3    3  502    0 -0.69411312650E+02  0.22854517090E+02 -0.25624206165E+02  0.77581887170E+02  0.47000000000E+01 0. -1.
         -5    1    3    3    0  502  0.50464462306E+02  0.25433405693E+02 -0.60047289273E+02  0.82591083236E+02  0.47000000000E+01 0. -1.
        -11    1    1    2    0    0  0.41600783639E+02 -0.13598371653E+02 -0.42418742113E+02  0.60949902325E+02  0.00000000000E+00 0.  1.
         11    1    1    2    0    0 -0.22653933295E+02 -0.34689551130E+02 -0.16978384566E+03  0.17476590027E+03  0.00000000000E+00 0. -1.
<mgrwt>
<rscale>  0 0.12629128E+03</rscale>
<asrwt>0</asrwt>
<pdfrwt beam="2">  1        2 0.53366372E-01 0.13533579E+03</pdfrwt>
<pdfrwt beam="1">  1       -2 0.75395917E-02 0.13533579E+03</pdfrwt>
<totfact> 0.91902216E+03</totfact>
</mgrwt>
</event>
<event>
 7    1  0.5400401E-006  0.1469484E+03  0.7546771E-02  0.1214125E+00
         -2   -1    0    0    0  501 -0.00000000000E+00  0.00000000000E+00  0.32094912738E+03  0.32094912738E+03  0.00000000000E+00 0.  1.
          2   -1    0    0  501    0  0.00000000000E+00 -0.00000000000E+00 -0.59343056727E+02  0.59343056727E+02  0.00000000000E+00 0. -1.
         23    2    1    2    0    0 -0.76689475920E+02 -0.93491885063E+01  0.19408536753E+03  0.24343985077E+03  0.12500059206E+03 0.  0.
          5    1    3    3  502    0  0.25803285335E+02 -0.27478750203E+02  0.82210371721E+02  0.90562279484E+02  0.47000000000E+01 0.  1.
         -5    1    3    3    0  502 -0.10249276126E+03  0.18129561697E+02  0.11187499581E+03  0.15287757129E+03  0.47000000000E+01 0.  1.
        -11    1    1    2    0    0  0.39814892129E+02  0.86000017319E+01  0.86325385860E+02  0.95452909379E+02  0.00000000000E+00 0.  1.
         11    1    1    2    0    0  0.36874583791E+02  0.74918677446E+00 -0.18804682737E+02  0.41399423950E+02  0.00000000000E+00 0. -1.
<mgrwt>
<rscale>  0 0.13940971E+03</rscale>
<asrwt>0</asrwt>
<pdfrwt beam="2">  1        2 0.91297012E-02 0.14694840E+03</pdfrwt>
<pdfrwt beam="1">  1       -2 0.49376788E-01 0.14694840E+03</pdfrwt>
<totfact> 0.27322983E+03</totfact>
</mgrwt>
</event>
<event>
 6    1  0.5400401E-006  0.3352704E+03  0.7546771E-02  0.1158396E+00
         -2   -1    0    0    0  501 -0.00000000000E+00  0.00000000000E+00  0.11950372795E+03  0.11950372795E+03  0.00000000000E+00 0.  1.
          2   -1    0    0  501    0  0.00000000000E+00 -0.00000000000E+00 -0.28627882661E+03  0.28627882661E+03  0.00000000000E+00 0. -1.
          5    1    1    2  502    0  0.13744359402E+03  0.86324638291E+02 -0.33059893495E+02  0.16570374550E+03  0.47000000000E+01 0. -1.
         -5    1    1    2    0  502 -0.14806246650E+03 -0.70925707948E+02 -0.11678592913E+03  0.20152913753E+03  0.47000000000E+01 0.  1.
        -11    1    1    2    0    0  0.18496718476E+02 -0.14101061090E+01 -0.82936826242E+01  0.20319994220E+02  0.00000000000E+00 0.  1.
         11    1    1    2    0    0 -0.78778460000E+01 -0.13988824234E+02 -0.86355934189E+01  0.18229677308E+02  0.00000000000E+00 0. -1.
<mgrwt>
<rscale>  0 0.19007297E+03</rscale>
<asrwt>0</asrwt>
<pdfrwt beam="2">  1        2 0.44042896E-01 0.33527037E+03</pdfrwt>
<pdfrwt beam="1">  1       -2 0.18385189E-01 0.33527037E+03</pdfrwt>
<totfact> 0.28008708E+03</totfact>
</mgrwt>
</event>
<event>
 7    1  0.5400401E-006  0.1949352E+03  0.7546771E-02  0.1158636E+00
          4   -1    0    0  501    0  0.00000000000E+00  0.00000000000E+00  0.21104094734E+03  0.21104094734E+03  0.00000000000E+00 0. -1.
         -4   -1    0    0    0  501 -0.00000000000E+00 -0.00000000000E+00 -0.17338770993E+03  0.17338770993E+03  0.00000000000E+00 0.  1.
         23    2    1    2    0    0  0.66442573550E+02 -0.13401774396E+03 -0.28764629415E+02  0.19704602880E+03  0.12499744911E+03 0.  0.
          5    1    3    3  502    0  0.55225947441E+02 -0.10208592959E+02 -0.44286551479E+02  0.71676420689E+02  0.47000000000E+01 0. -1.
         -5    1    3    3    0  502  0.11216626109E+02 -0.12380915100E+03  0.15521922064E+02  0.12536960811E+03  0.47000000000E+01 0. -1.
        -11    1    1    2    0    0  0.11397859579E+02  0.73902864998E+02  0.14500641867E+02  0.76169634845E+02  0.00000000000E+00 0. -1.
         11    1    1    2    0    0 -0.77840433129E+02  0.60114878966E+02  0.51917224961E+02  0.11121299362E+03  0.00000000000E+00 0.  1.
<mgrwt>
<rscale>  0 0.18980674E+03</rscale>
<asrwt>0</asrwt>
<pdfrwt beam="1">  1        4 0.32467838E-01 0.19493520E+03</pdfrwt>
<pdfrwt beam="2">  1       -4 0.26675032E-01 0.19493520E+03</pdfrwt>
<totfact> 0.21488314E+02</totfact>
</mgrwt>
</event>
<event>
 7    1  0.5400401E-006  0.1340145E+03  0.7546771E-02  0.1234025E+00
          4   -1    0    0  501    0  0.00000000000E+00  0.00000000000E+00  0.56091918576E+02  0.56091918576E+02  0.00000000000E+00 0. -1.
         -4   -1    0    0    0  501 -0.00000000000E+00 -0.00000000000E+00 -0.26674081144E+03  0.26674081144E+03  0.00000000000E+00 0.  1.
         23    2    1    2    0    0  0.82602721687E+01 -0.47601590537E+02 -0.15606062885E+03  0.20570559832E+03  0.12500291911E+03 0.  0.
          5    1    3    3  502    0  0.65835167270E+02 -0.19133008383E+02 -0.92383106309E+02  0.11513934858E+03  0.47000000000E+01 0.  1.
         -5    1    3    3    0  502 -0.57574895102E+02 -0.28468582153E+02 -0.63677522545E+02  0.90566249747E+02  0.47000000000E+01 0.  1.
        -11    1    1    2    0    0  0.34263259419E+02  0.20702218650E+02  0.36083847898E+01  0.40194194156E+02  0.00000000000E+00 0. -1.
         11    1    1    2    0    0 -0.42523531587E+02  0.26899371886E+02 -0.58196648799E+02  0.76932937536E+02  0.00000000000E+00 0.  1.
<mgrwt>
<rscale>  0 0.12567058E+03</rscale>
<asrwt>0</asrwt>
<pdfrwt beam="1">  1        4 0.86295258E-02 0.13401445E+03</pdfrwt>
<pdfrwt beam="2">  1       -4 0.41037049E-01 0.13401445E+03</pdfrwt>
<totfact> 0.92695327E+02</totfact>
</mgrwt>
</event>
<event>
 7    1  0.5400401E-006  0.1308950E+03  0.7546771E-02  0.1239484E+00
         -1   -1    0    0    0  501 -0.00000000000E+00  0.00000000000E+00  0.69991452641E+02  0.69991452641E+02  0.00000000000E+00 0.  1.
          1   -1    0    0  501    0  0.00000000000E+00 -0.00000000000E+00 -0.19459083239E+03  0.19459083239E+03  0.00000000000E+00 0. -1.
         23    2    1    2    0    0  0.35712773373E+02 -0.15085878407E+02 -0.49527743996E+02  0.13995174190E+03  0.12502202496E+03 0.  0.
          5    1    3    3  502    0 -0.17282236902E+01  0.29528605211E+02  0.29253193556E+02  0.41866031769E+02  0.47000000000E+01 0.  1.
         -5    1    3    3    0  502  0.37440997063E+02 -0.44614483618E+02 -0.78780937552E+02  0.98085710127E+02  0.47000000000E+01 0.  1.
        -11    1    1    2    0    0  0.13119235013E+02  0.37950559535E+02 -0.12550329887E+02  0.42069823824E+02  0.00000000000E+00 0.  1.
         11    1    1    2    0    0 -0.48832008385E+02 -0.22864681128E+02 -0.62521305864E+02  0.82560719310E+02  0.00000000000E+00 0. -1.
<mgrwt>
<rscale>  0 0.12221662E+03</rscale>
<asrwt>0</asrwt>
<pdfrwt beam="2">  1        1 0.29937051E-01 0.13089497E+03</pdfrwt>
<pdfrwt beam="1">  1       -1 0.10767916E-01 0.13089497E+03</pdfrwt>
<totfact> 0.77923215E+03</totfact>
</mgrwt>
</event>
<event>
 7    1  0.5400401E-006  0.1267137E+03  0.7546771E-02  0.1246000E+00
          1   -1    0    0  501    0  0.00000000000E+00  0.00000000000E+00  0.46295677864E+02  0.46295677864E+02  0.00000000000E+00 0. -1.
         -1   -1    0    0    0  501 -0.00000000000E+00 -0.00000000000E+00 -0.30853266860E+03  0.30853266860E+03  0.00000000000E+00 0.  1.
         23    2    1    2    0    0 -0.20734939511E+02  0.12158657628E+01 -0.21041531218E+03  0.24562364842E+03  0.12499982808E+03 0.  0.
          5    1    3    3  502    0  0.19144184422E+02  0.55144397730E+02 -0.83355429826E+02  0.10187061441E+03  0.47000000000E+01 0.  1.
         -5    1    3    3    0  502 -0.39879123933E+02 -0.53928531967E+02 -0.12705988235E+03  0.14375303402E+03  0.47000000000E+01 0.  1.
        -11    1    1    2    0    0  0.27756276650E+02  0.42920109962E+02 -0.32090253062E+02  0.60351728013E+02  0.00000000000E+00 0.  1.
         11    1    1    2    0    0 -0.70213371397E+01 -0.44135975725E+02 -0.19731425498E+02  0.48852970028E+02  0.00000000000E+00 0. -1.
<mgrwt>
<rscale>  0 0.11825727E+03</rscale>
<asrwt>0</asrwt>
<pdfrwt beam="1">  1        1 0.71224121E-02 0.12671374E+03</pdfrwt>
<pdfrwt beam="2">  1       -1 0.47466564E-01 0.12671374E+03</pdfrwt>
<totfact> 0.43927915E+03</totfact>
</mgrwt>
</event>
<event>
 7    1  0.5400401E-006  0.1557333E+03  0.7546771E-02  0.1202228E+00
         -1   -1    0    0    0  501 -0.00000000000E+00  0.00000000000E+00  0.75295183503E+02  0.75295183503E+02  0.00000000000E+00 0.  1.
          1   -1    0    0  501    0  0.00000000000E+00 -0.00000000000E+00 -0.27363713590E+03  0.27363713590E+03  0.00000000000E+00 0. -1.
         23    2    1    2    0    0 -0.24630705225E+02  0.89555218826E+02 -0.86321542340E+02  0.17805689302E+03  0.12500415841E+03 0.  0.
          5    1    3    3  502    0  0.37840246135E+02  0.13443555472E+01 -0.52106116987E+02  0.64581955273E+02  0.47000000000E+01 0.  1.
         -5    1    3    3    0  502 -0.62470951360E+02  0.88210863279E+02 -0.34215425353E+02  0.11347493775E+03  0.47000000000E+01 0.  1.
        -11    1    1    2    0    0 -0.21759525994E+02 -0.40718590284E+02 -0.78585160929E+01  0.46832006591E+02  0.00000000000E+00 0.  1.
         11    1    1    2    0    0  0.46390231219E+02 -0.48836628542E+02 -0.10416189396E+03  0.12404341979E+03  0.00000000000E+00 0. -1.
<mgrwt>
<rscale>  0 0.14858066E+03</rscale>
<asrwt>0</asrwt>
<pdfrwt beam="2">  1        1 0.42098021E-01 0.15573326E+03</pdfrwt>
<pdfrwt beam="1">  1       -1 0.11583874E-01 0.15573326E+03</pdfrwt>
<totfact> 0.46126821E+03</totfact>
</mgrwt>
</event>
<event>
 7    1  0.5400401E-006  0.1266023E+03  0.7546771E-02  0.1247057E+00
          3   -1    0    0  501    0  0.00000000000E+00  0.00000000000E+00  0.12174127968E+03  0.12174127968E+03  0.00000000000E+00 0. -1.
         -3   -1    0    0    0  501 -0.00000000000E+00 -0.00000000000E+00 -0.11463024910E+03  0.11463024910E+03  0.00000000000E+00 0.  1.
         23    2    1    2    0    0 -0.16527916524E+02  0.11367499901E+02 -0.37448947296E+02  0.13202483006E+03  0.12500296005E+03 0.  0.
          5    1    3    3  502    0 -0.95952372025E+01  0.31947018627E+02 -0.78457734750E+02  0.85383761443E+02  0.47000000000E+01 0.  1.
         -5    1    3    3    0  502 -0.69326793211E+01 -0.20579518726E+02  0.41008787454E+02  0.46641068620E+02  0.47000000000E+01 0.  1.
        -11    1    1    2    0    0 -0.35756134496E+02 -0.20591723268E+02  0.19287685386E+02  0.45547063888E+02  0.00000000000E+00 0. -1.
         11    1    1    2    0    0  0.52284051020E+02  0.92242233663E+01  0.25272292497E+02  0.58799634827E+02  0.00000000000E+00 0.  1.
<mgrwt>
<rscale>  0 0.11763077E+03</rscale>
<asrwt>0</asrwt>
<pdfrwt beam="1">  1        3 0.18729428E-01 0.12660226E+03</pdfrwt>
<pdfrwt beam="2">  1       -3 0.17635423E-01 0.12660226E+03</pdfrwt>
<totfact> 0.16025073E+03</totfact>
</mgrwt>
</event>
<event>
 7    1  0.5600798E-006  0.1559936E+03  0.7546771E-02  0.1201265E+00
          1   -1    0    0  501    0  0.00000000000E+00  0.00000000000E+00  0.45007895302E+02  0.45007895302E+02  0.00000000000E+00 0. -1.
         -1   -1    0    0    0  501 -0.00000000000E+00 -0.00000000000E+00 -0.45782217228E+03  0.45782217228E+03  0.00000000000E+00 0.  1.
         23    2    1    2    0    0 -0.64162721854E+02 -0.67768699514E+02 -0.22581580095E+03  0.27445724692E+03  0.12499821167E+03 0.  0.
          5    1    3    3  502    0 -0.76198460860E+02 -0.59941133461E+02 -0.23670625243E+03  0.25583409635E+03  0.47000000000E+01 0. -1.
         -5    1    3    3    0  502  0.12035739006E+02 -0.78275660523E+01  0.10890451480E+02  0.18623150571E+02  0.47000000000E+01 0. -1.
        -11    1    1    2    0    0  0.68576140175E+02  0.12313063427E+02 -0.13644063859E+03  0.15320034723E+03  0.00000000000E+00 0. -1.
         11    1    1    2    0    0 -0.44134183213E+01  0.55455636086E+02 -0.50557837441E+02  0.75172473431E+02  0.00000000000E+00 0.  1.
<mgrwt>
<rscale>  0 0.14935716E+03</rscale>
<asrwt>0</asrwt>
<pdfrwt beam="1">  1        1 0.69242918E-02 0.15599360E+03</pdfrwt>
<pdfrwt beam="2">  1       -1 0.70434178E-01 0.15599360E+03</pdfrwt>
<totfact> 0.21914356E+03</totfact>
</mgrwt>
</event>
<event>
 7    1  0.5400401E-006  0.1392752E+03  0.7546771E-02  0.1226520E+00
         -2   -1    0    0    0  501 -0.00000000000E+00  0.00000000000E+00  0.19435401086E+02  0.19435401086E+02  0.00000000000E+00 0. -1.
          2   -1    0    0  501    0  0.00000000000E+00 -0.00000000000E+00 -0.83365619786E+03  0.83365619786E+03  0.00000000000E+00 0.  1.
         23    2    1    2    0    0 -0.23382807214E+00  0.61419962077E+02 -0.35391488630E+03  0.38033318876E+03  0.12500048522E+03 0.  0.
          5    1    3    3  502    0  0.21236869412E+02  0.69213614941E+02 -0.90977779636E+02  0.11636397855E+03  0.47000000000E+01 0. -1.
         -5    1    3    3    0  502 -0.21470697484E+02 -0.77936528648E+01 -0.26293710667E+03  0.26396921021E+03  0.47000000000E+01 0. -1.
        -11    1    1    2    0    0 -0.41260967089E+02 -0.43286064584E+02 -0.31252616175E+03  0.31819609138E+03  0.00000000000E+00 0.  1.
         11    1    1    2    0    0  0.41494795162E+02 -0.18133897493E+02 -0.14777974872E+03  0.15456231881E+03  0.00000000000E+00 0. -1.
<mgrwt>
<rscale>  0 0.13063255E+03</rscale>
<asrwt>0</asrwt>
<pdfrwt beam="2">  1        2 0.12825481E+00 0.13927522E+03</pdfrwt>
<pdfrwt beam="1">  1       -2 0.29900616E-02 0.13927522E+03</pdfrwt>
<totfact> 0.13702944E+04</totfact>
</mgrwt>
</event>
<event>
 7    1  0.5400401E-006  0.1681991E+03  0.7546771E-02  0.1186383E+00
          1   -1    0    0  501    0  0.00000000000E+00  0.00000000000E+00  0.58543419343E+03  0.58543419343E+03  0.00000000000E+00 0. -1.
         -1   -1    0    0    0  501 -0.00000000000E+00 -0.00000000000E+00 -0.44824366109E+02  0.44824366109E+02  0.00000000000E+00 0.  1.
         23    2    1    2    0    0 -0.84470358853E+02  0.74357899469E+02  0.36954738885E+03  0.40602489991E+03  0.12500643184E+03 0.  0.
          5    1    3    3  502    0 -0.10977052095E+03  0.74934453741E+02  0.34769076562E+03  0.37225756960E+03  0.47000000000E+01 0. -1.
         -5    1    3    3    0  502  0.25300162100E+02 -0.57655427224E+00  0.21856623233E+02  0.33767330310E+02  0.47000000000E+01 0. -1.
        -11    1    1    2    0    0  0.16876917318E+02 -0.98818012110E+01 -0.88880556580E+01  0.21482035907E+02  0.00000000000E+00 0.  1.
         11    1    1    2    0    0  0.67593441535E+02 -0.64476098258E+02  0.17995049413E+03  0.20275162372E+03  0.00000000000E+00 0. -1.
<mgrwt>
<rscale>  0 0.16206629E+03</rscale>
<asrwt>0</asrwt>
<pdfrwt beam="1">  1        1 0.90066793E-01 0.16819913E+03</pdfrwt>
<pdfrwt beam="2">  1       -1 0.68960568E-02 0.16819913E+03</pdfrwt>
<totfact> 0.38560951E+03</totfact>
</mgrwt>
</event>
<event>
 7    1  0.5400401E-006  0.1276085E+03  0.7546771E-02  0.1245858E+00
         -2   -1    0    0    0  501 -0.00000000000E+00  0.00000000000E+00  0.77606505216E+02  0.77606505216E+02  0.00000000000E+00 0.  1.
          2   -1    0    0  501    0  0.00000000000E+00 -0.00000000000E+00 -0.15927638360E+03  0.15927638360E+03  0.00000000000E+00 0. -1.
         23    2    1    2    0    0 -0.23512306421E+01  0.25543811938E+02 -0.40228174902E+02  0.13379928163E+03  0.12500370833E+03 0.  0.
          5    1    3    3  502    0  0.12429895227E+02  0.44488206882E+01 -0.82714263131E+02  0.83892989136E+02  0.47000000000E+01 0. -1.
         -5    1    3    3    0  502 -0.14781125869E+02  0.21094991250E+02  0.42486088229E+02  0.49906292497E+02  0.47000000000E+01 0. -1.
        -11    1    1    2    0    0  0.12984150441E+02  0.27695788652E+02 -0.37862739521E+02  0.48674756453E+02  0.00000000000E+00 0. -1.
         11    1    1    2    0    0 -0.10632919799E+02 -0.53239600590E+02 -0.35789639606E+01  0.54408850728E+02  0.00000000000E+00 0.  1.
<mgrwt>
<rscale>  0 0.11834157E+03</rscale>
<asrwt>0</asrwt>
<pdfrwt beam="2">  1        2 0.24504059E-01 0.12760855E+03</pdfrwt>
<pdfrwt beam="1">  1       -2 0.11939462E-01 0.12760855E+03</pdfrwt>
<totfact> 0.10271061E+04</totfact>
</mgrwt>
</event>
<event>
 7    1  0.5400401E-006  0.1391881E+03  0.7546771E-02  0.1225687E+00
         -2   -1    0    0    0  501 -0.00000000000E+00  0.00000000000E+00  0.23112920996E+02  0.23112920996E+02  0.00000000000E+00 0.  1.
          2   -1    0    0  501    0  0.00000000000E+00 -0.00000000000E+00 -0.67900729051E+03  0.67900729051E+03  0.00000000000E+00 0. -1.
         23    2    1    2    0    0 -0.56429686652E+02  0.23745463270E+02 -0.32822089586E+03  0.35651407229E+03  0.12500068279E+03 0.  0.
          5    1    3    3  502    0 -0.91838027800E+01 -0.46651228632E+02 -0.70492667145E+02  0.85158590216E+02  0.47000000000E+01 0.  1.
         -5    1    3    3    0  502 -0.47245883872E+02  0.70396691902E+02 -0.25772822872E+03  0.27135548207E+03  0.47000000000E+01 0.  1.
        -11    1    1    2    0    0  0.17290919223E+02  0.29752995093E+02 -0.54105549603E+02  0.64121970513E+02  0.00000000000E+00 0. -1.
         11    1    1    2    0    0  0.39138767429E+02 -0.53498458363E+02 -0.27356792405E+03  0.28148416870E+03  0.00000000000E+00 0.  1.
<mgrwt>
<rscale>  0 0.13119933E+03</rscale>
<asrwt>0</asrwt>
<pdfrwt beam="2">  1        2 0.10446265E+00 0.13918810E+03</pdfrwt>
<pdfrwt beam="1">  1       -2 0.35558343E-02 0.13918810E+03</pdfrwt>
<totfact> 0.13626017E+04</totfact>
</mgrwt>
</event>
<event>
 7    1  0.5400401E-006  0.2107582E+03  0.7546771E-02  0.1144822E+00
         -2   -1    0    0    0  501 -0.00000000000E+00  0.00000000000E+00  0.36124833531E+02  0.36124833531E+02  0.00000000000E+00 0.  1.
          2   -1    0    0  501    0  0.00000000000E+00 -0.00000000000E+00 -0.11531965658E+04  0.11531965658E+04  0.00000000000E+00 0. -1.
         23    2    1    2    0    0 -0.16599112824E+03  0.35078685514E+02 -0.67925186351E+03  0.71119766535E+03  0.12504181814E+03 0.  0.
          5    1    3    3  502    0  0.15499395248E+02  0.22904475193E+02 -0.11292421165E+03  0.11635640857E+03  0.47000000000E+01 0. -1.
         -5    1    3    3    0  502 -0.18149052349E+03  0.12174210321E+02 -0.56632765186E+03  0.59484125678E+03  0.47000000000E+01 0. -1.
        -11    1    1    2    0    0  0.11062767841E+03  0.18798366650E+02 -0.29724430973E+03  0.31772006781E+03  0.00000000000E+00 0.  1.
         11    1    1    2    0    0  0.55363449835E+02 -0.53877052164E+02 -0.14057555905E+03  0.16040366619E+03  0.00000000000E+00 0. -1.
<mgrwt>
<rscale>  0 0.20593981E+03</rscale>
<asrwt>0</asrwt>
<pdfrwt beam="2">  1        2 0.17741489E+00 0.21075821E+03</pdfrwt>
<pdfrwt beam="1">  1       -2 0.55576657E-02 0.21075821E+03</pdfrwt>
<totfact> 0.35221728E+03</totfact>
</mgrwt>
</event>
<event>
 7    1  0.5400401E-006  0.1253648E+03  0.7546771E-02  0.1249801E+00
          1   -1    0    0  501    0  0.00000000000E+00  0.00000000000E+00  0.10080315729E+04  0.10080315729E+04  0.00000000000E+00 0. -1.
         -1   -1    0    0    0  501 -0.00000000000E+00 -0.00000000000E+00 -0.11866199950E+02  0.11866199950E+02  0.00000000000E+00 0.  1.
         23    2    1    2    0    0 -0.15195227805E+01 -0.95281674037E+01  0.63041554627E+03  0.64275974666E+03  0.12499294392E+03 0.  0.
          5    1    3    3  502    0  0.52385952541E+02  0.14485320593E+02  0.43959708649E+03  0.44296930028E+03  0.47000000000E+01 0.  1.
         -5    1    3    3    0  502 -0.53905475322E+02 -0.24013487996E+02  0.19081845978E+03  0.19979044639E+03  0.47000000000E+01 0.  1.
        -11    1    1    2    0    0 -0.39507245348E+02 -0.12232650943E+02  0.11710882454E+03  0.12419716973E+03  0.00000000000E+00 0.  1.
         11    1    1    2    0    0  0.41026768128E+02  0.21760818347E+02  0.24864100213E+03  0.25294085644E+03  0.00000000000E+00 0. -1.
<mgrwt>
<rscale>  0 0.11602564E+03</rscale>
<asrwt>0</asrwt>
<pdfrwt beam="1">  1        1 0.15508171E+00 0.12536479E+03</pdfrwt>
<pdfrwt beam="2">  1       -1 0.18255700E-02 0.12536479E+03</pdfrwt>
<totfact> 0.11829933E+04</totfact>
</mgrwt>
</event>
<event>
 7    1  0.5400401E-006  0.1347084E+03  0.7546771E-02  0.1231690E+00
          2   -1    0    0  501    0  0.00000000000E+00  0.00000000000E+00  0.13544278144E+02  0.13544278144E+02  0.00000000000E+00 0. -1.
         -2   -1    0    0    0  501 -0.00000000000E+00 -0.00000000000E+00 -0.11227917904E+04  0.11227917904E+04  0.00000000000E+00 0.  1.
         23    2    1    2    0    0 -0.12699221021E+01 -0.50206410280E+02 -0.72731443458E+03  0.73968415541E+03  0.12499626665E+03 0.  0.
          5    1    3    3  502    0 -0.53282862876E+02  0.97423908114E+01 -0.33654127706E+03  0.34090482369E+03  0.47000000000E+01 0. -1.
         -5    1    3    3    0  502  0.52012940774E+02 -0.59948801091E+02 -0.39077315753E+03  0.39877933172E+03  0.47000000000E+01 0. -1.
        -11    1    1    2    0    0  0.42197389267E+02  0.85568581535E+01 -0.10237877777E+03  0.11106418694E+03  0.00000000000E+00 0. -1.
         11    1    1    2    0    0 -0.40927467165E+02  0.41649552126E+02 -0.27955429992E+03  0.28558772622E+03  0.00000000000E+00 0.  1.
<mgrwt>
<rscale>  0 0.12718724E+03</rscale>
<asrwt>0</asrwt>
<pdfrwt beam="1">  1        2 0.20837346E-02 0.13470844E+03</pdfrwt>
<pdfrwt beam="2">  1       -2 0.17273724E+00 0.13470844E+03</pdfrwt>
<totfact> 0.10889803E+03</totfact>
</mgrwt>
</event>
<event>
 7    1  0.5400401E-006  0.1821773E+03  0.7546771E-02  0.1169474E+00
         -1   -1    0    0    0  501 -0.00000000000E+00  0.00000000000E+00  0.22719871825E+03  0.22719871825E+03  0.00000000000E+00 0.  1.
          1   -1    0    0  501    0  0.00000000000E+00 -0.00000000000E+00 -0.15561843773E+03  0.15561843773E+03  0.00000000000E+00 0. -1.
         23    2    1    2    0    0  0.11779667001E+03  0.60738875583E+02  0.10801874270E+03  0.21179384701E+03  0.12499327336E+03 0.  0.
          5    1    3    3  502    0  0.29561572938E+02  0.17121398491E+02  0.10787694594E+03  0.11325437893E+03  0.47000000000E+01 0.  1.
         -5    1    3    3    0  502  0.88235097073E+02  0.43617477092E+02  0.14179675870E+00  0.98539468081E+02  0.47000000000E+01 0.  1.
        -11    1    1    2    0    0 -0.64167511646E+02 -0.85632300359E+02 -0.14617675064E+02  0.10800017055E+03  0.00000000000E+00 0. -1.
         11    1    1    2    0    0 -0.53629158366E+02  0.24893424775E+02 -0.21820787117E+02  0.63023138406E+02  0.00000000000E+00 0.  1.
<mgrwt>
<rscale>  0 0.17828408E+03</rscale>
<asrwt>0</asrwt>
<pdfrwt beam="2">  1        1 0.23941298E-01 0.18217734E+03</pdfrwt>
<pdfrwt beam="1">  1       -1 0.34953649E-01 0.18217734E+03</pdfrwt>
<totfact> 0.15680429E+03</totfact>
</mgrwt>
</event>
<event>
 6    1  0.5400401E-006  0.3744468E+03  0.7546771E-02  0.1067114E+00
         -1   -1    0    0    0  501 -0.00000000000E+00  0.00000000000E+00  0.66844649377E+02  0.66844649377E+02  0.00000000000E+00 0.  1.
          1   -1    0    0  501    0  0.00000000000E+00 -0.00000000000E+00 -0.14747964451E+04  0.14747964451E+04  0.00000000000E+00 0. -1.
          5    1    1    2  502    0 -0.18254577276E+03 -0.14727228655E+03 -0.31327941852E+03  0.39137982780E+03  0.47000000000E+01 0. -1.
         -5    1    1    2    0  502 -0.37842540275E+02  0.64302256401E+02 -0.48055252089E+03  0.48633286273E+03  0.47000000000E+01 0.  1.
        -11    1    1    2    0    0  0.11117570533E+03  0.84655819161E+02 -0.39715457729E+03  0.42102066865E+03  0.00000000000E+00 0.  1.
         11    1    1    2    0    0  0.10921260771E+03 -0.16857890069E+01 -0.21696527904E+03  0.24290773531E+03  0.00000000000E+00 0. -1.
<mgrwt>
<rscale>  0 0.33925324E+03</rscale>
<asrwt>0</asrwt>
<pdfrwt beam="2">  1        1 0.22689175E+00 0.37444682E+03</pdfrwt>
<pdfrwt beam="1">  1       -1 0.10283793E-01 0.37444682E+03</pdfrwt>
<totfact> 0.42997108E+02</totfact>
</mgrwt>
</event>
<event>
 7    1  0.5400401E-006  0.1277476E+03  0.7546771E-02  0.1246709E+00
         -2   -1    0    0    0  501 -0.00000000000E+00  0.00000000000E+00  0.10587613776E+03  0.10587613776E+03  0.00000000000E+00 0.  1.
          2   -1    0    0  501    0  0.00000000000E+00 -0.00000000000E+00 -0.14650951283E+03  0.14650951283E+03  0.00000000000E+00 0. -1.
         23    2    1    2    0    0  0.12098627057E+02  0.23409782433E+02  0.35507894205E+02  0.13259053940E+03  0.12500018359E+03 0.  0.
          5    1    3    3  502    0 -0.38870578664E+02 -0.45705348123E+00 -0.27596855414E+02  0.47904146087E+02  0.47000000000E+01 0. -1.
         -5    1    3    3    0  502  0.50969205721E+02  0.23866835914E+02  0.63104749619E+02  0.84686393316E+02  0.47000000000E+01 0. -1.
        -11    1    1    2    0    0 -0.42383661917E+02  0.13052133470E+02 -0.29278516134E+02  0.53140986937E+02  0.00000000000E+00 0.  1.
         11    1    1    2    0    0  0.30285034860E+02 -0.36461915903E+02 -0.46862753145E+02  0.66654124254E+02  0.00000000000E+00 0. -1.
<mgrwt>
<rscale>  0 0.11783700E+03</rscale>
<asrwt>0</asrwt>
<pdfrwt beam="2">  1        2 0.22539925E-01 0.12774757E+03</pdfrwt>
<pdfrwt beam="1">  1       -2 0.16288637E-01 0.12774757E+03</pdfrwt>
<totfact> 0.68145598E+03</totfact>
</mgrwt>
</event>
<event>
 7    1  0.5400401E-006  0.1385434E+03  0.7546771E-02  0.1226551E+00
          3   -1    0    0  501    0  0.00000000000E+00  0.00000000000E+00  0.13735548867E+03  0.13735548867E+03  0.00000000000E+00 0. -1.
         -3   -1    0    0    0  501 -0.00000000000E+00 -0.00000000000E+00 -0.12638151625E+03  0.12638151625E+03  0.00000000000E+00 0.  1.
         23    2    1    2    0    0  0.43508515202E+02 -0.40902272089E+02 -0.38266331000E+02  0.14373091792E+03  0.12501311099E+03 0.  0.
          5    1    3    3  502    0  0.24544762426E+02 -0.72781749286E+02  0.15247634381E+02  0.78448765101E+02  0.47000000000E+01 0. -1.
         -5    1    3    3    0  502  0.18963752776E+02  0.31879477197E+02 -0.53513965381E+02  0.65282152818E+02  0.47000000000E+01 0. -1.
        -11    1    1    2    0    0 -0.33309618423E+02  0.66183300552E+02  0.54834957808E+02  0.92177180198E+02  0.00000000000E+00 0. -1.
         11    1    1    2    0    0 -0.10198896779E+02 -0.25281028463E+02 -0.55946543866E+01  0.27828906794E+02  0.00000000000E+00 0.  1.
<mgrwt>
<rscale>  0 0.13061172E+03</rscale>
<asrwt>0</asrwt>
<pdfrwt beam="1">  1        3 0.21131614E-01 0.13854337E+03</pdfrwt>
<pdfrwt beam="2">  1       -3 0.19443310E-01 0.13854337E+03</pdfrwt>
<totfact> 0.11095248E+03</totfact>
</mgrwt>
</event>
<event>
 7    1  0.5400401E-006  0.1292798E+03  0.7546771E-02  0.1246048E+00
          2   -1    0    0  501    0  0.00000000000E+00  0.00000000000E+00  0.10180918925E+04  0.10180918925E+04  0.00000000000E+00 0. -1.
         -2   -1    0    0    0  501 -0.00000000000E+00 -0.00000000000E+00 -0.12151948575E+02  0.12151948575E+02  0.00000000000E+00 0.  1.
         23    2    1    2    0    0 -0.38780723196E+02 -0.22320568862E+01  0.51021346579E+03  0.52633738555E+03  0.12330586435E+03 0.  0.
          5    1    3    3  502    0 -0.27363477840E+02  0.27045480858E+02  0.42400531532E+02  0.57446610243E+02  0.47000000000E+01 0.  1.
         -5    1    3    3    0  502 -0.11417245357E+02 -0.29277537744E+02  0.46781293426E+03  0.46889077531E+03  0.47000000000E+01 0.  1.
        -11    1    1    2    0    0 -0.23496461214E+02  0.13537490242E+02  0.15282211757E+03  0.15520936489E+03  0.00000000000E+00 0. -1.
         11    1    1    2    0    0  0.62277184410E+02 -0.11305433355E+02  0.34290436058E+03  0.34869709065E+03  0.00000000000E+00 0.  1.
<mgrwt>
<rscale>  0 0.11822846E+03</rscale>
<asrwt>0</asrwt>
<pdfrwt beam="1">  1        2 0.15662945E+00 0.12927978E+03</pdfrwt>
<pdfrwt beam="2">  1       -2 0.18695313E-02 0.12927978E+03</pdfrwt>
<totfact> 0.20759885E+04</totfact>
</mgrwt>
</event>
<event>
 7    1  0.5400401E-006  0.1343076E+03  0.7546771E-02  0.1234096E+00
         -1   -1    0    0    0  501 -0.00000000000E+00  0.00000000000E+00  0.30372415989E+02  0.30372415989E+02  0.00000000000E+00 0.  1.
          1   -1    0    0  501    0  0.00000000000E+00 -0.00000000000E+00 -0.46289738128E+03  0.46289738128E+03  0.00000000000E+00 0. -1.
         23    2    1    2    0    0  0.45680181610E+02 -0.18085991952E+02 -0.24921818759E+03  0.28310463356E+03  0.12499898570E+03 0.  0.
          5    1    3    3  502    0  0.39852917404E+02  0.50884819333E+02 -0.12652877695E+03  0.14215885924E+03  0.47000000000E+01 0.  1.
         -5    1    3    3    0  502  0.58272642062E+01 -0.68970811286E+02 -0.12268941064E+03  0.14094577433E+03  0.47000000000E+01 0.  1.
        -11    1    1    2    0    0  0.18638609902E+01  0.42877072555E+02 -0.11861771668E+03  0.12614309351E+03  0.00000000000E+00 0. -1.
         11    1    1    2    0    0 -0.47544042601E+02 -0.24791080603E+02 -0.64689061025E+02  0.84022070199E+02  0.00000000000E+00 0.  1.
<mgrwt>
<rscale>  0 0.12562458E+03</rscale>
<asrwt>0</asrwt>
<pdfrwt beam="2">  1        1 0.71214980E-01 0.13430759E+03</pdfrwt>
<pdfrwt beam="1">  1       -1 0.46726795E-02 0.13430759E+03</pdfrwt>
<totfact> 0.92806390E+03</totfact>
</mgrwt>
</event>
<event>
 7    1  0.5400401E-006  0.1741511E+03  0.7546771E-02  0.1179281E+00
         -2   -1    0    0    0  501 -0.00000000000E+00  0.00000000000E+00  0.53287795292E+02  0.53287795292E+02  0.00000000000E+00 0.  1.
          2   -1    0    0  501    0  0.00000000000E+00 -0.00000000000E+00 -0.51752515972E+03  0.51752515972E+03  0.00000000000E+00 0. -1.
         23    2    1    2    0    0 -0.96753505390E+02  0.73081292637E+02 -0.19798493507E+03  0.26367904171E+03  0.12500594540E+03 0.  0.
          5    1    3    3  502    0 -0.10340975216E+03  0.10074562934E+03 -0.15457700142E+03  0.21156417003E+03  0.47000000000E+01 0.  1.
         -5    1    3    3    0  502  0.66562467731E+01 -0.27664336706E+02 -0.43407933650E+02  0.52114871680E+02  0.47000000000E+01 0.  1.
        -11    1    1    2    0    0  0.94224891245E+01 -0.17148763666E+02  0.18678518511E+01  0.19655845621E+02  0.00000000000E+00 0.  1.
         11    1    1    2    0    0  0.87331016265E+02 -0.55932528972E+02 -0.26812028121E+03  0.28747806768E+03  0.00000000000E+00 0. -1.
<mgrwt>
<rscale>  0 0.16863255E+03</rscale>
<asrwt>0</asrwt>
<pdfrwt beam="2">  1        2 0.79619257E-01 0.17415109E+03</pdfrwt>
<pdfrwt beam="1">  1       -2 0.81981222E-02 0.17415109E+03</pdfrwt>
<totfact> 0.53147527E+03</totfact>
</mgrwt>
</event>
<event>
 7    1  0.5400401E-006  0.1633975E+03  0.7546771E-02  0.1191629E+00
          1   -1    0    0  501    0  0.00000000000E+00  0.00000000000E+00  0.26620053206E+02  0.26620053206E+02  0.00000000000E+00 0. -1.
         -1   -1    0    0    0  501 -0.00000000000E+00 -0.00000000000E+00 -0.87115455520E+03  0.87115455520E+03  0.00000000000E+00 0.  1.
         23    2    1    2    0    0  0.39147789915E+02 -0.97678644594E+02 -0.47547940813E+03  0.50277173834E+03  0.12500034500E+03 0.  0.
          5    1    3    3  502    0  0.25554608684E+02 -0.23069317733E+02 -0.37595782027E+03  0.37756006683E+03  0.47000000000E+01 0.  1.
         -5    1    3    3    0  502  0.13593181231E+02 -0.74609326861E+02 -0.99521587858E+02  0.12521167150E+03  0.47000000000E+01 0.  1.
        -11    1    1    2    0    0  0.21204047309E+02  0.57835416259E+01 -0.22611477847E+02  0.31533155669E+02  0.00000000000E+00 0. -1.
         11    1    1    2    0    0 -0.60351837224E+02  0.91895102968E+02 -0.34644361602E+03  0.36346971440E+03  0.00000000000E+00 0.  1.
<mgrwt>
<rscale>  0 0.15742997E+03</rscale>
<asrwt>0</asrwt>
<pdfrwt beam="1">  1        1 0.40953923E-02 0.16339753E+03</pdfrwt>
<pdfrwt beam="2">  1       -1 0.13402380E+00 0.16339753E+03</pdfrwt>
<totfact> 0.10956008E+03</totfact>
</mgrwt>
</event>
<event>
 7    1  0.5400401E-006  0.1473676E+03  0.7546771E-02  0.1213628E+00
          1   -1    0    0  501    0  0.00000000000E+00  0.00000000000E+00  0.91144348921E+02  0.91144348921E+02  0.00000000000E+00 0. -1.
         -1   -1    0    0    0  501 -0.00000000000E+00 -0.00000000000E+00 -0.21981198307E+03  0.21981198307E+03  0.00000000000E+00 0.  1.
         23    2    1    2    0    0  0.77854489754E+02 -0.55385954747E+01 -0.12230913500E+03  0.19151174392E+03  0.12500090377E+03 0.  0.
          5    1    3    3  502    0 -0.13359059276E+02 -0.42757811758E+02 -0.19616608806E+02  0.49128365249E+02  0.47000000000E+01 0.  1.
         -5    1    3    3    0  502  0.91213549030E+02  0.37219216283E+02 -0.10269252619E+03  0.14238337868E+03  0.47000000000E+01 0.  1.
        -11    1    1    2    0    0 -0.50505231939E+02  0.47156643505E+02 -0.83755614390E+01  0.69603717640E+02  0.00000000000E+00 0.  1.
         11    1    1    2    0    0 -0.27349257815E+02 -0.41618048030E+02  0.20170622847E+01  0.49840870429E+02  0.00000000000E+00 0. -1.
<mgrwt>
<rscale>  0 0.13977811E+03</rscale>
<asrwt>0</asrwt>
<pdfrwt beam="1">  1        1 0.14022208E-01 0.14736765E+03</pdfrwt>
<pdfrwt beam="2">  1       -1 0.33817228E-01 0.14736765E+03</pdfrwt>
<totfact> 0.32737189E+03</totfact>
</mgrwt>
</event>
<event>
 7    1  0.5400401E-006  0.1307456E+03  0.7546771E-02  0.1234704E+00
         -1   -1    0    0    0  501 -0.00000000000E+00  0.00000000000E+00  0.17544645791E+03  0.17544645791E+03  0.00000000000E+00 0.  1.
          1   -1    0    0  501    0  0.00000000000E+00 -0.00000000000E+00 -0.91265100478E+02  0.91265100478E+02  0.00000000000E+00 0. -1.
         23    2    1    2    0    0  0.74591282368E+01 -0.64863921809E+02  0.86258705542E+02  0.15663648328E+03  0.11327601982E+03 0.  0.
          5    1    3    3  502    0  0.19318306768E+02  0.13508684817E+02 -0.14713558635E+02  0.28182624959E+02  0.47000000000E+01 0. -1.
         -5    1    3    3    0  502 -0.11859178531E+02 -0.78372606627E+02  0.10097226418E+03  0.12845385832E+03  0.47000000000E+01 0.  1.
        -11    1    1    2    0    0  0.60729975610E+01  0.83021696868E+02  0.10932635094E+02  0.83958358490E+02  0.00000000000E+00 0. -1.
         11    1    1    2    0    0 -0.13532125798E+02 -0.18157775059E+02 -0.13009983206E+02  0.26116716615E+02  0.00000000000E+00 0.  1.
<mgrwt>
<rscale>  0 0.12523431E+03</rscale>
<asrwt>0</asrwt>
<pdfrwt beam="2">  1        1 0.14040785E-01 0.13074564E+03</pdfrwt>
<pdfrwt beam="1">  1       -1 0.26991763E-01 0.13074564E+03</pdfrwt>
<totfact> 0.47432331E+03</totfact>
</mgrwt>
</event>
<event>
 7    1  0.5400401E-006  0.1321162E+03  0.7546771E-02  0.1237616E+00
          1   -1    0    0  501    0  0.00000000000E+00  0.00000000000E+00  0.11698304219E+03  0.11698304219E+03  0.00000000000E+00 0. -1.
         -1   -1    0    0    0  501 -0.00000000000E+00 -0.00000000000E+00 -0.19553446837E+03  0.19553446837E+03  0.00000000000E+00 0.  1.
         23    2    1    2    0    0  0.23521496748E+02 -0.35729292875E+02 -0.14176888357E+03  0.19378623933E+03  0.12499938810E+03 0.  0.
          5    1    3    3  502    0  0.20003825646E+02  0.18504621688E+02 -0.13616949165E+03  0.13894889176E+03  0.47000000000E+01 0. -1.
         -5    1    3    3    0  502  0.35176711021E+01 -0.54233914563E+02 -0.55993919221E+01  0.54837347572E+02  0.47000000000E+01 0. -1.
        -11    1    1    2    0    0 -0.41417591975E+02  0.53532130549E+02  0.64446509194E+02  0.93458324794E+02  0.00000000000E+00 0. -1.
         11    1    1    2    0    0  0.17896095227E+02 -0.17802837674E+02 -0.12290518016E+01  0.25272946443E+02  0.00000000000E+00 0.  1.
<mgrwt>
<rscale>  0 0.12338456E+03</rscale>
<asrwt>0</asrwt>
<pdfrwt beam="1">  1        1 0.17997391E-01 0.13211620E+03</pdfrwt>
<pdfrwt beam="2">  1       -1 0.30082226E-01 0.13211620E+03</pdfrwt>
<totfact> 0.28768076E+03</totfact>
</mgrwt>
</event>
<event>
 7    1  0.5400401E-006  0.3157160E+03  0.7546771E-02  0.1078927E+00
         -1   -1    0    0    0  501 -0.00000000000E+00  0.00000000000E+00  0.10794651301E+03  0.10794651301E+03  0.00000000000E+00 0. -1.
          1   -1    0    0  501    0  0.00000000000E+00 -0.00000000000E+00 -0.10983486938E+04  0.10983486938E+04  0.00000000000E+00 0.  1.
         23    2    1    2    0    0 -0.23924287566E+03  0.16373615472E+03 -0.24083380349E+03  0.39708629284E+03  0.12501968300E+03 0.  0.
          5    1    3    3  502    0 -0.80044181860E+02  0.53558160241E+02 -0.16088875260E+03  0.18757086205E+03  0.47000000000E+01 0. -1.
         -5    1    3    3    0  502 -0.15919869380E+03  0.11017799448E+03 -0.79945050896E+02  0.20951543079E+03  0.47000000000E+01 0. -1.
        -11    1    1    2    0    0  0.11470134579E+03 -0.35202901660E+02 -0.38171810228E+03  0.40013041951E+03  0.00000000000E+00 0.  1.
         11    1    1    2    0    0  0.12454152987E+03 -0.12853325306E+03 -0.36785027504E+03  0.40907849449E+03  0.00000000000E+00 0. -1.
<mgrwt>
<rscale>  0 0.31297753E+03</rscale>
<asrwt>0</asrwt>
<pdfrwt beam="2">  1        1 0.16897672E+00 0.31571602E+03</pdfrwt>
<pdfrwt beam="1">  1       -1 0.16607156E-01 0.31571602E+03</pdfrwt>
<totfact> 0.36940916E+02</totfact>
</mgrwt>
</event>
<event>
 7    1  0.5400401E-006  0.1388460E+03  0.7546771E-02  0.1240554E+00
         -1   -1    0    0    0  501 -0.00000000000E+00  0.00000000000E+00  0.29097944958E+03  0.29097944958E+03  0.00000000000E+00 0.  1.
          1   -1    0    0  501    0  0.00000000000E+00 -0.00000000000E+00 -0.47211026360E+02  0.47211026360E+02  0.00000000000E+00 0. -1.
         23    2    1    2    0    0 -0.57992243258E+02  0.17021560627E+02  0.20571606627E+03  0.24818803032E+03  0.12500145866E+03 0.  0.
          5    1    3    3  502    0 -0.86945935560E+02 -0.15498221491E+02  0.98534127980E+02  0.13240413497E+03  0.47000000000E+01 0. -1.
         -5    1    3    3    0  502  0.28953692301E+02  0.32519782117E+02  0.10718193829E+03  0.11578389535E+03  0.47000000000E+01 0. -1.
        -11    1    1    2    0    0  0.10548536633E+02 -0.91085084022E+01  0.39494853309E+02  0.41881738124E+02  0.00000000000E+00 0. -1.
         11    1    1    2    0    0  0.47443706625E+02 -0.79130522245E+01 -0.14424963637E+01  0.48120707493E+02  0.00000000000E+00 0.  1.
<mgrwt>
<rscale>  0 0.12155496E+03</rscale>
<asrwt>0</asrwt>
<pdfrwt beam="2">  1        1 0.72632350E-02 0.13884595E+03</pdfrwt>
<pdfrwt beam="1">  1       -1 0.44766068E-01 0.13884595E+03</pdfrwt>
<totfact> 0.47818156E+03</totfact>
</mgrwt>
</event>
<event>
 7    1  0.5400401E-006  0.1439343E+03  0.7546771E-02  0.1218220E+00
          4   -1    0    0  501    0  0.00000000000E+00  0.00000000000E+00  0.16220634998E+03  0.16220634998E+03  0.00000000000E+00 0. -1.
         -4   -1    0    0    0  501 -0.00000000000E+00 -0.00000000000E+00 -0.10628181710E+03  0.10628181710E+03  0.00000000000E+00 0.  1.
         23    2    1    2    0    0  0.63809634323E+02 -0.31947801599E+02  0.49237966155E+02  0.15212319719E+03  0.12499903340E+03 0.  0.
          5    1    3    3  502    0  0.35698984260E+02  0.37627572508E+01 -0.38718661858E+02  0.53007552249E+02  0.47000000000E+01 0.  1.
         -5    1    3    3    0  502  0.28110650062E+02 -0.35710558850E+02  0.87956628013E+02  0.99115644939E+02  0.47000000000E+01 0.  1.
        -11    1    1    2    0    0 -0.34157432213E+02  0.32412495264E+02 -0.39510387068E+02  0.61468452973E+02  0.00000000000E+00 0.  1.
         11    1    1    2    0    0 -0.29652202109E+02 -0.46469366573E+00  0.46196953795E+02  0.54896516921E+02  0.00000000000E+00 0. -1.
<mgrwt>
<rscale>  0 0.13642668E+03</rscale>
<asrwt>0</asrwt>
<pdfrwt beam="1">  1        4 0.24954823E-01 0.14393432E+03</pdfrwt>
<pdfrwt beam="2">  1       -4 0.16351049E-01 0.14393432E+03</pdfrwt>
<totfact> 0.81397609E+02</totfact>
</mgrwt>
</event>
<event>
 7    1  0.5400401E-006  0.1300090E+03  0.7546771E-02  0.1241546E+00
          4   -1    0    0  501    0  0.00000000000E+00  0.00000000000E+00  0.28938827951E+02  0.28938827951E+02  0.00000000000E+00 0. -1.
         -4   -1    0    0    0  501 -0.00000000000E+00 -0.00000000000E+00 -0.44754665807E+03  0.44754665807E+03  0.00000000000E+00 0.  1.
         23    2    1    2    0    0  0.34870838017E+02  0.78954680717E+01 -0.22873935989E+03  0.26310462536E+03  0.12499614139E+03 0.  0.
          5    1    3    3  502    0  0.72945560638E+01 -0.57457488460E+02 -0.88419600002E+02  0.10580495826E+03  0.47000000000E+01 0. -1.
         -5    1    3    3    0  502  0.27576281954E+02  0.65352956531E+02 -0.14031975988E+03  0.15729966709E+03  0.47000000000E+01 0. -1.
        -11    1    1    2    0    0 -0.21361578237E+02 -0.25616062282E+02 -0.18809310685E+03  0.19102752816E+03  0.00000000000E+00 0.  1.
         11    1    1    2    0    0 -0.13509259780E+02  0.17720594211E+02 -0.17753633873E+01  0.22353332506E+02  0.00000000000E+00 0. -1.
<mgrwt>
<rscale>  0 0.12094529E+03</rscale>
<asrwt>0</asrwt>
<pdfrwt beam="1">  1        4 0.44521279E-02 0.13000903E+03</pdfrwt>
<pdfrwt beam="2">  1       -4 0.68853323E-01 0.13000903E+03</pdfrwt>
<totfact> 0.93280413E+02</totfact>
</mgrwt>
</event>
<event>
 6    1  0.5400401E-006  0.1775980E+03  0.7546771E-02  0.1187148E+00
         -2   -1    0    0    0  501 -0.00000000000E+00  0.00000000000E+00  0.32358850076E+02  0.32358850076E+02  0.00000000000E+00 0.  1.
          2   -1    0    0  501    0  0.00000000000E+00 -0.00000000000E+00 -0.91459540697E+03  0.91459540697E+03  0.00000000000E+00 0. -1.
          5    1    1    2  502    0  0.20221601896E+02 -0.22635814755E+02 -0.27367040272E+03  0.27538858476E+03  0.47000000000E+01 0. -1.
         -5    1    1    2    0  502  0.31517616614E+02 -0.37982767974E+02  0.14976863994E+01  0.49602256849E+02  0.47000000000E+01 0.  1.
        -11    1    1    2    0    0  0.43173488897E+01  0.63841472142E+02 -0.28593736626E+03  0.29300947167E+03  0.00000000000E+00 0. -1.
         11    1    1    2    0    0 -0.56056567400E+02 -0.32228894122E+01 -0.32412647432E+03  0.32895394377E+03  0.00000000000E+00 0.  1.
<mgrwt>
<rscale>  0 0.16137921E+03</rscale>
<asrwt>0</asrwt>
<pdfrwt beam="2">  1        2 0.14070699E+00 0.17759803E+03</pdfrwt>
<pdfrwt beam="1">  1       -2 0.49782846E-02 0.17759803E+03</pdfrwt>
<totfact> 0.57578964E+03</totfact>
</mgrwt>
</event>
<event>
 7    1  0.5400401E-006  0.1930618E+03  0.7546771E-02  0.1160294E+00
          2   -1    0    0  501    0  0.00000000000E+00  0.00000000000E+00  0.14924899141E+03  0.14924899141E+03  0.00000000000E+00 0.  1.
         -2   -1    0    0    0  501 -0.00000000000E+00 -0.00000000000E+00 -0.25145042007E+03  0.25145042007E+03  0.00000000000E+00 0. -1.
         23    2    1    2    0    0  0.14373933801E+03  0.31516834354E+02 -0.11829663641E+03  0.22642208256E+03  0.12497422592E+03 0.  0.
          5    1    3    3  502    0 -0.14340312811E+02  0.31217713205E+02 -0.17044595959E+02  0.38636749871E+02  0.47000000000E+01 0. -1.
         -5    1    3    3    0  502  0.15807965082E+03  0.29912114949E+00 -0.10125204045E+03  0.18778533268E+03  0.47000000000E+01 0. -1.
        -11    1    1    2    0    0 -0.80715253466E+02 -0.31170092847E+01  0.52314116863E+02  0.96236348185E+02  0.00000000000E+00 0.  1.
         11    1    1    2    0    0 -0.63024084542E+02 -0.28399825069E+02 -0.36218909112E+02  0.78040980732E+02  0.00000000000E+00 0. -1.
<mgrwt>
<rscale>  0 0.18798254E+03</rscale>
<asrwt>0</asrwt>
<pdfrwt beam="1">  1        2 0.22961384E-01 0.19306182E+03</pdfrwt>
<pdfrwt beam="2">  1       -2 0.38684679E-01 0.19306182E+03</pdfrwt>
<totfact> 0.14888911E+03</totfact>
</mgrwt>
</event>
<event>
 7    1  0.5400401E-006  0.1628261E+03  0.7546771E-02  0.1193123E+00
          1   -1    0    0  501    0  0.00000000000E+00  0.00000000000E+00  0.38219913421E+02  0.38219913421E+02  0.00000000000E+00 0. -1.
         -1   -1    0    0    0  501 -0.00000000000E+00 -0.00000000000E+00 -0.59406938681E+03  0.59406938681E+03  0.00000000000E+00 0.  1.
         23    2    1    2    0    0 -0.68117558333E+02 -0.79058922960E+02 -0.27739327551E+03  0.32165101744E+03  0.12498813013E+03 0.  0.
          5    1    3    3  502    0  0.23929104920E+02  0.70597261186E+01 -0.12587487537E+02  0.28336842408E+02  0.47000000000E+01 0.  1.
         -5    1    3    3    0  502 -0.92046663253E+02 -0.86118649078E+02 -0.26480578797E+03  0.29331417504E+03  0.47000000000E+01 0.  1.
        -11    1    1    2    0    0  0.54188125982E+02  0.37282341131E+02 -0.64234181642E+02  0.91936695878E+02  0.00000000000E+00 0. -1.
         11    1    1    2    0    0  0.13929432351E+02  0.41776581828E+02 -0.21422201624E+03  0.21870158691E+03  0.00000000000E+00 0.  1.
<mgrwt>
<rscale>  0 0.15614136E+03</rscale>
<asrwt>0</asrwt>
<pdfrwt beam="1">  1        1 0.58799866E-02 0.16282613E+03</pdfrwt>
<pdfrwt beam="2">  1       -1 0.91395291E-01 0.16282613E+03</pdfrwt>
<totfact> 0.16040441E+03</totfact>
</mgrwt>
</event>
<event>
 7    1  0.5400401E-006  0.1435351E+03  0.7546771E-02  0.1219132E+00
         -1   -1    0    0    0  501 -0.00000000000E+00  0.00000000000E+00  0.80390075579E+02  0.80390075579E+02  0.00000000000E+00 0.  1.
          1   -1    0    0  501    0  0.00000000000E+00 -0.00000000000E+00 -0.21528571062E+03  0.21528571062E+03  0.00000000000E+00 0. -1.
         23    2    1    2    0    0 -0.70366903336E+02  0.45653529280E+01 -0.47123313951E+02  0.15107261046E+03  0.12501993194E+03 0.  0.
          5    1    3    3  502    0 -0.79469685168E+02  0.78181131589E+01  0.20519261177E+02  0.82581377037E+02  0.47000000000E+01 0. -1.
         -5    1    3    3    0  502  0.91027818316E+01 -0.32527602309E+01 -0.67642575127E+02  0.68491233425E+02  0.47000000000E+01 0. -1.
        -11    1    1    2    0    0  0.68264319108E+02 -0.17948409678E+02 -0.17076061106E+02  0.72620620599E+02  0.00000000000E+00 0.  1.
         11    1    1    2    0    0  0.21025842278E+01  0.13383056750E+02 -0.70696259988E+02  0.71982555142E+02  0.00000000000E+00 0. -1.
<mgrwt>
<rscale>  0 0.13577363E+03</rscale>
<asrwt>0</asrwt>
<pdfrwt beam="2">  1        1 0.33120878E-01 0.14353511E+03</pdfrwt>
<pdfrwt beam="1">  1       -1 0.12367704E-01 0.14353511E+03</pdfrwt>
<totfact> 0.55871273E+03</totfact>
</mgrwt>
</event>
<event>
 7    1  0.5400401E-006  0.1294709E+03  0.7546771E-02  0.1242554E+00
          2   -1    0    0  501    0  0.00000000000E+00  0.00000000000E+00  0.96911550977E+02  0.96911550977E+02  0.00000000000E+00 0. -1.
         -2   -1    0    0    0  501 -0.00000000000E+00 -0.00000000000E+00 -0.13769225243E+03  0.13769225243E+03  0.00000000000E+00 0.  1.
         23    2    1    2    0    0  0.31241551416E+02  0.12732185811E+02 -0.47165043686E+02  0.13779424808E+03  0.12499828146E+03 0.  0.
          5    1    3    3  502    0  0.69441249719E+02 -0.20658886221E+02 -0.70469323371E+01  0.72942621270E+02  0.47000000000E+01 0. -1.
         -5    1    3    3    0  502 -0.38199698302E+02  0.33391072032E+02 -0.40118111349E+02  0.64851626811E+02  0.47000000000E+01 0. -1.
        -11    1    1    2    0    0  0.25263254576E+02 -0.18900452551E+02 -0.16416687681E+02  0.35566371376E+02  0.00000000000E+00 0.  1.
         11    1    1    2    0    0 -0.56504805992E+02  0.61682667400E+01  0.22801029917E+02  0.61243183948E+02  0.00000000000E+00 0. -1.
<mgrwt>
<rscale>  0 0.12032949E+03</rscale>
<asrwt>0</asrwt>
<pdfrwt beam="1">  1        2 0.14909469E-01 0.12947090E+03</pdfrwt>
<pdfrwt beam="2">  1       -2 0.21183423E-01 0.12947090E+03</pdfrwt>
<totfact> 0.70411712E+03</totfact>
</mgrwt>
</event>
<event>
 7    1  0.5400401E-006  0.1511598E+03  0.7546771E-02  0.1206841E+00
         -1   -1    0    0    0  501 -0.00000000000E+00  0.00000000000E+00  0.33504063194E+02  0.33504063194E+02  0.00000000000E+00 0.  1.
          1   -1    0    0  501    0  0.00000000000E+00 -0.00000000000E+00 -0.58655588136E+03  0.58655588136E+03  0.00000000000E+00 0. -1.
         23    2    1    2    0    0 -0.82575510675E+02  0.19969199900E+02 -0.26799363228E+03  0.30768470486E+03  0.12502722404E+03 0.  0.
          5    1    3    3  502    0 -0.21565450862E+02 -0.50058996628E+02 -0.13246959076E+03  0.14332220446E+03  0.47000000000E+01 0.  1.
         -5    1    3    3    0  502 -0.61010059813E+02  0.70028196529E+02 -0.13552404152E+03  0.16436250040E+03  0.47000000000E+01 0.  1.
        -11    1    1    2    0    0 -0.37412171305E+01 -0.38441954617E+02 -0.70883269754E+02  0.80723097756E+02  0.00000000000E+00 0.  1.
         11    1    1    2    0    0  0.86316727806E+02  0.18472754717E+02 -0.21417491613E+03  0.23165214194E+03  0.00000000000E+00 0. -1.
<mgrwt>
<rscale>  0 0.14493314E+03</rscale>
<asrwt>0</asrwt>
<pdfrwt beam="2">  1        1 0.90239360E-01 0.15115982E+03</pdfrwt>
<pdfrwt beam="1">  1       -1 0.51544716E-02 0.15115982E+03</pdfrwt>
<totfact> 0.59151535E+03</totfact>
</mgrwt>
</event>
<event>
 7    1  0.5400401E-006  0.1366773E+03  0.7546771E-02  0.1229600E+00
         -1   -1    0    0    0  501 -0.00000000000E+00  0.00000000000E+00  0.60070137576E+03  0.60070137576E+03  0.00000000000E+00 0. -1.
          1   -1    0    0  501    0  0.00000000000E+00 -0.00000000000E+00 -0.43452775400E+02  0.43452775400E+02  0.00000000000E+00 0.  1.
         23    2    1    2    0    0  0.36014864063E+02  0.41895295613E+02  0.50853426113E+03  0.52658120979E+03  0.12501355740E+03 0.  0.
          5    1    3    3  502    0  0.19152822769E+02 -0.42290379494E+02  0.12249879074E+03  0.13108527968E+03  0.47000000000E+01 0. -1.
         -5    1    3    3    0  502  0.16862041295E+02  0.84185675107E+02  0.38603547039E+03  0.39549593011E+03  0.47000000000E+01 0. -1.
        -11    1    1    2    0    0  0.12109764961E+02  0.10060821408E+02  0.43845199670E+02  0.46586136016E+02  0.00000000000E+00 0. -1.
         11    1    1    2    0    0 -0.48124629024E+02 -0.51956117021E+02  0.48691395621E+01  0.70986805356E+02  0.00000000000E+00 0.  1.
<mgrwt>
<rscale>  0 0.12856548E+03</rscale>
<asrwt>0</asrwt>
<pdfrwt beam="2">  1        1 0.66850428E-02 0.13667727E+03</pdfrwt>
<pdfrwt beam="1">  1       -1 0.92415591E-01 0.13667727E+03</pdfrwt>
<totfact> 0.13075420E+03</totfact>
</mgrwt>
</event>
<event>
 6    1  0.5400401E-006  0.1433568E+03  0.7546771E-02  0.1226374E+00
          3   -1    0    0  501    0  0.00000000000E+00  0.00000000000E+00  0.17241855383E+02  0.17241855383E+02  0.00000000000E+00 0. -1.
         -3   -1    0    0    0  501 -0.00000000000E+00 -0.00000000000E+00 -0.94646851224E+03  0.94646851224E+03  0.00000000000E+00 0.  1.
          5    1    1    2  502    0 -0.49999029271E+02 -0.19675034065E+02 -0.13896498243E+03  0.14906497320E+03  0.47000000000E+01 0. -1.
         -5    1    1    2    0  502  0.68959133046E+02  0.18640050472E+02 -0.55135683637E+03  0.55598494991E+03  0.47000000000E+01 0.  1.
        -11    1    1    2    0    0  0.32148554751E+02 -0.18117537878E+02 -0.14885881976E+03  0.15336467316E+03  0.00000000000E+00 0. -1.
         11    1    1    2    0    0 -0.51108658526E+02  0.19152521471E+02 -0.90046018296E+02  0.10529577136E+03  0.00000000000E+00 0.  1.
<mgrwt>
<rscale>  0 0.13073183E+03</rscale>
<asrwt>0</asrwt>
<pdfrwt beam="1">  1        3 0.26525928E-02 0.14335683E+03</pdfrwt>
<pdfrwt beam="2">  1       -3 0.14561056E+00 0.14335683E+03</pdfrwt>
<totfact> 0.53307363E+02</totfact>
</mgrwt>
</event>
<event>
 7    1  0.5400401E-006  0.1499303E+03  0.7546771E-02  0.1209438E+00
          2   -1    0    0  501    0  0.00000000000E+00  0.00000000000E+00  0.65185403572E+03  0.65185403572E+03  0.00000000000E+00 0. -1.
         -2   -1    0    0    0  501 -0.00000000000E+00 -0.00000000000E+00 -0.28841815316E+02  0.28841815316E+02  0.00000000000E+00 0.  1.
         23    2    1    2    0    0  0.42076374741E+02 -0.71299279913E+02  0.32136015064E+03  0.35461450519E+03  0.12500036896E+03 0.  0.
          5    1    3    3  502    0  0.30939962112E+02 -0.10331170387E+03  0.18656528192E+03  0.21554415750E+03  0.47000000000E+01 0. -1.
         -5    1    3    3    0  502  0.11136412629E+02  0.32012423955E+02  0.13479486872E+03  0.13907034769E+03  0.47000000000E+01 0. -1.
        -11    1    1    2    0    0 -0.33505096142E+02  0.23698853331E+02  0.31769630246E+02  0.51899292121E+02  0.00000000000E+00 0.  1.
         11    1    1    2    0    0 -0.85712785987E+01  0.47600426582E+02  0.26988243952E+03  0.27418205373E+03  0.00000000000E+00 0. -1.
<mgrwt>
<rscale>  0 0.14293146E+03</rscale>
<asrwt>0</asrwt>
<pdfrwt beam="1">  1        2 0.10028523E+00 0.14993032E+03</pdfrwt>
<pdfrwt beam="2">  1       -2 0.44372028E-02 0.14993032E+03</pdfrwt>
<totfact> 0.10332520E+04</totfact>
</mgrwt>
</event>
<event>
 7    1  0.5400401E-006  0.1466191E+03  0.7546771E-02  0.1213832E+00
          2   -1    0    0  501    0  0.00000000000E+00  0.00000000000E+00  0.75939557596E+02  0.75939557596E+02  0.00000000000E+00 0. -1.
         -2   -1    0    0    0  501 -0.00000000000E+00 -0.00000000000E+00 -0.24436987505E+03  0.24436987505E+03  0.00000000000E+00 0.  1.
         23    2    1    2    0    0  0.61280549043E+02  0.46000376850E+02 -0.12322980910E+03  0.19152738036E+03  0.12500324482E+03 0.  0.
          5    1    3    3  502    0  0.52126845779E+02 -0.36105253401E+02 -0.59519541102E+02  0.87094564394E+02  0.47000000000E+01 0.  1.
         -5    1    3    3    0  502  0.91537032637E+01  0.82105630251E+02 -0.63710267999E+02  0.10443281597E+03  0.47000000000E+01 0.  1.
        -11    1    1    2    0    0 -0.61437145602E+02 -0.18616552859E+02 -0.67731508735E+02  0.93320180967E+02  0.00000000000E+00 0.  1.
         11    1    1    2    0    0  0.15659655900E+00 -0.27383823991E+02  0.22531000384E+02  0.35461871315E+02  0.00000000000E+00 0. -1.
<mgrwt>
<rscale>  0 0.13962715E+03</rscale>
<asrwt>0</asrwt>
<pdfrwt beam="1">  1        2 0.11683009E-01 0.14661907E+03</pdfrwt>
<pdfrwt beam="2">  1       -2 0.37595366E-01 0.14661907E+03</pdfrwt>
<totfact> 0.34114573E+03</totfact>
</mgrwt>
</event>
<event>
 7    1  0.5400401E-006  0.2428468E+03  0.7546771E-02  0.1121441E+00
         -2   -1    0    0    0  501 -0.00000000000E+00  0.00000000000E+00  0.45395274475E+02  0.45395274475E+02  0.00000000000E+00 0. -1.
          2   -1    0    0  501    0  0.00000000000E+00 -0.00000000000E+00 -0.12534552412E+04  0.12534552412E+04  0.00000000000E+00 0.  1.
         23    2    1    2    0    0  0.18264638816E+03  0.99954569311E+02 -0.48527131869E+03  0.54264430057E+03  0.12499586059E+03 0.  0.
          5    1    3    3  502    0  0.16943351046E+03  0.67867275593E+02 -0.27906819941E+03  0.33348887760E+03  0.47000000000E+01 0.  1.
         -5    1    3    3    0  502  0.13212877695E+02  0.32087293718E+02 -0.20620311928E+03  0.20915542297E+03  0.47000000000E+01 0.  1.
        -11    1    1    2    0    0 -0.56129673730E+02 -0.74134764077E+02 -0.28668849909E+03  0.30139143821E+03  0.00000000000E+00 0.  1.
         11    1    1    2    0    0 -0.12651671442E+03 -0.25819805234E+02 -0.43610014896E+03  0.45481477691E+03  0.00000000000E+00 0. -1.
<mgrwt>
<rscale>  0 0.23754288E+03</rscale>
<asrwt>0</asrwt>
<pdfrwt beam="2">  1        2 0.19283926E+00 0.24284683E+03</pdfrwt>
<pdfrwt beam="1">  1       -2 0.69838886E-02 0.24284683E+03</pdfrwt>
<totfact> 0.21782340E+03</totfact>
</mgrwt>
</event>
<event>
 7    1  0.5400401E-006  0.1263708E+03  0.7546771E-02  0.1241508E+00
         -2   -1    0    0    0  501 -0.00000000000E+00  0.00000000000E+00  0.31268387649E+02  0.31268387649E+02  0.00000000000E+00 0.  1.
          2   -1    0    0  501    0  0.00000000000E+00 -0.00000000000E+00 -0.43606267472E+03  0.43606267472E+03  0.00000000000E+00 0. -1.
         23    2    1    2    0    0 -0.42447558597E+02 -0.10147586784E+02 -0.19773665276E+03  0.23466862972E+03  0.11859516508E+03 0.  0.
          5    1    3    3  502    0 -0.72201584103E+02 -0.40392343717E+02 -0.14274233937E+03  0.16505173621E+03  0.47000000000E+01 0. -1.
         -5    1    3    3    0  502  0.29754025506E+02  0.30244756934E+02 -0.54994313395E+02  0.69616893507E+02  0.47000000000E+01 0.  1.
        -11    1    1    2    0    0 -0.16531593792E+02 -0.29579385674E+02 -0.51861739114E+02  0.61950574122E+02  0.00000000000E+00 0. -1.
         11    1    1    2    0    0  0.58979152389E+02  0.39726972458E+02 -0.15519589519E+03  0.17071185852E+03  0.00000000000E+00 0.  1.
<mgrwt>
<rscale>  0 0.12096850E+03</rscale>
<asrwt>0</asrwt>
<pdfrwt beam="2">  1        2 0.67086563E-01 0.12637081E+03</pdfrwt>
<pdfrwt beam="1">  1       -2 0.48105213E-02 0.12637081E+03</pdfrwt>
<totfact> 0.14153575E+04</totfact>
</mgrwt>
</event>
<event>
 7    1  0.5400401E-006  0.1305989E+03  0.7546771E-02  0.1241376E+00
          1   -1    0    0  501    0  0.00000000000E+00  0.00000000000E+00  0.15995661021E+03  0.15995661021E+03  0.00000000000E+00 0. -1.
         -1   -1    0    0    0  501 -0.00000000000E+00 -0.00000000000E+00 -0.85841169050E+02  0.85841169050E+02  0.00000000000E+00 0.  1.
         23    2    1    2    0    0  0.14190872703E+02 -0.35059319162E+02  0.12046579144E+02  0.13115333023E+03  0.12500215691E+03 0.  0.
          5    1    3    3  502    0  0.18492720728E+02 -0.71838766146E+02  0.40102809163E+02  0.84457766629E+02  0.47000000000E+01 0. -1.
         -5    1    3    3    0  502 -0.43018480253E+01  0.36779446984E+02 -0.28056230019E+02  0.46695563598E+02  0.47000000000E+01 0. -1.
        -11    1    1    2    0    0  0.11398208879E+02  0.59206019689E+02  0.46638968543E+02  0.76226408284E+02  0.00000000000E+00 0.  1.
         11    1    1    2    0    0 -0.25589081582E+02 -0.24146700527E+02  0.15429893477E+02  0.38418040753E+02  0.00000000000E+00 0. -1.
<mgrwt>
<rscale>  0 0.12104904E+03</rscale>
<asrwt>0</asrwt>
<pdfrwt beam="1">  1        1 0.24608709E-01 0.13059891E+03</pdfrwt>
<pdfrwt beam="2">  1       -1 0.13206334E-01 0.13059891E+03</pdfrwt>
<totfact> 0.72652579E+03</totfact>
</mgrwt>
</event>
<event>
 7    1  0.5400401E-006  0.1652972E+03  0.7546771E-02  0.1189745E+00
         -4   -1    0    0    0  501 -0.00000000000E+00  0.00000000000E+00  0.20363791066E+04  0.20363791066E+04  0.00000000000E+00 0.  1.
          4   -1    0    0  501    0  0.00000000000E+00 -0.00000000000E+00 -0.11875921736E+02  0.11875921736E+02  0.00000000000E+00 0. -1.
         23    2    1    2    0    0 -0.10233147311E+03 -0.35030112707E+02  0.12499866040E+04  0.12608686221E+04  0.12499733112E+03 0.  0.
          5    1    3    3  502    0 -0.73854909830E+02 -0.67703538318E+02  0.11030568211E+04  0.11076076731E+04  0.47000000000E+01 0. -1.
         -5    1    3    3    0  502 -0.28476563275E+02  0.32673425611E+02  0.14692978286E+03  0.15326094900E+03  0.47000000000E+01 0. -1.
        -11    1    1    2    0    0  0.11288457078E+03  0.10803298059E+02  0.67298505271E+03  0.68247235749E+03  0.00000000000E+00 0. -1.
         11    1    1    2    0    0 -0.10553097677E+02  0.24226814649E+02  0.10153152822E+03  0.10491404883E+03  0.00000000000E+00 0.  1.
<mgrwt>
<rscale>  0 0.15907521E+03</rscale>
<asrwt>0</asrwt>
<pdfrwt beam="2">  1        4 0.18270665E-02 0.16529722E+03</pdfrwt>
<pdfrwt beam="1">  1       -4 0.31328882E+00 0.16529722E+03</pdfrwt>
<totfact> 0.63386546E+01</totfact>
</mgrwt>
</event>
<event>
 7    1  0.5400401E-006  0.1309272E+03  0.7546771E-02  0.1239397E+00
         -2   -1    0    0    0  501 -0.00000000000E+00  0.00000000000E+00  0.17743970214E+03  0.17743970214E+03  0.00000000000E+00 0.  1.
          2   -1    0    0  501    0  0.00000000000E+00 -0.00000000000E+00 -0.87162740787E+02  0.87162740787E+02  0.00000000000E+00 0. -1.
         23    2    1    2    0    0  0.37848551502E+02  0.91398628286E+01  0.99705844690E+02  0.16456967719E+03  0.12500349292E+03 0.  0.
          5    1    3    3  502    0 -0.24253904783E+02 -0.19841720455E+02 -0.11625167099E+02  0.33751744813E+02  0.47000000000E+01 0. -1.
         -5    1    3    3    0  502  0.62102456284E+02  0.28981583284E+02  0.11133101179E+03  0.13081793238E+03  0.47000000000E+01 0. -1.
        -11    1    1    2    0    0 -0.39822004887E+01 -0.23627069173E+02 -0.43624849758E+02  0.49771717218E+02  0.00000000000E+00 0. -1.
         11    1    1    2    0    0 -0.33866351013E+02  0.14487206344E+02  0.34195966426E+02  0.50261048520E+02  0.00000000000E+00 0.  1.
<mgrwt>
<rscale>  0 0.12227099E+03</rscale>
<asrwt>0</asrwt>
<pdfrwt beam="2">  1        2 0.13409652E-01 0.13092717E+03</pdfrwt>
<pdfrwt beam="1">  1       -2 0.27298416E-01 0.13092717E+03</pdfrwt>
<totfact> 0.51418086E+03</totfact>
</mgrwt>
</event>
<event>
 7    1  0.5400401E-006  0.1371437E+03  0.7546771E-02  0.1229645E+00
          2   -1    0    0  501    0  0.00000000000E+00  0.00000000000E+00  0.56049008722E+03  0.56049008722E+03  0.00000000000E+00 0. -1.
         -2   -1    0    0    0  501 -0.00000000000E+00 -0.00000000000E+00 -0.32482878518E+02  0.32482878518E+02  0.00000000000E+00 0.  1.
         23    2    1    2    0    0  0.44375854747E+02 -0.34844048105E+02  0.16342850783E+03  0.21334777514E+03  0.12500028725E+03 0.  0.
          5    1    3    3  502    0  0.64704448260E+02  0.34024952275E+01  0.27388296916E+02  0.70501428399E+02  0.47000000000E+01 0. -1.
         -5    1    3    3    0  502 -0.20328593513E+02 -0.38246543333E+02  0.13604021092E+03  0.14284634674E+03  0.47000000000E+01 0. -1.
        -11    1    1    2    0    0 -0.63167333270E+02 -0.30059251624E+01  0.23282786090E+03  0.24126325951E+03  0.00000000000E+00 0.  1.
         11    1    1    2    0    0  0.18791478523E+02  0.37849973268E+02  0.13175083998E+03  0.13836193109E+03  0.00000000000E+00 0. -1.
<mgrwt>
<rscale>  0 0.12853541E+03</rscale>
<asrwt>0</asrwt>
<pdfrwt beam="1">  1        2 0.86229237E-01 0.13714371E+03</pdfrwt>
<pdfrwt beam="2">  1       -2 0.49973664E-02 0.13714371E+03</pdfrwt>
<totfact> 0.10215118E+04</totfact>
</mgrwt>
</event>
<event>
 7    1  0.5400401E-006  0.1567007E+03  0.7546771E-02  0.1200585E+00
         -2   -1    0    0    0  501 -0.00000000000E+00  0.00000000000E+00  0.25091890689E+03  0.25091890689E+03  0.00000000000E+00 0.  1.
          2   -1    0    0  501    0  0.00000000000E+00 -0.00000000000E+00 -0.95710089604E+02  0.95710089604E+02  0.00000000000E+00 0. -1.
         23    2    1    2    0    0  0.62879502509E+02  0.70665886777E+02  0.14742463937E+03  0.21514907292E+03  0.12493038020E+03 0.  0.
          5    1    3    3  502    0 -0.20142206785E+02  0.17300297161E+02  0.10361538468E+03  0.10706655276E+03  0.47000000000E+01 0. -1.
         -5    1    3    3    0  502  0.83021709294E+02  0.53365589616E+02  0.43809254686E+02  0.10808252017E+03  0.47000000000E+01 0. -1.
        -11    1    1    2    0    0 -0.17976479568E+02 -0.15821683468E+01 -0.34451050805E+02  0.38891284061E+02  0.00000000000E+00 0. -1.
         11    1    1    2    0    0 -0.44903022941E+02 -0.69083718430E+02  0.42235228721E+02  0.92588639511E+02  0.00000000000E+00 0.  1.
<mgrwt>
<rscale>  0 0.14990889E+03</rscale>
<asrwt>0</asrwt>
<pdfrwt beam="2">  1        2 0.14724629E-01 0.15670067E+03</pdfrwt>
<pdfrwt beam="1">  1       -2 0.38602908E-01 0.15670067E+03</pdfrwt>
<totfact> 0.24718128E+03</totfact>
</mgrwt>
</event>
<event>
 7    1  0.5400401E-006  0.1271022E+03  0.7546771E-02  0.1246027E+00
          3   -1    0    0  501    0  0.00000000000E+00  0.00000000000E+00  0.72958694012E+02  0.72958694012E+02  0.00000000000E+00 0. -1.
         -3   -1    0    0    0  501 -0.00000000000E+00 -0.00000000000E+00 -0.18391778481E+03  0.18391778481E+03  0.00000000000E+00 0.  1.
         23    2    1    2    0    0  0.30736320168E+01  0.23214943456E+02 -0.98639661524E+02  0.16088735117E+03  0.12492628278E+03 0.  0.
          5    1    3    3  502    0  0.15761645633E+02  0.55225835580E+02 -0.14174967521E+01  0.57640451817E+02  0.47000000000E+01 0.  1.
         -5    1    3    3    0  502 -0.12688013617E+02 -0.32010892124E+02 -0.97222164772E+02  0.10324689936E+03  0.47000000000E+01 0.  1.
        -11    1    1    2    0    0  0.21214555378E+02  0.28058247470E+02 -0.16986929207E+02  0.39062493198E+02  0.00000000000E+00 0. -1.
         11    1    1    2    0    0 -0.24288187395E+02 -0.51273190926E+02  0.46674999282E+01  0.56926634454E+02  0.00000000000E+00 0.  1.
<mgrwt>
<rscale>  0 0.11824112E+03</rscale>
<asrwt>0</asrwt>
<pdfrwt beam="1">  1        3 0.11224414E-01 0.12710215E+03</pdfrwt>
<pdfrwt beam="2">  1       -3 0.28295044E-01 0.12710215E+03</pdfrwt>
<totfact> 0.16522795E+03</totfact>
</mgrwt>
</event>
<event>
 7    1  0.5400401E-006  0.1379643E+03  0.7546771E-02  0.1227800E+00
          1   -1    0    0  501    0  0.00000000000E+00  0.00000000000E+00  0.78896716409E+02  0.78896716409E+02  0.00000000000E+00 0. -1.
         -1   -1    0    0    0  501 -0.00000000000E+00 -0.00000000000E+00 -0.20636655622E+03  0.20636655622E+03  0.00000000000E+00 0.  1.
         23    2    1    2    0    0  0.56243349052E+02  0.15892207297E+02 -0.33166710683E+02  0.14189494362E+03  0.12497306815E+03 0.  0.
          5    1    3    3  502    0  0.45862599747E+02 -0.25738068051E+02  0.33459709185E+02  0.62509745970E+02  0.47000000000E+01 0.  1.
         -5    1    3    3    0  502  0.10380749306E+02  0.41630275348E+02 -0.66626419868E+02  0.79385197651E+02  0.47000000000E+01 0.  1.
        -11    1    1    2    0    0 -0.31645792908E+02 -0.16920731802E+02 -0.10895955161E+03  0.11471683077E+03  0.00000000000E+00 0.  1.
         11    1    1    2    0    0 -0.24597556144E+02  0.10285245056E+01  0.14656422490E+02  0.28651498235E+02  0.00000000000E+00 0. -1.
<mgrwt>
<rscale>  0 0.12976837E+03</rscale>
<asrwt>0</asrwt>
<pdfrwt beam="1">  1        1 0.12137956E-01 0.13796429E+03</pdfrwt>
<pdfrwt beam="2">  1       -1 0.31748701E-01 0.13796429E+03</pdfrwt>
<totfact> 0.43855970E+03</totfact>
</mgrwt>
</event>
<event>
 7    1  0.5400401E-006  0.1338794E+03  0.7546771E-02  0.1234904E+00
          1   -1    0    0  501    0  0.00000000000E+00  0.00000000000E+00  0.12223108603E+03  0.12223108603E+03  0.00000000000E+00 0. -1.
         -1   -1    0    0    0  501 -0.00000000000E+00 -0.00000000000E+00 -0.11433287940E+03  0.11433287940E+03  0.00000000000E+00 0.  1.
         23    2    1    2    0    0  0.44696842905E+02  0.17161800158E+02 -0.28796592935E+01  0.13391038765E+03  0.12502545474E+03 0.  0.
          5    1    3    3  502    0 -0.35998694781E+02  0.34064190011E+02  0.86492138069E+01  0.50528941870E+02  0.47000000000E+01 0.  1.
         -5    1    3    3    0  502  0.80695537686E+02 -0.16902389853E+02 -0.11528873100E+02  0.83381445779E+02  0.47000000000E+01 0.  1.
        -11    1    1    2    0    0 -0.34088640371E+02 -0.53733094438E+02  0.24862808962E+01  0.63682512772E+02  0.00000000000E+00 0. -1.
         11    1    1    2    0    0 -0.10608202533E+02  0.36571294280E+02  0.82915850248E+01  0.38971065017E+02  0.00000000000E+00 0.  1.
<mgrwt>
<rscale>  0 0.12510571E+03</rscale>
<asrwt>0</asrwt>
<pdfrwt beam="1">  1        1 0.18804782E-01 0.13387942E+03</pdfrwt>
<pdfrwt beam="2">  1       -1 0.17589674E-01 0.13387942E+03</pdfrwt>
<totfact> 0.65247294E+03</totfact>
</mgrwt>
</event>
<event>
 7    1  0.5400401E-006  0.1122562E+03  0.7546771E-02  0.1266310E+00
          3   -1    0    0  501    0  0.00000000000E+00  0.00000000000E+00  0.11788845977E+03  0.11788845977E+03  0.00000000000E+00 0. -1.
         -3   -1    0    0    0  501 -0.00000000000E+00 -0.00000000000E+00 -0.29751289900E+03  0.29751289900E+03  0.00000000000E+00 0.  1.
         23    2    1    2    0    0  0.67539773368E+01  0.17130800553E+02 -0.26607121360E+03  0.28878250696E+03  0.11073556376E+03 0.  0.
          5    1    3    3  502    0 -0.26187398718E+02 -0.37207611648E+02 -0.14388401732E+03  0.15097975578E+03  0.47000000000E+01 0. -1.
         -5    1    3    3    0  502  0.32941376055E+02  0.54338412201E+02 -0.12218719628E+03  0.13780275118E+03  0.47000000000E+01 0.  1.
        -11    1    1    2    0    0 -0.11029092090E+02 -0.36503302957E+02  0.21421444206E+00  0.38133684413E+02  0.00000000000E+00 0. -1.
         11    1    1    2    0    0  0.42751147528E+01  0.19372502404E+02  0.86232559933E+02  0.88485167390E+02  0.00000000000E+00 0.  1.
<mgrwt>
<rscale>  0 0.10695777E+03</rscale>
<asrwt>0</asrwt>
<pdfrwt beam="1">  1        3 0.18136686E-01 0.11225616E+03</pdfrwt>
<pdfrwt beam="2">  1       -3 0.45771214E-01 0.11225616E+03</pdfrwt>
<totfact> 0.28866068E+02</totfact>
</mgrwt>
</event>
<event>
 7    1  0.5400401E-006  0.1640610E+03  0.7546771E-02  0.1190985E+00
         -1   -1    0    0    0  501 -0.00000000000E+00  0.00000000000E+00  0.19368583189E+02  0.19368583189E+02  0.00000000000E+00 0.  1.
          1   -1    0    0  501    0  0.00000000000E+00 -0.00000000000E+00 -0.12525268749E+04  0.12525268749E+04  0.00000000000E+00 0. -1.
         23    2    1    2    0    0 -0.10303162455E+03 -0.26007387484E+02 -0.53363482700E+03  0.55828499511E+03  0.12499642922E+03 0.  0.
          5    1    3    3  502    0  0.33796576271E+01 -0.21986002006E+01  0.54581284442E+01  0.82545196488E+01  0.47000000000E+01 0.  1.
         -5    1    3    3    0  502 -0.10641128218E+03 -0.23808787284E+02 -0.53909295545E+03  0.55003047547E+03  0.47000000000E+01 0.  1.
        -11    1    1    2    0    0 -0.43672642854E+01  0.32498817257E+02 -0.13503254476E+03  0.13895695112E+03  0.00000000000E+00 0.  1.
         11    1    1    2    0    0  0.10739888884E+03 -0.64914297724E+01 -0.56449091993E+03  0.57465351184E+03  0.00000000000E+00 0. -1.
<mgrwt>
<rscale>  0 0.15798986E+03</rscale>
<asrwt>0</asrwt>
<pdfrwt beam="2">  1        1 0.19269640E+00 0.16406099E+03</pdfrwt>
<pdfrwt beam="1">  1       -1 0.29797826E-02 0.16406099E+03</pdfrwt>
<totfact> 0.39663952E+03</totfact>
</mgrwt>
</event>
<event>
 7    1  0.5400401E-006  0.1328649E+03  0.7546771E-02  0.1236161E+00
         -2   -1    0    0    0  501 -0.00000000000E+00  0.00000000000E+00  0.28927643395E+02  0.28927643395E+02  0.00000000000E+00 0.  1.
          2   -1    0    0  501    0  0.00000000000E+00 -0.00000000000E+00 -0.50399016256E+03  0.50399016256E+03  0.00000000000E+00 0. -1.
         23    2    1    2    0    0  0.36081348584E+02  0.26954041412E+02 -0.20481910731E+03  0.24413921198E+03  0.12499881618E+03 0.  0.
          5    1    3    3  502    0  0.13734106812E+02 -0.22944737864E+02  0.46983288912E+01  0.27554509248E+02  0.47000000000E+01 0. -1.
         -5    1    3    3    0  502  0.22347241772E+02  0.49898779275E+02 -0.20951743620E+03  0.21658470274E+03  0.47000000000E+01 0. -1.
        -11    1    1    2    0    0 -0.18871811008E+02  0.31828010072E+02 -0.67393356058E+02  0.76883235602E+02  0.00000000000E+00 0.  1.
         11    1    1    2    0    0 -0.17209537576E+02 -0.58782051484E+02 -0.20285005580E+03  0.21189535837E+03  0.00000000000E+00 0. -1.
<mgrwt>
<rscale>  0 0.12430425E+03</rscale>
<asrwt>0</asrwt>
<pdfrwt beam="2">  1        2 0.77536949E-01 0.13286492E+03</pdfrwt>
<pdfrwt beam="1">  1       -2 0.44504066E-02 0.13286492E+03</pdfrwt>
<totfact> 0.13640324E+04</totfact>
</mgrwt>
</event>
<event>
 7    1  0.5400401E-006  0.1523768E+03  0.7546771E-02  0.1206035E+00
          1   -1    0    0  501    0  0.00000000000E+00  0.00000000000E+00  0.83944501117E+03  0.83944501117E+03  0.00000000000E+00 0. -1.
         -1   -1    0    0    0  501 -0.00000000000E+00 -0.00000000000E+00 -0.35674847972E+02  0.35674847972E+02  0.00000000000E+00 0.  1.
         23    2    1    2    0    0  0.82533626674E+02 -0.27965523619E+02  0.16799708708E+03  0.22680763865E+03  0.12499925456E+03 0.  0.
          5    1    3    3  502    0  0.42823047768E+02 -0.35437878902E+02  0.19148087672E+01  0.55815886393E+02  0.47000000000E+01 0. -1.
         -5    1    3    3    0  502  0.39710578906E+02  0.74723552826E+01  0.16608227832E+03  0.17099175226E+03  0.47000000000E+01 0. -1.
        -11    1    1    2    0    0  0.20017585645E+02  0.96908823657E+01  0.91821552179E+02  0.94476528200E+02  0.00000000000E+00 0.  1.
         11    1    1    2    0    0 -0.10255121232E+03  0.18274641254E+02  0.54395152393E+03  0.55383569228E+03  0.00000000000E+00 0. -1.
<mgrwt>
<rscale>  0 0.14556160E+03</rscale>
<asrwt>0</asrwt>
<pdfrwt beam="1">  1        1 0.12914537E+00 0.15237678E+03</pdfrwt>
<pdfrwt beam="2">  1       -1 0.54884387E-02 0.15237678E+03</pdfrwt>
<totfact> 0.32144988E+03</totfact>
</mgrwt>
</event>
<event>
 6    1  0.5400401E-006  0.1696698E+03  0.7546771E-02  0.1238735E+00
         -2   -1    0    0    0  501 -0.00000000000E+00  0.00000000000E+00  0.83626214773E+02  0.83626214773E+02  0.00000000000E+00 0.  1.
          2   -1    0    0  501    0  0.00000000000E+00 -0.00000000000E+00 -0.21161387247E+03  0.21161387247E+03  0.00000000000E+00 0. -1.
          5    1    1    2  502    0 -0.11602577572E+02  0.38812341057E+02 -0.82898311970E+02  0.92386350465E+02  0.47000000000E+01 0. -1.
         -5    1    1    2    0  502  0.18679711412E+02 -0.24493492850E+02  0.71165823388E+02  0.77688655728E+02  0.47000000000E+01 0.  1.
        -11    1    1    2    0    0  0.12611582153E+02 -0.24169840999E+01 -0.95371997133E+01  0.15995374172E+02  0.00000000000E+00 0.  1.
         11    1    1    2    0    0 -0.19688715992E+02 -0.11901864107E+02 -0.10671796940E+03  0.10916970688E+03  0.00000000000E+00 0. -1.
<mgrwt>
<rscale>  0 0.12268300E+03</rscale>
<asrwt>0</asrwt>
<pdfrwt beam="2">  1        2 0.32555980E-01 0.16966985E+03</pdfrwt>
<pdfrwt beam="1">  1       -2 0.12865572E-01 0.16966985E+03</pdfrwt>
<totfact> 0.68180316E+03</totfact>
</mgrwt>
</event>
<event>
 7    1  0.5400401E-006  0.1571595E+03  0.7546771E-02  0.1200172E+00
          1   -1    0    0  501    0  0.00000000000E+00  0.00000000000E+00  0.67133637238E+02  0.67133637238E+02  0.00000000000E+00 0. -1.
         -1   -1    0    0    0  501 -0.00000000000E+00 -0.00000000000E+00 -0.31840817530E+03  0.31840817530E+03  0.00000000000E+00 0.  1.
         23    2    1    2    0    0  0.77769411254E+02  0.55003767430E+02 -0.10505271949E+03  0.18903755132E+03  0.12500250468E+03 0.  0.
          5    1    3    3  502    0  0.87033376171E+02  0.86257970433E+02 -0.93236578813E+02  0.15404673206E+03  0.47000000000E+01 0. -1.
         -5    1    3    3    0  502 -0.92639649164E+01 -0.31254203003E+02 -0.11816140682E+02  0.34990819252E+02  0.47000000000E+01 0. -1.
        -11    1    1    2    0    0 -0.14105936670E+01  0.19366375157E+02 -0.47108403031E+02  0.50953389459E+02  0.00000000000E+00 0.  1.
         11    1    1    2    0    0 -0.76358817587E+02 -0.74370142587E+02 -0.99113415537E+02  0.14555087176E+03  0.00000000000E+00 0. -1.
<mgrwt>
<rscale>  0 0.15024534E+03</rscale>
<asrwt>0</asrwt>
<pdfrwt beam="1">  1        1 0.10328252E-01 0.15715954E+03</pdfrwt>
<pdfrwt beam="2">  1       -1 0.48985872E-01 0.15715954E+03</pdfrwt>
<totfact> 0.25539807E+03</totfact>
</mgrwt>
</event>
<event>
 7    1  0.5400401E-006  0.1341521E+03  0.7546771E-02  0.1233298E+00
         -1   -1    0    0    0  501 -0.00000000000E+00  0.00000000000E+00  0.33782125878E+03  0.33782125878E+03  0.00000000000E+00 0.  1.
          1   -1    0    0  501    0  0.00000000000E+00 -0.00000000000E+00 -0.59493539126E+02  0.59493539126E+02  0.00000000000E+00 0. -1.
         23    2    1    2    0    0  0.43988892291E+02  0.20911476986E+02  0.25757813294E+03  0.29041916343E+03  0.12499793362E+03 0.  0.
          5    1    3    3  502    0  0.55245955832E+02  0.48496607631E+01  0.26356718012E+03  0.26937962670E+03  0.47000000000E+01 0.  1.
         -5    1    3    3    0  502 -0.11257063540E+02  0.16061816223E+02 -0.59890471807E+01  0.21039536736E+02  0.47000000000E+01 0.  1.
        -11    1    1    2    0    0 -0.13474769724E+02 -0.54335938924E+02 -0.24546441741E+01  0.56035604359E+02  0.00000000000E+00 0. -1.
         11    1    1    2    0    0 -0.30514122568E+02  0.33424461939E+02  0.23204230897E+02  0.50860030116E+02  0.00000000000E+00 0.  1.
<mgrwt>
<rscale>  0 0.12614010E+03</rscale>
<asrwt>0</asrwt>
<pdfrwt beam="2">  1        1 0.91528524E-02 0.13415214E+03</pdfrwt>
<pdfrwt beam="1">  1       -1 0.51972500E-01 0.13415214E+03</pdfrwt>
<totfact> 0.26708005E+03</totfact>
</mgrwt>
</event>
<event>
 7    1  0.5400401E-006  0.1282185E+03  0.7546771E-02  0.1243996E+00
         -2   -1    0    0    0  501 -0.00000000000E+00  0.00000000000E+00  0.29126519365E+03  0.29126519365E+03  0.00000000000E+00 0.  1.
          2   -1    0    0  501    0  0.00000000000E+00 -0.00000000000E+00 -0.48588276215E+02  0.48588276215E+02  0.00000000000E+00 0. -1.
         23    2    1    2    0    0  0.28561728693E+02 -0.58659278037E-01  0.19169725032E+03  0.23062483765E+03  0.12499681666E+03 0.  0.
          5    1    3    3  502    0  0.23943182483E+02 -0.31796863266E+02  0.41469768032E+01  0.40293968749E+02  0.47000000000E+01 0. -1.
         -5    1    3    3    0  502  0.46185462101E+01  0.31738203988E+02  0.18755027352E+03  0.19033086890E+03  0.47000000000E+01 0. -1.
        -11    1    1    2    0    0  0.64198372301E+01 -0.39441108896E+02  0.37432738272E+02  0.54754226097E+02  0.00000000000E+00 0.  1.
         11    1    1    2    0    0 -0.34981565923E+02  0.39499768174E+02  0.13546928841E+02  0.54474406112E+02  0.00000000000E+00 0. -1.
<mgrwt>
<rscale>  0 0.11945646E+03</rscale>
<asrwt>0</asrwt>
<pdfrwt beam="2">  1        2 0.74751196E-02 0.12821849E+03</pdfrwt>
<pdfrwt beam="1">  1       -2 0.44810029E-01 0.12821849E+03</pdfrwt>
<totfact> 0.42050198E+03</totfact>
</mgrwt>
</event>
<event>
 7    1  0.5400401E-006  0.1208520E+03  0.7546771E-02  0.1250982E+00
         -1   -1    0    0    0  501 -0.00000000000E+00  0.00000000000E+00  0.47292993034E+02  0.47292993034E+02  0.00000000000E+00 0.  1.
          1   -1    0    0  501    0  0.00000000000E+00 -0.00000000000E+00 -0.30837794642E+03  0.30837794642E+03  0.00000000000E+00 0. -1.
         23    2    1    2    0    0 -0.41809615590E+02  0.25683391095E+02 -0.69455668200E+02  0.13938903890E+03  0.11044244558E+03 0.  0.
          5    1    3    3  502    0  0.32809080233E+01 -0.40143182707E+01 -0.83186863412E+02  0.83480676525E+02  0.47000000000E+01 0. -1.
         -5    1    3    3    0  502 -0.45090523614E+02  0.29697709365E+02  0.13731195213E+02  0.55908362373E+02  0.47000000000E+01 0.  1.
        -11    1    1    2    0    0 -0.12886105430E+02 -0.40572005724E+02 -0.67196838796E+02  0.79545927022E+02  0.00000000000E+00 0.  1.
         11    1    1    2    0    0  0.54695721021E+02  0.14888614629E+02 -0.12443244639E+03  0.13673597354E+03  0.00000000000E+00 0. -1.
<mgrwt>
<rscale>  0 0.11534375E+03</rscale>
<asrwt>0</asrwt>
<pdfrwt beam="2">  1        1 0.47442760E-01 0.12085203E+03</pdfrwt>
<pdfrwt beam="1">  1       -1 0.72758453E-02 0.12085203E+03</pdfrwt>
<totfact> 0.79401296E+03</totfact>
</mgrwt>
</event>
<event>
 7    1  0.5400401E-006  0.1251551E+03  0.7546771E-02  0.1262734E+00
         -1   -1    0    0    0  501 -0.00000000000E+00  0.00000000000E+00  0.13726311032E+03  0.13726311032E+03  0.00000000000E+00 0.  1.
          1   -1    0    0  501    0  0.00000000000E+00 -0.00000000000E+00 -0.74864247320E+02  0.74864247320E+02  0.00000000000E+00 0. -1.
         23    2    1    2    0    0  0.46848259725E+01 -0.46388329248E+01  0.63913088757E+02  0.14053002022E+03  0.12498134782E+03 0.  0.
          5    1    3    3  502    0  0.48333780408E+02 -0.18732132418E+02  0.76689641465E+02  0.92684616962E+02  0.47000000000E+01 0.  1.
         -5    1    3    3    0  502 -0.43648954435E+02  0.14093299493E+02 -0.12776552707E+02  0.47845403259E+02  0.47000000000E+01 0.  1.
        -11    1    1    2    0    0  0.18581981330E+02 -0.18089914088E+02  0.19870940892E+02  0.32670924593E+02  0.00000000000E+00 0.  1.
         11    1    1    2    0    0 -0.23266807302E+02  0.22728747012E+02 -0.21385166650E+02  0.38926412825E+02  0.00000000000E+00 0. -1.
<mgrwt>
<rscale>  0 0.10883946E+03</rscale>
<asrwt>0</asrwt>
<pdfrwt beam="2">  1        1 0.11517577E-01 0.12515512E+03</pdfrwt>
<pdfrwt beam="1">  1       -1 0.21117401E-01 0.12515512E+03</pdfrwt>
<totfact> 0.91398653E+03</totfact>
</mgrwt>
</event>
<event>
 7    1  0.5400401E-006  0.1429607E+03  0.7546771E-02  0.1220615E+00
         -2   -1    0    0    0  501 -0.00000000000E+00  0.00000000000E+00  0.26843367765E+03  0.26843367765E+03  0.00000000000E+00 0.  1.
          2   -1    0    0  501    0  0.00000000000E+00 -0.00000000000E+00 -0.61691233777E+02  0.61691233777E+02  0.00000000000E+00 0. -1.
         23    2    1    2    0    0 -0.48056002942E+02  0.50039340595E+02  0.13407624534E+03  0.19599542242E+03  0.12499780406E+03 0.  0.
          5    1    3    3  502    0  0.29970800292E+02  0.50807586183E+02  0.85429482229E+02  0.10392278921E+03  0.47000000000E+01 0. -1.
         -5    1    3    3    0  502 -0.78026803234E+02 -0.76824558804E+00  0.48646763106E+02  0.92072633203E+02  0.47000000000E+01 0. -1.
        -11    1    1    2    0    0  0.41142025292E+02  0.17465108582E+02  0.32659363625E+02  0.55356393445E+02  0.00000000000E+00 0. -1.
         11    1    1    2    0    0  0.69139776503E+01 -0.67504449176E+02  0.40006834915E+02  0.78773095569E+02  0.00000000000E+00 0.  1.
<mgrwt>
<rscale>  0 0.13472004E+03</rscale>
<asrwt>0</asrwt>
<pdfrwt beam="2">  1        2 0.94909592E-02 0.14296072E+03</pdfrwt>
<pdfrwt beam="1">  1       -2 0.41297488E-01 0.14296072E+03</pdfrwt>
<totfact> 0.36769711E+03</totfact>
</mgrwt>
</event>
<event>
 7    1  0.5400401E-006  0.2332178E+03  0.7546771E-02  0.1127467E+00
          1   -1    0    0  501    0  0.00000000000E+00  0.00000000000E+00  0.60529125758E+02  0.60529125758E+02  0.00000000000E+00 0. -1.
         -1   -1    0    0    0  501 -0.00000000000E+00 -0.00000000000E+00 -0.83642512442E+03  0.83642512442E+03  0.00000000000E+00 0.  1.
         23    2    1    2    0    0 -0.77850391293E+02  0.18082356317E+03 -0.37866088042E+03  0.44471859259E+03  0.12503087542E+03 0.  0.
          5    1    3    3  502    0  0.20786336244E+00  0.28498553284E+02  0.28362792424E+00  0.28885657189E+02  0.47000000000E+01 0.  1.
         -5    1    3    3    0  502 -0.78058254656E+02  0.15232500989E+03 -0.37894450835E+03  0.41583293540E+03  0.47000000000E+01 0.  1.
        -11    1    1    2    0    0  0.30341873715E+02 -0.12698043149E+03 -0.32563641238E+03  0.35083291229E+03  0.00000000000E+00 0.  1.
         11    1    1    2    0    0  0.47508517578E+02 -0.53843131688E+02 -0.71598705858E+02  0.10140274529E+03  0.00000000000E+00 0. -1.
<mgrwt>
<rscale>  0 0.22882884E+03</rscale>
<asrwt>0</asrwt>
<pdfrwt beam="1">  1        1 0.93121741E-02 0.23321785E+03</pdfrwt>
<pdfrwt beam="2">  1       -1 0.12868078E+00 0.23321785E+03</pdfrwt>
<totfact> 0.39512584E+02</totfact>
</mgrwt>
</event>
<event>
 7    1  0.5400401E-006  0.1307768E+03  0.7546771E-02  0.1239967E+00
          2   -1    0    0  501    0  0.00000000000E+00  0.00000000000E+00  0.89203951892E+02  0.89203951892E+02  0.00000000000E+00 0. -1.
         -2   -1    0    0    0  501 -0.00000000000E+00 -0.00000000000E+00 -0.16339146156E+03  0.16339146156E+03  0.00000000000E+00 0.  1.
         23    2    1    2    0    0 -0.20739575421E+02 -0.32327497728E+02 -0.80579586892E+02  0.15360871999E+03  0.12500948738E+03 0.  0.
          5    1    3    3  502    0  0.12226911772E+02  0.44815438641E+02 -0.31076952176E+02  0.56087323599E+02  0.47000000000E+01 0. -1.
         -5    1    3    3    0  502 -0.32966487194E+02 -0.77142936368E+02 -0.49502634716E+02  0.97521396387E+02  0.47000000000E+01 0. -1.
        -11    1    1    2    0    0  0.42803823245E+02 -0.28184151181E+01 -0.22483057850E+02  0.48431380720E+02  0.00000000000E+00 0.  1.
         11    1    1    2    0    0 -0.22064247823E+02  0.35145912846E+02  0.28875135071E+02  0.50555312749E+02  0.00000000000E+00 0. -1.
<mgrwt>
<rscale>  0 0.12191731E+03</rscale>
<asrwt>0</asrwt>
<pdfrwt beam="1">  1        2 0.13723685E-01 0.13077679E+03</pdfrwt>
<pdfrwt beam="2">  1       -2 0.25137148E-01 0.13077679E+03</pdfrwt>
<totfact> 0.57827212E+03</totfact>
</mgrwt>
</event>
<event>
 7    1  0.5400401E-006  0.2047356E+03  0.7546771E-02  0.1149998E+00
          2   -1    0    0  501    0  0.00000000000E+00  0.00000000000E+00  0.14592031810E+04  0.14592031810E+04  0.00000000000E+00 0. -1.
         -2   -1    0    0    0  501 -0.00000000000E+00 -0.00000000000E+00 -0.26724968958E+02  0.26724968958E+02  0.00000000000E+00 0.  1.
         23    2    1    2    0    0  0.13020602467E+03  0.96657016839E+02  0.63428743014E+03  0.66651121764E+03  0.12498188447E+03 0.  0.
          5    1    3    3  502    0  0.16352731314E+02 -0.25125458374E+02  0.46537491227E+02  0.55556534896E+02  0.47000000000E+01 0. -1.
         -5    1    3    3    0  502  0.11385329336E+03  0.12178247521E+03  0.58774993891E+03  0.61095468274E+03  0.47000000000E+01 0. -1.
        -11    1    1    2    0    0 -0.11364093247E+03 -0.37856636133E+02  0.43802673709E+03  0.45410880727E+03  0.00000000000E+00 0.  1.
         11    1    1    2    0    0 -0.16565092199E+02 -0.58800380706E+02  0.36016404486E+03  0.36530812509E+03  0.00000000000E+00 0. -1.
<mgrwt>
<rscale>  0 0.19969310E+03</rscale>
<asrwt>0</asrwt>
<pdfrwt beam="1">  1        2 0.22449274E+00 0.20473558E+03</pdfrwt>
<pdfrwt beam="2">  1       -2 0.41115348E-02 0.20473558E+03</pdfrwt>
<totfact> 0.37714244E+03</totfact>
</mgrwt>
</event>
<event>
 7    1  0.5400401E-006  0.1367663E+03  0.7546771E-02  0.1230169E+00
          3   -1    0    0  501    0  0.00000000000E+00  0.00000000000E+00  0.25345290960E+02  0.25345290960E+02  0.00000000000E+00 0. -1.
         -3   -1    0    0    0  501 -0.00000000000E+00 -0.00000000000E+00 -0.58859826042E+03  0.58859826042E+03  0.00000000000E+00 0.  1.
         23    2    1    2    0    0 -0.22723730434E+02  0.50636597685E+02 -0.35586705201E+03  0.38124319345E+03  0.12499832359E+03 0.  0.
          5    1    3    3  502    0 -0.20427494322E+01  0.31715821806E+02 -0.92076068247E+01  0.33420595469E+02  0.47000000000E+01 0.  1.
         -5    1    3    3    0  502 -0.20680981002E+02  0.18920775879E+02 -0.34665944518E+03  0.34782259798E+03  0.47000000000E+01 0.  1.
        -11    1    1    2    0    0  0.49563742654E+02 -0.67093656317E+01 -0.70374710271E+02  0.86337593312E+02  0.00000000000E+00 0.  1.
         11    1    1    2    0    0 -0.26840012220E+02 -0.43927232053E+02 -0.13701120718E+03  0.14636276461E+03  0.00000000000E+00 0. -1.
<mgrwt>
<rscale>  0 0.12818805E+03</rscale>
<asrwt>0</asrwt>
<pdfrwt beam="1">  1        3 0.38992756E-02 0.13676627E+03</pdfrwt>
<pdfrwt beam="2">  1       -3 0.90553577E-01 0.13676627E+03</pdfrwt>
<totfact> 0.88581695E+02</totfact>
</mgrwt>
</event>
<event>
 7    1  0.5400401E-006  0.1412497E+03  0.7546771E-02  0.1221205E+00
         -1   -1    0    0    0  501 -0.00000000000E+00  0.00000000000E+00  0.21776416685E+02  0.21776416685E+02  0.00000000000E+00 0.  1.
          1   -1    0    0  501    0  0.00000000000E+00 -0.00000000000E+00 -0.81084118683E+03  0.81084118683E+03  0.00000000000E+00 0. -1.
         23    2    1    2    0    0 -0.30265703727E+02 -0.58474816762E+02 -0.32426506158E+03  0.35369379451E+03  0.12496460739E+03 0.  0.
          5    1    3    3  502    0 -0.35148370842E+02 -0.46085432566E+02 -0.43614856270E+02  0.72688518730E+02  0.47000000000E+01 0. -1.
         -5    1    3    3    0  502  0.48826671146E+01 -0.12389384196E+02 -0.28065020531E+03  0.28100527578E+03  0.47000000000E+01 0. -1.
        -11    1    1    2    0    0 -0.32764843372E+02  0.34920546139E+02 -0.17702354810E+03  0.18338570306E+03  0.00000000000E+00 0.  1.
         11    1    1    2    0    0  0.63030547100E+02  0.23554270624E+02 -0.28777616046E+03  0.29553810594E+03  0.00000000000E+00 0. -1.
<mgrwt>
<rscale>  0 0.13430472E+03</rscale>
<asrwt>0</asrwt>
<pdfrwt beam="2">  1        1 0.12474482E+00 0.14124967E+03</pdfrwt>
<pdfrwt beam="1">  1       -1 0.33502175E-02 0.14124967E+03</pdfrwt>
<totfact> 0.69983335E+03</totfact>
</mgrwt>
</event>
<event>
 7    1  0.5400401E-006  0.1112201E+03  0.7546771E-02  0.1270298E+00
         -1   -1    0    0    0  501 -0.00000000000E+00  0.00000000000E+00  0.30231209945E+03  0.30231209945E+03  0.00000000000E+00 0.  1.
          1   -1    0    0  501    0  0.00000000000E+00 -0.00000000000E+00 -0.59914855654E+02  0.59914855654E+02  0.00000000000E+00 0. -1.
         23    2    1    2    0    0 -0.98073393045E+01 -0.19482217213E+01  0.25023016578E+03  0.27383398340E+03  0.11076973923E+03 0.  0.
          5    1    3    3  502    0 -0.16358024723E+02  0.52657676287E+02  0.11013094168E+03  0.12325311420E+03  0.47000000000E+01 0. -1.
         -5    1    3    3    0  502  0.65506854186E+01 -0.54605898008E+02  0.14009922410E+03  0.15058086921E+03  0.47000000000E+01 0.  1.
        -11    1    1    2    0    0  0.46477910081E+02  0.15398382442E+02 -0.53719913315E+01  0.49256112293E+02  0.00000000000E+00 0.  1.
         11    1    1    2    0    0 -0.36670570777E+02 -0.13450160721E+02 -0.24609306533E+01  0.39136859406E+02  0.00000000000E+00 0. -1.
<mgrwt>
<rscale>  0 0.10490930E+03</rscale>
<asrwt>0</asrwt>
<pdfrwt beam="2">  1        1 0.92176703E-02 0.11122012E+03</pdfrwt>
<pdfrwt beam="1">  1       -1 0.46509553E-01 0.11122012E+03</pdfrwt>
<totfact> 0.32033749E+03</totfact>
</mgrwt>
</event>
<event>
 7    1  0.5400401E-006  0.1283264E+03  0.7546771E-02  0.1243786E+00
         -1   -1    0    0    0  501 -0.00000000000E+00  0.00000000000E+00  0.60682254228E+02  0.60682254228E+02  0.00000000000E+00 0.  1.
          1   -1    0    0  501    0  0.00000000000E+00 -0.00000000000E+00 -0.21234007105E+03  0.21234007105E+03  0.00000000000E+00 0. -1.
         23    2    1    2    0    0 -0.31931513756E+01 -0.28864007697E+02 -0.68682174319E+02  0.14555032290E+03  0.12499731306E+03 0.  0.
          5    1    3    3  502    0 -0.50444960481E+02  0.17674555836E+02 -0.56868583565E+01  0.53958449939E+02  0.47000000000E+01 0.  1.
         -5    1    3    3    0  502  0.47251809105E+02 -0.46538563533E+02 -0.62995315962E+02  0.91591872961E+02  0.47000000000E+01 0.  1.
        -11    1    1    2    0    0  0.33434960538E+02  0.17459805421E+02 -0.87073884147E+02  0.94892585021E+02  0.00000000000E+00 0. -1.
         11    1    1    2    0    0 -0.30241809163E+02  0.11404202276E+02  0.40982416396E+01  0.32579417360E+02  0.00000000000E+00 0.  1.
<mgrwt>
<rscale>  0 0.11958329E+03</rscale>
<asrwt>0</asrwt>
<pdfrwt beam="2">  1        1 0.32667703E-01 0.12832636E+03</pdfrwt>
<pdfrwt beam="1">  1       -1 0.93357314E-02 0.12832636E+03</pdfrwt>
<totfact> 0.86796409E+03</totfact>
</mgrwt>
</event>
<event>
 7    1  0.5400401E-006  0.2458182E+03  0.7546771E-02  0.1118164E+00
         -1   -1    0    0    0  501 -0.00000000000E+00  0.00000000000E+00  0.30526154352E+03  0.30526154352E+03  0.00000000000E+00 0.  1.
          1   -1    0    0  501    0  0.00000000000E+00 -0.00000000000E+00 -0.51855897189E+03  0.51855897189E+03  0.00000000000E+00 0. -1.
         23    2    1    2    0    0  0.21114076297E+03  0.14873938175E+02  0.22136867358E+03  0.33080306314E+03  0.12499968444E+03 0.  0.
          5    1    3    3  502    0  0.21177978062E+03  0.17731417070E+02  0.15227015761E+03  0.26148301958E+03  0.47000000000E+01 0.  1.
         -5    1    3    3    0  502 -0.63901764643E+00 -0.28574788957E+01  0.69098515969E+02  0.69320043554E+02  0.47000000000E+01 0.  1.
        -11    1    1    2    0    0 -0.13313550508E+03 -0.44642620030E+02 -0.20358401891E+03  0.24731453453E+03  0.00000000000E+00 0.  1.
         11    1    1    2    0    0 -0.78005257897E+02  0.29768681855E+02 -0.23108208305E+03  0.24570291774E+03  0.00000000000E+00 0. -1.
<mgrwt>
<rscale>  0 0.24246097E+03</rscale>
<asrwt>0</asrwt>
<pdfrwt beam="2">  1        1 0.79778303E-01 0.24581818E+03</pdfrwt>
<pdfrwt beam="1">  1       -1 0.46963315E-01 0.24581818E+03</pdfrwt>
<totfact> 0.20099099E+02</totfact>
</mgrwt>
</event>
<event>
 7    1  0.5400401E-006  0.1481721E+03  0.7546771E-02  0.1212629E+00
         -2   -1    0    0    0  501 -0.00000000000E+00  0.00000000000E+00  0.28214354042E+02  0.28214354042E+02  0.00000000000E+00 0.  1.
          2   -1    0    0  501    0  0.00000000000E+00 -0.00000000000E+00 -0.65148736915E+03  0.65148736915E+03  0.00000000000E+00 0. -1.
         23    2    1    2    0    0  0.59834049143E+02  0.52439095578E+02 -0.29265294000E+03  0.32802546847E+03  0.12499996997E+03 0.  0.
          5    1    3    3  502    0  0.85820467721E+02  0.63556071891E+02 -0.27326796076E+03  0.29343141504E+03  0.47000000000E+01 0. -1.
         -5    1    3    3    0  502 -0.25986418578E+02 -0.11116976314E+02 -0.19384979245E+02  0.34594053437E+02  0.47000000000E+01 0. -1.
        -11    1    1    2    0    0 -0.31730287851E+02 -0.67489800293E+02 -0.14211223779E+03  0.16049165848E+03  0.00000000000E+00 0.  1.
         11    1    1    2    0    0 -0.28103761292E+02  0.15050704716E+02 -0.18850783731E+03  0.19118459623E+03  0.00000000000E+00 0. -1.
<mgrwt>
<rscale>  0 0.14052185E+03</rscale>
<asrwt>0</asrwt>
<pdfrwt beam="2">  1        2 0.10022883E+00 0.14817208E+03</pdfrwt>
<pdfrwt beam="1">  1       -2 0.43406698E-02 0.14817208E+03</pdfrwt>
<totfact> 0.10677087E+04</totfact>
</mgrwt>
</event>
<event>
 7    1  0.5400401E-006  0.2730672E+03  0.7546771E-02  0.1101527E+00
         -1   -1    0    0    0  501 -0.00000000000E+00  0.00000000000E+00  0.46547228646E+03  0.46547228646E+03  0.00000000000E+00 0.  1.
          1   -1    0    0  501    0  0.00000000000E+00 -0.00000000000E+00 -0.25779900201E+03  0.25779900201E+03  0.00000000000E+00 0. -1.
         23    2    1    2    0    0 -0.24250611617E+03 -0.11447788788E+02  0.33677902162E+03  0.43357331293E+03  0.12500176010E+03 0.  0.
          5    1    3    3  502    0 -0.90137208907E+02  0.33637109527E+02  0.20715784853E+03  0.22845707644E+03  0.47000000000E+01 0.  1.
         -5    1    3    3    0  502 -0.15236890727E+03 -0.45084898316E+02  0.12962117309E+03  0.20511623649E+03  0.47000000000E+01 0.  1.
        -11    1    1    2    0    0  0.55353944186E+02 -0.32261552977E+02 -0.13686062528E+02  0.65514694878E+02  0.00000000000E+00 0.  1.
         11    1    1    2    0    0  0.18715217199E+03  0.43709341766E+02 -0.11541967463E+03  0.22418328067E+03  0.00000000000E+00 0. -1.
<mgrwt>
<rscale>  0 0.26956845E+03</rscale>
<asrwt>0</asrwt>
<pdfrwt beam="2">  1        1 0.39661385E-01 0.27306722E+03</pdfrwt>
<pdfrwt beam="1">  1       -1 0.71611121E-01 0.27306722E+03</pdfrwt>
<totfact> 0.21908407E+02</totfact>
</mgrwt>
</event>
<event>
 7    1  0.5400401E-006  0.1527790E+03  0.7546771E-02  0.1205986E+00
          1   -1    0    0  501    0  0.00000000000E+00  0.00000000000E+00  0.44633578354E+03  0.44633578354E+03  0.00000000000E+00 0. -1.
         -1   -1    0    0    0  501 -0.00000000000E+00 -0.00000000000E+00 -0.53270374584E+02  0.53270374584E+02  0.00000000000E+00 0.  1.
         23    2    1    2    0    0  0.28312417902E+02  0.83151444650E+02  0.10557959766E+03  0.18571076185E+03  0.12500271945E+03 0.  0.
          5    1    3    3  502    0  0.85183800823E+01  0.56420923245E+02 -0.16104247982E+02  0.59475374586E+02  0.47000000000E+01 0. -1.
         -5    1    3    3    0  502  0.19794037819E+02  0.26730521405E+02  0.12168384564E+03  0.12623538726E+03  0.47000000000E+01 0. -1.
        -11    1    1    2    0    0 -0.11120704862E+02  0.84448348890E+01  0.26659564921E+01  0.14215928986E+02  0.00000000000E+00 0.  1.
         11    1    1    2    0    0 -0.17191713040E+02 -0.91596279539E+02  0.28481985481E+03  0.29967946729E+03  0.00000000000E+00 0. -1.
<mgrwt>
<rscale>  0 0.14560013E+03</rscale>
<asrwt>0</asrwt>
<pdfrwt beam="1">  1        1 0.68667041E-01 0.15277904E+03</pdfrwt>
<pdfrwt beam="2">  1       -1 0.81954425E-02 0.15277904E+03</pdfrwt>
<totfact> 0.42323142E+03</totfact>
</mgrwt>
</event>
<event>
 7    1  0.5400401E-006  0.2008242E+03  0.7546771E-02  0.1153554E+00
          2   -1    0    0  501    0  0.00000000000E+00  0.00000000000E+00  0.40602175307E+03  0.40602175307E+03  0.00000000000E+00 0. -1.
         -2   -1    0    0    0  501 -0.00000000000E+00 -0.00000000000E+00 -0.89986020288E+02  0.89986020288E+02  0.00000000000E+00 0.  1.
         23    2    1    2    0    0 -0.12003840893E+03  0.10146687719E+03  0.14900456673E+03  0.25006545500E+03  0.12500249633E+03 0.  0.
          5    1    3    3  502    0  0.20277327606E+02  0.41225062661E+02  0.20902966090E+02  0.50692206478E+02  0.47000000000E+01 0. -1.
         -5    1    3    3    0  502 -0.14031573654E+03  0.60241814533E+02  0.12810160064E+03  0.19937324852E+03  0.47000000000E+01 0. -1.
        -11    1    1    2    0    0 -0.95399233340E+00 -0.13157924973E+02  0.61025727186E+02  0.62435410382E+02  0.00000000000E+00 0. -1.
         11    1    1    2    0    0  0.12099240127E+03 -0.88308952221E+02  0.10600543887E+03  0.18350690798E+03  0.00000000000E+00 0.  1.
<mgrwt>
<rscale>  0 0.19554407E+03</rscale>
<asrwt>0</asrwt>
<pdfrwt beam="1">  1        2 0.62464884E-01 0.20082423E+03</pdfrwt>
<pdfrwt beam="2">  1       -2 0.13844003E-01 0.20082423E+03</pdfrwt>
<totfact> 0.30287791E+03</totfact>
</mgrwt>
</event>
<event>
 7    1  0.5400401E-006  0.2182396E+03  0.7546771E-02  0.1138600E+00
          2   -1    0    0  501    0  0.00000000000E+00  0.00000000000E+00  0.10463585542E+04  0.10463585542E+04  0.00000000000E+00 0. -1.
         -2   -1    0    0    0  501 -0.00000000000E+00 -0.00000000000E+00 -0.46110689156E+02  0.46110689156E+02  0.00000000000E+00 0.  1.
         23    2    1    2    0    0 -0.17649032938E+03  0.29217830117E+02  0.35568196471E+03  0.41729867384E+03  0.12500402077E+03 0.  0.
          5    1    3    3  502    0 -0.13575361130E+03  0.49656354695E+02  0.15724979348E+03  0.21364546354E+03  0.47000000000E+01 0.  1.
         -5    1    3    3    0  502 -0.40736718080E+02 -0.20438524578E+02  0.19843217123E+03  0.20365321030E+03  0.47000000000E+01 0.  1.
        -11    1    1    2    0    0  0.61744975698E+02 -0.25236419017E+02  0.39328873780E+03  0.39890518943E+03  0.00000000000E+00 0. -1.
         11    1    1    2    0    0  0.11474535368E+03 -0.39814111003E+01  0.25127716252E+03  0.27626538008E+03  0.00000000000E+00 0.  1.
<mgrwt>
<rscale>  0 0.21378859E+03</rscale>
<asrwt>0</asrwt>
<pdfrwt beam="1">  1        2 0.16097822E+00 0.21823960E+03</pdfrwt>
<pdfrwt beam="2">  1       -2 0.70939530E-02 0.21823960E+03</pdfrwt>
<totfact> 0.27958776E+03</totfact>
</mgrwt>
</event>
<event>
 7    1  0.5400401E-006  0.1305116E+03  0.7546771E-02  0.1239905E+00
         -3   -1    0    0    0  501 -0.00000000000E+00  0.00000000000E+00  0.35817694846E+03  0.35817694846E+03  0.00000000000E+00 0.  1.
          3   -1    0    0  501    0  0.00000000000E+00 -0.00000000000E+00 -0.36932105169E+02  0.36932105169E+02  0.00000000000E+00 0. -1.
         23    2    1    2    0    0  0.19063983163E+02 -0.32339076536E+02  0.18394583295E+03  0.22554235773E+03  0.12499613732E+03 0.  0.
          5    1    3    3  502    0  0.53842085495E+02  0.16424793381E+02  0.14041229264E+03  0.15134875596E+03  0.47000000000E+01 0.  1.
         -5    1    3    3    0  502 -0.34778102331E+02 -0.48763869917E+02  0.43533540318E+02  0.74193601770E+02  0.47000000000E+01 0.  1.
        -11    1    1    2    0    0  0.33324949773E+02  0.15570321119E+02  0.89236524267E+02  0.96520176338E+02  0.00000000000E+00 0.  1.
         11    1    1    2    0    0 -0.52388932936E+02  0.16768755417E+02  0.48062486069E+02  0.73046519558E+02  0.00000000000E+00 0. -1.
<mgrwt>
<rscale>  0 0.12195551E+03</rscale>
<asrwt>0</asrwt>
<pdfrwt beam="2">  1        3 0.56818626E-02 0.13051163E+03</pdfrwt>
<pdfrwt beam="1">  1       -3 0.55104143E-01 0.13051163E+03</pdfrwt>
<totfact> 0.13929702E+03</totfact>
</mgrwt>
</event>
<event>
 7    1  0.5400401E-006  0.1681859E+03  0.7546771E-02  0.1186666E+00
          2   -1    0    0  501    0  0.00000000000E+00  0.00000000000E+00  0.17148229800E+03  0.17148229800E+03  0.00000000000E+00 0. -1.
         -2   -1    0    0    0  501 -0.00000000000E+00 -0.00000000000E+00 -0.15322912620E+03  0.15322912620E+03  0.00000000000E+00 0.  1.
         23    2    1    2    0    0  0.67702227427E+02  0.89880389879E+02 -0.33699228100E+02  0.17152879415E+03  0.12499765264E+03 0.  0.
          5    1    3    3  502    0  0.43231582647E+02 -0.20129887240E+02 -0.33957571011E+02  0.58731496894E+02  0.47000000000E+01 0.  1.
         -5    1    3    3    0  502  0.24470644780E+02  0.11001027712E+03  0.25834291046E+00  0.11279729726E+03  0.47000000000E+01 0.  1.
        -11    1    1    2    0    0  0.67330811014E+01 -0.42898350307E+02  0.48491282389E+02  0.65092298377E+02  0.00000000000E+00 0.  1.
         11    1    1    2    0    0 -0.74435308528E+02 -0.46982039572E+02  0.34611175093E+01  0.88090331663E+02  0.00000000000E+00 0. -1.
<mgrwt>
<rscale>  0 0.16181206E+03</rscale>
<asrwt>0</asrwt>
<pdfrwt beam="1">  1        2 0.26381892E-01 0.16818588E+03</pdfrwt>
<pdfrwt beam="2">  1       -2 0.23573712E-01 0.16818588E+03</pdfrwt>
<totfact> 0.31133021E+03</totfact>
</mgrwt>
</event>
<event>
 7    1  0.5400401E-006  0.3050724E+03  0.7546771E-02  0.1084318E+00
         -1   -1    0    0    0  501 -0.00000000000E+00  0.00000000000E+00  0.30410380967E+03  0.30410380967E+03  0.00000000000E+00 0.  1.
          1   -1    0    0  501    0  0.00000000000E+00 -0.00000000000E+00 -0.29515900295E+03  0.29515900295E+03  0.00000000000E+00 0. -1.
         23    2    1    2    0    0  0.20697667532E+03  0.18604154580E+03  0.27286066919E+02  0.30629021295E+03  0.12497345402E+03 0.  0.
          5    1    3    3  502    0  0.35467237389E+02  0.94832925200E+02 -0.26323871866E+02  0.10471983986E+03  0.47000000000E+01 0. -1.
         -5    1    3    3    0  502  0.17150943793E+03  0.91208620597E+02  0.53609938784E+02  0.20157037309E+03  0.47000000000E+01 0. -1.
        -11    1    1    2    0    0 -0.96689057190E+02 -0.94338030698E+02 -0.53497718425E+02  0.14529433469E+03  0.00000000000E+00 0.  1.
         11    1    1    2    0    0 -0.11028761813E+03 -0.91703515098E+02  0.35156458225E+02  0.14767826499E+03  0.00000000000E+00 0. -1.
<mgrwt>
<rscale>  0 0.30185318E+03</rscale>
<asrwt>0</asrwt>
<pdfrwt beam="2">  1        1 0.45409077E-01 0.30507239E+03</pdfrwt>
<pdfrwt beam="1">  1       -1 0.46785201E-01 0.30507239E+03</pdfrwt>
<totfact> 0.41724923E+02</totfact>
</mgrwt>
</event>
<event>
 7    1  0.5400401E-006  0.1757308E+03  0.7546771E-02  0.1177916E+00
          2   -1    0    0  501    0  0.00000000000E+00  0.00000000000E+00  0.55674082042E+02  0.55674082042E+02  0.00000000000E+00 0. -1.
         -2   -1    0    0    0  501 -0.00000000000E+00 -0.00000000000E+00 -0.49710275716E+03  0.49710275716E+03  0.00000000000E+00 0.  1.
         23    2    1    2    0    0  0.43998538304E+02 -0.11541577370E+03 -0.27407257058E+03  0.32557194473E+03  0.12499858021E+03 0.  0.
          5    1    3    3  502    0  0.40435903989E+02 -0.14234358279E+03 -0.23520780543E+03  0.27792365792E+03  0.47000000000E+01 0.  1.
         -5    1    3    3    0  502  0.35626343157E+01  0.26927809088E+02 -0.38864765150E+02  0.47648286808E+02  0.47000000000E+01 0.  1.
        -11    1    1    2    0    0 -0.29143636358E+02  0.94548396251E+00 -0.71311585666E+02  0.77042765594E+02  0.00000000000E+00 0.  1.
         11    1    1    2    0    0 -0.14854901946E+02  0.11447028974E+03 -0.96044518865E+02  0.15016212888E+03  0.00000000000E+00 0. -1.
<mgrwt>
<rscale>  0 0.16993472E+03</rscale>
<asrwt>0</asrwt>
<pdfrwt beam="1">  1        2 0.85652431E-02 0.17573081E+03</pdfrwt>
<pdfrwt beam="2">  1       -2 0.76477350E-01 0.17573081E+03</pdfrwt>
<totfact> 0.12053165E+03</totfact>
</mgrwt>
</event>
<event>
 7    1  0.5400401E-006  0.2222445E+03  0.7546771E-02  0.1135496E+00
         -1   -1    0    0    0  501 -0.00000000000E+00  0.00000000000E+00  0.34555641408E+03  0.34555641408E+03  0.00000000000E+00 0.  1.
          1   -1    0    0  501    0  0.00000000000E+00 -0.00000000000E+00 -0.17199867933E+03  0.17199867933E+03  0.00000000000E+00 0. -1.
         23    2    1    2    0    0  0.17813003923E+03 -0.45113413256E+02  0.21388559498E+03  0.30844716774E+03  0.12500830619E+03 0.  0.
          5    1    3    3  502    0  0.19280377202E+03 -0.28981705288E+02  0.16792935772E+03  0.25736276524E+03  0.47000000000E+01 0.  1.
         -5    1    3    3    0  502 -0.14673732792E+02 -0.16131707969E+02  0.45956237257E+02  0.51084402501E+02  0.47000000000E+01 0.  1.
        -11    1    1    2    0    0 -0.83719445505E+02  0.10632218398E+02 -0.63919131251E+02  0.10586616534E+03  0.00000000000E+00 0.  1.
         11    1    1    2    0    0 -0.94410593723E+02  0.34481194858E+02  0.23591271022E+02  0.10324176032E+03  0.00000000000E+00 0. -1.
<mgrwt>
<rscale>  0 0.21785033E+03</rscale>
<asrwt>0</asrwt>
<pdfrwt beam="2">  1        1 0.26461335E-01 0.22224448E+03</pdfrwt>
<pdfrwt beam="1">  1       -1 0.53162525E-01 0.22224448E+03</pdfrwt>
<totfact> 0.65264232E+02</totfact>
</mgrwt>
</event>
<event>
 7    1  0.5400401E-006  0.2789700E+03  0.7546771E-02  0.1098104E+00
          3   -1    0    0  501    0  0.00000000000E+00  0.00000000000E+00  0.16386896214E+03  0.16386896214E+03  0.00000000000E+00 0. -1.
         -3   -1    0    0    0  501 -0.00000000000E+00 -0.00000000000E+00 -0.46928791119E+03  0.46928791119E+03  0.00000000000E+00 0.  1.
         23    2    1    2    0    0  0.49351123428E+02  0.24447016171E+03 -0.21559771046E+03  0.35257142025E+03  0.12499216086E+03 0.  0.
          5    1    3    3  502    0 -0.65226057106E+01  0.20144818292E+03 -0.19105964218E+03  0.27775851320E+03  0.47000000000E+01 0. -1.
         -5    1    3    3    0  502  0.55873729138E+02  0.43021978789E+02 -0.24538068282E+02  0.74812907053E+02  0.47000000000E+01 0. -1.
        -11    1    1    2    0    0 -0.27099853089E+02 -0.36428028462E+02  0.13319309087E+02  0.47316036284E+02  0.00000000000E+00 0. -1.
         11    1    1    2    0    0 -0.22251270339E+02 -0.20804213325E+03 -0.10314054768E+03  0.23326941680E+03  0.00000000000E+00 0.  1.
<mgrwt>
<rscale>  0 0.27562273E+03</rscale>
<asrwt>0</asrwt>
<pdfrwt beam="1">  1        3 0.25210609E-01 0.27896995E+03</pdfrwt>
<pdfrwt beam="2">  1       -3 0.72198141E-01 0.27896995E+03</pdfrwt>
<totfact> 0.68999499E+01</totfact>
</mgrwt>
</event>
<event>
 7    1  0.5400401E-006  0.1486056E+03  0.7546771E-02  0.1211667E+00
          2   -1    0    0  501    0  0.00000000000E+00  0.00000000000E+00  0.16428059593E+03  0.16428059593E+03  0.00000000000E+00 0. -1.
         -2   -1    0    0    0  501 -0.00000000000E+00 -0.00000000000E+00 -0.11194445541E+03  0.11194445541E+03  0.00000000000E+00 0.  1.
         23    2    1    2    0    0 -0.40196155417E+02  0.69598025764E+02  0.15123797117E+02  0.14937323660E+03  0.12499607382E+03 0.  0.
          5    1    3    3  502    0 -0.20957586572E+02 -0.90674519793E+01  0.54444155998E+02  0.59225798793E+02  0.47000000000E+01 0.  1.
         -5    1    3    3    0  502 -0.19238568845E+02  0.78665477743E+02 -0.39320358881E+02  0.90147437802E+02  0.47000000000E+01 0.  1.
        -11    1    1    2    0    0 -0.14375507411E+02 -0.13588472505E+02 -0.21387133828E+02  0.29132649926E+02  0.00000000000E+00 0.  1.
         11    1    1    2    0    0  0.54571662828E+02 -0.56009553259E+02  0.58599477240E+02  0.97719164819E+02  0.00000000000E+00 0. -1.
<mgrwt>
<rscale>  0 0.14124256E+03</rscale>
<asrwt>0</asrwt>
<pdfrwt beam="1">  1        2 0.25273938E-01 0.14860563E+03</pdfrwt>
<pdfrwt beam="2">  1       -2 0.17222224E-01 0.14860563E+03</pdfrwt>
<totfact> 0.55290642E+03</totfact>
</mgrwt>
</event>
<event>
 7    1  0.5400401E-006  0.1368078E+03  0.7546771E-02  0.1228310E+00
         -1   -1    0    0    0  501 -0.00000000000E+00  0.00000000000E+00  0.62844159006E+02  0.62844159006E+02  0.00000000000E+00 0.  1.
          1   -1    0    0  501    0  0.00000000000E+00 -0.00000000000E+00 -0.24172378952E+03  0.24172378952E+03  0.00000000000E+00 0. -1.
         23    2    1    2    0    0  0.27601417469E+02 -0.48273104050E+02 -0.94815430690E+02  0.16645219027E+03  0.12499693967E+03 0.  0.
          5    1    3    3  502    0  0.39262429543E+02 -0.10038542758E+02  0.19529420624E+02  0.45230509441E+02  0.47000000000E+01 0.  1.
         -5    1    3    3    0  502 -0.11661012075E+02 -0.38234561292E+02 -0.11434485131E+03  0.12122168082E+03  0.47000000000E+01 0.  1.
        -11    1    1    2    0    0  0.20525524969E+02  0.39276847463E+02 -0.76730646623E+02  0.88609029185E+02  0.00000000000E+00 0. -1.
         11    1    1    2    0    0 -0.48126942437E+02  0.89962565872E+01 -0.73335531981E+01  0.49506729073E+02  0.00000000000E+00 0.  1.
<mgrwt>
<rscale>  0 0.12942620E+03</rscale>
<asrwt>0</asrwt>
<pdfrwt beam="2">  1        1 0.37188276E-01 0.13680777E+03</pdfrwt>
<pdfrwt beam="1">  1       -1 0.96683321E-02 0.13680777E+03</pdfrwt>
<totfact> 0.70421629E+03</totfact>
</mgrwt>
</event>
<event>
 7    1  0.5400401E-006  0.1865964E+03  0.7546771E-02  0.1166605E+00
         -3   -1    0    0    0  501 -0.00000000000E+00  0.00000000000E+00  0.57640925084E+03  0.57640925084E+03  0.00000000000E+00 0.  1.
          3   -1    0    0  501    0  0.00000000000E+00 -0.00000000000E+00 -0.58787822430E+02  0.58787822430E+02  0.00000000000E+00 0. -1.
         23    2    1    2    0    0 -0.85124907944E+02 -0.10930332101E+03  0.36359270699E+03  0.40867821246E+03  0.12499903531E+03 0.  0.
          5    1    3    3  502    0 -0.68970604511E+02  0.62951252273E+01  0.14803637869E+03  0.16350361557E+03  0.47000000000E+01 0.  1.
         -5    1    3    3    0  502 -0.16154303433E+02 -0.11559844623E+03  0.21555632831E+03  0.24517459690E+03  0.47000000000E+01 0.  1.
        -11    1    1    2    0    0  0.84918793304E+02  0.36768893046E+02  0.98662885692E+02  0.13526831841E+03  0.00000000000E+00 0.  1.
         11    1    1    2    0    0  0.20611464053E+00  0.72534427960E+02  0.55365835730E+02  0.91250542403E+02  0.00000000000E+00 0. -1.
<mgrwt>
<rscale>  0 0.18124393E+03</rscale>
<asrwt>0</asrwt>
<pdfrwt beam="2">  1        3 0.90442808E-02 0.18659642E+03</pdfrwt>
<pdfrwt beam="1">  1       -3 0.88678342E-01 0.18659642E+03</pdfrwt>
<totfact> 0.25084996E+02</totfact>
</mgrwt>
</event>
<event>
 7    1  0.5400401E-006  0.1535334E+03  0.7546771E-02  0.1204772E+00
          1   -1    0    0  501    0  0.00000000000E+00  0.00000000000E+00  0.23842569442E+02  0.23842569442E+02  0.00000000000E+00 0. -1.
         -1   -1    0    0    0  501 -0.00000000000E+00 -0.00000000000E+00 -0.83551924310E+03  0.83551924310E+03  0.00000000000E+00 0.  1.
         23    2    1    2    0    0 -0.30169225178E+02  0.83886953788E+02 -0.48394421132E+03  0.50771499789E+03  0.12500126500E+03 0.  0.
          5    1    3    3  502    0 -0.19355777161E+02  0.10640199488E+03 -0.25046834701E+03  0.27285987883E+03  0.47000000000E+01 0. -1.
         -5    1    3    3    0  502 -0.10813448017E+02 -0.22515041088E+02 -0.23347586431E+03  0.23485511906E+03  0.47000000000E+01 0. -1.
        -11    1    1    2    0    0  0.35891581709E+02 -0.24692827186E+02 -0.25003572157E+03  0.25380268598E+03  0.00000000000E+00 0. -1.
         11    1    1    2    0    0 -0.57223565309E+01 -0.59194126601E+02 -0.77696740772E+02  0.97844128669E+02  0.00000000000E+00 0.  1.
<mgrwt>
<rscale>  0 0.14655432E+03</rscale>
<asrwt>0</asrwt>
<pdfrwt beam="1">  1        1 0.36680880E-02 0.15353345E+03</pdfrwt>
<pdfrwt beam="2">  1       -1 0.12854141E+00 0.15353345E+03</pdfrwt>
<totfact> 0.14102010E+03</totfact>
</mgrwt>
</event>
<event>
 6    1  0.5400401E-006  0.1768528E+03  0.7546771E-02  0.1196911E+00
         -1   -1    0    0    0  501 -0.00000000000E+00  0.00000000000E+00  0.74842291423E+03  0.74842291423E+03  0.00000000000E+00 0.  1.
          1   -1    0    0  501    0  0.00000000000E+00 -0.00000000000E+00 -0.33383986780E+03  0.33383986780E+03  0.00000000000E+00 0. -1.
          5    1    1    2  502    0 -0.75921795649E+02 -0.17334446275E+01  0.13883758213E+03  0.15831957584E+03  0.47000000000E+01 0. -1.
         -5    1    1    2    0  502  0.31522104178E+02  0.30183209673E+02  0.59146689545E+03  0.59309345606E+03  0.47000000000E+01 0.  1.
        -11    1    1    2    0    0  0.60996371694E+02 -0.43215194975E+02 -0.21250151254E+03  0.22526651609E+03  0.00000000000E+00 0. -1.
         11    1    1    2    0    0 -0.16596680223E+02  0.14765429930E+02 -0.10321991861E+03  0.10558323405E+03  0.00000000000E+00 0.  1.
<mgrwt>
<rscale>  0 0.15293604E+03</rscale>
<asrwt>0</asrwt>
<pdfrwt beam="2">  1        1 0.51359980E-01 0.17685280E+03</pdfrwt>
<pdfrwt beam="1">  1       -1 0.11514199E+00 0.17685280E+03</pdfrwt>
<totfact> 0.57793833E+01</totfact>
</mgrwt>
</event>
<event>
 6    1  0.5400401E-006  0.3726725E+03  0.7546771E-02  0.1098823E+00
         -2   -1    0    0    0  501 -0.00000000000E+00  0.00000000000E+00  0.21126475382E+03  0.21126475382E+03  0.00000000000E+00 0.  1.
          2   -1    0    0  501    0  0.00000000000E+00 -0.00000000000E+00 -0.27604320590E+03  0.27604320590E+03  0.00000000000E+00 0. -1.
          5    1    1    2  502    0  0.65704838459E+02 -0.57908115604E+01 -0.18092891551E+03  0.19263442518E+03  0.47000000000E+01 0. -1.
         -5    1    1    2    0  502 -0.10128618465E+03 -0.48070412935E+02  0.14321628079E+03  0.18194133363E+03  0.47000000000E+01 0.  1.
        -11    1    1    2    0    0 -0.19368138805E+02  0.46627417861E+02 -0.27111516249E+02  0.57308596305E+02  0.00000000000E+00 0.  1.
         11    1    1    2    0    0  0.54949484996E+02  0.72338066339E+01  0.45698895726E-01  0.55423604611E+02  0.00000000000E+00 0. -1.
<mgrwt>
<rscale>  0 0.27433701E+03</rscale>
<asrwt>0</asrwt>
<pdfrwt beam="2">  1        2 0.42468185E-01 0.37267245E+03</pdfrwt>
<pdfrwt beam="1">  1       -2 0.32502270E-01 0.37267245E+03</pdfrwt>
<totfact> 0.10606535E+03</totfact>
</mgrwt>
</event>
<event>
 7    1  0.5400401E-006  0.1237636E+03  0.7546771E-02  0.1249011E+00
         -1   -1    0    0    0  501 -0.00000000000E+00  0.00000000000E+00  0.16783172187E+03  0.16783172187E+03  0.00000000000E+00 0.  1.
          1   -1    0    0  501    0  0.00000000000E+00 -0.00000000000E+00 -0.81568092363E+02  0.81568092363E+02  0.00000000000E+00 0. -1.
         23    2    1    2    0    0 -0.23037892342E+02 -0.25651717751E+02  0.88674725170E+02  0.15225186690E+03  0.11886407776E+03 0.  0.
          5    1    3    3  502    0 -0.20076556991E+02 -0.16759734067E+02 -0.25954540463E+02  0.37144111206E+02  0.47000000000E+01 0. -1.
         -5    1    3    3    0  502 -0.29613353508E+01 -0.88919836837E+01  0.11462926563E+03  0.11510775569E+03  0.47000000000E+01 0.  1.
        -11    1    1    2    0    0 -0.85762930574E+01  0.46618293969E+02  0.21770725079E+02  0.52161121591E+02  0.00000000000E+00 0.  1.
         11    1    1    2    0    0  0.31614185400E+02 -0.20966576218E+02 -0.24181820738E+02  0.44986825749E+02  0.00000000000E+00 0. -1.
<mgrwt>
<rscale>  0 0.11648489E+03</rscale>
<asrwt>0</asrwt>
<pdfrwt beam="2">  1        1 0.12548937E-01 0.12376358E+03</pdfrwt>
<pdfrwt beam="1">  1       -1 0.25820265E-01 0.12376358E+03</pdfrwt>
<totfact> 0.58848684E+03</totfact>
</mgrwt>
</event>
<event>
 7    1  0.5400401E-006  0.1440615E+03  0.7546771E-02  0.1217907E+00
          1   -1    0    0  501    0  0.00000000000E+00  0.00000000000E+00  0.33186683162E+03  0.33186683162E+03  0.00000000000E+00 0. -1.
         -1   -1    0    0    0  501 -0.00000000000E+00 -0.00000000000E+00 -0.58782773685E+02  0.58782773685E+02  0.00000000000E+00 0.  1.
         23    2    1    2    0    0  0.26503686434E+02 -0.66541282401E+02  0.79220149084E+02  0.16440668326E+03  0.12499415115E+03 0.  0.
          5    1    3    3  502    0  0.25177561230E+02 -0.12174845837E+02  0.10154639167E+03  0.10543195019E+03  0.47000000000E+01 0.  1.
         -5    1    3    3    0  502  0.13261252040E+01 -0.54366436564E+02 -0.22326242583E+02  0.58974733070E+02  0.47000000000E+01 0.  1.
        -11    1    1    2    0    0 -0.27192009953E+02 -0.78274817563E+01  0.11252642967E+03  0.11602961799E+03  0.00000000000E+00 0. -1.
         11    1    1    2    0    0  0.68832351967E+00  0.74368764157E+02  0.81337479177E+02  0.11021330405E+03  0.00000000000E+00 0.  1.
<mgrwt>
<rscale>  0 0.13665136E+03</rscale>
<asrwt>0</asrwt>
<pdfrwt beam="1">  1        1 0.51056435E-01 0.14406153E+03</pdfrwt>
<pdfrwt beam="2">  1       -1 0.90435038E-02 0.14406153E+03</pdfrwt>
<totfact> 0.52811077E+03</totfact>
</mgrwt>
</event>
<event>
 7    1  0.5400401E-006  0.2198596E+03  0.7546771E-02  0.1137767E+00
         -2   -1    0    0    0  501 -0.00000000000E+00  0.00000000000E+00  0.39096418508E+02  0.39096418508E+02  0.00000000000E+00 0.  1.
          2   -1    0    0  501    0  0.00000000000E+00 -0.00000000000E+00 -0.11486012088E+04  0.11486012088E+04  0.00000000000E+00 0. -1.
         23    2    1    2    0    0  0.42406506266E+02 -0.17582844143E+03 -0.50489738185E+03  0.55069013133E+03  0.12499720781E+03 0.  0.
          5    1    3    3  502    0  0.32366094279E+01 -0.12603801992E+03 -0.18107157191E+03  0.22069223426E+03  0.47000000000E+01 0.  1.
         -5    1    3    3    0  502  0.39169896839E+02 -0.49790421505E+02 -0.32382580994E+03  0.32999789707E+03  0.47000000000E+01 0.  1.
        -11    1    1    2    0    0 -0.14056957064E+02  0.14928977501E+03 -0.37037893140E+03  0.39958176609E+03  0.00000000000E+00 0.  1.
         11    1    1    2    0    0 -0.28349549202E+02  0.26538666416E+02 -0.23422847709E+03  0.23742572993E+03  0.00000000000E+00 0. -1.
<mgrwt>
<rscale>  0 0.21486998E+03</rscale>
<asrwt>0</asrwt>
<pdfrwt beam="2">  1        2 0.17670785E+00 0.21985962E+03</pdfrwt>
<pdfrwt beam="1">  1       -2 0.60148346E-02 0.21985962E+03</pdfrwt>
<totfact> 0.31420834E+03</totfact>
</mgrwt>
</event>
<event>
 7    1  0.5400401E-006  0.1534144E+03  0.7546771E-02  0.1205155E+00
         -3   -1    0    0    0  501 -0.00000000000E+00  0.00000000000E+00  0.21657634624E+03  0.21657634624E+03  0.00000000000E+00 0.  1.
          3   -1    0    0  501    0  0.00000000000E+00 -0.00000000000E+00 -0.10951765854E+03  0.10951765854E+03  0.00000000000E+00 0. -1.
         23    2    1    2    0    0  0.87930647917E+02 -0.13392520156E+02  0.12529550611E+03  0.19807809501E+03  0.12499923773E+03 0.  0.
          5    1    3    3  502    0  0.79198997128E+02 -0.15162599856E+02  0.89175094970E+01  0.81264983579E+02  0.47000000000E+01 0.  1.
         -5    1    3    3    0  502  0.87316507894E+01  0.17700797000E+01  0.11637799661E+03  0.11681311143E+03  0.47000000000E+01 0.  1.
        -11    1    1    2    0    0 -0.67894073655E+02  0.49382603374E+02 -0.27177220769E+01  0.83997814059E+02  0.00000000000E+00 0. -1.
         11    1    1    2    0    0 -0.20036574263E+02 -0.35990083218E+02 -0.15519096335E+02  0.44018095703E+02  0.00000000000E+00 0.  1.
<mgrwt>
<rscale>  0 0.14625222E+03</rscale>
<asrwt>0</asrwt>
<pdfrwt beam="2">  1        3 0.16848871E-01 0.15341437E+03</pdfrwt>
<pdfrwt beam="1">  1       -3 0.33319438E-01 0.15341437E+03</pdfrwt>
<totfact> 0.63026798E+02</totfact>
</mgrwt>
</event>
<event>
 7    1  0.5400401E-006  0.1362353E+03  0.7546771E-02  0.1228760E+00
         -1   -1    0    0    0  501 -0.00000000000E+00  0.00000000000E+00  0.11913255501E+04  0.11913255501E+04  0.00000000000E+00 0.  1.
          1   -1    0    0  501    0  0.00000000000E+00 -0.00000000000E+00 -0.13368934949E+02  0.13368934949E+02  0.00000000000E+00 0. -1.
         23    2    1    2    0    0 -0.39382768082E+02 -0.49110499114E+02  0.78103725171E+03  0.79282990504E+03  0.12081898120E+03 0.  0.
          5    1    3    3  502    0  0.21249299045E+02 -0.44878046022E+02  0.59440392262E+03  0.59649282053E+03  0.47000000000E+01 0. -1.
         -5    1    3    3    0  502 -0.60632067127E+02 -0.42324530921E+01  0.18663332910E+03  0.19633708451E+03  0.47000000000E+01 0.  1.
        -11    1    1    2    0    0  0.10267392570E+02  0.60617553975E+02  0.35064914873E+03  0.35599822008E+03  0.00000000000E+00 0. -1.
         11    1    1    2    0    0  0.29115375511E+02 -0.11507054861E+02  0.46270214761E+02  0.55866359974E+02  0.00000000000E+00 0.  1.
<mgrwt>
<rscale>  0 0.12912466E+03</rscale>
<asrwt>0</asrwt>
<pdfrwt beam="2">  1        1 0.20567602E-02 0.13623535E+03</pdfrwt>
<pdfrwt beam="1">  1       -1 0.18328077E+00 0.13623535E+03</pdfrwt>
<totfact> 0.12333535E+03</totfact>
</mgrwt>
</event>
<event>
 7    1  0.5400401E-006  0.1512080E+03  0.7546771E-02  0.1208861E+00
          2   -1    0    0  501    0  0.00000000000E+00  0.00000000000E+00  0.20999509346E+03  0.20999509346E+03  0.00000000000E+00 0. -1.
         -2   -1    0    0    0  501 -0.00000000000E+00 -0.00000000000E+00 -0.91675778399E+02  0.91675778399E+02  0.00000000000E+00 0.  1.
         23    2    1    2    0    0 -0.23630778920E+02 -0.81729406759E+02  0.39651155343E+02  0.15632043925E+03  0.12500302383E+03 0.  0.
          5    1    3    3  502    0  0.44231004742E+02 -0.42657242556E+02 -0.11469144549E+02  0.62686947602E+02  0.47000000000E+01 0. -1.
         -5    1    3    3    0  502 -0.67861783662E+02 -0.39072164203E+02  0.51120299892E+02  0.93633491649E+02  0.47000000000E+01 0. -1.
        -11    1    1    2    0    0 -0.21151078346E+02 -0.44587711044E+01  0.29258637959E+02  0.36377419509E+02  0.00000000000E+00 0. -1.
         11    1    1    2    0    0  0.44781857266E+02  0.86188177863E+02  0.49409521761E+02  0.10897301310E+03  0.00000000000E+00 0.  1.
<mgrwt>
<rscale>  0 0.14337318E+03</rscale>
<asrwt>0</asrwt>
<pdfrwt beam="1">  1        2 0.32306937E-01 0.15120802E+03</pdfrwt>
<pdfrwt beam="2">  1       -2 0.14103966E-01 0.15120802E+03</pdfrwt>
<totfact> 0.58805947E+03</totfact>
</mgrwt>
</event>
<event>
 7    1  0.5400401E-006  0.1861418E+03  0.7546771E-02  0.1166543E+00
          1   -1    0    0  501    0  0.00000000000E+00  0.00000000000E+00  0.86787976790E+03  0.86787976790E+03  0.00000000000E+00 0. -1.
         -1   -1    0    0    0  501 -0.00000000000E+00 -0.00000000000E+00 -0.36331689211E+02  0.36331689211E+02  0.00000000000E+00 0.  1.
         23    2    1    2    0    0  0.10470522958E+03 -0.89779076173E+02  0.47823802801E+03  0.51318648114E+03  0.12500114148E+03 0.  0.
          5    1    3    3  502    0  0.79261571425E+02 -0.11883970998E+03  0.41515751099E+03  0.43907074863E+03  0.47000000000E+01 0. -1.
         -5    1    3    3    0  502  0.25443658157E+02  0.29060633809E+02  0.63080517025E+02  0.74115732513E+02  0.47000000000E+01 0. -1.
        -11    1    1    2    0    0 -0.48771311280E+02 -0.12833289697E+02  0.11651681843E+03  0.12696260515E+03  0.00000000000E+00 0. -1.
         11    1    1    2    0    0 -0.55933918303E+02  0.10261236587E+03  0.23679323224E+03  0.26406237082E+03  0.00000000000E+00 0.  1.
<mgrwt>
<rscale>  0 0.18130846E+03</rscale>
<asrwt>0</asrwt>
<pdfrwt beam="1">  1        1 0.13351995E+00 0.18614176E+03</pdfrwt>
<pdfrwt beam="2">  1       -1 0.55894913E-02 0.18614176E+03</pdfrwt>
<totfact> 0.29852920E+03</totfact>
</mgrwt>
</event>
<event>
 7    1  0.5400401E-006  0.1727302E+03  0.7546771E-02  0.1185186E+00
         -2   -1    0    0    0  501 -0.00000000000E+00  0.00000000000E+00  0.28211818357E+02  0.28211818357E+02  0.00000000000E+00 0.  1.
          2   -1    0    0  501    0  0.00000000000E+00 -0.00000000000E+00 -0.11163906542E+04  0.11163906542E+04  0.00000000000E+00 0. -1.
         23    2    1    2    0    0  0.34242741559E+02  0.11418627958E+03 -0.31457377262E+03  0.35887655097E+03  0.12499859448E+03 0.  0.
          5    1    3    3  502    0  0.22025271637E+02  0.55092264261E+02 -0.28566739997E+03  0.29180168535E+03  0.47000000000E+01 0.  1.
         -5    1    3    3    0  502  0.12217469923E+02  0.59094015316E+02 -0.28906372659E+02  0.67074865619E+02  0.47000000000E+01 0.  1.
        -11    1    1    2    0    0  0.19291011793E+02 -0.14494907609E+02 -0.12080735583E+03  0.12319359848E+03  0.00000000000E+00 0. -1.
         11    1    1    2    0    0 -0.53533753353E+02 -0.99691371969E+02 -0.65279770738E+03  0.66253232310E+03  0.00000000000E+00 0.  1.
<mgrwt>
<rscale>  0 0.16314928E+03</rscale>
<asrwt>0</asrwt>
<pdfrwt beam="2">  1        2 0.17175238E+00 0.17273020E+03</pdfrwt>
<pdfrwt beam="1">  1       -2 0.43402804E-02 0.17273020E+03</pdfrwt>
<totfact> 0.53488198E+03</totfact>
</mgrwt>
</event>
<event>
 7    1  0.5400401E-006  0.2444033E+03  0.7546771E-02  0.1119381E+00
         -1   -1    0    0    0  501 -0.00000000000E+00  0.00000000000E+00  0.97486326093E+02  0.97486326093E+02  0.00000000000E+00 0. -1.
          1   -1    0    0  501    0  0.00000000000E+00 -0.00000000000E+00 -0.80586375250E+03  0.80586375250E+03  0.00000000000E+00 0.  1.
         23    2    1    2    0    0 -0.15011606019E+03 -0.14699724006E+03 -0.12105900416E+03  0.27274212035E+03  0.12485976780E+03 0.  0.
          5    1    3    3  502    0 -0.15906987120E+03 -0.84354277125E+02 -0.99223933217E+02  0.20563644355E+03  0.47000000000E+01 0.  1.
         -5    1    3    3    0  502  0.89538110029E+01 -0.62642962933E+02 -0.21835070945E+02  0.67105676807E+02  0.47000000000E+01 0.  1.
        -11    1    1    2    0    0  0.31576361154E+02  0.74671808817E+02 -0.31053918275E+03  0.32094786125E+03  0.00000000000E+00 0. -1.
         11    1    1    2    0    0  0.11853969904E+03  0.72325431241E+02 -0.27677923949E+03  0.30966009699E+03  0.00000000000E+00 0.  1.
<mgrwt>
<rscale>  0 0.24061950E+03</rscale>
<asrwt>0</asrwt>
<pdfrwt beam="2">  1        1 0.12397904E+00 0.24440332E+03</pdfrwt>
<pdfrwt beam="1">  1       -1 0.14997896E-01 0.24440332E+03</pdfrwt>
<totfact> 0.73560289E+02</totfact>
</mgrwt>
</event>
<event>
 7    1  0.5400401E-006  0.1255752E+03  0.7546771E-02  0.1248448E+00
         -1   -1    0    0    0  501 -0.00000000000E+00  0.00000000000E+00  0.14139154756E+03  0.14139154756E+03  0.00000000000E+00 0. -1.
          1   -1    0    0  501    0  0.00000000000E+00 -0.00000000000E+00 -0.96900922230E+02  0.96900922230E+02  0.00000000000E+00 0.  1.
         23    2    1    2    0    0  0.55072352176E+01 -0.10686273172E+02  0.65959112797E+02  0.14184407466E+03  0.12499844351E+03 0.  0.
          5    1    3    3  502    0 -0.32333100974E+02  0.46390179995E+02  0.25954719335E+02  0.62395638264E+02  0.47000000000E+01 0. -1.
         -5    1    3    3    0  502  0.37840336192E+02 -0.57076453167E+02  0.40004393462E+02  0.79448436394E+02  0.47000000000E+01 0. -1.
        -11    1    1    2    0    0  0.40772080357E+01 -0.29984425947E+02  0.21028921340E+02  0.36849761973E+02  0.00000000000E+00 0. -1.
         11    1    1    2    0    0 -0.95844432533E+01  0.40670699119E+02 -0.42497408806E+02  0.59598633160E+02  0.00000000000E+00 0.  1.
<mgrwt>
<rscale>  0 0.11681351E+03</rscale>
<asrwt>0</asrwt>
<pdfrwt beam="2">  1        1 0.14907834E-01 0.12557522E+03</pdfrwt>
<pdfrwt beam="1">  1       -1 0.21752546E-01 0.12557522E+03</pdfrwt>
<totfact> 0.62285995E+03</totfact>
</mgrwt>
</event>
<event>
 7    1  0.5400401E-006  0.2328938E+03  0.7546771E-02  0.1127395E+00
         -2   -1    0    0    0  501 -0.00000000000E+00  0.00000000000E+00  0.32327080406E+02  0.32327080406E+02  0.00000000000E+00 0.  1.
          2   -1    0    0  501    0  0.00000000000E+00 -0.00000000000E+00 -0.15696771387E+04  0.15696771387E+04  0.00000000000E+00 0. -1.
         23    2    1    2    0    0  0.19630081745E+03  0.89065911669E+01 -0.77168671376E+03  0.80606446266E+03  0.12500478180E+03 0.  0.
          5    1    3    3  502    0  0.79396259733E+02  0.78973751999E+01 -0.54631818905E+03  0.55213384997E+03  0.47000000000E+01 0. -1.
         -5    1    3    3    0  502  0.11690455772E+03  0.10092159670E+01 -0.22536852471E+03  0.25393061270E+03  0.47000000000E+01 0. -1.
        -11    1    1    2    0    0 -0.43064736234E+02 -0.37033744884E+02 -0.28679350030E+03  0.29236378295E+03  0.00000000000E+00 0. -1.
         11    1    1    2    0    0 -0.15323608122E+03  0.28127153717E+02 -0.47886984425E+03  0.50357597351E+03  0.00000000000E+00 0.  1.
<mgrwt>
<rscale>  0 0.22893008E+03</rscale>
<asrwt>0</asrwt>
<pdfrwt beam="2">  1        2 0.24148880E+00 0.23289383E+03</pdfrwt>
<pdfrwt beam="1">  1       -2 0.49733969E-02 0.23289383E+03</pdfrwt>
<totfact> 0.24729182E+03</totfact>
</mgrwt>
</event>
<event>
 7    1  0.5400401E-006  0.1350221E+03  0.7546771E-02  0.1232656E+00
          2   -1    0    0  501    0  0.00000000000E+00  0.00000000000E+00  0.76412906495E+03  0.76412906495E+03  0.00000000000E+00 0. -1.
         -2   -1    0    0    0  501 -0.00000000000E+00 -0.00000000000E+00 -0.19272029752E+02  0.19272029752E+02  0.00000000000E+00 0.  1.
         23    2    1    2    0    0 -0.33701748560E+02  0.38342918506E+02  0.35357913042E+03  0.37848270554E+03  0.12499987869E+03 0.  0.
          5    1    3    3  502    0  0.23037189777E+02  0.62032499104E+02  0.24277198776E+03  0.25167254736E+03  0.47000000000E+01 0. -1.
         -5    1    3    3    0  502 -0.56738938337E+02 -0.23689580598E+02  0.11080714266E+03  0.12681015818E+03  0.47000000000E+01 0. -1.
        -11    1    1    2    0    0  0.34232397080E+02  0.22855450726E+02  0.12139691065E+03  0.12818517290E+03  0.00000000000E+00 0.  1.
         11    1    1    2    0    0 -0.53064851975E+00 -0.61198369231E+02  0.26988099414E+03  0.27673321626E+03  0.00000000000E+00 0. -1.
<mgrwt>
<rscale>  0 0.12655660E+03</rscale>
<asrwt>0</asrwt>
<pdfrwt beam="1">  1        2 0.11755829E+00 0.13502206E+03</pdfrwt>
<pdfrwt beam="2">  1       -2 0.29649282E-02 0.13502206E+03</pdfrwt>
<totfact> 0.15427586E+04</totfact>
</mgrwt>
</event>
<event>
 7    1  0.5400401E-006  0.1574546E+03  0.7546771E-02  0.1200325E+00
          1   -1    0    0  501    0  0.00000000000E+00  0.00000000000E+00  0.39770065992E+03  0.39770065992E+03  0.00000000000E+00 0. -1.
         -1   -1    0    0    0  501 -0.00000000000E+00 -0.00000000000E+00 -0.55237908093E+02  0.55237908093E+02  0.00000000000E+00 0.  1.
         23    2    1    2    0    0 -0.65123953099E+02 -0.70191840701E+02  0.13179586792E+03  0.20533413735E+03  0.12499573350E+03 0.  0.
          5    1    3    3  502    0  0.24364243998E+02 -0.50840142049E+02  0.85783267852E+02  0.10275794603E+03  0.47000000000E+01 0.  1.
         -5    1    3    3    0  502 -0.89488197098E+02 -0.19351698652E+02  0.46012600072E+02  0.10257619132E+03  0.47000000000E+01 0.  1.
        -11    1    1    2    0    0 -0.32172401912E+01  0.44634428149E+02  0.13614311964E+03  0.14330921756E+03  0.00000000000E+00 0.  1.
         11    1    1    2    0    0  0.68341193290E+02  0.25557412552E+02  0.74523764258E+02  0.10429521310E+03  0.00000000000E+00 0. -1.
<mgrwt>
<rscale>  0 0.15012064E+03</rscale>
<asrwt>0</asrwt>
<pdfrwt beam="1">  1        1 0.61184715E-01 0.15745462E+03</pdfrwt>
<pdfrwt beam="2">  1       -1 0.84981400E-02 0.15745462E+03</pdfrwt>
<totfact> 0.46472542E+03</totfact>
</mgrwt>
</event>
<event>
 7    1  0.5400401E-006  0.1376644E+03  0.7546771E-02  0.1227739E+00
         -1   -1    0    0    0  501 -0.00000000000E+00  0.00000000000E+00  0.42043461897E+02  0.42043461897E+02  0.00000000000E+00 0.  1.
          1   -1    0    0  501    0  0.00000000000E+00 -0.00000000000E+00 -0.36166046023E+03  0.36166046023E+03  0.00000000000E+00 0. -1.
         23    2    1    2    0    0  0.25791064478E+02 -0.51662856113E+02 -0.18482989648E+03  0.23046384616E+03  0.12496905234E+03 0.  0.
          5    1    3    3  502    0  0.27441208140E+02  0.10381949951E+02  0.54965692605E+01  0.30217661435E+02  0.47000000000E+01 0. -1.
         -5    1    3    3    0  502 -0.16501436615E+01 -0.62044806064E+02 -0.19032646574E+03  0.20024618472E+03  0.47000000000E+01 0. -1.
        -11    1    1    2    0    0 -0.10008596149E+02 -0.26879765290E+02 -0.37560182093E+02  0.47259507591E+02  0.00000000000E+00 0.  1.
         11    1    1    2    0    0 -0.15782468329E+02  0.78542621403E+02 -0.97226919754E+02  0.12598056838E+03  0.00000000000E+00 0. -1.
<mgrwt>
<rscale>  0 0.12980941E+03</rscale>
<asrwt>0</asrwt>
<pdfrwt beam="2">  1        1 0.55640071E-01 0.13766442E+03</pdfrwt>
<pdfrwt beam="1">  1       -1 0.64682249E-02 0.13766442E+03</pdfrwt>
<totfact> 0.78389417E+03</totfact>
</mgrwt>
</event>
<event>
 7    1  0.5400401E-006  0.1254508E+03  0.7546771E-02  0.1249736E+00
          1   -1    0    0  501    0  0.00000000000E+00  0.00000000000E+00  0.27217538214E+03  0.27217538214E+03  0.00000000000E+00 0. -1.
         -1   -1    0    0    0  501 -0.00000000000E+00 -0.00000000000E+00 -0.44721038340E+02  0.44721038340E+02  0.00000000000E+00 0.  1.
         23    2    1    2    0    0 -0.70265874231E-01 -0.10697341934E+02  0.10380457245E+03  0.16282902521E+03  0.12499385635E+03 0.  0.
          5    1    3    3  502    0 -0.22109596787E+02  0.36975801557E+02  0.10113658503E+03  0.11003064574E+03  0.47000000000E+01 0. -1.
         -5    1    3    3    0  502  0.22039330913E+02 -0.47673143491E+02  0.26679874242E+01  0.52798379466E+02  0.47000000000E+01 0. -1.
        -11    1    1    2    0    0 -0.73815177824E+00  0.48449500525E+02  0.95084853333E+02  0.10671939047E+03  0.00000000000E+00 0.  1.
         11    1    1    2    0    0  0.80841765248E+00 -0.37752158591E+02  0.28564918012E+02  0.47348004799E+02  0.00000000000E+00 0. -1.
<mgrwt>
<rscale>  0 0.11606361E+03</rscale>
<asrwt>0</asrwt>
<pdfrwt beam="1">  1        1 0.41873135E-01 0.12545080E+03</pdfrwt>
<pdfrwt beam="2">  1       -1 0.68801599E-02 0.12545080E+03</pdfrwt>
<totfact> 0.10098494E+04</totfact>
</mgrwt>
</event>
<event>
 7    1  0.5400401E-006  0.1278155E+03  0.7546771E-02  0.1239586E+00
         -1   -1    0    0    0  501 -0.00000000000E+00  0.00000000000E+00  0.38666275701E+02  0.38666275701E+02  0.00000000000E+00 0.  1.
          1   -1    0    0  501    0  0.00000000000E+00 -0.00000000000E+00 -0.42672816595E+03  0.42672816595E+03  0.00000000000E+00 0. -1.
         23    2    1    2    0    0  0.18025436938E+02 -0.41739713733E+02 -0.11380380759E+03  0.17113769307E+03  0.11945577963E+03 0.  0.
          5    1    3    3  502    0  0.47003341420E+02  0.16587374971E+02 -0.87357940918E+02  0.10068741210E+03  0.47000000000E+01 0. -1.
         -5    1    3    3    0  502 -0.28977904482E+02 -0.58327088705E+02 -0.26445866675E+02  0.70450280972E+02  0.47000000000E+01 0.  1.
        -11    1    1    2    0    0  0.81346366176E+01  0.67937377833E+02 -0.15617811472E+03  0.17050883595E+03  0.00000000000E+00 0. -1.
         11    1    1    2    0    0 -0.26160073556E+02 -0.26197664100E+02 -0.11807996794E+03  0.12374791264E+03  0.00000000000E+00 0.  1.
<mgrwt>
<rscale>  0 0.12215339E+03</rscale>
<asrwt>0</asrwt>
<pdfrwt beam="2">  1        1 0.65650487E-01 0.12781551E+03</pdfrwt>
<pdfrwt beam="1">  1       -1 0.59486578E-02 0.12781551E+03</pdfrwt>
<totfact> 0.71771780E+03</totfact>
</mgrwt>
</event>
<event>
 6    1  0.5400401E-006  0.1585652E+03  0.7546771E-02  0.1204427E+00
          3   -1    0    0  501    0  0.00000000000E+00  0.00000000000E+00  0.22811953767E+03  0.22811953767E+03  0.00000000000E+00 0. -1.
         -3   -1    0    0    0  501 -0.00000000000E+00 -0.00000000000E+00 -0.91121348186E+02  0.91121348186E+02  0.00000000000E+00 0.  1.
          5    1    1    2  502    0  0.47255100071E+02  0.43630272483E+02  0.70778852122E+02  0.95751663523E+02  0.47000000000E+01 0. -1.
         -5    1    1    2    0  502 -0.44308699939E+02  0.27189355391E+02 -0.40014230818E+02  0.65770438685E+02  0.47000000000E+01 0.  1.
        -11    1    1    2    0    0 -0.38261140446E+02 -0.12813398478E+02  0.69873105689E+02  0.80686733404E+02  0.00000000000E+00 0.  1.
         11    1    1    2    0    0  0.35314740314E+02 -0.58006229396E+02  0.36360462492E+02  0.77032050244E+02  0.00000000000E+00 0. -1.
<mgrwt>
<rscale>  0 0.14682735E+03</rscale>
<asrwt>0</asrwt>
<pdfrwt beam="1">  1        3 0.35095313E-01 0.15856522E+03</pdfrwt>
<pdfrwt beam="2">  1       -3 0.14018669E-01 0.15856522E+03</pdfrwt>
<totfact> 0.78784285E+02</totfact>
</mgrwt>
</event>
<event>
 7    1  0.5400401E-006  0.1496856E+03  0.7546771E-02  0.1210624E+00
         -1   -1    0    0    0  501 -0.00000000000E+00  0.00000000000E+00  0.60082960532E+03  0.60082960532E+03  0.00000000000E+00 0.  1.
          1   -1    0    0  501    0  0.00000000000E+00 -0.00000000000E+00 -0.70942535968E+02  0.70942535968E+02  0.00000000000E+00 0. -1.
         23    2    1    2    0    0 -0.79510848947E+02 -0.21418251626E+02  0.52969799525E+03  0.55044140797E+03  0.12500024332E+03 0.  0.
          5    1    3    3  502    0 -0.11316796981E+03 -0.11040483560E+02  0.38697148091E+03  0.40335827586E+03  0.47000000000E+01 0. -1.
         -5    1    3    3    0  502  0.33657120858E+02 -0.10377768066E+02  0.14272651434E+03  0.14708313210E+03  0.47000000000E+01 0. -1.
        -11    1    1    2    0    0  0.44881044775E+02  0.83900462624E+01  0.44395331688E+02  0.63683958200E+02  0.00000000000E+00 0.  1.
         11    1    1    2    0    0  0.34629804172E+02  0.13028205364E+02 -0.44206257587E+02  0.57646775121E+02  0.00000000000E+00 0. -1.
<mgrwt>
<rscale>  0 0.14202918E+03</rscale>
<asrwt>0</asrwt>
<pdfrwt beam="2">  1        1 0.10914237E-01 0.14968560E+03</pdfrwt>
<pdfrwt beam="1">  1       -1 0.92435320E-01 0.14968560E+03</pdfrwt>
<totfact> 0.67964543E+02</totfact>
</mgrwt>
</event>
<event>
 7    1  0.5400401E-006  0.1295874E+03  0.7546771E-02  0.1229029E+00
         -1   -1    0    0    0  501 -0.00000000000E+00  0.00000000000E+00  0.51560280175E+02  0.51560280175E+02  0.00000000000E+00 0.  1.
          1   -1    0    0  501    0  0.00000000000E+00 -0.00000000000E+00 -0.36774414445E+03  0.36774414445E+03  0.00000000000E+00 0. -1.
         23    2    1    2    0    0  0.60138875141E+02 -0.19454452181E+02 -0.83380865655E+02  0.15409500647E+03  0.11312710661E+03 0.  0.
          5    1    3    3  502    0 -0.14956191031E+02 -0.39433411188E+02 -0.58689254882E+02  0.72423754437E+02  0.47000000000E+01 0.  1.
         -5    1    3    3    0  502  0.75095066172E+02  0.19978959007E+02 -0.24691610772E+02  0.81671252035E+02  0.47000000000E+01 0.  1.
        -11    1    1    2    0    0 -0.72650586922E+02  0.46289189642E+02 -0.21253291242E+03  0.22932735494E+03  0.00000000000E+00 0.  1.
         11    1    1    2    0    0  0.12511711780E+02 -0.26834737461E+02 -0.20270086192E+02  0.35882063214E+02  0.00000000000E+00 0. -1.
<mgrwt>
<rscale>  0 0.12894546E+03</rscale>
<asrwt>0</asrwt>
<pdfrwt beam="2">  1        1 0.56576022E-01 0.12958743E+03</pdfrwt>
<pdfrwt beam="1">  1       -1 0.79323509E-02 0.12958743E+03</pdfrwt>
<totfact> 0.56310444E+03</totfact>
</mgrwt>
</event>
<event>
 6    1  0.5400401E-006  0.1863503E+03  0.7546771E-02  0.1192819E+00
          2   -1    0    0  501    0  0.00000000000E+00  0.00000000000E+00  0.26867722148E+03  0.26867722148E+03  0.00000000000E+00 0. -1.
         -2   -1    0    0    0  501 -0.00000000000E+00 -0.00000000000E+00 -0.87328055691E+02  0.87328055691E+02  0.00000000000E+00 0.  1.
          5    1    1    2  502    0  0.73803769707E+02 -0.68470916696E+01 -0.32760145207E+02  0.81173864028E+02  0.47000000000E+01 0. -1.
         -5    1    1    2    0  502 -0.76999181174E+02  0.11881724123E+02  0.78517567141E+02  0.11071200305E+03  0.47000000000E+01 0.  1.
        -11    1    1    2    0    0 -0.43668708274E+02 -0.25095685873E+00  0.80925007042E+02  0.91955836283E+02  0.00000000000E+00 0.  1.
         11    1    1    2    0    0  0.46864119742E+02 -0.47836755944E+01  0.54666736816E+02  0.72163573813E+02  0.00000000000E+00 0. -1.
<mgrwt>
<rscale>  0 0.15640253E+03</rscale>
<asrwt>0</asrwt>
<pdfrwt beam="1">  1        2 0.41334957E-01 0.18635033E+03</pdfrwt>
<pdfrwt beam="2">  1       -2 0.13435086E-01 0.18635033E+03</pdfrwt>
<totfact> 0.49406791E+03</totfact>
</mgrwt>
</event>
<event>
 7    1  0.5400401E-006  0.1250050E+03  0.7546771E-02  0.1259345E+00
          3   -1    0    0  501    0  0.00000000000E+00  0.00000000000E+00  0.22151006694E+03  0.22151006694E+03  0.00000000000E+00 0. -1.
         -3   -1    0    0    0  501 -0.00000000000E+00 -0.00000000000E+00 -0.46143686104E+02  0.46143686104E+02  0.00000000000E+00 0.  1.
         23    2    1    2    0    0 -0.84288132143E+00  0.13213031432E+01  0.10021630484E+03  0.16021718915E+03  0.12499513451E+03 0.  0.
          5    1    3    3  502    0  0.36886914130E+02  0.15295709716E+02  0.11120021549E+03  0.11824627307E+03  0.47000000000E+01 0. -1.
         -5    1    3    3    0  502 -0.37729795451E+02 -0.13974406572E+02 -0.10983910643E+02  0.41970916083E+02  0.47000000000E+01 0. -1.
        -11    1    1    2    0    0  0.15520009995E+02 -0.27836906594E+01  0.87061423264E+02  0.88477743329E+02  0.00000000000E+00 0. -1.
         11    1    1    2    0    0 -0.14677128673E+02  0.14623875161E+01 -0.11911347272E+02  0.18958820564E+02  0.00000000000E+00 0.  1.
<mgrwt>
<rscale>  0 0.11066408E+03</rscale>
<asrwt>0</asrwt>
<pdfrwt beam="1">  1        3 0.34078471E-01 0.12500496E+03</pdfrwt>
<pdfrwt beam="2">  1       -3 0.70990288E-02 0.12500496E+03</pdfrwt>
<totfact> 0.24699456E+03</totfact>
</mgrwt>
</event>
<event>
 7    1  0.5400401E-006  0.1434422E+03  0.7546771E-02  0.1220512E+00
          1   -1    0    0  501    0  0.00000000000E+00  0.00000000000E+00  0.13463860532E+03  0.13463860532E+03  0.00000000000E+00 0. -1.
         -1   -1    0    0    0  501 -0.00000000000E+00 -0.00000000000E+00 -0.12247276789E+03  0.12247276789E+03  0.00000000000E+00 0.  1.
         23    2    1    2    0    0 -0.19736377593E+02  0.67535991778E+02  0.20731805975E+02  0.14493263158E+03  0.12500010053E+03 0.  0.
          5    1    3    3  502    0  0.33593789739E+02  0.47200510578E+02 -0.32628730009E+02  0.66656994605E+02  0.47000000000E+01 0. -1.
         -5    1    3    3    0  502 -0.53330167331E+02  0.20335481200E+02  0.53360535984E+02  0.78275636975E+02  0.47000000000E+01 0. -1.
        -11    1    1    2    0    0  0.26239817051E+02  0.37654404187E+00 -0.30762825467E+02  0.40435395571E+02  0.00000000000E+00 0.  1.
         11    1    1    2    0    0 -0.65034394578E+01 -0.67912535819E+02  0.22196856931E+02  0.71743346060E+02  0.00000000000E+00 0. -1.
<mgrwt>
<rscale>  0 0.13479316E+03</rscale>
<asrwt>0</asrwt>
<pdfrwt beam="1">  1        1 0.20713632E-01 0.14344218E+03</pdfrwt>
<pdfrwt beam="2">  1       -1 0.18841964E-01 0.14344218E+03</pdfrwt>
<totfact> 0.51939552E+03</totfact>
</mgrwt>
</event>
<event>
 7    1  0.5400401E-006  0.1516510E+03  0.7546771E-02  0.1207620E+00
          1   -1    0    0  501    0  0.00000000000E+00  0.00000000000E+00  0.15516567220E+03  0.15516567220E+03  0.00000000000E+00 0. -1.
         -1   -1    0    0    0  501 -0.00000000000E+00 -0.00000000000E+00 -0.12395908095E+03  0.12395908095E+03  0.00000000000E+00 0.  1.
         23    2    1    2    0    0  0.21059800283E+02  0.83241329446E+02  0.36611802792E+01  0.15169518396E+03  0.12500156191E+03 0.  0.
          5    1    3    3  502    0  0.50052565013E+02  0.10235448801E+03  0.14646874024E+02  0.11497095893E+03  0.47000000000E+01 0.  1.
         -5    1    3    3    0  502 -0.28992764729E+02 -0.19113158561E+02 -0.10985693744E+02  0.36724225028E+02  0.47000000000E+01 0.  1.
        -11    1    1    2    0    0  0.20575171417E+02 -0.16971444150E+01  0.29313887761E+02  0.35854176795E+02  0.00000000000E+00 0. -1.
         11    1    1    2    0    0 -0.41634971700E+02 -0.81544185031E+02 -0.17684767955E+01  0.91575392388E+02  0.00000000000E+00 0.  1.
<mgrwt>
<rscale>  0 0.14432904E+03</rscale>
<asrwt>0</asrwt>
<pdfrwt beam="1">  1        1 0.23871642E-01 0.15165100E+03</pdfrwt>
<pdfrwt beam="2">  1       -1 0.19070628E-01 0.15165100E+03</pdfrwt>
<totfact> 0.42706721E+03</totfact>
</mgrwt>
</event>
<event>
 7    1  0.5400401E-006  0.1565314E+03  0.7546771E-02  0.1200604E+00
         -1   -1    0    0    0  501 -0.00000000000E+00  0.00000000000E+00  0.48513645001E+02  0.48513645001E+02  0.00000000000E+00 0.  1.
          1   -1    0    0  501    0  0.00000000000E+00 -0.00000000000E+00 -0.43734721862E+03  0.43734721862E+03  0.00000000000E+00 0. -1.
         23    2    1    2    0    0  0.54690918766E+02 -0.76723924207E+02 -0.17525039736E+03  0.23497823812E+03  0.12499765387E+03 0.  0.
          5    1    3    3  502    0 -0.36977517404E+02 -0.46003990374E+02 -0.76021730015E+02  0.96359210033E+02  0.47000000000E+01 0.  1.
         -5    1    3    3    0  502  0.91668436170E+02 -0.30719933834E+02 -0.99228667344E+02  0.13861902809E+03  0.47000000000E+01 0.  1.
        -11    1    1    2    0    0  0.10102473668E+02 -0.32301208191E+01  0.30598500567E+01  0.11038855787E+02  0.00000000000E+00 0.  1.
         11    1    1    2    0    0 -0.64793392434E+02  0.79954045027E+02 -0.21664302631E+03  0.23984376971E+03  0.00000000000E+00 0. -1.
<mgrwt>
<rscale>  0 0.14989359E+03</rscale>
<asrwt>0</asrwt>
<pdfrwt beam="2">  1        1 0.67284190E-01 0.15653137E+03</pdfrwt>
<pdfrwt beam="1">  1       -1 0.74636374E-02 0.15653137E+03</pdfrwt>
<totfact> 0.50101278E+03</totfact>
</mgrwt>
</event>
<event>
 7    1  0.5400401E-006  0.1266108E+03  0.7546771E-02  0.1248140E+00
          2   -1    0    0  501    0  0.00000000000E+00  0.00000000000E+00  0.46537725776E+03  0.46537725776E+03  0.00000000000E+00 0. -1.
         -2   -1    0    0    0  501 -0.00000000000E+00 -0.00000000000E+00 -0.26072685996E+02  0.26072685996E+02  0.00000000000E+00 0.  1.
         23    2    1    2    0    0  0.19439826148E+02  0.52455995463E+01  0.22645852078E+03  0.25944892786E+03  0.12499944550E+03 0.  0.
          5    1    3    3  502    0 -0.15238777648E+01 -0.38043812693E+02  0.12875016046E+02  0.40466157784E+02  0.47000000000E+01 0.  1.
         -5    1    3    3    0  502  0.20963703913E+02  0.43289412239E+02  0.21358350474E+03  0.21898277007E+03  0.47000000000E+01 0.  1.
        -11    1    1    2    0    0  0.33376150802E+02 -0.14270270310E+02  0.61053647889E+02  0.71029261418E+02  0.00000000000E+00 0.  1.
         11    1    1    2    0    0 -0.52815976950E+02  0.90246707634E+01  0.15179240309E+03  0.16097175448E+03  0.00000000000E+00 0. -1.
<mgrwt>
<rscale>  0 0.11699424E+03</rscale>
<asrwt>0</asrwt>
<pdfrwt beam="1">  1        2 0.71596495E-01 0.12661076E+03</pdfrwt>
<pdfrwt beam="2">  1       -2 0.40111828E-02 0.12661076E+03</pdfrwt>
<totfact> 0.17298301E+04</totfact>
</mgrwt>
</event>
<event>
 7    1  0.5400401E-006  0.1326886E+03  0.7546771E-02  0.1238485E+00
          1   -1    0    0  501    0  0.00000000000E+00  0.00000000000E+00  0.44216800470E+02  0.44216800470E+02  0.00000000000E+00 0. -1.
         -1   -1    0    0    0  501 -0.00000000000E+00 -0.00000000000E+00 -0.33783674915E+03  0.33783674915E+03  0.00000000000E+00 0.  1.
         23    2    1    2    0    0  0.37630263343E+02 -0.23748153438E+02 -0.23040885376E+03  0.26588435926E+03  0.12500496429E+03 0.  0.
          5    1    3    3  502    0  0.33753659234E+02  0.30084333298E+02 -0.21912027555E+02  0.50463883850E+02  0.47000000000E+01 0. -1.
         -5    1    3    3    0  502  0.38766041088E+01 -0.53832486736E+02 -0.20849682620E+03  0.21542047541E+03  0.47000000000E+01 0. -1.
        -11    1    1    2    0    0  0.26658894681E+02 -0.29068421786E+01 -0.25535606542E+02  0.37029901411E+02  0.00000000000E+00 0. -1.
         11    1    1    2    0    0 -0.64289158024E+02  0.26654995616E+02 -0.37675488376E+02  0.79139288947E+02  0.00000000000E+00 0.  1.
<mgrwt>
<rscale>  0 0.12283962E+03</rscale>
<asrwt>0</asrwt>
<pdfrwt beam="1">  1        1 0.68025848E-02 0.13268855E+03</pdfrwt>
<pdfrwt beam="2">  1       -1 0.51974883E-01 0.13268855E+03</pdfrwt>
<totfact> 0.39736075E+03</totfact>
</mgrwt>
</event>
<event>
 7    1  0.5400401E-006  0.1413768E+03  0.7546771E-02  0.1239811E+00
         -3   -1    0    0    0  501 -0.00000000000E+00  0.00000000000E+00  0.40426182984E+02  0.40426182984E+02  0.00000000000E+00 0.  1.
          3   -1    0    0  501    0  0.00000000000E+00 -0.00000000000E+00 -0.34768486779E+03  0.34768486779E+03  0.00000000000E+00 0. -1.
         23    2    1    2    0    0 -0.48047494242E+02 -0.45314847276E+02 -0.12127810874E+03  0.18626800992E+03  0.12500157909E+03 0.  0.
          5    1    3    3  502    0 -0.13316349838E+02 -0.83181827385E+02 -0.49341778388E+02  0.97740690987E+02  0.47000000000E+01 0.  1.
         -5    1    3    3    0  502 -0.34731144404E+02  0.37866980110E+02 -0.71936330348E+02  0.88527318937E+02  0.47000000000E+01 0.  1.
        -11    1    1    2    0    0  0.42276191905E+02  0.17377595745E+02 -0.80486107499E+02  0.92559552377E+02  0.00000000000E+00 0.  1.
         11    1    1    2    0    0  0.57713023368E+01  0.27937251531E+02 -0.10549446858E+03  0.10928348848E+03  0.00000000000E+00 0. -1.
<mgrwt>
<rscale>  0 0.12201386E+03</rscale>
<asrwt>0</asrwt>
<pdfrwt beam="2">  1        3 0.53489980E-01 0.14137677E+03</pdfrwt>
<pdfrwt beam="1">  1       -3 0.62194127E-02 0.14137677E+03</pdfrwt>
<totfact> 0.12981584E+03</totfact>
</mgrwt>
</event>
<event>
 7    1  0.5400401E-006  0.1253531E+03  0.7546771E-02  0.1250012E+00
         -1   -1    0    0    0  501 -0.00000000000E+00  0.00000000000E+00  0.40305502890E+02  0.40305502890E+02  0.00000000000E+00 0.  1.
          1   -1    0    0  501    0  0.00000000000E+00 -0.00000000000E+00 -0.30343253336E+03  0.30343253336E+03  0.00000000000E+00 0. -1.
         23    2    1    2    0    0 -0.91773586112E+01 -0.96334445737E+00 -0.11827385617E+03  0.17234295800E+03  0.12501295204E+03 0.  0.
          5    1    3    3  502    0 -0.38427275482E+02  0.43201832850E+02 -0.21399297386E+02  0.61831009948E+02  0.47000000000E+01 0. -1.
         -5    1    3    3    0  502  0.29249916871E+02 -0.44165177307E+02 -0.96874558782E+02  0.11051194805E+03  0.47000000000E+01 0. -1.
        -11    1    1    2    0    0  0.13175110171E+01  0.45821931626E+02 -0.66527934486E+02  0.80792025102E+02  0.00000000000E+00 0. -1.
         11    1    1    2    0    0  0.78598475941E+01 -0.44858587168E+02 -0.78325239818E+02  0.90603053146E+02  0.00000000000E+00 0.  1.
<mgrwt>
<rscale>  0 0.11590342E+03</rscale>
<asrwt>0</asrwt>
<pdfrwt beam="2">  1        1 0.46681927E-01 0.12535306E+03</pdfrwt>
<pdfrwt beam="1">  1       -1 0.62008468E-02 0.12535306E+03</pdfrwt>
<totfact> 0.10312143E+04</totfact>
</mgrwt>
</event>
<event>
 7    1  0.5400401E-006  0.1407034E+03  0.7546771E-02  0.1223959E+00
          2   -1    0    0  501    0  0.00000000000E+00  0.00000000000E+00  0.20206190409E+02  0.20206190409E+02  0.00000000000E+00 0.  1.
         -2   -1    0    0    0  501 -0.00000000000E+00 -0.00000000000E+00 -0.77953345608E+03  0.77953345608E+03  0.00000000000E+00 0. -1.
         23    2    1    2    0    0  0.53667577696E+02 -0.35934861168E+02 -0.41858490286E+03  0.44160022715E+03  0.12500366624E+03 0.  0.
          5    1    3    3  502    0 -0.24624553062E+02 -0.50731348287E+02 -0.22921805954E+03  0.23609965508E+03  0.47000000000E+01 0. -1.
         -5    1    3    3    0  502  0.78292130759E+02  0.14796487119E+02 -0.18936684333E+03  0.20550057207E+03  0.47000000000E+01 0. -1.
        -11    1    1    2    0    0  0.15127768211E+02  0.37671634625E+02 -0.10561705983E+03  0.11315018672E+03  0.00000000000E+00 0.  1.
         11    1    1    2    0    0 -0.68795345908E+02 -0.17367734568E+01 -0.23512530298E+03  0.24498923263E+03  0.00000000000E+00 0. -1.
<mgrwt>
<rscale>  0 0.13238486E+03</rscale>
<asrwt>0</asrwt>
<pdfrwt beam="1">  1        2 0.31086459E-02 0.14070337E+03</pdfrwt>
<pdfrwt beam="2">  1       -2 0.11992818E+00 0.14070337E+03</pdfrwt>
<totfact> 0.15997654E+03</totfact>
</mgrwt>
</event>
<event>
 7    1  0.5400401E-006  0.1583141E+03  0.7546771E-02  0.1198864E+00
          4   -1    0    0  501    0  0.00000000000E+00  0.00000000000E+00  0.16554111846E+03  0.16554111846E+03  0.00000000000E+00 0. -1.
         -4   -1    0    0    0  501 -0.00000000000E+00 -0.00000000000E+00 -0.13306632314E+03  0.13306632314E+03  0.00000000000E+00 0.  1.
         23    2    1    2    0    0 -0.59027258298E+02  0.77208280616E+02 -0.13067957411E+02  0.15885257320E+03  0.12497212762E+03 0.  0.
          5    1    3    3  502    0 -0.32858958054E+00 -0.17111996444E+02 -0.40592615608E+02  0.44303259872E+02  0.47000000000E+01 0. -1.
         -5    1    3    3    0  502 -0.58698668718E+02  0.94320277060E+02  0.27524658197E+02  0.11454931332E+03  0.47000000000E+01 0. -1.
        -11    1    1    2    0    0 -0.11132055771E+02 -0.50594764497E+02  0.38185879560E+02  0.64357705506E+02  0.00000000000E+00 0.  1.
         11    1    1    2    0    0  0.70159314069E+02 -0.26613516119E+02  0.73568731651E+01  0.75397162902E+02  0.00000000000E+00 0. -1.
<mgrwt>
<rscale>  0 0.15131670E+03</rscale>
<asrwt>0</asrwt>
<pdfrwt beam="1">  1        4 0.25467864E-01 0.15831414E+03</pdfrwt>
<pdfrwt beam="2">  1       -4 0.20471742E-01 0.15831414E+03</pdfrwt>
<totfact> 0.53453249E+02</totfact>
</mgrwt>
</event>
<event>
 7    1  0.5400401E-006  0.1438346E+03  0.7546771E-02  0.1217405E+00
         -1   -1    0    0    0  501 -0.00000000000E+00  0.00000000000E+00  0.76097972965E+02  0.76097972965E+02  0.00000000000E+00 0.  1.
          1   -1    0    0  501    0  0.00000000000E+00 -0.00000000000E+00 -0.23475401444E+03  0.23475401444E+03  0.00000000000E+00 0. -1.
         23    2    1    2    0    0  0.70172814049E+02 -0.11778966193E+02 -0.56793362425E+02  0.15464110194E+03  0.12500166606E+03 0.  0.
          5    1    3    3  502    0 -0.24596171480E+02  0.20292095477E+01 -0.53032559560E+02  0.58682465152E+02  0.47000000000E+01 0.  1.
         -5    1    3    3    0  502  0.94768985529E+02 -0.13808175741E+02 -0.37608028650E+01  0.95958636785E+02  0.47000000000E+01 0.  1.
        -11    1    1    2    0    0 -0.51558623356E+02 -0.60132660759E+01 -0.79463060933E+00  0.51914183506E+02  0.00000000000E+00 0.  1.
         11    1    1    2    0    0 -0.18614190693E+02  0.17792232269E+02 -0.10106804844E+03  0.10429670196E+03  0.00000000000E+00 0. -1.
<mgrwt>
<rscale>  0 0.13701356E+03</rscale>
<asrwt>0</asrwt>
<pdfrwt beam="2">  1        1 0.36116002E-01 0.14383457E+03</pdfrwt>
<pdfrwt beam="1">  1       -1 0.11707381E-01 0.14383457E+03</pdfrwt>
<totfact> 0.54627961E+03</totfact>
</mgrwt>
</event>
<event>
 7    1  0.5400401E-006  0.1317195E+03  0.7546771E-02  0.1238396E+00
          2   -1    0    0  501    0  0.00000000000E+00  0.00000000000E+00  0.22985325412E+03  0.22985325412E+03  0.00000000000E+00 0. -1.
         -2   -1    0    0    0  501 -0.00000000000E+00 -0.00000000000E+00 -0.67371036130E+02  0.67371036130E+02  0.00000000000E+00 0.  1.
         23    2    1    2    0    0 -0.36080009449E+02  0.20568313493E+02  0.36867514453E+02  0.13678176969E+03  0.12500086518E+03 0.  0.
          5    1    3    3  502    0 -0.80194186629E+02  0.27357068351E+02  0.35192913725E+02  0.91870277752E+02  0.47000000000E+01 0. -1.
         -5    1    3    3    0  502  0.44114177179E+02 -0.67887548577E+01  0.16746007276E+01  0.44911491941E+02  0.47000000000E+01 0. -1.
        -11    1    1    2    0    0 -0.89847639528E+01 -0.19989963205E+02 -0.48209199092E+01  0.22440273639E+02  0.00000000000E+00 0.  1.
         11    1    1    2    0    0  0.45064773402E+02 -0.57835028827E+00  0.13043562345E+03  0.13800224692E+03  0.00000000000E+00 0. -1.
<mgrwt>
<rscale>  0 0.12289524E+03</rscale>
<asrwt>0</asrwt>
<pdfrwt beam="1">  1        2 0.35362039E-01 0.13171955E+03</pdfrwt>
<pdfrwt beam="2">  1       -2 0.10364775E-01 0.13171955E+03</pdfrwt>
<totfact> 0.86545613E+03</totfact>
</mgrwt>
</event>
<event>
 7    1  0.5400401E-006  0.1308658E+03  0.7546771E-02  0.1239418E+00
          1   -1    0    0  501    0  0.00000000000E+00  0.00000000000E+00  0.25128122733E+03  0.25128122733E+03  0.00000000000E+00 0. -1.
         -1   -1    0    0    0  501 -0.00000000000E+00 -0.00000000000E+00 -0.53786795931E+02  0.53786795931E+02  0.00000000000E+00 0.  1.
         23    2    1    2    0    0  0.10109934216E+02  0.42694332700E+02  0.92283717761E+02  0.16013164461E+03  0.12329169570E+03 0.  0.
          5    1    3    3  502    0  0.33105399404E+02 -0.21399861525E+02  0.82000565275E+02  0.91104907927E+02  0.47000000000E+01 0. -1.
         -5    1    3    3    0  502 -0.22995465189E+02  0.64094194225E+02  0.10283152486E+02  0.69026736687E+02  0.47000000000E+01 0.  1.
        -11    1    1    2    0    0  0.35351944050E+02 -0.21299466118E+01  0.57579637410E+02  0.67599639533E+02  0.00000000000E+00 0. -1.
         11    1    1    2    0    0 -0.45461878266E+02 -0.40564386088E+02  0.47631076226E+02  0.77336739113E+02  0.00000000000E+00 0.  1.
<mgrwt>
<rscale>  0 0.12225819E+03</rscale>
<asrwt>0</asrwt>
<pdfrwt beam="1">  1        1 0.38658650E-01 0.13086581E+03</pdfrwt>
<pdfrwt beam="2">  1       -1 0.82748918E-02 0.13086581E+03</pdfrwt>
<totfact> 0.84729382E+03</totfact>
</mgrwt>
</event>
<event>
 7    1  0.5400401E-006  0.1296548E+03  0.7546771E-02  0.1248860E+00
         -1   -1    0    0    0  501 -0.00000000000E+00  0.00000000000E+00  0.23438436184E+03  0.23438436184E+03  0.00000000000E+00 0.  1.
          1   -1    0    0  501    0  0.00000000000E+00 -0.00000000000E+00 -0.54727899687E+02  0.54727899687E+02  0.00000000000E+00 0. -1.
         23    2    1    2    0    0  0.33806600260E+02  0.64956497070E+01  0.15243854774E+03  0.20011964741E+03  0.12500113102E+03 0.  0.
          5    1    3    3  502    0  0.80995330458E+02 -0.31324219053E+01  0.98740172687E+02  0.12783492217E+03  0.47000000000E+01 0. -1.
         -5    1    3    3    0  502 -0.47188730198E+02  0.96280716123E+01  0.53698375056E+02  0.72284725249E+02  0.47000000000E+01 0. -1.
        -11    1    1    2    0    0 -0.50678372581E+02 -0.63118520176E+01  0.42337219159E+02  0.66336845339E+02  0.00000000000E+00 0.  1.
         11    1    1    2    0    0  0.16871772321E+02 -0.18379768937E+00 -0.15119304746E+02  0.22655768776E+02  0.00000000000E+00 0. -1.
<mgrwt>
<rscale>  0 0.11657312E+03</rscale>
<asrwt>0</asrwt>
<pdfrwt beam="2">  1        1 0.84196770E-02 0.12965478E+03</pdfrwt>
<pdfrwt beam="1">  1       -1 0.36059132E-01 0.12965478E+03</pdfrwt>
<totfact> 0.57046280E+03</totfact>
</mgrwt>
</event>
<event>
 7    1  0.5400401E-006  0.1712311E+03  0.7546771E-02  0.1182825E+00
         -1   -1    0    0    0  501 -0.00000000000E+00  0.00000000000E+00  0.60329970641E+03  0.60329970641E+03  0.00000000000E+00 0.  1.
          1   -1    0    0  501    0  0.00000000000E+00 -0.00000000000E+00 -0.43017055010E+02  0.43017055010E+02  0.00000000000E+00 0. -1.
         23    2    1    2    0    0  0.50707493833E+02  0.10548057584E+03  0.33717839907E+03  0.37816579977E+03  0.12499078966E+03 0.  0.
          5    1    3    3  502    0  0.40592446702E+02  0.41001428699E+02  0.32188097734E+02  0.66234639883E+02  0.47000000000E+01 0.  1.
         -5    1    3    3    0  502  0.10115047131E+02  0.64479147139E+02  0.30499030134E+03  0.31193115988E+03  0.47000000000E+01 0.  1.
        -11    1    1    2    0    0  0.38341503599E+01 -0.65774021665E+02  0.16991326728E+03  0.18224006429E+03  0.00000000000E+00 0.  1.
         11    1    1    2    0    0 -0.54541644193E+02 -0.39706554173E+02  0.53190985043E+02  0.85910897361E+02  0.00000000000E+00 0. -1.
<mgrwt>
<rscale>  0 0.16531350E+03</rscale>
<asrwt>0</asrwt>
<pdfrwt beam="2">  1        1 0.66180089E-02 0.17123113E+03</pdfrwt>
<pdfrwt beam="1">  1       -1 0.92815333E-01 0.17123113E+03</pdfrwt>
<totfact> 0.13229112E+03</totfact>
</mgrwt>
</event>
<event>
 7    1  0.5400401E-006  0.2164421E+03  0.7546771E-02  0.1140303E+00
          2   -1    0    0  501    0  0.00000000000E+00  0.00000000000E+00  0.10208648489E+04  0.10208648489E+04  0.00000000000E+00 0. -1.
         -2   -1    0    0    0  501 -0.00000000000E+00 -0.00000000000E+00 -0.43191329889E+02  0.43191329889E+02  0.00000000000E+00 0.  1.
         23    2    1    2    0    0 -0.72635210022E+02  0.16108177371E+03  0.42230197554E+03  0.47453780487E+03  0.12499583253E+03 0.  0.
          5    1    3    3  502    0 -0.45382784353E+02  0.12508303562E+03  0.40437618250E+03  0.42573178163E+03  0.47000000000E+01 0.  1.
         -5    1    3    3    0  502 -0.27252425669E+02  0.35998738086E+02  0.17925793044E+02  0.48806023244E+02  0.47000000000E+01 0.  1.
        -11    1    1    2    0    0  0.43425065893E+02 -0.29742077118E+02  0.82353684133E+02  0.97736670648E+02  0.00000000000E+00 0.  1.
         11    1    1    2    0    0  0.29210144129E+02 -0.13133969659E+03  0.47301785937E+03  0.49178170331E+03  0.00000000000E+00 0. -1.
<mgrwt>
<rscale>  0 0.21160237E+03</rscale>
<asrwt>0</asrwt>
<pdfrwt beam="1">  1        2 0.15705611E+00 0.21644207E+03</pdfrwt>
<pdfrwt beam="2">  1       -2 0.66448208E-02 0.21644207E+03</pdfrwt>
<totfact> 0.32038632E+03</totfact>
</mgrwt>
</event>
<event>
 7    1  0.5400401E-006  0.1372725E+03  0.7546771E-02  0.1228177E+00
          1   -1    0    0  501    0  0.00000000000E+00  0.00000000000E+00  0.31560758989E+03  0.31560758989E+03  0.00000000000E+00 0. -1.
         -1   -1    0    0    0  501 -0.00000000000E+00 -0.00000000000E+00 -0.75263356586E+02  0.75263356586E+02  0.00000000000E+00 0.  1.
         23    2    1    2    0    0 -0.49896961304E+02  0.27014951564E+02  0.11822080731E+02  0.13778057979E+03  0.12499684884E+03 0.  0.
          5    1    3    3  502    0 -0.63919219098E+02  0.46729979007E+02 -0.33569512223E+02  0.86129899913E+02  0.47000000000E+01 0. -1.
         -5    1    3    3    0  502  0.14022257794E+02 -0.19715027443E+02  0.45391592954E+02  0.51650679876E+02  0.47000000000E+01 0. -1.
        -11    1    1    2    0    0  0.53005693699E+02  0.12246530322E+02  0.19135353686E+03  0.19893656561E+03  0.00000000000E+00 0. -1.
         11    1    1    2    0    0 -0.31087323948E+01 -0.39261481886E+02  0.37168615721E+02  0.54153801082E+02  0.00000000000E+00 0.  1.
<mgrwt>
<rscale>  0 0.12951542E+03</rscale>
<asrwt>0</asrwt>
<pdfrwt beam="1">  1        1 0.48555013E-01 0.13727245E+03</pdfrwt>
<pdfrwt beam="2">  1       -1 0.11578978E-01 0.13727245E+03</pdfrwt>
<totfact> 0.38419241E+03</totfact>
</mgrwt>
</event>
<event>
 7    1  0.5400401E-006  0.1277888E+03  0.7546771E-02  0.1245817E+00
         -3   -1    0    0    0  501 -0.00000000000E+00  0.00000000000E+00  0.11143582603E+04  0.11143582603E+04  0.00000000000E+00 0.  1.
          3   -1    0    0  501    0  0.00000000000E+00 -0.00000000000E+00 -0.17707193338E+02  0.17707193338E+02  0.00000000000E+00 0. -1.
         23    2    1    2    0    0  0.73914625891E+00 -0.26544049158E+02  0.94505960052E+03  0.95366011752E+03  0.12499935335E+03 0.  0.
          5    1    3    3  502    0 -0.44978952688E+02 -0.54864273907E+02  0.43778518450E+03  0.44352131009E+03  0.47000000000E+01 0. -1.
         -5    1    3    3    0  502  0.45718098947E+02  0.28320224749E+02  0.50727441602E+03  0.51013880743E+03  0.47000000000E+01 0. -1.
        -11    1    1    2    0    0 -0.21291578373E+02 -0.53325324098E+00 -0.17226028955E+01  0.21367803569E+02  0.00000000000E+00 0. -1.
         11    1    1    2    0    0  0.20552432114E+02  0.27077302399E+02  0.15331406929E+03  0.15703753250E+03  0.00000000000E+00 0.  1.
<mgrwt>
<rscale>  0 0.11836633E+03</rscale>
<asrwt>0</asrwt>
<pdfrwt beam="2">  1        3 0.27241845E-02 0.12778878E+03</pdfrwt>
<pdfrwt beam="1">  1       -3 0.17143968E+00 0.12778878E+03</pdfrwt>
<totfact> 0.33325229E+02</totfact>
</mgrwt>
</event>
<event>
 7    1  0.5400401E-006  0.1325592E+03  0.7546771E-02  0.1237248E+00
         -1   -1    0    0    0  501 -0.00000000000E+00  0.00000000000E+00  0.19420165335E+02  0.19420165335E+02  0.00000000000E+00 0.  1.
          1   -1    0    0  501    0  0.00000000000E+00 -0.00000000000E+00 -0.70533661680E+03  0.70533661680E+03  0.00000000000E+00 0. -1.
         23    2    1    2    0    0  0.40861132256E+02 -0.16681341752E+02 -0.35272834340E+03  0.37681456902E+03  0.12499614353E+03 0.  0.
          5    1    3    3  502    0  0.11874072171E+02  0.53339378305E+02 -0.17909953862E+03  0.18730941675E+03  0.47000000000E+01 0.  1.
         -5    1    3    3    0  502  0.28987060085E+02 -0.70020720057E+02 -0.17362880478E+03  0.18950515228E+03  0.47000000000E+01 0.  1.
        -11    1    1    2    0    0 -0.20013496479E+02 -0.35513878878E+02 -0.18536932531E+03  0.18979874183E+03  0.00000000000E+00 0. -1.
         11    1    1    2    0    0 -0.20847635777E+02  0.52195220630E+02 -0.14781878276E+03  0.15814347128E+03  0.00000000000E+00 0.  1.
<mgrwt>
<rscale>  0 0.12361616E+03</rscale>
<asrwt>0</asrwt>
<pdfrwt beam="2">  1        1 0.10851331E+00 0.13255918E+03</pdfrwt>
<pdfrwt beam="1">  1       -1 0.29877181E-02 0.13255918E+03</pdfrwt>
<totfact> 0.10118125E+04</totfact>
</mgrwt>
</event>
<event>
 7    1  0.5400401E-006  0.1344029E+03  0.7546771E-02  0.1227620E+00
         -1   -1    0    0    0  501 -0.00000000000E+00  0.00000000000E+00  0.42185643213E+03  0.42185643213E+03  0.00000000000E+00 0.  1.
          1   -1    0    0  501    0  0.00000000000E+00 -0.00000000000E+00 -0.40801849684E+02  0.40801849684E+02  0.00000000000E+00 0. -1.
         23    2    1    2    0    0  0.40320672742E+02  0.28502739351E+02  0.26787777471E+03  0.29970423716E+03  0.12500385908E+03 0.  0.
          5    1    3    3  502    0  0.17969063604E+02  0.14581887578E+02  0.27166478137E+03  0.27268913093E+03  0.47000000000E+01 0.  1.
         -5    1    3    3    0  502  0.22351609138E+02  0.13920851774E+02 -0.37870066555E+01  0.27015106229E+02  0.47000000000E+01 0.  1.
        -11    1    1    2    0    0  0.20775518614E+02 -0.11261119459E+02  0.93577158549E+02  0.96514867183E+02  0.00000000000E+00 0.  1.
         11    1    1    2    0    0 -0.61096191356E+02 -0.17241619892E+02  0.19599649182E+02  0.66439177469E+02  0.00000000000E+00 0. -1.
<mgrwt>
<rscale>  0 0.12988966E+03</rscale>
<asrwt>0</asrwt>
<pdfrwt beam="2">  1        1 0.62772080E-02 0.13440286E+03</pdfrwt>
<pdfrwt beam="1">  1       -1 0.64900986E-01 0.13440286E+03</pdfrwt>
<totfact> 0.29166535E+03</totfact>
</mgrwt>
</event>
<event>
 7    1  0.5400401E-006  0.1599468E+03  0.7546771E-02  0.1196615E+00
         -2   -1    0    0    0  501 -0.00000000000E+00  0.00000000000E+00  0.47392747114E+02  0.47392747114E+02  0.00000000000E+00 0.  1.
          2   -1    0    0  501    0  0.00000000000E+00 -0.00000000000E+00 -0.46932492158E+03  0.46932492158E+03  0.00000000000E+00 0. -1.
         23    2    1    2    0    0  0.94858904370E+02  0.30942222143E+02 -0.18789487977E+03  0.24675384967E+03  0.12500937417E+03 0.  0.
          5    1    3    3  502    0 -0.26555669138E+02  0.48982027652E+01 -0.71165714111E+02  0.76261686440E+02  0.47000000000E+01 0.  1.
         -5    1    3    3    0  502  0.12141457351E+03  0.26044019378E+02 -0.11672916566E+03  0.17049216323E+03  0.47000000000E+01 0.  1.
        -11    1    1    2    0    0 -0.58607300830E+02  0.22516940534E+02 -0.72011614731E+02  0.95537955692E+02  0.00000000000E+00 0. -1.
         11    1    1    2    0    0 -0.36251603540E+02 -0.53459162677E+02 -0.16202567996E+03  0.17442586334E+03  0.00000000000E+00 0.  1.
<mgrwt>
<rscale>  0 0.15318368E+03</rscale>
<asrwt>0</asrwt>
<pdfrwt beam="2">  1        2 0.72203831E-01 0.15994679E+03</pdfrwt>
<pdfrwt beam="1">  1       -2 0.72911921E-02 0.15994679E+03</pdfrwt>
<totfact> 0.70681136E+03</totfact>
</mgrwt>
</event>
<event>
 7    1  0.5400401E-006  0.1829668E+03  0.7546771E-02  0.1170049E+00
         -3   -1    0    0    0  501 -0.00000000000E+00  0.00000000000E+00  0.67806043796E+02  0.67806043796E+02  0.00000000000E+00 0.  1.
          3   -1    0    0  501    0  0.00000000000E+00 -0.00000000000E+00 -0.44598903551E+03  0.44598903551E+03  0.00000000000E+00 0. -1.
         23    2    1    2    0    0  0.11881885816E+03 -0.61136022031E+02 -0.17222827655E+03  0.25127561942E+03  0.12498529284E+03 0.  0.
          5    1    3    3  502    0  0.24734262542E+02  0.88395081697E+01  0.14776070258E+02  0.30501522920E+02  0.47000000000E+01 0. -1.
         -5    1    3    3    0  502  0.94084595614E+02 -0.69975530201E+02 -0.18700434681E+03  0.22077409650E+03  0.47000000000E+01 0. -1.
        -11    1    1    2    0    0 -0.26809139366E+01 -0.19367557361E+02 -0.13514151087E+02  0.23768084846E+02  0.00000000000E+00 0.  1.
         11    1    1    2    0    0 -0.11613794422E+03  0.80503579392E+02 -0.19244056408E+03  0.23875137504E+03  0.00000000000E+00 0. -1.
<mgrwt>
<rscale>  0 0.17769827E+03</rscale>
<asrwt>0</asrwt>
<pdfrwt beam="2">  1        3 0.68613696E-01 0.18296682E+03</pdfrwt>
<pdfrwt beam="1">  1       -3 0.10431699E-01 0.18296682E+03</pdfrwt>
<totfact> 0.34536674E+02</totfact>
</mgrwt>
</event>
<event>
 7    1  0.5400401E-006  0.1285742E+03  0.7546771E-02  0.1243696E+00
          1   -1    0    0  501    0  0.00000000000E+00  0.00000000000E+00  0.20476155424E+02  0.20476155424E+02  0.00000000000E+00 0. -1.
         -1   -1    0    0    0  501 -0.00000000000E+00 -0.00000000000E+00 -0.10345732138E+04  0.10345732138E+04  0.00000000000E+00 0.  1.
         23    2    1    2    0    0 -0.14951434188E+02  0.26120283601E+02 -0.88311571236E+03  0.89242628581E+03  0.12500199834E+03 0.  0.
          5    1    3    3  502    0 -0.24182798453E+01 -0.27636834677E+02 -0.71222147344E+03  0.71277707591E+03  0.47000000000E+01 0.  1.
         -5    1    3    3    0  502 -0.12533154343E+02  0.53757118278E+02 -0.17089423892E+03  0.17964920991E+03  0.47000000000E+01 0.  1.
        -11    1    1    2    0    0 -0.31521480066E+02 -0.36885383708E+02 -0.61323801190E+02  0.78196827488E+02  0.00000000000E+00 0. -1.
         11    1    1    2    0    0  0.46472914254E+02  0.10765100107E+02 -0.69657544871E+02  0.84426255970E+02  0.00000000000E+00 0.  1.
<mgrwt>
<rscale>  0 0.11963772E+03</rscale>
<asrwt>0</asrwt>
<pdfrwt beam="1">  1        1 0.31501778E-02 0.12857416E+03</pdfrwt>
<pdfrwt beam="2">  1       -1 0.15916511E+00 0.12857416E+03</pdfrwt>
<totfact> 0.10058422E+03</totfact>
</mgrwt>
</event>
<event>
 7    1  0.5400401E-006  0.2418527E+03  0.7546771E-02  0.1120995E+00
         -1   -1    0    0    0  501 -0.00000000000E+00  0.00000000000E+00  0.37594487920E+02  0.37594487920E+02  0.00000000000E+00 0.  1.
          1   -1    0    0  501    0  0.00000000000E+00 -0.00000000000E+00 -0.14655153471E+04  0.14655153471E+04  0.00000000000E+00 0. -1.
         23    2    1    2    0    0  0.11169392762E+02 -0.20673773700E+03 -0.73993082622E+03  0.77845381742E+03  0.12500988375E+03 0.  0.
          5    1    3    3  502    0  0.58083021872E+02 -0.13705983635E+03 -0.56566373248E+03  0.58494152222E+03  0.47000000000E+01 0. -1.
         -5    1    3    3    0  502 -0.46913629110E+02 -0.69677900647E+02 -0.17426709374E+03  0.19351229520E+03  0.47000000000E+01 0. -1.
        -11    1    1    2    0    0  0.69787594899E+01  0.10239549794E+03 -0.19437581101E+03  0.21980786380E+03  0.00000000000E+00 0.  1.
         11    1    1    2    0    0 -0.18148152251E+02  0.10434223905E+03 -0.49361422193E+03  0.50484815378E+03  0.00000000000E+00 0. -1.
<mgrwt>
<rscale>  0 0.23820467E+03</rscale>
<asrwt>0</asrwt>
<pdfrwt beam="2">  1        1 0.22546390E+00 0.24185268E+03</pdfrwt>
<pdfrwt beam="1">  1       -1 0.57837674E-02 0.24185268E+03</pdfrwt>
<totfact> 0.10680638E+03</totfact>
</mgrwt>
</event>
<event>
 7    1  0.5400401E-006  0.1391163E+03  0.7546771E-02  0.1225476E+00
          1   -1    0    0  501    0  0.00000000000E+00  0.00000000000E+00  0.15854935785E+03  0.15854935785E+03  0.00000000000E+00 0. -1.
         -1   -1    0    0    0  501 -0.00000000000E+00 -0.00000000000E+00 -0.10612300734E+03  0.10612300734E+03  0.00000000000E+00 0.  1.
         23    2    1    2    0    0 -0.60504192927E+02  0.83791641856E+01 -0.67780386713E+01  0.13928134137E+03  0.12498952952E+03 0.  0.
          5    1    3    3  502    0 -0.84117729331E+02 -0.19394244545E+02  0.25742335406E+02  0.90203586079E+02  0.47000000000E+01 0.  1.
         -5    1    3    3    0  502  0.23613536404E+02  0.27773408730E+02 -0.32520374077E+02  0.49077755288E+02  0.47000000000E+01 0.  1.
        -11    1    1    2    0    0  0.21734582337E+02  0.13939507998E+02  0.73918500216E+02  0.78298445877E+02  0.00000000000E+00 0. -1.
         11    1    1    2    0    0  0.38769610590E+02 -0.22318672184E+02 -0.14714111036E+02  0.47092577939E+02  0.00000000000E+00 0.  1.
<mgrwt>
<rscale>  0 0.13134316E+03</rscale>
<asrwt>0</asrwt>
<pdfrwt beam="1">  1        1 0.24392209E-01 0.13911632E+03</pdfrwt>
<pdfrwt beam="2">  1       -1 0.16326616E-01 0.13911632E+03</pdfrwt>
<totfact> 0.52940724E+03</totfact>
</mgrwt>
</event>
<event>
 7    1  0.5400401E-006  0.1575291E+03  0.7546771E-02  0.1198302E+00
          1   -1    0    0  501    0  0.00000000000E+00  0.00000000000E+00  0.49362737888E+03  0.49362737888E+03  0.00000000000E+00 0. -1.
         -1   -1    0    0    0  501 -0.00000000000E+00 -0.00000000000E+00 -0.43779835758E+02  0.43779835758E+02  0.00000000000E+00 0.  1.
         23    2    1    2    0    0 -0.91059509624E+02 -0.29968036986E+02  0.22278418480E+03  0.27285200435E+03  0.12500202297E+03 0.  0.
          5    1    3    3  502    0 -0.12119752326E+03 -0.25450177501E+02  0.19659224626E+03  0.23239438992E+03  0.47000000000E+01 0. -1.
         -5    1    3    3    0  502  0.30138013638E+02 -0.45178594854E+01  0.26191938545E+02  0.40457614427E+02  0.47000000000E+01 0. -1.
        -11    1    1    2    0    0  0.71163925846E+01 -0.26154483802E+02  0.18450182243E+02  0.32788859254E+02  0.00000000000E+00 0.  1.
         11    1    1    2    0    0  0.83943117040E+02  0.56122520789E+02  0.20861317607E+03  0.23176635103E+03  0.00000000000E+00 0. -1.
<mgrwt>
<rscale>  0 0.15178060E+03</rscale>
<asrwt>0</asrwt>
<pdfrwt beam="1">  1        1 0.75942670E-01 0.15752912E+03</pdfrwt>
<pdfrwt beam="2">  1       -1 0.67353597E-02 0.15752912E+03</pdfrwt>
<totfact> 0.50016178E+03</totfact>
</mgrwt>
</event>
<event>
 7    1  0.5400401E-006  0.1430925E+03  0.7546771E-02  0.1219757E+00
         -1   -1    0    0    0  501 -0.00000000000E+00  0.00000000000E+00  0.59283471871E+03  0.59283471871E+03  0.00000000000E+00 0.  1.
          1   -1    0    0  501    0  0.00000000000E+00 -0.00000000000E+00 -0.30695084348E+02  0.30695084348E+02  0.00000000000E+00 0. -1.
         23    2    1    2    0    0 -0.53012083672E+02  0.45169282247E+02  0.40180263928E+03  0.42652178619E+03  0.12499971236E+03 0.  0.
          5    1    3    3  502    0 -0.29349126334E+02 -0.10043857655E+01  0.35574267473E+03  0.35698364197E+03  0.47000000000E+01 0.  1.
         -5    1    3    3    0  502 -0.23662957338E+02  0.46173668013E+02  0.46059964547E+02  0.69538144222E+02  0.47000000000E+01 0.  1.
        -11    1    1    2    0    0  0.21764819466E+02 -0.49650508718E+02  0.28111511648E+02  0.61066664142E+02  0.00000000000E+00 0.  1.
         11    1    1    2    0    0  0.31247264207E+02  0.44812264708E+01  0.13222548344E+03  0.13594135273E+03  0.00000000000E+00 0. -1.
<mgrwt>
<rscale>  0 0.13532844E+03</rscale>
<asrwt>0</asrwt>
<pdfrwt beam="2">  1        1 0.47223211E-02 0.14309253E+03</pdfrwt>
<pdfrwt beam="1">  1       -1 0.91205333E-01 0.14309253E+03</pdfrwt>
<totfact> 0.21632763E+03</totfact>
</mgrwt>
</event>
<event>
 7    1  0.5400401E-006  0.2010953E+03  0.7546771E-02  0.1152980E+00
          2   -1    0    0  501    0  0.00000000000E+00  0.00000000000E+00  0.76005558220E+02  0.76005558220E+02  0.00000000000E+00 0. -1.
         -2   -1    0    0    0  501 -0.00000000000E+00 -0.00000000000E+00 -0.48404439194E+03  0.48404439194E+03  0.00000000000E+00 0.  1.
         23    2    1    2    0    0  0.96152334697E+02 -0.12477602463E+03 -0.22467297780E+03  0.30152493090E+03  0.12500003683E+03 0.  0.
          5    1    3    3  502    0  0.11909480910E+03 -0.69406511091E+02 -0.13100683123E+03  0.19022543775E+03  0.47000000000E+01 0. -1.
         -5    1    3    3    0  502 -0.22942474408E+02 -0.55369513538E+02 -0.93666146569E+02  0.11129949315E+03  0.47000000000E+01 0. -1.
        -11    1    1    2    0    0 -0.68016349743E+02  0.13254847971E+03 -0.13012598074E+03  0.19780822574E+03  0.00000000000E+00 0. -1.
         11    1    1    2    0    0 -0.28135984954E+02 -0.77724550805E+01 -0.53239875181E+02  0.60716793531E+02  0.00000000000E+00 0.  1.
<mgrwt>
<rscale>  0 0.19620661E+03</rscale>
<asrwt>0</asrwt>
<pdfrwt beam="1">  1        2 0.11693163E-01 0.20109534E+03</pdfrwt>
<pdfrwt beam="2">  1       -2 0.74468368E-01 0.20109534E+03</pdfrwt>
<totfact> 0.87266587E+02</totfact>
</mgrwt>
</event>
<event>
 7    1  0.5400401E-006  0.1444934E+03  0.7546771E-02  0.1217453E+00
         -4   -1    0    0    0  501 -0.00000000000E+00  0.00000000000E+00  0.10730394005E+04  0.10730394005E+04  0.00000000000E+00 0.  1.
          4   -1    0    0  501    0  0.00000000000E+00 -0.00000000000E+00 -0.23102440084E+02  0.23102440084E+02  0.00000000000E+00 0. -1.
         23    2    1    2    0    0 -0.70217063887E+02 -0.18000663938E+02  0.86833942443E+03  0.88027933751E+03  0.12499558421E+03 0.  0.
          5    1    3    3  502    0  0.13070958686E+02 -0.45496091560E+02  0.17323694927E+03  0.17964931088E+03  0.47000000000E+01 0.  1.
         -5    1    3    3    0  502 -0.83288022573E+02  0.27495427622E+02  0.69510247516E+03  0.70063002663E+03  0.47000000000E+01 0.  1.
        -11    1    1    2    0    0  0.47699249196E+02  0.22347017583E+02  0.18529174290E+03  0.19263342793E+03  0.00000000000E+00 0.  1.
         11    1    1    2    0    0  0.22517814691E+02 -0.43463536454E+01 -0.36942068906E+01  0.23229075165E+02  0.00000000000E+00 0. -1.
<mgrwt>
<rscale>  0 0.13697903E+03</rscale>
<asrwt>0</asrwt>
<pdfrwt beam="2">  1        4 0.35542224E-02 0.14449345E+03</pdfrwt>
<pdfrwt beam="1">  1       -4 0.16508295E+00 0.14449345E+03</pdfrwt>
<totfact> 0.17319540E+02</totfact>
</mgrwt>
</event>
<event>
 7    1  0.5400401E-006  0.1342390E+03  0.7546771E-02  0.1233738E+00
          2   -1    0    0  501    0  0.00000000000E+00  0.00000000000E+00  0.17471747297E+03  0.17471747297E+03  0.00000000000E+00 0.  1.
         -2   -1    0    0    0  501 -0.00000000000E+00 -0.00000000000E+00 -0.87743415168E+02  0.87743415168E+02  0.00000000000E+00 0. -1.
         23    2    1    2    0    0  0.24030900185E+02 -0.42633239720E+02  0.12594310073E+02  0.13482846654E+03  0.12500008580E+03 0.  0.
          5    1    3    3  502    0  0.53511522088E+02 -0.68913316914E+02 -0.11802261468E+02  0.88169788590E+02  0.47000000000E+01 0. -1.
         -5    1    3    3    0  502 -0.29480621902E+02  0.26280077194E+02  0.24396571542E+02  0.46658677950E+02  0.47000000000E+01 0. -1.
        -11    1    1    2    0    0 -0.54507582801E+02  0.43103675089E+02  0.66424074052E+02  0.96130957566E+02  0.00000000000E+00 0.  1.
         11    1    1    2    0    0  0.30476682616E+02 -0.47043536906E+00  0.79556736806E+01  0.31501464036E+02  0.00000000000E+00 0. -1.
<mgrwt>
<rscale>  0 0.12585597E+03</rscale>
<asrwt>0</asrwt>
<pdfrwt beam="1">  1        2 0.26879611E-01 0.13423896E+03</pdfrwt>
<pdfrwt beam="2">  1       -2 0.13498987E-01 0.13423896E+03</pdfrwt>
<totfact> 0.76494857E+03</totfact>
</mgrwt>
</event>
<event>
 7    1  0.5400401E-006  0.1372694E+03  0.7546771E-02  0.1229368E+00
          1   -1    0    0  501    0  0.00000000000E+00  0.00000000000E+00  0.10204007758E+03  0.10204007758E+03  0.00000000000E+00 0. -1.
         -1   -1    0    0    0  501 -0.00000000000E+00 -0.00000000000E+00 -0.14518381699E+03  0.14518381699E+03  0.00000000000E+00 0.  1.
         23    2    1    2    0    0  0.12021194151E-01  0.56716958502E+02 -0.22565887704E+02  0.13911185661E+03  0.12500430326E+03 0.  0.
          5    1    3    3  502    0  0.28306670505E+02  0.40279965199E+02 -0.67281976536E+02  0.83502679946E+02  0.47000000000E+01 0.  1.
         -5    1    3    3    0  502 -0.28294649311E+02  0.16436993304E+02  0.44716088832E+02  0.55609176661E+02  0.47000000000E+01 0.  1.
        -11    1    1    2    0    0  0.42980302492E+02 -0.36687615372E+02 -0.22053420290E+02  0.60660043443E+02  0.00000000000E+00 0. -1.
         11    1    1    2    0    0 -0.42992323686E+02 -0.20029343131E+02  0.14755685834E+01  0.47451994529E+02  0.00000000000E+00 0.  1.
<mgrwt>
<rscale>  0 0.12871987E+03</rscale>
<asrwt>0</asrwt>
<pdfrwt beam="1">  1        1 0.15698473E-01 0.13726940E+03</pdfrwt>
<pdfrwt beam="2">  1       -1 0.22335972E-01 0.13726940E+03</pdfrwt>
<totfact> 0.56165034E+03</totfact>
</mgrwt>
</event>
<event>
 7    1  0.5400401E-006  0.2029878E+03  0.7546771E-02  0.1151375E+00
         -1   -1    0    0    0  501 -0.00000000000E+00  0.00000000000E+00  0.27383584294E+03  0.27383584294E+03  0.00000000000E+00 0.  1.
          1   -1    0    0  501    0  0.00000000000E+00 -0.00000000000E+00 -0.13685408016E+03  0.13685408016E+03  0.00000000000E+00 0. -1.
         23    2    1    2    0    0 -0.14489079528E+03  0.67705085791E+02  0.77580629624E+02  0.21730809055E+03  0.12500692351E+03 0.  0.
          5    1    3    3  502    0 -0.14811547745E+03  0.94359428942E+02  0.68781133072E+02  0.18866592367E+03  0.47000000000E+01 0. -1.
         -5    1    3    3    0  502  0.32246821623E+01 -0.26654343151E+02  0.87994965518E+01  0.28642166877E+02  0.47000000000E+01 0. -1.
        -11    1    1    2    0    0 -0.11606780082E+02 -0.13738632079E+02  0.16688850196E+01  0.18062461972E+02  0.00000000000E+00 0.  1.
         11    1    1    2    0    0  0.15649757536E+03 -0.53966453712E+02  0.57732248137E+02  0.17531937057E+03  0.00000000000E+00 0. -1.
<mgrwt>
<rscale>  0 0.19807343E+03</rscale>
<asrwt>0</asrwt>
<pdfrwt beam="2">  1        1 0.21054474E-01 0.20298781E+03</pdfrwt>
<pdfrwt beam="1">  1       -1 0.42128591E-01 0.20298781E+03</pdfrwt>
<totfact> 0.13343950E+03</totfact>
</mgrwt>
</event>
<event>
 7    1  0.5400401E-006  0.2038399E+03  0.7546771E-02  0.1150780E+00
         -2   -1    0    0    0  501 -0.00000000000E+00  0.00000000000E+00  0.10579592689E+03  0.10579592689E+03  0.00000000000E+00 0. -1.
          2   -1    0    0  501    0  0.00000000000E+00 -0.00000000000E+00 -0.57441605651E+03  0.57441605651E+03  0.00000000000E+00 0.  1.
         23    2    1    2    0    0  0.11875057439E+03  0.10874452564E+03 -0.32066444096E+02  0.20634666141E+03  0.12499446814E+03 0.  0.
          5    1    3    3  502    0  0.12503070403E+03  0.10327323308E+03 -0.62947394597E+02  0.17401868321E+03  0.47000000000E+01 0.  1.
         -5    1    3    3    0  502 -0.62801296402E+01  0.54712925588E+01  0.30880950500E+02  0.32327978198E+02  0.47000000000E+01 0.  1.
        -11    1    1    2    0    0 -0.22453165779E+01 -0.25468797936E+02 -0.17410347856E+02  0.30932528627E+02  0.00000000000E+00 0. -1.
         11    1    1    2    0    0 -0.11650525781E+03 -0.83275727705E+02 -0.41914333767E+03  0.44293279336E+03  0.00000000000E+00 0.  1.
<mgrwt>
<rscale>  0 0.19877078E+03</rscale>
<asrwt>0</asrwt>
<pdfrwt beam="2">  1        2 0.88371699E-01 0.20383986E+03</pdfrwt>
<pdfrwt beam="1">  1       -2 0.16276297E-01 0.20383986E+03</pdfrwt>
<totfact> 0.15784410E+03</totfact>
</mgrwt>
</event>
<event>
 7    1  0.5400401E-006  0.1648441E+03  0.7546771E-02  0.1190565E+00
         -1   -1    0    0    0  501 -0.00000000000E+00  0.00000000000E+00  0.14709905189E+03  0.14709905189E+03  0.00000000000E+00 0.  1.
          1   -1    0    0  501    0  0.00000000000E+00 -0.00000000000E+00 -0.15996548418E+03  0.15996548418E+03  0.00000000000E+00 0. -1.
         23    2    1    2    0    0  0.70600938976E+02  0.81036051041E+02  0.84906329723E+01  0.16506257005E+03  0.12498890763E+03 0.  0.
          5    1    3    3  502    0  0.31378871240E+02 -0.48517296518E+01  0.51909759353E+02  0.61031843795E+02  0.47000000000E+01 0. -1.
         -5    1    3    3    0  502  0.39222067736E+02  0.85887780692E+02 -0.43419126381E+02  0.10403072626E+03  0.47000000000E+01 0. -1.
        -11    1    1    2    0    0  0.20323019967E+02 -0.32025265194E+01 -0.10254903189E+01  0.20599343365E+02  0.00000000000E+00 0.  1.
         11    1    1    2    0    0 -0.90923958943E+02 -0.77833524521E+02 -0.20331574944E+02  0.12140262266E+03  0.00000000000E+00 0. -1.
<mgrwt>
<rscale>  0 0.15835671E+03</rscale>
<asrwt>0</asrwt>
<pdfrwt beam="2">  1        1 0.24610075E-01 0.16484405E+03</pdfrwt>
<pdfrwt beam="1">  1       -1 0.22630623E-01 0.16484405E+03</pdfrwt>
<totfact> 0.31287127E+03</totfact>
</mgrwt>
</event>
<event>
 7    1  0.5400401E-006  0.1843041E+03  0.7546771E-02  0.1169183E+00
          3   -1    0    0  501    0  0.00000000000E+00  0.00000000000E+00  0.94463064546E+02  0.94463064546E+02  0.00000000000E+00 0. -1.
         -3   -1    0    0    0  501 -0.00000000000E+00 -0.00000000000E+00 -0.31873710039E+03  0.31873710039E+03  0.00000000000E+00 0.  1.
         23    2    1    2    0    0  0.29462457041E+02 -0.13217931505E+03 -0.12741812058E+03  0.22406114387E+03  0.12501444332E+03 0.  0.
          5    1    3    3  502    0  0.50049081498E+02 -0.14812889169E+03 -0.11811322053E+03  0.19600995376E+03  0.47000000000E+01 0.  1.
         -5    1    3    3    0  502 -0.20586624457E+02  0.15949576634E+02 -0.93049000470E+01  0.28051190103E+02  0.47000000000E+01 0.  1.
        -11    1    1    2    0    0  0.26974531047E+02  0.15343091288E+02 -0.30050176283E+02  0.43197787792E+02  0.00000000000E+00 0.  1.
         11    1    1    2    0    0 -0.56436988089E+02  0.11683622377E+03 -0.66805738984E+02  0.14594123327E+03  0.00000000000E+00 0. -1.
<mgrwt>
<rscale>  0 0.17858147E+03</rscale>
<asrwt>0</asrwt>
<pdfrwt beam="1">  1        3 0.14532779E-01 0.18430415E+03</pdfrwt>
<pdfrwt beam="2">  1       -3 0.49036477E-01 0.18430415E+03</pdfrwt>
<totfact> 0.39378653E+02</totfact>
</mgrwt>
</event>
<event>
 7    1  0.5400401E-006  0.1446329E+03  0.7546771E-02  0.1217610E+00
         -2   -1    0    0    0  501 -0.00000000000E+00  0.00000000000E+00  0.42786375409E+02  0.42786375409E+02  0.00000000000E+00 0.  1.
          2   -1    0    0  501    0  0.00000000000E+00 -0.00000000000E+00 -0.41016104831E+03  0.41016104831E+03  0.00000000000E+00 0. -1.
         23    2    1    2    0    0 -0.70195517482E+02 -0.19141747972E+02 -0.24380283490E+03  0.28347573167E+03  0.12499940380E+03 0.  0.
          5    1    3    3  502    0  0.29264008864E+02 -0.27808267885E+02 -0.42959184942E+02  0.59137666071E+02  0.47000000000E+01 0.  1.
         -5    1    3    3    0  502 -0.99459526346E+02  0.86665199127E+01 -0.20084364996E+03  0.22433806560E+03  0.47000000000E+01 0.  1.
        -11    1    1    2    0    0 -0.10954455016E+01  0.27796446100E+02 -0.81780971146E+02  0.86382693048E+02  0.00000000000E+00 0. -1.
         11    1    1    2    0    0  0.71290962984E+02 -0.86546981278E+01 -0.41790866860E+02  0.83088999005E+02  0.00000000000E+00 0.  1.
<mgrwt>
<rscale>  0 0.13686525E+03</rscale>
<asrwt>0</asrwt>
<pdfrwt beam="2">  1        2 0.63101702E-01 0.14463287E+03</pdfrwt>
<pdfrwt beam="1">  1       -2 0.65825191E-02 0.14463287E+03</pdfrwt>
<totfact> 0.95067662E+03</totfact>
</mgrwt>
</event>
<event>
 7    1  0.5400401E-006  0.1318631E+03  0.7546771E-02  0.1238246E+00
          1   -1    0    0  501    0  0.00000000000E+00  0.00000000000E+00  0.13164457220E+03  0.13164457220E+03  0.00000000000E+00 0. -1.
         -1   -1    0    0    0  501 -0.00000000000E+00 -0.00000000000E+00 -0.10760800864E+03  0.10760800864E+03  0.00000000000E+00 0.  1.
         23    2    1    2    0    0  0.13526481895E+02 -0.39724966070E+02 -0.13680210510E+02  0.13257080797E+03  0.12500732909E+03 0.  0.
          5    1    3    3  502    0  0.69064245812E+02 -0.26537699939E+02 -0.22758436208E+01  0.74171349130E+02  0.47000000000E+01 0. -1.
         -5    1    3    3    0  502 -0.55537763917E+02 -0.13187266131E+02 -0.11404366889E+02  0.58399458842E+02  0.47000000000E+01 0. -1.
        -11    1    1    2    0    0 -0.28341768877E+02  0.32179201333E+02  0.63128101196E+02  0.76314572803E+02  0.00000000000E+00 0. -1.
         11    1    1    2    0    0  0.14815286982E+02  0.75457647373E+01 -0.25411327128E+02  0.30367200072E+02  0.00000000000E+00 0.  1.
<mgrwt>
<rscale>  0 0.12298902E+03</rscale>
<asrwt>0</asrwt>
<pdfrwt beam="1">  1        1 0.20253011E-01 0.13186308E+03</pdfrwt>
<pdfrwt beam="2">  1       -1 0.16555078E-01 0.13186308E+03</pdfrwt>
<totfact> 0.65278163E+03</totfact>
</mgrwt>
</event>
<event>
 7    1  0.5400401E-006  0.1424123E+03  0.7546771E-02  0.1220359E+00
          3   -1    0    0  501    0  0.00000000000E+00  0.00000000000E+00  0.26027837771E+02  0.26027837771E+02  0.00000000000E+00 0. -1.
         -3   -1    0    0    0  501 -0.00000000000E+00 -0.00000000000E+00 -0.63477797282E+03  0.63477797282E+03  0.00000000000E+00 0.  1.
         23    2    1    2    0    0 -0.30100499289E+01 -0.68170602519E+02 -0.33676787313E+03  0.36564170924E+03  0.12499987087E+03 0.  0.
          5    1    3    3  502    0 -0.29407817568E+02 -0.68906722637E+02 -0.89018632348E+02  0.11644467813E+03  0.47000000000E+01 0.  1.
         -5    1    3    3    0  502  0.26397767639E+02  0.73612011816E+00 -0.24774924078E+03  0.24919703111E+03  0.47000000000E+01 0.  1.
        -11    1    1    2    0    0  0.39612193718E+02  0.61713500687E+02 -0.13993409479E+03  0.15798491366E+03  0.00000000000E+00 0.  1.
         11    1    1    2    0    0 -0.36602143789E+02  0.64571018319E+01 -0.13204816713E+03  0.13717918770E+03  0.00000000000E+00 0. -1.
<mgrwt>
<rscale>  0 0.13490125E+03</rscale>
<asrwt>0</asrwt>
<pdfrwt beam="1">  1        3 0.40042828E-02 0.14241229E+03</pdfrwt>
<pdfrwt beam="2">  1       -3 0.97658148E-01 0.14241229E+03</pdfrwt>
<totfact> 0.72179820E+02</totfact>
</mgrwt>
</event>
<event>
 7    1  0.5400401E-006  0.1521088E+03  0.7546771E-02  0.1206493E+00
          2   -1    0    0  501    0  0.00000000000E+00  0.00000000000E+00  0.62383436691E+03  0.62383436691E+03  0.00000000000E+00 0. -1.
         -2   -1    0    0    0  501 -0.00000000000E+00 -0.00000000000E+00 -0.73952727995E+02  0.73952727995E+02  0.00000000000E+00 0.  1.
         23    2    1    2    0    0 -0.66561487001E+02  0.55517279504E+02  0.20428152210E+02  0.15347440839E+03  0.12499793900E+03 0.  0.
          5    1    3    3  502    0 -0.65559224976E+02 -0.70853436095E+01 -0.30332752371E+02  0.72734998040E+02  0.47000000000E+01 0.  1.
         -5    1    3    3    0  502 -0.10022620253E+01  0.62602623114E+02  0.50760904582E+02  0.80739410351E+02  0.47000000000E+01 0.  1.
        -11    1    1    2    0    0  0.61637604012E+02 -0.76823222482E+02  0.48338828933E+03  0.49332062596E+03  0.00000000000E+00 0. -1.
         11    1    1    2    0    0  0.49238829888E+01  0.21305942977E+02  0.46065197377E+02  0.50992060551E+02  0.00000000000E+00 0.  1.
<mgrwt>
<rscale>  0 0.14520410E+03</rscale>
<asrwt>0</asrwt>
<pdfrwt beam="1">  1        2 0.95974515E-01 0.15210879E+03</pdfrwt>
<pdfrwt beam="2">  1       -2 0.11377343E-01 0.15210879E+03</pdfrwt>
<totfact> 0.25544751E+03</totfact>
</mgrwt>
</event>
<event>
 7    1  0.5400401E-006  0.1487236E+03  0.7546771E-02  0.1211234E+00
          4   -1    0    0  501    0  0.00000000000E+00  0.00000000000E+00  0.25795284574E+03  0.25795284574E+03  0.00000000000E+00 0. -1.
         -4   -1    0    0    0  501 -0.00000000000E+00 -0.00000000000E+00 -0.15875719369E+03  0.15875719369E+03  0.00000000000E+00 0.  1.
         23    2    1    2    0    0 -0.73313668107E+02 -0.33460692271E+02 -0.10271783774E+03  0.18074749880E+03  0.12499676905E+03 0.  0.
          5    1    3    3  502    0 -0.71572528656E+02  0.32469350829E+02 -0.76009151070E+02  0.10943658734E+03  0.47000000000E+01 0. -1.
         -5    1    3    3    0  502 -0.17411394504E+01 -0.65930043101E+02 -0.26708686666E+02  0.71310911460E+02  0.47000000000E+01 0. -1.
        -11    1    1    2    0    0  0.50176713766E+02 -0.66429468580E+01  0.17551259556E+03  0.18266500088E+03  0.00000000000E+00 0. -1.
         11    1    1    2    0    0  0.23136954341E+02  0.40103639129E+02  0.26400894237E+02  0.53297539757E+02  0.00000000000E+00 0.  1.
<mgrwt>
<rscale>  0 0.14156859E+03</rscale>
<asrwt>0</asrwt>
<pdfrwt beam="1">  1        4 0.39685053E-01 0.14872358E+03</pdfrwt>
<pdfrwt beam="2">  1       -4 0.24424184E-01 0.14872358E+03</pdfrwt>
<totfact> 0.16409121E+02</totfact>
</mgrwt>
</event>
<event>
 7    1  0.5400401E-006  0.1479468E+03  0.7546771E-02  0.1213553E+00
          1   -1    0    0  501    0  0.00000000000E+00  0.00000000000E+00  0.12504536547E+03  0.12504536547E+03  0.00000000000E+00 0. -1.
         -1   -1    0    0    0  501 -0.00000000000E+00 -0.00000000000E+00 -0.15235144260E+03  0.15235144260E+03  0.00000000000E+00 0.  1.
         23    2    1    2    0    0  0.66089802917E+02 -0.43537682765E+02 -0.51917331802E+02  0.15679181026E+03  0.12499948221E+03 0.  0.
          5    1    3    3  502    0  0.24251386515E+02 -0.16010645150E+02  0.41389170090E+02  0.50789998098E+02  0.47000000000E+01 0. -1.
         -5    1    3    3    0  502  0.41838416401E+02 -0.27527037615E+02 -0.93306501892E+02  0.10600181216E+03  0.47000000000E+01 0. -1.
        -11    1    1    2    0    0 -0.22081313413E+02  0.14580971967E+02 -0.33158111778E+02  0.42422276250E+02  0.00000000000E+00 0.  1.
         11    1    1    2    0    0 -0.44008489504E+02  0.28956710798E+02  0.57769366451E+02  0.78182721549E+02  0.00000000000E+00 0. -1.
<mgrwt>
<rscale>  0 0.13983359E+03</rscale>
<asrwt>0</asrwt>
<pdfrwt beam="1">  1        1 0.19237749E-01 0.14794682E+03</pdfrwt>
<pdfrwt beam="2">  1       -1 0.23438683E-01 0.14794682E+03</pdfrwt>
<totfact> 0.40172621E+03</totfact>
</mgrwt>
</event>
<event>
 7    1  0.5400401E-006  0.1446997E+03  0.7546771E-02  0.1217929E+00
          1   -1    0    0  501    0  0.00000000000E+00  0.00000000000E+00  0.53201779911E+03  0.53201779911E+03  0.00000000000E+00 0. -1.
         -1   -1    0    0    0  501 -0.00000000000E+00 -0.00000000000E+00 -0.31863969136E+02  0.31863969136E+02  0.00000000000E+00 0.  1.
         23    2    1    2    0    0 -0.68790908490E+02  0.24105090882E+02  0.25855380993E+03  0.29629051326E+03  0.12499900448E+03 0.  0.
          5    1    3    3  502    0 -0.16364465908E+02  0.24357658911E+01 -0.11247025773E+02  0.20550286827E+02  0.47000000000E+01 0. -1.
         -5    1    3    3    0  502 -0.52426442582E+02  0.21669324991E+02  0.26980083570E+03  0.27574022643E+03  0.47000000000E+01 0. -1.
        -11    1    1    2    0    0 -0.40707413217E+01 -0.38030591636E+02  0.56989728331E+02  0.68634728602E+02  0.00000000000E+00 0.  1.
         11    1    1    2    0    0  0.72861649812E+02  0.13925500754E+02  0.18461029171E+03  0.19895652638E+03  0.00000000000E+00 0. -1.
<mgrwt>
<rscale>  0 0.13663569E+03</rscale>
<asrwt>0</asrwt>
<pdfrwt beam="1">  1        1 0.81848885E-01 0.14469967E+03</pdfrwt>
<pdfrwt beam="2">  1       -1 0.49021495E-02 0.14469967E+03</pdfrwt>
<totfact> 0.72452719E+03</totfact>
</mgrwt>
</event>
<event>
 6    1  0.5400401E-006  0.6227148E+03  0.7546771E-02  0.1035282E+00
         -2   -1    0    0    0  501 -0.00000000000E+00  0.00000000000E+00  0.24888593542E+03  0.24888593542E+03  0.00000000000E+00 0.  1.
          2   -1    0    0  501    0  0.00000000000E+00 -0.00000000000E+00 -0.72259522415E+03  0.72259522415E+03  0.00000000000E+00 0. -1.
          5    1    1    2  502    0  0.56056003024E+01  0.70598320328E+02 -0.38603954836E+03  0.39251008712E+03  0.47000000000E+01 0. -1.
         -5    1    1    2    0  502 -0.91197898509E+02 -0.12189216104E+03  0.20555621969E+03  0.25583237690E+03  0.47000000000E+01 0.  1.
        -11    1    1    2    0    0  0.39588789384E+02 -0.17084139688E+02 -0.16634321149E+03  0.17184063572E+03  0.00000000000E+00 0.  1.
         11    1    1    2    0    0  0.46003508822E+02  0.68377980402E+02 -0.12688274857E+03  0.15129805984E+03  0.00000000000E+00 0. -1.
<mgrwt>
<rscale>  0 0.42552847E+03</rscale>
<asrwt>0</asrwt>
<pdfrwt beam="2">  1        2 0.11116849E+00 0.62271480E+03</pdfrwt>
<pdfrwt beam="1">  1       -2 0.38290145E-01 0.62271480E+03</pdfrwt>
<totfact> 0.25705759E+02</totfact>
</mgrwt>
</event>
<event>
 7    1  0.5400401E-006  0.1268847E+03  0.7546771E-02  0.1251081E+00
          1   -1    0    0  501    0  0.00000000000E+00  0.00000000000E+00  0.17064395319E+02  0.17064395319E+02  0.00000000000E+00 0. -1.
         -1   -1    0    0    0  501 -0.00000000000E+00 -0.00000000000E+00 -0.83116059430E+03  0.83116059430E+03  0.00000000000E+00 0.  1.
         23    2    1    2    0    0 -0.17463524271E+02  0.13060715408E+02 -0.65469983801E+03  0.66688199628E+03  0.12499664838E+03 0.  0.
          5    1    3    3  502    0  0.12810364454E+02 -0.32327176636E+02 -0.58818813491E+02  0.68490105907E+02  0.47000000000E+01 0. -1.
         -5    1    3    3    0  502 -0.30273888726E+02  0.45387892044E+02 -0.59588102452E+03  0.59839189038E+03  0.47000000000E+01 0. -1.
        -11    1    1    2    0    0  0.16250319721E+02  0.34118138831E+02 -0.87845854946E+02  0.95629569273E+02  0.00000000000E+00 0. -1.
         11    1    1    2    0    0  0.12132045505E+01 -0.47178854239E+02 -0.71550506025E+02  0.85713424065E+02  0.00000000000E+00 0.  1.
<mgrwt>
<rscale>  0 0.11528708E+03</rscale>
<asrwt>0</asrwt>
<pdfrwt beam="1">  1        1 0.26252910E-02 0.12688467E+03</pdfrwt>
<pdfrwt beam="2">  1       -1 0.12787089E+00 0.12688467E+03</pdfrwt>
<totfact> 0.22500632E+03</totfact>
</mgrwt>
</event>
<event>
 7    1  0.5400401E-006  0.1230002E+03  0.7546771E-02  0.1250988E+00
          2   -1    0    0  501    0  0.00000000000E+00  0.00000000000E+00  0.75025743077E+03  0.75025743077E+03  0.00000000000E+00 0. -1.
         -2   -1    0    0    0  501 -0.00000000000E+00 -0.00000000000E+00 -0.16784498979E+02  0.16784498979E+02  0.00000000000E+00 0.  1.
         23    2    1    2    0    0 -0.39070767722E+02  0.58300330641E+01  0.32129893762E+03  0.34403786847E+03  0.11648404804E+03 0.  0.
          5    1    3    3  502    0 -0.31976949065E+02  0.18890919456E+02  0.32569655888E+03  0.32784101417E+03  0.47000000000E+01 0. -1.
         -5    1    3    3    0  502 -0.70938186571E+01 -0.13060886392E+02 -0.43976212522E+01  0.16196854299E+02  0.47000000000E+01 0.  1.
        -11    1    1    2    0    0 -0.21795991274E+02  0.14405090106E+02  0.66857294384E+02  0.71780705408E+02  0.00000000000E+00 0. -1.
         11    1    1    2    0    0  0.60866758996E+02 -0.20235123170E+02  0.34531669979E+03  0.35122335587E+03  0.00000000000E+00 0.  1.
<mgrwt>
<rscale>  0 0.11534018E+03</rscale>
<asrwt>0</asrwt>
<pdfrwt beam="1">  1        2 0.11542419E+00 0.12300019E+03</pdfrwt>
<pdfrwt beam="2">  1       -2 0.25822312E-02 0.12300019E+03</pdfrwt>
<totfact> 0.19173021E+04</totfact>
</mgrwt>
</event>
<event>
 7    1  0.5400401E-006  0.1697832E+03  0.7546771E-02  0.1185121E+00
          1   -1    0    0  501    0  0.00000000000E+00  0.00000000000E+00  0.27311542316E+03  0.27311542316E+03  0.00000000000E+00 0. -1.
         -1   -1    0    0    0  501 -0.00000000000E+00 -0.00000000000E+00 -0.90687780083E+02  0.90687780083E+02  0.00000000000E+00 0.  1.
         23    2    1    2    0    0  0.96427712430E+02 -0.62511243853E+02  0.98855610709E+02  0.19646567627E+03  0.12498148203E+03 0.  0.
          5    1    3    3  502    0  0.49918478359E+02  0.35334981292E+02  0.35020243002E+02  0.70632307088E+02  0.47000000000E+01 0. -1.
         -5    1    3    3    0  502  0.46509234071E+02 -0.97846225145E+02  0.63835367707E+02  0.12583336918E+03  0.47000000000E+01 0. -1.
        -11    1    1    2    0    0 -0.51778044164E+02  0.57111534910E+02  0.93599513839E+02  0.12125824619E+03  0.00000000000E+00 0.  1.
         11    1    1    2    0    0 -0.44649668266E+02  0.53997089432E+01 -0.10027481475E+02  0.46079280785E+02  0.00000000000E+00 0. -1.
<mgrwt>
<rscale>  0 0.16320889E+03</rscale>
<asrwt>0</asrwt>
<pdfrwt beam="1">  1        1 0.42017757E-01 0.16978319E+03</pdfrwt>
<pdfrwt beam="2">  1       -1 0.13951966E-01 0.16978319E+03</pdfrwt>
<totfact> 0.34762198E+03</totfact>
</mgrwt>
</event>
<event>
 6    1  0.5400401E-006  0.2086610E+03  0.7546771E-02  0.1169430E+00
         -2   -1    0    0    0  501 -0.00000000000E+00  0.00000000000E+00  0.95085699328E+02  0.95085699328E+02  0.00000000000E+00 0.  1.
          2   -1    0    0  501    0  0.00000000000E+00 -0.00000000000E+00 -0.29125009311E+03  0.29125009311E+03  0.00000000000E+00 0. -1.
          5    1    1    2  502    0 -0.15418720854E+01  0.78909679020E+02 -0.13564315192E+03  0.15700404287E+03  0.47000000000E+01 0. -1.
         -5    1    1    2    0  502  0.64564985847E+01 -0.20500756210E+02  0.60811826897E+02  0.64669433813E+02  0.47000000000E+01 0.  1.
        -11    1    1    2    0    0 -0.17937157524E+02 -0.76366978119E+02 -0.11876218988E+03  0.14233100404E+03  0.00000000000E+00 0.  1.
         11    1    1    2    0    0  0.13022531025E+02  0.17958055309E+02 -0.25708788772E+01  0.22331311717E+02  0.00000000000E+00 0. -1.
<mgrwt>
<rscale>  0 0.17832960E+03</rscale>
<asrwt>0</asrwt>
<pdfrwt beam="2">  1        2 0.44807705E-01 0.20866098E+03</pdfrwt>
<pdfrwt beam="1">  1       -2 0.14628570E-01 0.20866098E+03</pdfrwt>
<totfact> 0.39632516E+03</totfact>
</mgrwt>
</event>
<event>
 7    1  0.5400401E-006  0.1225274E+03  0.7546771E-02  0.1248553E+00
         -1   -1    0    0    0  501 -0.00000000000E+00  0.00000000000E+00  0.22805152766E+03  0.22805152766E+03  0.00000000000E+00 0.  1.
          1   -1    0    0  501    0  0.00000000000E+00 -0.00000000000E+00 -0.12177702222E+03  0.12177702222E+03  0.00000000000E+00 0. -1.
         23    2    1    2    0    0 -0.16630255861E+02 -0.40129251909E+02  0.18490841475E+03  0.22181995383E+03  0.11456896526E+03 0.  0.
          5    1    3    3  502    0 -0.65799118404E+02 -0.21412777752E+02  0.11322120695E+03  0.13277485733E+03  0.47000000000E+01 0. -1.
         -5    1    3    3    0  502  0.49168862542E+02 -0.18716474157E+02  0.71687207799E+02  0.89045096499E+02  0.47000000000E+01 0.  1.
        -11    1    1    2    0    0  0.39294532640E+02 -0.60004813206E+01 -0.78252787993E+01  0.40512973968E+02  0.00000000000E+00 0.  1.
         11    1    1    2    0    0 -0.22664276778E+02  0.46129733230E+02 -0.70808630516E+02  0.87495622092E+02  0.00000000000E+00 0. -1.
<mgrwt>
<rscale>  0 0.11675231E+03</rscale>
<asrwt>0</asrwt>
<pdfrwt beam="2">  1        1 0.18734926E-01 0.12252743E+03</pdfrwt>
<pdfrwt beam="1">  1       -1 0.35084850E-01 0.12252743E+03</pdfrwt>
<totfact> 0.20982492E+03</totfact>
</mgrwt>
</event>
<event>
 7    1  0.5400401E-006  0.1438425E+03  0.7546771E-02  0.1217763E+00
          2   -1    0    0  501    0  0.00000000000E+00  0.00000000000E+00  0.22324195711E+03  0.22324195711E+03  0.00000000000E+00 0. -1.
         -2   -1    0    0    0  501 -0.00000000000E+00 -0.00000000000E+00 -0.93791254123E+02  0.93791254123E+02  0.00000000000E+00 0.  1.
         23    2    1    2    0    0 -0.71176694189E+02  0.14678020156E+01  0.22575906981E+01  0.14386017389E+03  0.12498950627E+03 0.  0.
          5    1    3    3  502    0 -0.58611687241E+02 -0.49101778281E+02  0.32740661076E+02  0.83308795450E+02  0.47000000000E+01 0.  1.
         -5    1    3    3    0  502 -0.12565006947E+02  0.50569580296E+02 -0.30483070378E+02  0.60551378437E+02  0.47000000000E+01 0.  1.
        -11    1    1    2    0    0  0.90251673331E+02  0.15375862931E+02  0.92483805164E+02  0.13013468376E+03  0.00000000000E+00 0.  1.
         11    1    1    2    0    0 -0.19074979143E+02 -0.16843664946E+02  0.34709307123E+02  0.43038353582E+02  0.00000000000E+00 0. -1.
<mgrwt>
<rscale>  0 0.13675485E+03</rscale>
<asrwt>0</asrwt>
<pdfrwt beam="1">  1        2 0.34344916E-01 0.14384246E+03</pdfrwt>
<pdfrwt beam="2">  1       -2 0.14429424E-01 0.14384246E+03</pdfrwt>
<totfact> 0.52885934E+03</totfact>
</mgrwt>
</event>
<event>
 7    1  0.5400401E-006  0.1332097E+03  0.7546771E-02  0.1238778E+00
          1   -1    0    0  501    0  0.00000000000E+00  0.00000000000E+00  0.37225462146E+02  0.37225462146E+02  0.00000000000E+00 0. -1.
         -1   -1    0    0    0  501 -0.00000000000E+00 -0.00000000000E+00 -0.35290418097E+03  0.35290418097E+03  0.00000000000E+00 0.  1.
         23    2    1    2    0    0 -0.24898668289E+02 -0.38710296710E+02 -0.19295522613E+03  0.23447080141E+03  0.12500562654E+03 0.  0.
          5    1    3    3  502    0  0.50169729450E+02 -0.26359978096E+02 -0.87382453673E+02  0.10425753406E+03  0.47000000000E+01 0.  1.
         -5    1    3    3    0  502 -0.75068397739E+02 -0.12350318615E+02 -0.10557277246E+03  0.13021326735E+03  0.47000000000E+01 0.  1.
        -11    1    1    2    0    0 -0.10858312355E+02 -0.15082023723E+02 -0.69565626721E+02  0.72005185979E+02  0.00000000000E+00 0.  1.
         11    1    1    2    0    0  0.35756980644E+02  0.53792320433E+02 -0.53157865975E+02  0.83653655732E+02  0.00000000000E+00 0. -1.
<mgrwt>
<rscale>  0 0.12265634E+03</rscale>
<asrwt>0</asrwt>
<pdfrwt beam="1">  1        1 0.57269940E-02 0.13320975E+03</pdfrwt>
<pdfrwt beam="2">  1       -1 0.54292952E-01 0.13320975E+03</pdfrwt>
<totfact> 0.46298288E+03</totfact>
</mgrwt>
</event>
<event>
 7    1  0.5400401E-006  0.1425774E+03  0.7546771E-02  0.1220752E+00
         -2   -1    0    0    0  501 -0.00000000000E+00  0.00000000000E+00  0.21064548957E+02  0.21064548957E+02  0.00000000000E+00 0.  1.
          2   -1    0    0  501    0  0.00000000000E+00 -0.00000000000E+00 -0.84222961619E+03  0.84222961619E+03  0.00000000000E+00 0. -1.
         23    2    1    2    0    0  0.58406861025E+02  0.35952988625E+02 -0.33468733535E+03  0.36379103247E+03  0.12499729619E+03 0.  0.
          5    1    3    3  502    0  0.44269937750E+02  0.80632751492E+02 -0.25624076904E+03  0.27229192004E+03  0.47000000000E+01 0. -1.
         -5    1    3    3    0  502  0.14136923276E+02 -0.44679762866E+02 -0.78446566317E+02  0.91499112435E+02  0.47000000000E+01 0. -1.
        -11    1    1    2    0    0 -0.99887827858E+01  0.28224829374E+02 -0.86755222645E+02  0.91776279238E+02  0.00000000000E+00 0.  1.
         11    1    1    2    0    0 -0.48418078240E+02 -0.64177817999E+02 -0.39972250924E+03  0.40772685344E+03  0.00000000000E+00 0. -1.
<mgrwt>
<rscale>  0 0.13462334E+03</rscale>
<asrwt>0</asrwt>
<pdfrwt beam="2">  1        2 0.12957380E+00 0.14257736E+03</pdfrwt>
<pdfrwt beam="1">  1       -2 0.32406996E-02 0.14257736E+03</pdfrwt>
<totfact> 0.12031903E+04</totfact>
</mgrwt>
</event>
<event>
 7    1  0.5400401E-006  0.1451628E+03  0.7546771E-02  0.1218394E+00
         -1   -1    0    0    0  501 -0.00000000000E+00  0.00000000000E+00  0.19583366897E+03  0.19583366897E+03  0.00000000000E+00 0.  1.
          1   -1    0    0  501    0  0.00000000000E+00 -0.00000000000E+00 -0.90540324451E+02  0.90540324451E+02  0.00000000000E+00 0. -1.
         23    2    1    2    0    0 -0.29407793672E+02 -0.67696345754E+02  0.94085439777E+02  0.17298642705E+03  0.12499848162E+03 0.  0.
          5    1    3    3  502    0 -0.21004308300E+02  0.22755971842E+02  0.73252006477E+02  0.79667820822E+02  0.47000000000E+01 0. -1.
         -5    1    3    3    0  502 -0.84034853726E+01 -0.90452317596E+02  0.20833433300E+02  0.93318606226E+02  0.47000000000E+01 0. -1.
        -11    1    1    2    0    0  0.14398403351E+02 -0.11602086592E+02  0.25425427809E+02  0.31438428898E+02  0.00000000000E+00 0.  1.
         11    1    1    2    0    0  0.15009390322E+02  0.79298432346E+02 -0.14217523069E+02  0.81949137473E+02  0.00000000000E+00 0. -1.
<mgrwt>
<rscale>  0 0.13630124E+03</rscale>
<asrwt>0</asrwt>
<pdfrwt beam="2">  1        1 0.13929281E-01 0.14516278E+03</pdfrwt>
<pdfrwt beam="1">  1       -1 0.30128257E-01 0.14516278E+03</pdfrwt>
<totfact> 0.40139976E+03</totfact>
</mgrwt>
</event>
<event>
 7    1  0.5400401E-006  0.1423666E+03  0.7546771E-02  0.1220873E+00
          1   -1    0    0  501    0  0.00000000000E+00  0.00000000000E+00  0.59119209381E+03  0.59119209381E+03  0.00000000000E+00 0. -1.
         -1   -1    0    0    0  501 -0.00000000000E+00 -0.00000000000E+00 -0.29904276761E+02  0.29904276761E+02  0.00000000000E+00 0.  1.
         23    2    1    2    0    0 -0.40206259043E+01  0.68034731769E+02  0.22598634181E+03  0.26709190613E+03  0.12499347774E+03 0.  0.
          5    1    3    3  502    0 -0.56466277474E+02  0.54692372615E+02  0.17787787966E+03  0.19453104170E+03  0.47000000000E+01 0. -1.
         -5    1    3    3    0  502  0.52445651570E+02  0.13342359154E+02  0.48108462150E+02  0.72560864430E+02  0.47000000000E+01 0. -1.
        -11    1    1    2    0    0 -0.42798274836E+02 -0.33335560326E+02  0.18540141589E+03  0.19317514572E+03  0.00000000000E+00 0. -1.
         11    1    1    2    0    0  0.46818900740E+02 -0.34699171443E+02  0.14990005936E+03  0.16082931872E+03  0.00000000000E+00 0.  1.
<mgrwt>
<rscale>  0 0.13453849E+03</rscale>
<asrwt>0</asrwt>
<pdfrwt beam="1">  1        1 0.90952621E-01 0.14236664E+03</pdfrwt>
<pdfrwt beam="2">  1       -1 0.46006584E-02 0.14236664E+03</pdfrwt>
<totfact> 0.69025950E+03</totfact>
</mgrwt>
</event>
<event>
 6    1  0.5400401E-006  0.3205211E+03  0.7546771E-02  0.1087320E+00
         -1   -1    0    0    0  501 -0.00000000000E+00  0.00000000000E+00  0.25067188112E+03  0.25067188112E+03  0.00000000000E+00 0.  1.
          1   -1    0    0  501    0  0.00000000000E+00 -0.00000000000E+00 -0.33234157147E+03  0.33234157147E+03  0.00000000000E+00 0. -1.
          5    1    1    2  502    0 -0.53832937011E+02  0.84934827391E+02 -0.77433321616E+02  0.12700361927E+03  0.47000000000E+01 0. -1.
         -5    1    1    2    0  502  0.99859303099E+02  0.12440411946E+03  0.11286298590E+03  0.19546971361E+03  0.47000000000E+01 0.  1.
        -11    1    1    2    0    0 -0.59917630770E+02 -0.11569817271E+03 -0.10022735042E+03  0.16438281972E+03  0.00000000000E+00 0. -1.
         11    1    1    2    0    0  0.13891264682E+02 -0.93640774134E+02 -0.16872004213E+02  0.96157299988E+02  0.00000000000E+00 0.  1.
<mgrwt>
<rscale>  0 0.29587702E+03</rscale>
<asrwt>0</asrwt>
<pdfrwt beam="2">  1        1 0.51129473E-01 0.32052112E+03</pdfrwt>
<pdfrwt beam="1">  1       -1 0.38564905E-01 0.32052112E+03</pdfrwt>
<totfact> 0.50840802E+02</totfact>
</mgrwt>
</event>
<event>
 7    1  0.5400401E-006  0.1348825E+03  0.7546771E-02  0.1231700E+00
          1   -1    0    0  501    0  0.00000000000E+00  0.00000000000E+00  0.40540442878E+02  0.40540442878E+02  0.00000000000E+00 0. -1.
         -1   -1    0    0    0  501 -0.00000000000E+00 -0.00000000000E+00 -0.39493878069E+03  0.39493878069E+03  0.00000000000E+00 0.  1.
         23    2    1    2    0    0 -0.75312849565E+01 -0.50102442287E+02 -0.26077181283E+03  0.29359022853E+03  0.12500523568E+03 0.  0.
          5    1    3    3  502    0 -0.41361227242E+01  0.28266157056E+02 -0.17453380223E+03  0.17691868547E+03  0.47000000000E+01 0.  1.
         -5    1    3    3    0  502 -0.33951622323E+01 -0.78368599343E+02 -0.86238010593E+02  0.11667154306E+03  0.47000000000E+01 0.  1.
        -11    1    1    2    0    0  0.14556101409E+02  0.74044761095E+02 -0.46706081465E+02  0.88746632497E+02  0.00000000000E+00 0. -1.
         11    1    1    2    0    0 -0.70248164520E+01 -0.23942318808E+02 -0.46920443518E+02  0.53142362537E+02  0.00000000000E+00 0.  1.
<mgrwt>
<rscale>  0 0.12718043E+03</rscale>
<asrwt>0</asrwt>
<pdfrwt beam="1">  1        1 0.62369910E-02 0.13488248E+03</pdfrwt>
<pdfrwt beam="2">  1       -1 0.60759814E-01 0.13488248E+03</pdfrwt>
<totfact> 0.33398730E+03</totfact>
</mgrwt>
</event>
<event>
 7    1  0.5400401E-006  0.1335244E+03  0.7546771E-02  0.1234569E+00
          4   -1    0    0  501    0  0.00000000000E+00  0.00000000000E+00  0.75560303664E+03  0.75560303664E+03  0.00000000000E+00 0. -1.
         -4   -1    0    0    0  501 -0.00000000000E+00 -0.00000000000E+00 -0.18852912144E+02  0.18852912144E+02  0.00000000000E+00 0.  1.
         23    2    1    2    0    0  0.39801195339E+02  0.24894254924E+02  0.37021406810E+03  0.39355714057E+03  0.12499963037E+03 0.  0.
          5    1    3    3  502    0 -0.35479406551E+02  0.43002489208E+02  0.15317590451E+03  0.16307344999E+03  0.47000000000E+01 0. -1.
         -5    1    3    3    0  502  0.75280601890E+02 -0.18108234283E+02  0.21703816359E+03  0.23048369058E+03  0.47000000000E+01 0. -1.
        -11    1    1    2    0    0  0.24445768391E+02  0.12537225518E+02  0.70405396643E+02  0.75575773184E+02  0.00000000000E+00 0.  1.
         11    1    1    2    0    0 -0.64246963730E+02 -0.37431480442E+02  0.29613065975E+03  0.30532303503E+03  0.00000000000E+00 0. -1.
<mgrwt>
<rscale>  0 0.12532043E+03</rscale>
<asrwt>0</asrwt>
<pdfrwt beam="1">  1        4 0.11624660E+00 0.13352440E+03</pdfrwt>
<pdfrwt beam="2">  1       -4 0.29004486E-02 0.13352440E+03</pdfrwt>
<totfact> 0.56484671E+02</totfact>
</mgrwt>
</event>
<event>
 7    1  0.5400401E-006  0.1566051E+03  0.7546771E-02  0.1201651E+00
          4   -1    0    0  501    0  0.00000000000E+00  0.00000000000E+00  0.49500933995E+03  0.49500933995E+03  0.00000000000E+00 0. -1.
         -4   -1    0    0    0  501 -0.00000000000E+00 -0.00000000000E+00 -0.41074179010E+02  0.41074179010E+02  0.00000000000E+00 0.  1.
         23    2    1    2    0    0 -0.56091202212E+02 -0.75856719230E+02  0.24266023813E+03  0.28880639922E+03  0.12499872097E+03 0.  0.
          5    1    3    3  502    0 -0.33078174265E+02 -0.10502646552E+03  0.13189430788E+03  0.17188054726E+03  0.47000000000E+01 0.  1.
         -5    1    3    3    0  502 -0.23013027947E+02  0.29169746294E+02  0.11076593025E+03  0.11692585196E+03  0.47000000000E+01 0.  1.
        -11    1    1    2    0    0  0.39395345948E+02  0.74748261665E+02  0.21422538789E+03  0.23028637112E+03  0.00000000000E+00 0. -1.
         11    1    1    2    0    0  0.16695856265E+02  0.11084575641E+01 -0.29504650818E+01  0.16990748623E+02  0.00000000000E+00 0.  1.
<mgrwt>
<rscale>  0 0.14904556E+03</rscale>
<asrwt>0</asrwt>
<pdfrwt beam="1">  1        4 0.76155279E-01 0.15660506E+03</pdfrwt>
<pdfrwt beam="2">  1       -4 0.63191048E-02 0.15660506E+03</pdfrwt>
<totfact> 0.44140816E+02</totfact>
</mgrwt>
</event>
<event>
 7    1  0.5426558E-006  0.1468620E+03  0.7546771E-02  0.1208916E+00
          3   -1    0    0  501    0  0.00000000000E+00  0.00000000000E+00  0.49351378642E+03  0.49351378642E+03  0.00000000000E+00 0. -1.
         -3   -1    0    0    0  501 -0.00000000000E+00 -0.00000000000E+00 -0.48463243693E+02  0.48463243693E+02  0.00000000000E+00 0.  1.
         23    2    1    2    0    0  0.74837348939E+02 -0.18520957774E+02  0.11656832790E+03  0.18750097475E+03  0.12499914315E+03 0.  0.
          5    1    3    3  502    0  0.91818530076E+02 -0.16035732847E+02  0.28395997959E+02  0.97551063005E+02  0.47000000000E+01 0. -1.
         -5    1    3    3    0  502 -0.16981181137E+02 -0.24852249277E+01  0.88172329936E+02  0.89949911740E+02  0.47000000000E+01 0. -1.
        -11    1    1    2    0    0 -0.32446674762E+02 -0.45403702889E+02  0.15692949405E+03  0.16655674421E+03  0.00000000000E+00 0. -1.
         11    1    1    2    0    0 -0.42390674177E+02  0.63924660663E+02  0.17155272078E+03  0.18791931115E+03  0.00000000000E+00 0.  1.
<mgrwt>
<rscale>  0 0.14333099E+03</rscale>
<asrwt>0</asrwt>
<pdfrwt beam="1">  1        3 0.75925195E-01 0.14686198E+03</pdfrwt>
<pdfrwt beam="2">  1       -3 0.74558840E-02 0.14686198E+03</pdfrwt>
<totfact> 0.46987042E+02</totfact>
</mgrwt>
</event>
<event>
 7    1  0.5400401E-006  0.1346961E+03  0.7546771E-02  0.1232910E+00
         -1   -1    0    0    0  501 -0.00000000000E+00  0.00000000000E+00  0.16814438818E+02  0.16814438818E+02  0.00000000000E+00 0.  1.
          1   -1    0    0  501    0  0.00000000000E+00 -0.00000000000E+00 -0.85166659007E+03  0.85166659007E+03  0.00000000000E+00 0. -1.
         23    2    1    2    0    0  0.49824088516E+02  0.59771620683E+01 -0.45207733565E+03  0.47171703686E+03  0.12499951675E+03 0.  0.
          5    1    3    3  502    0  0.77177032781E+02 -0.70049259153E+00 -0.42629722912E+03  0.43325304689E+03  0.47000000000E+01 0.  1.
         -5    1    3    3    0  502 -0.27352944265E+02  0.66776546598E+01 -0.25780106529E+02  0.38463989970E+02  0.47000000000E+01 0.  1.
        -11    1    1    2    0    0 -0.28100299473E+02 -0.44434864998E+02 -0.13121191676E+03  0.14135293119E+03  0.00000000000E+00 0.  1.
         11    1    1    2    0    0 -0.21723789043E+02  0.38457702929E+02 -0.25156289884E+03  0.25541106084E+03  0.00000000000E+00 0. -1.
<mgrwt>
<rscale>  0 0.12639214E+03</rscale>
<asrwt>0</asrwt>
<pdfrwt beam="2">  1        1 0.13102564E+00 0.13469612E+03</pdfrwt>
<pdfrwt beam="1">  1       -1 0.25868365E-02 0.13469612E+03</pdfrwt>
<totfact> 0.94332818E+03</totfact>
</mgrwt>
</event>
<event>
 7    1  0.5400401E-006  0.1299479E+03  0.7546771E-02  0.1241869E+00
          2   -1    0    0  501    0  0.00000000000E+00  0.00000000000E+00  0.19900411812E+03  0.19900411812E+03  0.00000000000E+00 0. -1.
         -2   -1    0    0    0  501 -0.00000000000E+00 -0.00000000000E+00 -0.69333239518E+02  0.69333239518E+02  0.00000000000E+00 0.  1.
         23    2    1    2    0    0 -0.28375319852E+02  0.21330703080E+02  0.39059930863E+02  0.13569136288E+03  0.12500524025E+03 0.  0.
          5    1    3    3  502    0 -0.65441452644E+02  0.48741747494E+02  0.13724676936E+02  0.82878214447E+02  0.47000000000E+01 0.  1.
         -5    1    3    3    0  502  0.37066132792E+02 -0.27411044414E+02  0.25335253926E+02  0.52813148434E+02  0.47000000000E+01 0.  1.
        -11    1    1    2    0    0  0.78254935314E+01 -0.22231838293E+02  0.10495508834E+03  0.10756887817E+03  0.00000000000E+00 0. -1.
         11    1    1    2    0    0  0.20549826321E+02  0.90113521274E+00 -0.14344140601E+02  0.25077116582E+02  0.00000000000E+00 0.  1.
<mgrwt>
<rscale>  0 0.12074777E+03</rscale>
<asrwt>0</asrwt>
<pdfrwt beam="1">  1        2 0.30616018E-01 0.12994794E+03</pdfrwt>
<pdfrwt beam="2">  1       -2 0.10666652E-01 0.12994794E+03</pdfrwt>
<totfact> 0.96465780E+03</totfact>
</mgrwt>
</event>
<event>
 7    1  0.5400401E-006  0.1195540E+03  0.7546771E-02  0.1256306E+00
         -2   -1    0    0    0  501 -0.00000000000E+00  0.00000000000E+00  0.64220718006E+02  0.64220718006E+02  0.00000000000E+00 0.  1.
          2   -1    0    0  501    0  0.00000000000E+00 -0.00000000000E+00 -0.18022799877E+03  0.18022799877E+03  0.00000000000E+00 0. -1.
         23    2    1    2    0    0 -0.67052220423E+00  0.23267995342E+02 -0.46869144851E+02  0.12841288849E+03  0.11726595407E+03 0.  0.
          5    1    3    3  502    0 -0.49471348121E+02 -0.91901152822E+01 -0.47866174279E+02  0.69606990626E+02  0.47000000000E+01 0. -1.
         -5    1    3    3    0  502  0.48800825917E+02  0.32458110624E+02  0.99702942830E+00  0.58805897860E+02  0.47000000000E+01 0.  1.
        -11    1    1    2    0    0 -0.15989163176E+02  0.29332842110E+02 -0.44408401329E+02  0.55571351197E+02  0.00000000000E+00 0.  1.
         11    1    1    2    0    0  0.16659685380E+02 -0.52600837452E+02 -0.24729734586E+02  0.60464477095E+02  0.00000000000E+00 0. -1.
<mgrwt>
<rscale>  0 0.11233483E+03</rscale>
<asrwt>0</asrwt>
<pdfrwt beam="2">  1        2 0.27727384E-01 0.11955398E+03</pdfrwt>
<pdfrwt beam="1">  1       -2 0.98801105E-02 0.11955398E+03</pdfrwt>
<totfact> 0.12029653E+04</totfact>
</mgrwt>
</event>
<event>
 7    1  0.5400401E-006  0.1154137E+03  0.7546771E-02  0.1260624E+00
         -1   -1    0    0    0  501 -0.00000000000E+00  0.00000000000E+00  0.28440157566E+02  0.28440157566E+02  0.00000000000E+00 0.  1.
          1   -1    0    0  501    0  0.00000000000E+00 -0.00000000000E+00 -0.43228160585E+03  0.43228160585E+03  0.00000000000E+00 0. -1.
         23    2    1    2    0    0 -0.18691594346E+02  0.21744859943E+02 -0.14744152387E+03  0.18724135346E+03  0.11179493214E+03 0.  0.
          5    1    3    3  502    0  0.32513553778E+02  0.23608062882E+02 -0.12449419518E+03  0.13090212545E+03  0.47000000000E+01 0. -1.
         -5    1    3    3    0  502 -0.51205148123E+02 -0.18632029393E+01 -0.22947328693E+02  0.56339228018E+02  0.47000000000E+01 0.  1.
        -11    1    1    2    0    0 -0.34982629546E+02 -0.21796236737E+02 -0.12114389978E+03  0.12796368532E+03  0.00000000000E+00 0.  1.
         11    1    1    2    0    0  0.53674223892E+02  0.51376794267E-01 -0.13525602463E+03  0.14551672463E+03  0.00000000000E+00 0. -1.
<mgrwt>
<rscale>  0 0.10997090E+03</rscale>
<asrwt>0</asrwt>
<pdfrwt beam="2">  1        1 0.66504862E-01 0.11541370E+03</pdfrwt>
<pdfrwt beam="1">  1       -1 0.43754089E-02 0.11541370E+03</pdfrwt>
<totfact> 0.11030082E+04</totfact>
</mgrwt>
</event>
<event>
 7    1  0.5400401E-006  0.1789634E+03  0.7546771E-02  0.1173587E+00
         -1   -1    0    0    0  501 -0.00000000000E+00  0.00000000000E+00  0.11286947252E+03  0.11286947252E+03  0.00000000000E+00 0.  1.
          1   -1    0    0  501    0  0.00000000000E+00 -0.00000000000E+00 -0.27666941012E+03  0.27666941012E+03  0.00000000000E+00 0. -1.
         23    2    1    2    0    0 -0.61823642208E+02  0.11217322724E+03 -0.31840271080E+02  0.18177374400E+03  0.12499158172E+03 0.  0.
          5    1    3    3  502    0  0.53251253494E+01 -0.19902675151E+02 -0.25883200335E+02  0.33414121232E+02  0.47000000000E+01 0. -1.
         -5    1    3    3    0  502 -0.67148767557E+02  0.13207590239E+03 -0.59570707452E+01  0.14835962277E+03  0.47000000000E+01 0. -1.
        -11    1    1    2    0    0  0.24651742102E+02 -0.10921527671E+03 -0.60748687788E+02  0.12738166322E+03  0.00000000000E+00 0.  1.
         11    1    1    2    0    0  0.37171900106E+02 -0.29579505282E+01 -0.71210978735E+02  0.80383475424E+02  0.00000000000E+00 0. -1.
<mgrwt>
<rscale>  0 0.17415125E+03</rscale>
<asrwt>0</asrwt>
<pdfrwt beam="2">  1        1 0.42564524E-01 0.17896338E+03</pdfrwt>
<pdfrwt beam="1">  1       -1 0.17364535E-01 0.17896338E+03</pdfrwt>
<totfact> 0.24250880E+03</totfact>
</mgrwt>
</event>
<event>
 7    1  0.5400401E-006  0.1449555E+03  0.7546771E-02  0.1218552E+00
         -1   -1    0    0    0  501 -0.00000000000E+00  0.00000000000E+00  0.10939117134E+04  0.10939117134E+04  0.00000000000E+00 0.  1.
          1   -1    0    0  501    0  0.00000000000E+00 -0.00000000000E+00 -0.16127076492E+02  0.16127076492E+02  0.00000000000E+00 0. -1.
         23    2    1    2    0    0 -0.14875144830E+02  0.71876995194E+02  0.73403059665E+03  0.74820653658E+03  0.12499812874E+03 0.  0.
          5    1    3    3  502    0  0.14878092729E+01  0.96251865048E+02  0.67762699696E+03  0.68444654438E+03  0.47000000000E+01 0.  1.
         -5    1    3    3    0  502 -0.16362954103E+02 -0.24374869854E+02  0.56403599691E+02  0.63759992201E+02  0.47000000000E+01 0.  1.
        -11    1    1    2    0    0  0.44608874777E+02 -0.22028450884E+02  0.21368148985E+03  0.21939686293E+03  0.00000000000E+00 0. -1.
         11    1    1    2    0    0 -0.29733729947E+02 -0.49848544310E+02  0.13007255045E+03  0.14243539043E+03  0.00000000000E+00 0.  1.
<mgrwt>
<rscale>  0 0.13618814E+03</rscale>
<asrwt>0</asrwt>
<pdfrwt beam="2">  1        1 0.24810895E-02 0.14495553E+03</pdfrwt>
<pdfrwt beam="1">  1       -1 0.16829405E+00 0.14495553E+03</pdfrwt>
<totfact> 0.12098384E+03</totfact>
</mgrwt>
</event>
<event>
 7    1  0.5905406E-006  0.2258366E+03  0.7546771E-02  0.1132844E+00
         -3   -1    0    0    0  501 -0.00000000000E+00  0.00000000000E+00  0.27549120301E+03  0.27549120301E+03  0.00000000000E+00 0.  1.
          3   -1    0    0  501    0  0.00000000000E+00 -0.00000000000E+00 -0.20991588124E+03  0.20991588124E+03  0.00000000000E+00 0. -1.
         23    2    1    2    0    0 -0.10214251739E+03 -0.15793603498E+03  0.13791432749E+03  0.26461769442E+03  0.12500110988E+03 0.  0.
          5    1    3    3  502    0 -0.79700273496E+02 -0.17806393069E+03  0.12282914837E+03  0.23058184382E+03  0.47000000000E+01 0. -1.
         -5    1    3    3    0  502 -0.22442243898E+02  0.20127895718E+02  0.15085179115E+02  0.34035850601E+02  0.47000000000E+01 0. -1.
        -11    1    1    2    0    0  0.60916755220E+02  0.54787546329E+02 -0.72957816540E+02  0.10970583072E+03  0.00000000000E+00 0.  1.
         11    1    1    2    0    0  0.41225762175E+02  0.10314848865E+03  0.61881082029E+00  0.11108355911E+03  0.00000000000E+00 0. -1.
<mgrwt>
<rscale>  0 0.22139898E+03</rscale>
<asrwt>0</asrwt>
<pdfrwt beam="2">  1        3 0.32294751E-01 0.22583658E+03</pdfrwt>
<pdfrwt beam="1">  1       -3 0.42383262E-01 0.22583658E+03</pdfrwt>
<totfact> 0.12811016E+02</totfact>
</mgrwt>
</event>
<event>
 6    1  0.5400401E-006  0.6193225E+03  0.7546771E-02  0.9866109E-01
          4   -1    0    0  501    0  0.00000000000E+00  0.00000000000E+00  0.39821962696E+03  0.39821962696E+03  0.00000000000E+00 0. -1.
         -4   -1    0    0    0  501 -0.00000000000E+00 -0.00000000000E+00 -0.24079701842E+03  0.24079701842E+03  0.00000000000E+00 0.  1.
          5    1    1    2  502    0  0.21517850771E+03 -0.28595964624E+02  0.74762536503E+01  0.21724986477E+03  0.47000000000E+01 0. -1.
         -5    1    1    2    0  502  0.20804429900E+02 -0.88337076190E+01 -0.67069997465E+02  0.70931891655E+02  0.47000000000E+01 0.  1.
        -11    1    1    2    0    0 -0.33302445932E+02  0.30466057344E+02  0.11558157879E+03  0.12408196852E+03  0.00000000000E+00 0.  1.
         11    1    1    2    0    0 -0.20268049168E+03  0.69636148994E+01  0.10143477357E+03  0.22675292044E+03  0.00000000000E+00 0. -1.
<mgrwt>
<rscale>  0 0.61932253E+03</rscale>
<asrwt>0</asrwt>
<pdfrwt beam="1">  1        4 0.61264558E-01 0.61932253E+03</pdfrwt>
<pdfrwt beam="2">  1       -4 0.37045695E-01 0.61932253E+03</pdfrwt>
<totfact> 0.35181732E+01</totfact>
</mgrwt>
</event>
<event>
 7    1  0.5400401E-006  0.1366957E+03  0.7546771E-02  0.1229627E+00
         -2   -1    0    0    0  501 -0.00000000000E+00  0.00000000000E+00  0.10745250645E+03  0.10745250645E+03  0.00000000000E+00 0. -1.
          2   -1    0    0  501    0  0.00000000000E+00 -0.00000000000E+00 -0.14256636904E+03  0.14256636904E+03  0.00000000000E+00 0.  1.
         23    2    1    2    0    0 -0.54606263771E+02 -0.88076481476E+01  0.24232653960E+01  0.13671717276E+03  0.12500517750E+03 0.  0.
          5    1    3    3  502    0  0.11923184905E+02  0.35585113886E+02  0.33750560244E+02  0.50691744745E+02  0.47000000000E+01 0.  1.
         -5    1    3    3    0  502 -0.66529448675E+02 -0.44392762034E+02 -0.31327294848E+02  0.86025428011E+02  0.47000000000E+01 0.  1.
        -11    1    1    2    0    0 -0.76757213829E+00 -0.15186655985E+02 -0.49496174621E+02  0.51779291122E+02  0.00000000000E+00 0.  1.
         11    1    1    2    0    0  0.55373835909E+02  0.23994304132E+02  0.11959046641E+02  0.61522411612E+02  0.00000000000E+00 0. -1.
<mgrwt>
<rscale>  0 0.12854747E+03</rscale>
<asrwt>0</asrwt>
<pdfrwt beam="2">  1        2 0.21933288E-01 0.13669570E+03</pdfrwt>
<pdfrwt beam="1">  1       -2 0.16531155E-01 0.13669570E+03</pdfrwt>
<totfact> 0.68894087E+03</totfact>
</mgrwt>
</event>
<event>
 7    1  0.5400401E-006  0.2027568E+03  0.7546771E-02  0.1151482E+00
         -2   -1    0    0    0  501 -0.00000000000E+00  0.00000000000E+00  0.68227313282E+02  0.68227313282E+02  0.00000000000E+00 0.  1.
          2   -1    0    0  501    0  0.00000000000E+00 -0.00000000000E+00 -0.57903295909E+03  0.57903295909E+03  0.00000000000E+00 0. -1.
         23    2    1    2    0    0 -0.72802535275E+02 -0.14207290340E+03 -0.19295923994E+03  0.27989923126E+03  0.12500156941E+03 0.  0.
          5    1    3    3  502    0 -0.29267519893E+00 -0.83265611464E+02 -0.16062832055E+03  0.18098838381E+03  0.47000000000E+01 0. -1.
         -5    1    3    3    0  502 -0.72509860076E+02 -0.58807291937E+02 -0.32330919390E+02  0.98910847443E+02  0.47000000000E+01 0. -1.
        -11    1    1    2    0    0  0.66637381457E+02  0.47246434310E+02 -0.19956226423E+03  0.21563363250E+03  0.00000000000E+00 0. -1.
         11    1    1    2    0    0  0.61651538173E+01  0.94826469091E+02 -0.11828414163E+03  0.15172740861E+03  0.00000000000E+00 0.  1.
<mgrwt>
<rscale>  0 0.19794794E+03</rscale>
<asrwt>0</asrwt>
<pdfrwt beam="2">  1        2 0.89081989E-01 0.20275678E+03</pdfrwt>
<pdfrwt beam="1">  1       -2 0.10496510E-01 0.20275678E+03</pdfrwt>
<totfact> 0.31917687E+03</totfact>
</mgrwt>
</event>
<event>
 6    1  0.5400401E-006  0.1852162E+03  0.7546771E-02  0.1194242E+00
          1   -1    0    0  501    0  0.00000000000E+00  0.00000000000E+00  0.12022190907E+03  0.12022190907E+03  0.00000000000E+00 0. -1.
         -1   -1    0    0    0  501 -0.00000000000E+00 -0.00000000000E+00 -0.19423662631E+03  0.19423662631E+03  0.00000000000E+00 0.  1.
          5    1    1    2  502    0 -0.69414588731E+02  0.41228007528E+02 -0.74127748411E+01  0.81210670261E+02  0.47000000000E+01 0. -1.
         -5    1    1    2    0  502  0.63529278572E+02 -0.57947400352E+02 -0.10363370558E+03  0.13474385098E+03  0.47000000000E+01 0.  1.
        -11    1    1    2    0    0  0.46298270458E+02 -0.28288441697E+01  0.19040530819E+02  0.50140542683E+02  0.00000000000E+00 0.  1.
         11    1    1    2    0    0 -0.40412960299E+02  0.19548236994E+02  0.17991232367E+02  0.48363471461E+02  0.00000000000E+00 0. -1.
<mgrwt>
<rscale>  0 0.15518539E+03</rscale>
<asrwt>0</asrwt>
<pdfrwt beam="1">  1        1 0.18495678E-01 0.18521618E+03</pdfrwt>
<pdfrwt beam="2">  1       -1 0.29882558E-01 0.18521618E+03</pdfrwt>
<totfact> 0.28527250E+03</totfact>
</mgrwt>
</event>
<event>
 7    1  0.5400401E-006  0.1852036E+03  0.7546771E-02  0.1168044E+00
         -4   -1    0    0    0  501 -0.00000000000E+00  0.00000000000E+00  0.27479380404E+03  0.27479380404E+03  0.00000000000E+00 0.  1.
          4   -1    0    0  501    0  0.00000000000E+00 -0.00000000000E+00 -0.11117622635E+03  0.11117622635E+03  0.00000000000E+00 0. -1.
         23    2    1    2    0    0 -0.13434712814E+03  0.25049975155E+02  0.84080998756E+02  0.20339609877E+03  0.12499482610E+03 0.  0.
          5    1    3    3  502    0 -0.42500903909E+02 -0.47271856603E+02  0.51501359046E+02  0.81947759233E+02  0.47000000000E+01 0.  1.
         -5    1    3    3    0  502 -0.91846224228E+02  0.72321831758E+02  0.32579639710E+02  0.12144833954E+03  0.47000000000E+01 0.  1.
        -11    1    1    2    0    0  0.49271313619E+02  0.18538564999E+02 -0.76461046351E+01  0.53195898846E+02  0.00000000000E+00 0.  1.
         11    1    1    2    0    0  0.85075814518E+02 -0.43588540154E+02  0.87182683575E+02  0.12937803277E+03  0.00000000000E+00 0. -1.
<mgrwt>
<rscale>  0 0.17975124E+03</rscale>
<asrwt>0</asrwt>
<pdfrwt beam="2">  1        4 0.17104035E-01 0.18520356E+03</pdfrwt>
<pdfrwt beam="1">  1       -4 0.42275970E-01 0.18520356E+03</pdfrwt>
<totfact> 0.28601655E+02</totfact>
</mgrwt>
</event>
<event>
 7    1  0.5400401E-006  0.1395805E+03  0.7546771E-02  0.1225134E+00
          1   -1    0    0  501    0  0.00000000000E+00  0.00000000000E+00  0.57037752037E+02  0.57037752037E+02  0.00000000000E+00 0. -1.
         -1   -1    0    0    0  501 -0.00000000000E+00 -0.00000000000E+00 -0.50122077611E+03  0.50122077611E+03  0.00000000000E+00 0.  1.
         23    2    1    2    0    0  0.52798366846E+02  0.32701900699E+02 -0.42377109311E+03  0.44616661231E+03  0.12500249889E+03 0.  0.
          5    1    3    3  502    0  0.16034263277E+02  0.72775541816E+02 -0.15678650131E+03  0.17365907428E+03  0.47000000000E+01 0.  1.
         -5    1    3    3    0  502  0.36764103568E+02 -0.40073641117E+02 -0.26698459180E+03  0.27250753803E+03  0.47000000000E+01 0.  1.
        -11    1    1    2    0    0 -0.42927704758E+02 -0.43564217226E+02  0.23707829040E+02  0.65594893217E+02  0.00000000000E+00 0. -1.
         11    1    1    2    0    0 -0.98706620878E+01  0.10862316528E+02 -0.44119760004E+02  0.46497022627E+02  0.00000000000E+00 0.  1.
<mgrwt>
<rscale>  0 0.13157742E+03</rscale>
<asrwt>0</asrwt>
<pdfrwt beam="1">  1        1 0.87750390E-02 0.13958047E+03</pdfrwt>
<pdfrwt beam="2">  1       -1 0.77110887E-01 0.13958047E+03</pdfrwt>
<totfact> 0.13231010E+03</totfact>
</mgrwt>
</event>
<event>
 6    1  0.5400401E-006  0.2567004E+03  0.7546771E-02  0.1112245E+00
          1   -1    0    0  501    0  0.00000000000E+00  0.00000000000E+00  0.10106283335E+04  0.10106283335E+04  0.00000000000E+00 0. -1.
         -1   -1    0    0    0  501 -0.00000000000E+00 -0.00000000000E+00 -0.61649138936E+02  0.61649138936E+02  0.00000000000E+00 0.  1.
          5    1    1    2  502    0  0.89753679587E+02 -0.72946078634E+02  0.34309144209E+03  0.36209208914E+03  0.47000000000E+01 0. -1.
         -5    1    1    2    0  502  0.72250765389E+02 -0.73687104838E+02  0.71855405434E+02  0.12583819694E+03  0.47000000000E+01 0.  1.
        -11    1    1    2    0    0 -0.15162955603E+03  0.10767103491E+03  0.49259593613E+03  0.52653141436E+03  0.00000000000E+00 0.  1.
         11    1    1    2    0    0 -0.10374888949E+02  0.38962148561E+02  0.41436410906E+02  0.57815771983E+02  0.00000000000E+00 0. -1.
<mgrwt>
<rscale>  0 0.25168395E+03</rscale>
<asrwt>0</asrwt>
<pdfrwt beam="1">  1        1 0.15548127E+00 0.25670037E+03</pdfrwt>
<pdfrwt beam="2">  1       -1 0.94844836E-02 0.25670037E+03</pdfrwt>
<totfact> 0.10409518E+03</totfact>
</mgrwt>
</event>
<event>
 6    1  0.5400401E-006  0.1895953E+03  0.7546771E-02  0.1170935E+00
          1   -1    0    0  501    0  0.00000000000E+00  0.00000000000E+00  0.50225987378E+03  0.50225987378E+03  0.00000000000E+00 0. -1.
         -1   -1    0    0    0  501 -0.00000000000E+00 -0.00000000000E+00 -0.81249659377E+02  0.81249659377E+02  0.00000000000E+00 0.  1.
          5    1    1    2  502    0  0.19279240190E+02 -0.35610690628E+02  0.10025840555E+03  0.10822960904E+03  0.47000000000E+01 0. -1.
         -5    1    1    2    0  502 -0.46968337801E+02 -0.71995775815E+02 -0.34070488096E+02  0.92586741222E+02  0.47000000000E+01 0.  1.
        -11    1    1    2    0    0  0.31190621565E+02  0.85388684416E+01  0.16917006589E+03  0.17223320917E+03  0.00000000000E+00 0. -1.
         11    1    1    2    0    0 -0.35015239547E+01  0.99067598001E+02  0.18565223106E+03  0.21045997373E+03  0.00000000000E+00 0.  1.
<mgrwt>
<rscale>  0 0.17680147E+03</rscale>
<asrwt>0</asrwt>
<pdfrwt beam="1">  1        1 0.77270748E-01 0.18959527E+03</pdfrwt>
<pdfrwt beam="2">  1       -1 0.12499948E-01 0.18959527E+03</pdfrwt>
<totfact> 0.19115585E+03</totfact>
</mgrwt>
</event>
<event>
 7    1  0.5400401E-006  0.1347742E+03  0.7546771E-02  0.1232001E+00
         -1   -1    0    0    0  501 -0.00000000000E+00  0.00000000000E+00  0.12573132794E+03  0.12573132794E+03  0.00000000000E+00 0.  1.
          1   -1    0    0  501    0  0.00000000000E+00 -0.00000000000E+00 -0.11660492718E+03  0.11660492718E+03  0.00000000000E+00 0. -1.
         23    2    1    2    0    0  0.12243132081E+02  0.48879324564E+02  0.16957376017E+02  0.13583685245E+03  0.12500006092E+03 0.  0.
          5    1    3    3  502    0  0.37337929231E+02  0.60157036967E+02 -0.33273611958E+02  0.78372273851E+02  0.47000000000E+01 0.  1.
         -5    1    3    3    0  502 -0.25094797149E+02 -0.11277712403E+02  0.50230987975E+02  0.57464578602E+02  0.47000000000E+01 0.  1.
        -11    1    1    2    0    0  0.26220748378E+02 -0.12419520307E+02  0.29729969539E+02  0.41540862040E+02  0.00000000000E+00 0.  1.
         11    1    1    2    0    0 -0.38463880460E+02 -0.36459804256E+02 -0.37560944797E+02  0.64958540628E+02  0.00000000000E+00 0. -1.
<mgrwt>
<rscale>  0 0.12698361E+03</rscale>
<asrwt>0</asrwt>
<pdfrwt beam="2">  1        1 0.17939220E-01 0.13477425E+03</pdfrwt>
<pdfrwt beam="1">  1       -1 0.19343281E-01 0.13477425E+03</pdfrwt>
<totfact> 0.59586608E+03</totfact>
</mgrwt>
</event>
<event>
 7    1  0.5400401E-006  0.1582390E+03  0.7546771E-02  0.1198430E+00
         -2   -1    0    0    0  501 -0.00000000000E+00  0.00000000000E+00  0.21392338919E+02  0.21392338919E+02  0.00000000000E+00 0.  1.
          2   -1    0    0  501    0  0.00000000000E+00 -0.00000000000E+00 -0.99933353489E+03  0.99933353489E+03  0.00000000000E+00 0. -1.
         23    2    1    2    0    0 -0.46057615252E+02  0.85392367697E+02 -0.56310628862E+03  0.58491732349E+03  0.12500569047E+03 0.  0.
          5    1    3    3  502    0 -0.58140639970E+02  0.56960836711E+02 -0.15079585317E+03  0.17142447394E+03  0.47000000000E+01 0. -1.
         -5    1    3    3    0  502  0.12083024718E+02  0.28431530986E+02 -0.41231043545E+03  0.41349284955E+03  0.47000000000E+01 0. -1.
        -11    1    1    2    0    0 -0.16738612421E+02 -0.45733787703E+02 -0.87366651066E+02  0.10002345826E+03  0.00000000000E+00 0.  1.
         11    1    1    2    0    0  0.62796227673E+02 -0.39658579993E+02 -0.32746825628E+03  0.33578509206E+03  0.00000000000E+00 0. -1.
<mgrwt>
<rscale>  0 0.15167459E+03</rscale>
<asrwt>0</asrwt>
<pdfrwt beam="2">  1        2 0.15374361E+00 0.15823901E+03</pdfrwt>
<pdfrwt beam="1">  1       -2 0.32911292E-02 0.15823901E+03</pdfrwt>
<totfact> 0.94306544E+03</totfact>
</mgrwt>
</event>
<event>
 7    1  0.5400401E-006  0.2014250E+03  0.7546771E-02  0.1155353E+00
         -2   -1    0    0    0  501 -0.00000000000E+00  0.00000000000E+00  0.54538959618E+02  0.54538959618E+02  0.00000000000E+00 0.  1.
          2   -1    0    0  501    0  0.00000000000E+00 -0.00000000000E+00 -0.77826298753E+03  0.77826298753E+03  0.00000000000E+00 0. -1.
         23    2    1    2    0    0 -0.10789530381E+03  0.11535037380E+03 -0.20902768598E+03  0.29028368685E+03  0.12499976010E+03 0.  0.
          5    1    3    3  502    0 -0.12845542857E+03  0.60111867151E+02 -0.13909983333E+03  0.19870854872E+03  0.47000000000E+01 0.  1.
         -5    1    3    3    0  502  0.20560124763E+02  0.55238506654E+02 -0.69927852656E+02  0.91575138136E+02  0.47000000000E+01 0.  1.
        -11    1    1    2    0    0  0.13646033377E+02 -0.25643701985E+02 -0.34979177418E+02  0.45468192522E+02  0.00000000000E+00 0.  1.
         11    1    1    2    0    0  0.94249270431E+02 -0.89706671820E+02 -0.47971716451E+03  0.49705006777E+03  0.00000000000E+00 0. -1.
<mgrwt>
<rscale>  0 0.19348792E+03</rscale>
<asrwt>0</asrwt>
<pdfrwt beam="2">  1        2 0.11973275E+00 0.20142504E+03</pdfrwt>
<pdfrwt beam="1">  1       -2 0.83906101E-02 0.20142504E+03</pdfrwt>
<totfact> 0.31926748E+03</totfact>
</mgrwt>
</event>
<event>
 7    1  0.5400401E-006  0.1303601E+03  0.7546771E-02  0.1238736E+00
         -2   -1    0    0    0  501 -0.00000000000E+00  0.00000000000E+00  0.16444793305E+03  0.16444793305E+03  0.00000000000E+00 0.  1.
          2   -1    0    0  501    0  0.00000000000E+00 -0.00000000000E+00 -0.84697100651E+02  0.84697100651E+02  0.00000000000E+00 0. -1.
         23    2    1    2    0    0 -0.25883040406E+02  0.41531516590E+02  0.65528506387E+02  0.14590315882E+03  0.12082610625E+03 0.  0.
          5    1    3    3  502    0  0.16704783877E+02 -0.30321266742E+02  0.49716886343E+02  0.60764198414E+02  0.47000000000E+01 0. -1.
         -5    1    3    3    0  502 -0.42587824283E+02  0.71852783333E+02  0.15811620044E+02  0.85138960401E+02  0.47000000000E+01 0.  1.
        -11    1    1    2    0    0  0.21178769211E+02  0.17696587938E+02  0.30998304130E+02  0.41504269044E+02  0.00000000000E+00 0.  1.
         11    1    1    2    0    0  0.47042711947E+01 -0.59228104529E+02 -0.16775978115E+02  0.61737605843E+02  0.00000000000E+00 0. -1.
<mgrwt>
<rscale>  0 0.12268241E+03</rscale>
<asrwt>0</asrwt>
<pdfrwt beam="2">  1        2 0.13030323E-01 0.13036007E+03</pdfrwt>
<pdfrwt beam="1">  1       -2 0.25299682E-01 0.13036007E+03</pdfrwt>
<totfact> 0.60789455E+03</totfact>
</mgrwt>
</event>
<event>
 7    1  0.5400401E-006  0.1306742E+03  0.7546771E-02  0.1240114E+00
         -3   -1    0    0    0  501 -0.00000000000E+00  0.00000000000E+00  0.54774191378E+02  0.54774191378E+02  0.00000000000E+00 0.  1.
          3   -1    0    0  501    0  0.00000000000E+00 -0.00000000000E+00 -0.24155752245E+03  0.24155752245E+03  0.00000000000E+00 0. -1.
         23    2    1    2    0    0 -0.29953966613E+02  0.23552922317E+02 -0.11744069342E+03  0.17569308589E+03  0.12499505468E+03 0.  0.
          5    1    3    3  502    0 -0.34105295342E+02  0.70980572279E+02 -0.51443671385E+02  0.94180433940E+02  0.47000000000E+01 0.  1.
         -5    1    3    3    0  502  0.41513287297E+01 -0.47427649962E+02 -0.65997022034E+02  0.81512651953E+02  0.47000000000E+01 0.  1.
        -11    1    1    2    0    0  0.13958048697E+02 -0.21123388545E+02 -0.90516551529E+02  0.93990801506E+02  0.00000000000E+00 0. -1.
         11    1    1    2    0    0  0.15995917916E+02 -0.24295337719E+01  0.21173913878E+02  0.26647826426E+02  0.00000000000E+00 0.  1.
<mgrwt>
<rscale>  0 0.12182646E+03</rscale>
<asrwt>0</asrwt>
<pdfrwt beam="2">  1        3 0.37162695E-01 0.13067419E+03</pdfrwt>
<pdfrwt beam="1">  1       -3 0.84267988E-02 0.13067419E+03</pdfrwt>
<totfact> 0.16008499E+03</totfact>
</mgrwt>
</event>
<event>
 7    1  0.5400401E-006  0.3476485E+03  0.7546771E-02  0.1063584E+00
         -3   -1    0    0    0  501 -0.00000000000E+00  0.00000000000E+00  0.21574070728E+03  0.21574070728E+03  0.00000000000E+00 0.  1.
          3   -1    0    0  501    0  0.00000000000E+00 -0.00000000000E+00 -0.14005181654E+03  0.14005181654E+03  0.00000000000E+00 0. -1.
         23    2    1    2    0    0  0.48244020457E+02 -0.71141486279E+02  0.65908694083E+02  0.16540033613E+03  0.12499887462E+03 0.  0.
          5    1    3    3  502    0  0.76086468970E+02 -0.80035837034E+02  0.75983885114E+02  0.13412876935E+03  0.47000000000E+01 0. -1.
         -5    1    3    3    0  502 -0.27842448513E+02  0.88943507553E+01 -0.10075191031E+02  0.31271566780E+02  0.47000000000E+01 0. -1.
        -11    1    1    2    0    0 -0.70852948329E+02 -0.29277666468E+02  0.35212914958E+02  0.84363922506E+02  0.00000000000E+00 0.  1.
         11    1    1    2    0    0  0.22608927872E+02  0.10041915275E+03 -0.25432718300E+02  0.10602826518E+03  0.00000000000E+00 0. -1.
<mgrwt>
<rscale>  0 0.34764855E+03</rscale>
<asrwt>0</asrwt>
<pdfrwt beam="2">  1        3 0.21546433E-01 0.34764855E+03</pdfrwt>
<pdfrwt beam="1">  1       -3 0.33190878E-01 0.34764855E+03</pdfrwt>
<totfact> 0.45195785E+02</totfact>
</mgrwt>
</event>
<event>
 7    1  0.5400401E-006  0.1270372E+03  0.7546771E-02  0.1247603E+00
         -2   -1    0    0    0  501 -0.00000000000E+00  0.00000000000E+00  0.32050240835E+02  0.32050240835E+02  0.00000000000E+00 0.  1.
          2   -1    0    0  501    0  0.00000000000E+00 -0.00000000000E+00 -0.42744465265E+03  0.42744465265E+03  0.00000000000E+00 0. -1.
         23    2    1    2    0    0 -0.17005651937E+02 -0.58505497486E+01 -0.14593524066E+03  0.19348267645E+03  0.12575782477E+03 0.  0.
          5    1    3    3  502    0  0.19572302062E+02  0.18276889659E+02 -0.14690717648E+03  0.14940190161E+03  0.47000000000E+01 0.  1.
         -5    1    3    3    0  502 -0.36577953999E+02 -0.24127439408E+02  0.97193582331E+00  0.44080774839E+02  0.47000000000E+01 0.  1.
        -11    1    1    2    0    0  0.53867240368E+02  0.11486642912E+02 -0.14755120374E+03  0.15749596907E+03  0.00000000000E+00 0. -1.
         11    1    1    2    0    0 -0.36861588431E+02 -0.56360931632E+01 -0.10190796743E+03  0.10851624797E+03  0.00000000000E+00 0.  1.
<mgrwt>
<rscale>  0 0.11730959E+03</rscale>
<asrwt>0</asrwt>
<pdfrwt beam="2">  1        2 0.65760719E-01 0.12703721E+03</pdfrwt>
<pdfrwt beam="1">  1       -2 0.49308060E-02 0.12703721E+03</pdfrwt>
<totfact> 0.13941425E+04</totfact>
</mgrwt>
</event>
<event>
 7    1  0.5400401E-006  0.1525283E+03  0.7546771E-02  0.1206116E+00
          2   -1    0    0  501    0  0.00000000000E+00  0.00000000000E+00  0.11792165172E+03  0.11792165172E+03  0.00000000000E+00 0. -1.
         -2   -1    0    0    0  501 -0.00000000000E+00 -0.00000000000E+00 -0.17131419510E+03  0.17131419510E+03  0.00000000000E+00 0.  1.
         23    2    1    2    0    0  0.86344384271E+02  0.13703377404E+02 -0.57156657188E+02  0.16288577440E+03  0.12498702650E+03 0.  0.
          5    1    3    3  502    0 -0.23045860787E+01  0.25619719856E+02 -0.67817245808E+02  0.72683904624E+02  0.47000000000E+01 0.  1.
         -5    1    3    3    0  502  0.88648970350E+02 -0.11916342452E+02  0.10660588620E+02  0.90201869777E+02  0.47000000000E+01 0.  1.
        -11    1    1    2    0    0 -0.10364741537E+02  0.31362895656E+02  0.16793045786E+02  0.37054898162E+02  0.00000000000E+00 0. -1.
         11    1    1    2    0    0 -0.75979642734E+02 -0.45066273060E+02 -0.13028931984E+02  0.89295174260E+02  0.00000000000E+00 0.  1.
<mgrwt>
<rscale>  0 0.14549852E+03</rscale>
<asrwt>0</asrwt>
<pdfrwt beam="1">  1        2 0.18141793E-01 0.15252833E+03</pdfrwt>
<pdfrwt beam="2">  1       -2 0.26356030E-01 0.15252833E+03</pdfrwt>
<totfact> 0.38822986E+03</totfact>
</mgrwt>
</event>
<event>
 6    1  0.5400401E-006  0.2153689E+03  0.7546771E-02  0.1141509E+00
         -2   -1    0    0    0  501 -0.00000000000E+00  0.00000000000E+00  0.56606401788E+02  0.56606401788E+02  0.00000000000E+00 0.  1.
          2   -1    0    0  501    0  0.00000000000E+00 -0.00000000000E+00 -0.76134061790E+03  0.76134061790E+03  0.00000000000E+00 0. -1.
          5    1    1    2  502    0  0.10418664479E+03 -0.30853191284E+02 -0.26689502393E+03  0.28820447631E+03  0.47000000000E+01 0. -1.
         -5    1    1    2    0  502  0.67393436418E+02  0.36988881876E+02 -0.40190552531E+02  0.86875906714E+02  0.47000000000E+01 0. -1.
        -11    1    1    2    0    0 -0.14067486256E+03 -0.18882425410E+02 -0.21800405757E+03  0.26013790970E+03  0.00000000000E+00 0.  1.
         11    1    1    2    0    0 -0.30905218642E+02  0.12746734819E+02 -0.17964458208E+03  0.18272872697E+03  0.00000000000E+00 0. -1.
<mgrwt>
<rscale>  0 0.21007254E+03</rscale>
<asrwt>0</asrwt>
<pdfrwt beam="2">  1        2 0.11712931E+00 0.21536885E+03</pdfrwt>
<pdfrwt beam="1">  1       -2 0.87086783E-02 0.21536885E+03</pdfrwt>
<totfact> 0.31006650E+03</totfact>
</mgrwt>
</event>
<event>
 7    1  0.5400401E-006  0.1395128E+03  0.7546771E-02  0.1224719E+00
         -1   -1    0    0    0  501 -0.00000000000E+00  0.00000000000E+00  0.26914130716E+02  0.26914130716E+02  0.00000000000E+00 0.  1.
          1   -1    0    0  501    0  0.00000000000E+00 -0.00000000000E+00 -0.61091884395E+03  0.61091884395E+03  0.00000000000E+00 0. -1.
         23    2    1    2    0    0 -0.98155362268E+01 -0.61060883617E+02 -0.25745916415E+03  0.29282939073E+03  0.12505620583E+03 0.  0.
          5    1    3    3  502    0  0.24096616972E+02  0.32010735763E+02 -0.75274629963E+02  0.85403126814E+02  0.47000000000E+01 0.  1.
         -5    1    3    3    0  502 -0.33912153198E+02 -0.93071619380E+02 -0.18218453418E+03  0.20742626392E+03  0.47000000000E+01 0.  1.
        -11    1    1    2    0    0 -0.55147116876E+01 -0.19552739026E+02 -0.23592688291E+02  0.31134170765E+02  0.00000000000E+00 0.  1.
         11    1    1    2    0    0  0.15330247914E+02  0.80613622643E+02 -0.30295286080E+03  0.31386941317E+03  0.00000000000E+00 0. -1.
<mgrwt>
<rscale>  0 0.13186166E+03</rscale>
<asrwt>0</asrwt>
<pdfrwt beam="2">  1        1 0.93987506E-01 0.13951283E+03</pdfrwt>
<pdfrwt beam="1">  1       -1 0.41406359E-02 0.13951283E+03</pdfrwt>
<totfact> 0.77001379E+03</totfact>
</mgrwt>
</event>
<event>
 6    1  0.5400401E-006  0.1353703E+03  0.7546771E-02  0.1237594E+00
         -1   -1    0    0    0  501 -0.00000000000E+00  0.00000000000E+00  0.20194021763E+02  0.20194021763E+02  0.00000000000E+00 0.  1.
          1   -1    0    0  501    0  0.00000000000E+00 -0.00000000000E+00 -0.65468214034E+03  0.65468214034E+03  0.00000000000E+00 0. -1.
          5    1    1    2  502    0  0.29002710521E+02 -0.12191085253E+02 -0.27358371347E+03  0.27542679254E+03  0.47000000000E+01 0. -1.
         -5    1    1    2    0  502 -0.58719875144E+02  0.19640559740E+02 -0.68438012925E+02  0.92410101920E+02  0.47000000000E+01 0.  1.
        -11    1    1    2    0    0 -0.16710898771E+02 -0.33113480917E+02 -0.82145117409E+02  0.90130888547E+02  0.00000000000E+00 0.  1.
         11    1    1    2    0    0  0.46428063394E+02  0.25664006429E+02 -0.21032127477E+03  0.21690837909E+03  0.00000000000E+00 0. -1.
<mgrwt>
<rscale>  0 0.12339850E+03</rscale>
<asrwt>0</asrwt>
<pdfrwt beam="2">  1        1 0.10072032E+00 0.13537031E+03</pdfrwt>
<pdfrwt beam="1">  1       -1 0.31067729E-02 0.13537031E+03</pdfrwt>
<totfact> 0.10635540E+04</totfact>
</mgrwt>
</event>
<event>
 7    1  0.5400401E-006  0.1267782E+03  0.7546771E-02  0.1249456E+00
         -2   -1    0    0    0  501 -0.00000000000E+00  0.00000000000E+00  0.38038024337E+03  0.38038024337E+03  0.00000000000E+00 0.  1.
          2   -1    0    0  501    0  0.00000000000E+00 -0.00000000000E+00 -0.31108587979E+02  0.31108587979E+02  0.00000000000E+00 0. -1.
         23    2    1    2    0    0 -0.65148994854E+01  0.20130982109E+02  0.22586989098E+03  0.25901722318E+03  0.12500005559E+03 0.  0.
          5    1    3    3  502    0 -0.12402930017E+02 -0.89823264523E+01 -0.11519413211E+02  0.19730730910E+02  0.47000000000E+01 0.  1.
         -5    1    3    3    0  502  0.58880305311E+01  0.29113308561E+02  0.23738930419E+03  0.23928649227E+03  0.47000000000E+01 0.  1.
        -11    1    1    2    0    0  0.37688563638E+02 -0.21246577163E+02  0.26646386515E+02  0.50812151938E+02  0.00000000000E+00 0. -1.
         11    1    1    2    0    0 -0.31173664153E+02  0.11155950545E+01  0.96755377897E+02  0.10165945623E+03  0.00000000000E+00 0.  1.
<mgrwt>
<rscale>  0 0.11622579E+03</rscale>
<asrwt>0</asrwt>
<pdfrwt beam="2">  1        2 0.47859369E-02 0.12677821E+03</pdfrwt>
<pdfrwt beam="1">  1       -2 0.58520034E-01 0.12677821E+03</pdfrwt>
<totfact> 0.43861019E+03</totfact>
</mgrwt>
</event>
<event>
 7    1  0.5400401E-006  0.1293955E+03  0.7546771E-02  0.1240627E+00
          1   -1    0    0  501    0  0.00000000000E+00  0.00000000000E+00  0.23249406846E+03  0.23249406846E+03  0.00000000000E+00 0. -1.
         -1   -1    0    0    0  501 -0.00000000000E+00 -0.00000000000E+00 -0.58220945661E+02  0.58220945661E+02  0.00000000000E+00 0.  1.
         23    2    1    2    0    0  0.28590121861E+02 -0.17337347105E+02  0.75988640751E+02  0.15005824853E+03  0.12500090302E+03 0.  0.
          5    1    3    3  502    0  0.69323485362E+02 -0.39742946407E+02  0.33053843978E+02  0.86601928463E+02  0.47000000000E+01 0. -1.
         -5    1    3    3    0  502 -0.40733363501E+02  0.22405599302E+02  0.42934796773E+02  0.63456320065E+02  0.47000000000E+01 0. -1.
        -11    1    1    2    0    0 -0.52648005525E+02 -0.18133948660E+02  0.41176593230E+02  0.69254345783E+02  0.00000000000E+00 0.  1.
         11    1    1    2    0    0  0.24057883663E+02  0.35471295765E+02  0.57107888813E+02  0.71402419807E+02  0.00000000000E+00 0. -1.
<mgrwt>
<rscale>  0 0.12150974E+03</rscale>
<asrwt>0</asrwt>
<pdfrwt beam="1">  1        1 0.35768318E-01 0.12939553E+03</pdfrwt>
<pdfrwt beam="2">  1       -1 0.89570687E-02 0.12939553E+03</pdfrwt>
<totfact> 0.82668146E+03</totfact>
</mgrwt>
</event>
<event>
 7    1  0.5400401E-006  0.1765841E+03  0.7546771E-02  0.1176810E+00
          1   -1    0    0  501    0  0.00000000000E+00  0.00000000000E+00  0.16520109689E+03  0.16520109689E+03  0.00000000000E+00 0. -1.
         -1   -1    0    0    0  501 -0.00000000000E+00 -0.00000000000E+00 -0.19863822433E+03  0.19863822433E+03  0.00000000000E+00 0.  1.
         23    2    1    2    0    0  0.11210388661E+03 -0.54682209084E+02 -0.90476597047E+02  0.19841360865E+03  0.12499808038E+03 0.  0.
          5    1    3    3  502    0  0.77778014768E+02 -0.81063357030E+02 -0.18015678428E+02  0.11387423810E+03  0.47000000000E+01 0.  1.
         -5    1    3    3    0  502  0.34325871846E+02  0.26381147946E+02 -0.72460918620E+02  0.84539370545E+02  0.47000000000E+01 0.  1.
        -11    1    1    2    0    0 -0.89504144843E+02  0.23929840417E+02  0.78683920940E+02  0.12155158831E+03  0.00000000000E+00 0. -1.
         11    1    1    2    0    0 -0.22599741771E+02  0.30752368667E+02 -0.21644451330E+02  0.43874124266E+02  0.00000000000E+00 0.  1.
<mgrwt>
<rscale>  0 0.17099887E+03</rscale>
<asrwt>0</asrwt>
<pdfrwt beam="1">  1        1 0.25415553E-01 0.17658410E+03</pdfrwt>
<pdfrwt beam="2">  1       -1 0.30559727E-01 0.17658410E+03</pdfrwt>
<totfact> 0.18278278E+03</totfact>
</mgrwt>
</event>
<event>
 7    1  0.5400401E-006  0.1341175E+03  0.7546771E-02  0.1233664E+00
          2   -1    0    0  501    0  0.00000000000E+00  0.00000000000E+00  0.35429848510E+03  0.35429848510E+03  0.00000000000E+00 0. -1.
         -2   -1    0    0    0  501 -0.00000000000E+00 -0.00000000000E+00 -0.54593532126E+02  0.54593532126E+02  0.00000000000E+00 0.  1.
         23    2    1    2    0    0  0.68970790495E+01  0.48122419857E+02  0.58812611481E+02  0.14644601184E+03  0.12499669645E+03 0.  0.
          5    1    3    3  502    0 -0.27257436275E+02  0.79779582933E+02  0.23011122801E+02  0.87517720822E+02  0.47000000000E+01 0. -1.
         -5    1    3    3    0  502  0.34154515324E+02 -0.31657163077E+02  0.35801488680E+02  0.58928291022E+02  0.47000000000E+01 0. -1.
        -11    1    1    2    0    0 -0.32835212503E+02 -0.74889334637E-01  0.29583342811E+02  0.44196503939E+02  0.00000000000E+00 0.  1.
         11    1    1    2    0    0  0.25938133453E+02 -0.48047530522E+02  0.21130899868E+03  0.21824950144E+03  0.00000000000E+00 0. -1.
<mgrwt>
<rscale>  0 0.12590321E+03</rscale>
<asrwt>0</asrwt>
<pdfrwt beam="1">  1        2 0.54507458E-01 0.13411753E+03</pdfrwt>
<pdfrwt beam="2">  1       -2 0.83990052E-02 0.13411753E+03</pdfrwt>
<totfact> 0.76022958E+03</totfact>
</mgrwt>
</event>
<event>
 7    1  0.5400401E-006  0.1278694E+03  0.7546771E-02  0.1246036E+00
          1   -1    0    0  501    0  0.00000000000E+00  0.00000000000E+00  0.17826800235E+03  0.17826800235E+03  0.00000000000E+00 0. -1.
         -1   -1    0    0    0  501 -0.00000000000E+00 -0.00000000000E+00 -0.82119227408E+02  0.82119227408E+02  0.00000000000E+00 0.  1.
         23    2    1    2    0    0  0.26811948578E+02  0.10425144643E+01  0.22444411925E+01  0.12788913971E+03  0.12502250644E+03 0.  0.
          5    1    3    3  502    0  0.36807322890E+02 -0.30340370251E+01 -0.56672458339E+02  0.67807388485E+02  0.47000000000E+01 0.  1.
         -5    1    3    3    0  502 -0.99953743120E+01  0.40765514895E+01  0.58916899532E+02  0.60081751224E+02  0.47000000000E+01 0.  1.
        -11    1    1    2    0    0  0.18691023546E+02  0.14292989180E+02  0.78682598795E+02  0.82125484802E+02  0.00000000000E+00 0. -1.
         11    1    1    2    0    0 -0.45502972124E+02 -0.15335503644E+02  0.15221734953E+02  0.50372605245E+02  0.00000000000E+00 0.  1.
<mgrwt>
<rscale>  0 0.11823603E+03</rscale>
<asrwt>0</asrwt>
<pdfrwt beam="1">  1        1 0.27425846E-01 0.12786944E+03</pdfrwt>
<pdfrwt beam="2">  1       -1 0.12633727E-01 0.12786944E+03</pdfrwt>
<totfact> 0.67844461E+03</totfact>
</mgrwt>
</event>
<event>
 7    1  0.5400401E-006  0.1728263E+03  0.7546771E-02  0.1182068E+00
          2   -1    0    0  501    0  0.00000000000E+00  0.00000000000E+00  0.44343224856E+03  0.44343224856E+03  0.00000000000E+00 0.  1.
         -2   -1    0    0    0  501 -0.00000000000E+00 -0.00000000000E+00 -0.58240211984E+02  0.58240211984E+02  0.00000000000E+00 0. -1.
         23    2    1    2    0    0 -0.11911683679E+03 -0.74055650581E+01  0.18437160418E+03  0.25270897234E+03  0.12500109228E+03 0.  0.
          5    1    3    3  502    0 -0.66256493237E+02 -0.11369294692E+01  0.62290546766E+01  0.66724108288E+02  0.47000000000E+01 0. -1.
         -5    1    3    3    0  502 -0.52860343551E+02 -0.62686355889E+01  0.17814254950E+03  0.18598486405E+03  0.47000000000E+01 0. -1.
        -11    1    1    2    0    0  0.61191829697E+02  0.24930966758E+02  0.16708922267E+03  0.17967971911E+03  0.00000000000E+00 0.  1.
         11    1    1    2    0    0  0.57925007091E+02 -0.17525401700E+02  0.33731209729E+02  0.69283769102E+02  0.00000000000E+00 0. -1.
<mgrwt>
<rscale>  0 0.16601587E+03</rscale>
<asrwt>0</asrwt>
<pdfrwt beam="1">  1        2 0.68220344E-01 0.17282632E+03</pdfrwt>
<pdfrwt beam="2">  1       -2 0.89600329E-02 0.17282632E+03</pdfrwt>
<totfact> 0.54822560E+03</totfact>
</mgrwt>
</event>
<event>
 7    1  0.5400401E-006  0.1294040E+03  0.7546771E-02  0.1242513E+00
         -1   -1    0    0    0  501 -0.00000000000E+00  0.00000000000E+00  0.56691798557E+02  0.56691798557E+02  0.00000000000E+00 0.  1.
          1   -1    0    0  501    0  0.00000000000E+00 -0.00000000000E+00 -0.27693063873E+03  0.27693063873E+03  0.00000000000E+00 0. -1.
         23    2    1    2    0    0 -0.26705261226E+02 -0.20283990560E+02 -0.51904655941E+02  0.13942556466E+03  0.12498313295E+03 0.  0.
          5    1    3    3  502    0  0.22389855728E+01 -0.48559425894E+01 -0.89230824146E+02  0.89514374335E+02  0.47000000000E+01 0.  1.
         -5    1    3    3    0  502 -0.28944246799E+02 -0.15428047971E+02  0.37326168206E+02  0.49911190327E+02  0.47000000000E+01 0.  1.
        -11    1    1    2    0    0 -0.30243984417E+02  0.76532830262E+01 -0.26855050586E+02  0.41163880727E+02  0.00000000000E+00 0.  1.
         11    1    1    2    0    0  0.56949245643E+02  0.12630707534E+02 -0.14147913365E+03  0.15303299190E+03  0.00000000000E+00 0. -1.
<mgrwt>
<rscale>  0 0.12035472E+03</rscale>
<asrwt>0</asrwt>
<pdfrwt beam="2">  1        1 0.42604714E-01 0.12940400E+03</pdfrwt>
<pdfrwt beam="1">  1       -1 0.87218152E-02 0.12940400E+03</pdfrwt>
<totfact> 0.69354250E+03</totfact>
</mgrwt>
</event>
<event>
 7    1  0.5400401E-006  0.1334450E+03  0.7546771E-02  0.1235412E+00
          2   -1    0    0  501    0  0.00000000000E+00  0.00000000000E+00  0.65374966056E+02  0.65374966056E+02  0.00000000000E+00 0. -1.
         -2   -1    0    0    0  501 -0.00000000000E+00 -0.00000000000E+00 -0.21275045609E+03  0.21275045609E+03  0.00000000000E+00 0.  1.
         23    2    1    2    0    0  0.56920620134E+01  0.46367441670E+02 -0.75423935376E+02  0.15328518917E+03  0.12500095989E+03 0.  0.
          5    1    3    3  502    0 -0.36853089291E+02  0.63631598677E+02 -0.77690813462E+02  0.10707512800E+03  0.47000000000E+01 0. -1.
         -5    1    3    3    0  502  0.42545151305E+02 -0.17264157007E+02  0.22668780863E+01  0.46210061166E+02  0.47000000000E+01 0. -1.
        -11    1    1    2    0    0 -0.12862455465E+02 -0.10330526166E+02  0.19937108562E+02  0.25877612510E+02  0.00000000000E+00 0. -1.
         11    1    1    2    0    0  0.71703934512E+01 -0.36036915504E+02 -0.91888663223E+02  0.98962620469E+02  0.00000000000E+00 0.  1.
<mgrwt>
<rscale>  0 0.12478088E+03</rscale>
<asrwt>0</asrwt>
<pdfrwt beam="1">  1        2 0.10057687E-01 0.13344504E+03</pdfrwt>
<pdfrwt beam="2">  1       -2 0.32730839E-01 0.13344504E+03</pdfrwt>
<totfact> 0.52567185E+03</totfact>
</mgrwt>
</event>
<event>
 7    1  0.5400401E-006  0.1462422E+03  0.7546771E-02  0.1215329E+00
         -2   -1    0    0    0  501 -0.00000000000E+00  0.00000000000E+00  0.35433789189E+02  0.35433789189E+02  0.00000000000E+00 0. -1.
          2   -1    0    0  501    0  0.00000000000E+00 -0.00000000000E+00 -0.64763849057E+03  0.64763849057E+03  0.00000000000E+00 0.  1.
         23    2    1    2    0    0  0.74593993599E+02 -0.14016079956E+02 -0.16431516235E+03  0.21996872347E+03  0.12500420933E+03 0.  0.
          5    1    3    3  502    0  0.57491877041E+02  0.10313354765E+02 -0.17763146032E+03  0.18704733868E+03  0.47000000000E+01 0.  1.
         -5    1    3    3    0  502  0.17102116557E+02 -0.24329434721E+02  0.13316297976E+02  0.32921384788E+02  0.47000000000E+01 0.  1.
        -11    1    1    2    0    0 -0.69488572678E+02  0.47283225862E+02 -0.32378777093E+03  0.33451888704E+03  0.00000000000E+00 0.  1.
         11    1    1    2    0    0 -0.51054209202E+01 -0.33267145905E+02 -0.12410176810E+03  0.12858466925E+03  0.00000000000E+00 0. -1.
<mgrwt>
<rscale>  0 0.13852377E+03</rscale>
<asrwt>0</asrwt>
<pdfrwt beam="2">  1        2 0.99636685E-01 0.14624215E+03</pdfrwt>
<pdfrwt beam="1">  1       -2 0.54513525E-02 0.14624215E+03</pdfrwt>
<totfact> 0.76282726E+03</totfact>
</mgrwt>
</event>
<event>
 7    1  0.5400401E-006  0.2484643E+03  0.7546771E-02  0.1115712E+00
         -2   -1    0    0    0  501 -0.00000000000E+00  0.00000000000E+00  0.68650113599E+02  0.68650113599E+02  0.00000000000E+00 0.  1.
          2   -1    0    0  501    0  0.00000000000E+00 -0.00000000000E+00 -0.94200174527E+03  0.94200174527E+03  0.00000000000E+00 0. -1.
         23    2    1    2    0    0  0.17769680160E+03  0.13248665638E+03 -0.30195411502E+03  0.39103810713E+03  0.11227486912E+03 0.  0.
          5    1    3    3  502    0  0.42843584431E+02  0.16883306103E+02 -0.15084656847E+03  0.15778908699E+03  0.47000000000E+01 0. -1.
         -5    1    3    3    0  502  0.13485321716E+03  0.11560335028E+03 -0.15110754654E+03  0.23324902014E+03  0.47000000000E+01 0.  1.
        -11    1    1    2    0    0 -0.20152519448E+02 -0.59567598054E+02 -0.11102002490E+03  0.12759258876E+03  0.00000000000E+00 0.  1.
         11    1    1    2    0    0 -0.15754428215E+03 -0.72919058324E+02 -0.46037749176E+03  0.49202116298E+03  0.00000000000E+00 0. -1.
<mgrwt>
<rscale>  0 0.24622756E+03</rscale>
<asrwt>0</asrwt>
<pdfrwt beam="2">  1        2 0.14492335E+00 0.24846431E+03</pdfrwt>
<pdfrwt beam="1">  1       -2 0.10561555E-01 0.24846431E+03</pdfrwt>
<totfact> 0.17340031E+03</totfact>
</mgrwt>
</event>
<event>
 6    1  0.5400401E-006  0.1506057E+03  0.7546771E-02  0.1220514E+00
          1   -1    0    0  501    0  0.00000000000E+00  0.00000000000E+00  0.12835183574E+03  0.12835183574E+03  0.00000000000E+00 0. -1.
         -1   -1    0    0    0  501 -0.00000000000E+00 -0.00000000000E+00 -0.24071850353E+03  0.24071850353E+03  0.00000000000E+00 0.  1.
          5    1    1    2  502    0 -0.55302478865E+02  0.43700197025E+02 -0.61497350226E+02  0.93659412092E+02  0.47000000000E+01 0. -1.
         -5    1    1    2    0  502  0.32057651359E+02 -0.67310144264E+02 -0.13038460080E+03  0.15026836879E+03  0.47000000000E+01 0.  1.
        -11    1    1    2    0    0  0.43157253713E+02 -0.20781264004E+02  0.36894225947E+02  0.60461503371E+02  0.00000000000E+00 0.  1.
         11    1    1    2    0    0 -0.19912426207E+02  0.44391211243E+02  0.42621057295E+02  0.64681055016E+02  0.00000000000E+00 0. -1.
<mgrwt>
<rscale>  0 0.13479156E+03</rscale>
<asrwt>0</asrwt>
<pdfrwt beam="1">  1        1 0.19746436E-01 0.15060571E+03</pdfrwt>
<pdfrwt beam="2">  1       -1 0.37033616E-01 0.15060571E+03</pdfrwt>
<totfact> 0.18020531E+03</totfact>
</mgrwt>
</event>
<event>
 7    1  0.5400401E-006  0.1688864E+03  0.7546771E-02  0.1185668E+00
          2   -1    0    0  501    0  0.00000000000E+00  0.00000000000E+00  0.23084925116E+03  0.23084925116E+03  0.00000000000E+00 0. -1.
         -2   -1    0    0    0  501 -0.00000000000E+00 -0.00000000000E+00 -0.12270785348E+03  0.12270785348E+03  0.00000000000E+00 0.  1.
         23    2    1    2    0    0 -0.23431755398E+02 -0.11112488399E+03 -0.54257965862E+01  0.16897355073E+03  0.12499933830E+03 0.  0.
          5    1    3    3  502    0 -0.38225947966E+02  0.10075557654E+02  0.19402066765E+02  0.44286229854E+02  0.47000000000E+01 0. -1.
         -5    1    3    3    0  502  0.14794192568E+02 -0.12120044164E+03 -0.24827863352E+02  0.12468732088E+03  0.47000000000E+01 0. -1.
        -11    1    1    2    0    0 -0.12975259751E+02 -0.88341214069E+01  0.40705588020E+00  0.15702380747E+02  0.00000000000E+00 0.  1.
         11    1    1    2    0    0  0.36407015149E+02  0.11995900540E+03  0.11316013839E+03  0.16888117316E+03  0.00000000000E+00 0. -1.
<mgrwt>
<rscale>  0 0.16271228E+03</rscale>
<asrwt>0</asrwt>
<pdfrwt beam="1">  1        2 0.35515269E-01 0.16888642E+03</pdfrwt>
<pdfrwt beam="2">  1       -2 0.18878131E-01 0.16888642E+03</pdfrwt>
<totfact> 0.32956913E+03</totfact>
</mgrwt>
</event>
<event>
 7    1  0.5400401E-006  0.2294318E+03  0.7546771E-02  0.1130037E+00
         -2   -1    0    0    0  501 -0.00000000000E+00  0.00000000000E+00  0.12274568629E+03  0.12274568629E+03  0.00000000000E+00 0.  1.
          2   -1    0    0  501    0  0.00000000000E+00 -0.00000000000E+00 -0.42385125625E+03  0.42385125625E+03  0.00000000000E+00 0. -1.
         23    2    1    2    0    0 -0.18967042023E+03 -0.32262136678E+02 -0.89490950619E+02  0.24626728505E+03  0.12499292649E+03 0.  0.
          5    1    3    3  502    0 -0.19988817278E+03 -0.36488376441E+02 -0.56196866784E+02  0.21087166967E+03  0.47000000000E+01 0. -1.
         -5    1    3    3    0  502  0.10217752554E+02  0.42262397628E+01 -0.33294083835E+02  0.35395615381E+02  0.47000000000E+01 0. -1.
        -11    1    1    2    0    0  0.55645795326E+02  0.22918941897E+02 -0.12968699304E+03  0.14297009687E+03  0.00000000000E+00 0. -1.
         11    1    1    2    0    0  0.13402462490E+03  0.93431947817E+01 -0.81927626294E+02  0.15735956062E+03  0.00000000000E+00 0.  1.
<mgrwt>
<rscale>  0 0.22523853E+03</rscale>
<asrwt>0</asrwt>
<pdfrwt beam="2">  1        2 0.65207886E-01 0.22943179E+03</pdfrwt>
<pdfrwt beam="1">  1       -2 0.18883952E-01 0.22943179E+03</pdfrwt>
<totfact> 0.17298023E+03</totfact>
</mgrwt>
</event>
<event>
 7    1  0.5400401E-006  0.1259845E+03  0.7546771E-02  0.1247673E+00
         -1   -1    0    0    0  501 -0.00000000000E+00  0.00000000000E+00  0.67124426946E+03  0.67124426946E+03  0.00000000000E+00 0.  1.
          1   -1    0    0  501    0  0.00000000000E+00 -0.00000000000E+00 -0.20955933212E+02  0.20955933212E+02  0.00000000000E+00 0. -1.
         23    2    1    2    0    0 -0.82727640524E+00 -0.15688757882E+02  0.49142386281E+03  0.50731597623E+03  0.12500106113E+03 0.  0.
          5    1    3    3  502    0  0.61492919915E+02 -0.12318407988E+02  0.22358810191E+03  0.23226461567E+03  0.47000000000E+01 0.  1.
         -5    1    3    3    0  502 -0.62320196320E+02 -0.33703498940E+01  0.26783576090E+03  0.27505136056E+03  0.47000000000E+01 0.  1.
        -11    1    1    2    0    0  0.33435401852E+02  0.16681685141E+02  0.14447444841E+03  0.14922825121E+03  0.00000000000E+00 0.  1.
         11    1    1    2    0    0 -0.32608125447E+02 -0.99292725853E+00  0.14390025027E+02  0.35655975235E+02  0.00000000000E+00 0. -1.
<mgrwt>
<rscale>  0 0.11726834E+03</rscale>
<asrwt>0</asrwt>
<pdfrwt beam="2">  1        1 0.32239902E-02 0.12598447E+03</pdfrwt>
<pdfrwt beam="1">  1       -1 0.10326833E+00 0.12598447E+03</pdfrwt>
<totfact> 0.27729163E+03</totfact>
</mgrwt>
</event>
<event>
 7    1  0.5400401E-006  0.1284470E+03  0.7546771E-02  0.1243993E+00
         -1   -1    0    0    0  501 -0.00000000000E+00  0.00000000000E+00  0.61102805211E+02  0.61102805211E+02  0.00000000000E+00 0.  1.
          1   -1    0    0  501    0  0.00000000000E+00 -0.00000000000E+00 -0.21158293024E+03  0.21158293024E+03  0.00000000000E+00 0. -1.
         23    2    1    2    0    0  0.29058260955E+02 -0.55195417167E+01 -0.64457548629E+02  0.14371294906E+03  0.12499515303E+03 0.  0.
          5    1    3    3  502    0 -0.69210762435E+01 -0.15697699827E+02 -0.94099942490E+02  0.95766425499E+02  0.47000000000E+01 0.  1.
         -5    1    3    3    0  502  0.35979337199E+02  0.10178158110E+02  0.29642393862E+02  0.47946523562E+02  0.47000000000E+01 0.  1.
        -11    1    1    2    0    0  0.17188760776E+02 -0.67715271013E+01 -0.78362882492E+02  0.80511169590E+02  0.00000000000E+00 0. -1.
         11    1    1    2    0    0 -0.46247021732E+02  0.12291068818E+02 -0.76596939041E+01  0.48461616796E+02  0.00000000000E+00 0.  1.
<mgrwt>
<rscale>  0 0.11945857E+03</rscale>
<asrwt>0</asrwt>
<pdfrwt beam="2">  1        1 0.32551219E-01 0.12844702E+03</pdfrwt>
<pdfrwt beam="1">  1       -1 0.94004318E-02 0.12844702E+03</pdfrwt>
<totfact> 0.86277810E+03</totfact>
</mgrwt>
</event>
<event>
 7    1  0.5400401E-006  0.1457763E+03  0.7546771E-02  0.1214816E+00
         -3   -1    0    0    0  501 -0.00000000000E+00  0.00000000000E+00  0.16659466346E+03  0.16659466346E+03  0.00000000000E+00 0.  1.
          3   -1    0    0  501    0  0.00000000000E+00 -0.00000000000E+00 -0.11059374436E+03  0.11059374436E+03  0.00000000000E+00 0. -1.
         23    2    1    2    0    0  0.22804036233E+02  0.71457563088E+02  0.28615926102E+01  0.14580437760E+03  0.12499808168E+03 0.  0.
          5    1    3    3  502    0  0.38312664903E+02  0.49095890109E+02  0.57303467897E+02  0.84758740851E+02  0.47000000000E+01 0. -1.
         -5    1    3    3    0  502 -0.15508628669E+02  0.22361672980E+02 -0.54441875287E+02  0.61045636752E+02  0.47000000000E+01 0. -1.
        -11    1    1    2    0    0 -0.36400853710E+02 -0.78378420897E+02  0.11677395540E+02  0.87204131667E+02  0.00000000000E+00 0. -1.
         11    1    1    2    0    0  0.13596817477E+02  0.69208578089E+01  0.41461930947E+02  0.44179898553E+02  0.00000000000E+00 0.  1.
<mgrwt>
<rscale>  0 0.13890039E+03</rscale>
<asrwt>0</asrwt>
<pdfrwt beam="2">  1        3 0.17014422E-01 0.14577629E+03</pdfrwt>
<pdfrwt beam="1">  1       -3 0.25629948E-01 0.14577629E+03</pdfrwt>
<totfact> 0.99853862E+02</totfact>
</mgrwt>
</event>
<event>
 7    1  0.6823114E-006  0.4891671E+03  0.7546771E-02  0.1016646E+00
          1   -1    0    0  501    0  0.00000000000E+00  0.00000000000E+00  0.12295920549E+04  0.12295920549E+04  0.00000000000E+00 0. -1.
         -1   -1    0    0    0  501 -0.00000000000E+00 -0.00000000000E+00 -0.48651181037E+02  0.48651181037E+02  0.00000000000E+00 0.  1.
         23    2    1    2    0    0 -0.11547699729E+03  0.14032988174E+03  0.40175610466E+03  0.45832329529E+03  0.12499945102E+03 0.  0.
          5    1    3    3  502    0 -0.32649882881E+02 -0.16975522953E+02  0.36352077060E+02  0.51939837680E+02  0.47000000000E+01 0.  1.
         -5    1    3    3    0  502 -0.82827114410E+02  0.15730540469E+03  0.36540402760E+03  0.40638345761E+03  0.47000000000E+01 0.  1.
        -11    1    1    2    0    0  0.13878785312E+03 -0.32084317792E+02  0.48907507288E+03  0.50939758395E+03  0.00000000000E+00 0. -1.
         11    1    1    2    0    0 -0.23310855829E+02 -0.10824556394E+03  0.29010969630E+03  0.31052235669E+03  0.00000000000E+00 0.  1.
<mgrwt>
<rscale>  0 0.48916707E+03</rscale>
<asrwt>0</asrwt>
<pdfrwt beam="1">  1        1 0.18916799E+00 0.48916707E+03</pdfrwt>
<pdfrwt beam="2">  1       -1 0.74847980E-02 0.48916707E+03</pdfrwt>
<totfact> 0.10326127E+03</totfact>
</mgrwt>
</event>
<event>
 6    1  0.5400401E-006  0.2994081E+03  0.7546771E-02  0.1154396E+00
         -1   -1    0    0    0  501 -0.00000000000E+00  0.00000000000E+00  0.15779926932E+03  0.15779926932E+03  0.00000000000E+00 0.  1.
          1   -1    0    0  501    0  0.00000000000E+00 -0.00000000000E+00 -0.25642055450E+03  0.25642055450E+03  0.00000000000E+00 0. -1.
          5    1    1    2  502    0 -0.51367205569E+02 -0.15889100571E+03 -0.17656599093E+02  0.16798448439E+03  0.47000000000E+01 0. -1.
         -5    1    1    2    0  502  0.12797860423E+02  0.12908782341E+03  0.20653271915E+02  0.13143857510E+03  0.47000000000E+01 0.  1.
        -11    1    1    2    0    0  0.28908224822E+02  0.16032095721E+02 -0.84775873095E+02  0.90992649234E+02  0.00000000000E+00 0. -1.
         11    1    1    2    0    0  0.96611203239E+01  0.13771086578E+02 -0.16842084900E+02  0.23804115091E+02  0.00000000000E+00 0.  1.
<mgrwt>
<rscale>  0 0.19457766E+03</rscale>
<asrwt>0</asrwt>
<pdfrwt beam="2">  1        1 0.39449316E-01 0.29940806E+03</pdfrwt>
<pdfrwt beam="1">  1       -1 0.24276811E-01 0.29940806E+03</pdfrwt>
<totfact> 0.15648845E+03</totfact>
</mgrwt>
</event>
<event>
 7    1  0.5400401E-006  0.1273197E+03  0.7546771E-02  0.1246016E+00
         -1   -1    0    0    0  501 -0.00000000000E+00  0.00000000000E+00  0.30761867227E+03  0.30761867227E+03  0.00000000000E+00 0.  1.
          1   -1    0    0  501    0  0.00000000000E+00 -0.00000000000E+00 -0.42390820920E+02  0.42390820920E+02  0.00000000000E+00 0. -1.
         23    2    1    2    0    0 -0.10348335113E+02 -0.21865272366E+02  0.19153649359E+03  0.22999245926E+03  0.12500049905E+03 0.  0.
          5    1    3    3  502    0  0.45711412649E+02  0.26037879222E+02  0.91125328436E+02  0.10532530505E+03  0.47000000000E+01 0. -1.
         -5    1    3    3    0  502 -0.56059747762E+02 -0.47903151588E+02  0.10041116516E+03  0.12466715421E+03  0.47000000000E+01 0. -1.
        -11    1    1    2    0    0  0.41796711024E+01 -0.36089431519E+02  0.25420900556E+02  0.44341164880E+02  0.00000000000E+00 0.  1.
         11    1    1    2    0    0  0.61686640103E+01  0.57954703885E+02  0.48270457206E+02  0.75675869053E+02  0.00000000000E+00 0. -1.
<mgrwt>
<rscale>  0 0.11824777E+03</rscale>
<asrwt>0</asrwt>
<pdfrwt beam="2">  1        1 0.65216650E-02 0.12731969E+03</pdfrwt>
<pdfrwt beam="1">  1       -1 0.47325948E-01 0.12731969E+03</pdfrwt>
<totfact> 0.49750806E+03</totfact>
</mgrwt>
</event>
<event>
 7    1  0.5400401E-006  0.1330570E+03  0.7546771E-02  0.1235725E+00
          2   -1    0    0  501    0  0.00000000000E+00  0.00000000000E+00  0.58432880866E+03  0.58432880866E+03  0.00000000000E+00 0. -1.
         -2   -1    0    0    0  501 -0.00000000000E+00 -0.00000000000E+00 -0.23691092268E+02  0.23691092268E+02  0.00000000000E+00 0.  1.
         23    2    1    2    0    0  0.27863774023E+02 -0.36089830878E+02  0.31610798914E+03  0.34297001646E+03  0.12500122237E+03 0.  0.
          5    1    3    3  502    0  0.63206029552E+01  0.44898137611E+02  0.76096889651E+02  0.88705238837E+02  0.47000000000E+01 0. -1.
         -5    1    3    3    0  502  0.21543171068E+02 -0.80987968489E+02  0.24001109949E+03  0.25426477762E+03  0.47000000000E+01 0. -1.
        -11    1    1    2    0    0 -0.55742750713E+02  0.27398690907E+01  0.10506441292E+03  0.11896760904E+03  0.00000000000E+00 0. -1.
         11    1    1    2    0    0  0.27878976690E+02  0.33349961787E+02  0.13946531433E+03  0.14608227543E+03  0.00000000000E+00 0.  1.
<mgrwt>
<rscale>  0 0.12458118E+03</rscale>
<asrwt>0</asrwt>
<pdfrwt beam="1">  1        2 0.89896729E-01 0.13305702E+03</pdfrwt>
<pdfrwt beam="2">  1       -2 0.36447839E-02 0.13305702E+03</pdfrwt>
<totfact> 0.15567425E+04</totfact>
</mgrwt>
</event>
<event>
 7    1  0.5400401E-006  0.1419585E+03  0.7546771E-02  0.1221485E+00
          3   -1    0    0  501    0  0.00000000000E+00  0.00000000000E+00  0.31937468497E+03  0.31937468497E+03  0.00000000000E+00 0. -1.
         -3   -1    0    0    0  501 -0.00000000000E+00 -0.00000000000E+00 -0.75737043469E+02  0.75737043469E+02  0.00000000000E+00 0.  1.
         23    2    1    2    0    0  0.65956093933E+02  0.13281687774E+02  0.18475780651E+02  0.14315576955E+03  0.12500244129E+03 0.  0.
          5    1    3    3  502    0  0.10023971916E+03  0.11265941846E+02 -0.53050231982E+01  0.10111951351E+03  0.47000000000E+01 0. -1.
         -5    1    3    3    0  502 -0.34283625223E+02  0.20157459289E+01  0.23780803849E+02  0.42036256039E+02  0.47000000000E+01 0. -1.
        -11    1    1    2    0    0 -0.38005462225E+02  0.19674516745E+02  0.19403809268E+03  0.19870149265E+03  0.00000000000E+00 0. -1.
         11    1    1    2    0    0 -0.27950631708E+02 -0.32956204519E+02  0.31123768164E+02  0.53254466235E+02  0.00000000000E+00 0.  1.
<mgrwt>
<rscale>  0 0.13410784E+03</rscale>
<asrwt>0</asrwt>
<pdfrwt beam="1">  1        3 0.49134566E-01 0.14195851E+03</pdfrwt>
<pdfrwt beam="2">  1       -3 0.11651853E-01 0.14195851E+03</pdfrwt>
<totfact> 0.55139674E+02</totfact>
</mgrwt>
</event>
<event>
 7    1  0.5400401E-006  0.1815059E+03  0.7546771E-02  0.1171536E+00
         -2   -1    0    0    0  501 -0.00000000000E+00  0.00000000000E+00  0.33389416047E+03  0.33389416047E+03  0.00000000000E+00 0.  1.
          2   -1    0    0  501    0  0.00000000000E+00 -0.00000000000E+00 -0.87953183083E+02  0.87953183083E+02  0.00000000000E+00 0. -1.
         23    2    1    2    0    0 -0.12256129074E+03 -0.47932108857E+02  0.12671857492E+03  0.22136396439E+03  0.12500260179E+03 0.  0.
          5    1    3    3  502    0 -0.47238609350E+02 -0.59723401538E+02  0.12318622872E+03  0.14489757710E+03  0.47000000000E+01 0.  1.
         -5    1    3    3    0  502 -0.75322681389E+02  0.11791292681E+02  0.35323461993E+01  0.76466387285E+02  0.47000000000E+01 0.  1.
        -11    1    1    2    0    0  0.59231232911E+02  0.46915542440E+02  0.12797432451E+02  0.76636684113E+02  0.00000000000E+00 0.  1.
         11    1    1    2    0    0  0.63330057829E+02  0.10165664176E+01  0.10642497002E+03  0.12384669505E+03  0.00000000000E+00 0. -1.
<mgrwt>
<rscale>  0 0.17619647E+03</rscale>
<asrwt>0</asrwt>
<pdfrwt beam="2">  1        2 0.13531259E-01 0.18150594E+03</pdfrwt>
<pdfrwt beam="1">  1       -2 0.51368332E-01 0.18150594E+03</pdfrwt>
<totfact> 0.15794460E+03</totfact>
</mgrwt>
</event>
<event>
 7    1  0.5400401E-006  0.1289467E+03  0.7546771E-02  0.1243248E+00
         -1   -1    0    0    0  501 -0.00000000000E+00  0.00000000000E+00  0.13584378031E+03  0.13584378031E+03  0.00000000000E+00 0.  1.
          1   -1    0    0  501    0  0.00000000000E+00 -0.00000000000E+00 -0.15868858484E+03  0.15868858484E+03  0.00000000000E+00 0. -1.
         23    2    1    2    0    0 -0.26847774463E+02  0.16802212900E+02  0.81433941367E+02  0.15250813414E+03  0.12499650723E+03 0.  0.
          5    1    3    3  502    0  0.12123389506E+02  0.47385786384E+02  0.89495832075E+02  0.10209791028E+03  0.47000000000E+01 0. -1.
         -5    1    3    3    0  502 -0.38971163969E+02 -0.30583573484E+02 -0.80618907075E+01  0.50410223863E+02  0.47000000000E+01 0. -1.
        -11    1    1    2    0    0  0.86249638583E+01 -0.45001599174E+02 -0.97558864710E+02  0.10778342179E+03  0.00000000000E+00 0. -1.
         11    1    1    2    0    0  0.18222810605E+02  0.28199386275E+02 -0.67198811846E+01  0.34240809216E+02  0.00000000000E+00 0.  1.
<mgrwt>
<rscale>  0 0.11990835E+03</rscale>
<asrwt>0</asrwt>
<pdfrwt beam="2">  1        1 0.24413628E-01 0.12894667E+03</pdfrwt>
<pdfrwt beam="1">  1       -1 0.20899043E-01 0.12894667E+03</pdfrwt>
<totfact> 0.35523614E+03</totfact>
</mgrwt>
</event>
<event>
 6    1  0.5400401E-006  0.3128263E+03  0.7546771E-02  0.1078999E+00
          4   -1    0    0  501    0  0.00000000000E+00  0.00000000000E+00  0.38725681528E+03  0.38725681528E+03  0.00000000000E+00 0. -1.
         -4   -1    0    0    0  501 -0.00000000000E+00 -0.00000000000E+00 -0.63175333887E+02  0.63175333887E+02  0.00000000000E+00 0.  1.
          5    1    1    2  502    0 -0.44769440748E+01  0.11488748341E+03  0.16248169671E+03  0.19910190517E+03  0.47000000000E+01 0. -1.
         -5    1    1    2    0  502  0.41059143584E+02 -0.10357620756E+02  0.12429494187E+02  0.44381481559E+02  0.47000000000E+01 0.  1.
        -11    1    1    2    0    0 -0.50096277329E+02 -0.37145323975E+02  0.11352779450E+03  0.12952981209E+03  0.00000000000E+00 0. -1.
         11    1    1    2    0    0  0.13514077820E+02 -0.67384538684E+02  0.35642495985E+02  0.77418950348E+02  0.00000000000E+00 0.  1.
<mgrwt>
<rscale>  0 0.31282633E+03</rscale>
<asrwt>0</asrwt>
<pdfrwt beam="1">  1        4 0.59577970E-01 0.31282633E+03</pdfrwt>
<pdfrwt beam="2">  1       -4 0.97192824E-02 0.31282633E+03</pdfrwt>
<totfact> 0.40774905E+02</totfact>
</mgrwt>
</event>
<event>
 7    1  0.5400401E-006  0.2047677E+03  0.7546771E-02  0.1149868E+00
         -2   -1    0    0    0  501 -0.00000000000E+00  0.00000000000E+00  0.22321162427E+03  0.22321162427E+03  0.00000000000E+00 0. -1.
          2   -1    0    0  501    0  0.00000000000E+00 -0.00000000000E+00 -0.25196245140E+03  0.25196245140E+03  0.00000000000E+00 0.  1.
         23    2    1    2    0    0 -0.12324926611E+03  0.10527247412E+03  0.11985784172E+03  0.23726716351E+03  0.12512845103E+03 0.  0.
          5    1    3    3  502    0 -0.67243459961E+02  0.35099699459E+00 -0.13050340917E+01  0.67421059176E+02  0.47000000000E+01 0.  1.
         -5    1    3    3    0  502 -0.56005806149E+02  0.10492147712E+03  0.12116287581E+03  0.16984610434E+03  0.47000000000E+01 0.  1.
        -11    1    1    2    0    0  0.50539290021E+02 -0.60489469296E+02 -0.12757173605E+03  0.14995913967E+03  0.00000000000E+00 0.  1.
         11    1    1    2    0    0  0.72709976089E+02 -0.44783004820E+02 -0.21036932802E+02  0.87947772486E+02  0.00000000000E+00 0. -1.
<mgrwt>
<rscale>  0 0.19984685E+03</rscale>
<asrwt>0</asrwt>
<pdfrwt beam="2">  1        2 0.38763454E-01 0.20476768E+03</pdfrwt>
<pdfrwt beam="1">  1       -2 0.34340250E-01 0.20476768E+03</pdfrwt>
<totfact> 0.10488432E+03</totfact>
</mgrwt>
</event>
<event>
 7    1  0.5400401E-006  0.1987705E+03  0.7546771E-02  0.1154748E+00
         -2   -1    0    0    0  501 -0.00000000000E+00  0.00000000000E+00  0.11358813598E+03  0.11358813598E+03  0.00000000000E+00 0. -1.
          2   -1    0    0  501    0  0.00000000000E+00 -0.00000000000E+00 -0.36204616066E+03  0.36204616066E+03  0.00000000000E+00 0.  1.
         23    2    1    2    0    0 -0.14888236541E+03  0.41436136620E+02 -0.45946516237E+02  0.20401172138E+03  0.12500715163E+03 0.  0.
          5    1    3    3  502    0 -0.13137253926E+03 -0.21526408226E+02 -0.28815880337E+02  0.13628857355E+03  0.47000000000E+01 0.  1.
         -5    1    3    3    0  502 -0.17509826151E+02  0.62962544846E+02 -0.17130635899E+02  0.67723147827E+02  0.47000000000E+01 0.  1.
        -11    1    1    2    0    0  0.13464964250E+03 -0.40077903618E-01 -0.17117642122E+03  0.21778864758E+03  0.00000000000E+00 0.  1.
         11    1    1    2    0    0  0.14232722906E+02 -0.41396058716E+02 -0.31335087220E+02  0.53833927682E+02  0.00000000000E+00 0. -1.
<mgrwt>
<rscale>  0 0.19417575E+03</rscale>
<asrwt>0</asrwt>
<pdfrwt beam="2">  1        2 0.55699408E-01 0.19877047E+03</pdfrwt>
<pdfrwt beam="1">  1       -2 0.17475098E-01 0.19877047E+03</pdfrwt>
<totfact> 0.23305909E+03</totfact>
</mgrwt>
</event>
<event>
 7    1  0.5400401E-006  0.1393918E+03  0.7546771E-02  0.1225440E+00
         -2   -1    0    0    0  501 -0.00000000000E+00  0.00000000000E+00  0.61475218126E+03  0.61475218126E+03  0.00000000000E+00 0. -1.
          2   -1    0    0  501    0  0.00000000000E+00 -0.00000000000E+00 -0.34691063571E+02  0.34691063571E+02  0.00000000000E+00 0.  1.
         23    2    1    2    0    0  0.36660440954E+02 -0.49628546222E+02  0.48319930502E+03  0.50290320671E+03  0.12499234544E+03 0.  0.
          5    1    3    3  502    0  0.72470322969E+01  0.32621658934E+02  0.27514454837E+03  0.27720624922E+03  0.47000000000E+01 0.  1.
         -5    1    3    3    0  502  0.29413408657E+02 -0.82250205156E+02  0.20805475666E+03  0.22569695750E+03  0.47000000000E+01 0.  1.
        -11    1    1    2    0    0  0.64863340996E+01  0.33803609849E+02 -0.50087195215E+01  0.34782809549E+02  0.00000000000E+00 0.  1.
         11    1    1    2    0    0 -0.43146775054E+02  0.15824936373E+02  0.10187053219E+03  0.11175722857E+03  0.00000000000E+00 0. -1.
<mgrwt>
<rscale>  0 0.13136785E+03</rscale>
<asrwt>0</asrwt>
<pdfrwt beam="2">  1        2 0.53370871E-02 0.13939178E+03</pdfrwt>
<pdfrwt beam="1">  1       -2 0.94577251E-01 0.13939178E+03</pdfrwt>
<totfact> 0.13621938E+03</totfact>
</mgrwt>
</event>
<event>
 7    1  0.5400401E-006  0.1601304E+03  0.7546771E-02  0.1196245E+00
         -2   -1    0    0    0  501 -0.00000000000E+00  0.00000000000E+00  0.33819322479E+02  0.33819322479E+02  0.00000000000E+00 0.  1.
          2   -1    0    0  501    0  0.00000000000E+00 -0.00000000000E+00 -0.72532732408E+03  0.72532732408E+03  0.00000000000E+00 0. -1.
         23    2    1    2    0    0  0.45229170804E+02 -0.89282966859E+02 -0.24555512849E+03  0.29315367245E+03  0.12499851391E+03 0.  0.
          5    1    3    3  502    0  0.79720084678E+02 -0.75291202625E+02 -0.12235585813E+03  0.16436880213E+03  0.47000000000E+01 0.  1.
         -5    1    3    3    0  502 -0.34490913874E+02 -0.13991764234E+02 -0.12319927036E+03  0.12878487032E+03  0.47000000000E+01 0.  1.
        -11    1    1    2    0    0  0.24163233773E+02  0.39532317783E+02 -0.21043835537E+03  0.21547846163E+03  0.00000000000E+00 0.  1.
         11    1    1    2    0    0 -0.69392404577E+02  0.49750649076E+02 -0.23551451774E+03  0.25051451248E+03  0.00000000000E+00 0. -1.
<mgrwt>
<rscale>  0 0.15349316E+03</rscale>
<asrwt>0</asrwt>
<pdfrwt beam="2">  1        2 0.11158882E+00 0.16013043E+03</pdfrwt>
<pdfrwt beam="1">  1       -2 0.52029729E-02 0.16013043E+03</pdfrwt>
<totfact> 0.71913277E+03</totfact>
</mgrwt>
</event>
<event>
 7    1  0.5400401E-006  0.1297146E+03  0.7546771E-02  0.1237297E+00
          2   -1    0    0  501    0  0.00000000000E+00  0.00000000000E+00  0.56575998868E+02  0.56575998868E+02  0.00000000000E+00 0. -1.
         -2   -1    0    0    0  501 -0.00000000000E+00 -0.00000000000E+00 -0.25102881071E+03  0.25102881071E+03  0.00000000000E+00 0.  1.
         23    2    1    2    0    0 -0.17952866833E+02 -0.29510325307E+02 -0.12499166675E+03  0.18013549624E+03  0.12503085828E+03 0.  0.
          5    1    3    3  502    0 -0.63779593835E+02  0.14739849907E+02 -0.68443402227E+02  0.94824517259E+02  0.47000000000E+01 0. -1.
         -5    1    3    3    0  502  0.45826727002E+02 -0.44250175214E+02 -0.56548264522E+02  0.85310978981E+02  0.47000000000E+01 0. -1.
        -11    1    1    2    0    0 -0.28551493379E+01  0.26853227489E+02 -0.92470573432E+02  0.96333040309E+02  0.00000000000E+00 0.  1.
         11    1    1    2    0    0  0.20808016171E+02  0.26570978184E+01  0.23009428338E+02  0.31136273030E+02  0.00000000000E+00 0. -1.
<mgrwt>
<rscale>  0 0.12358533E+03</rscale>
<asrwt>0</asrwt>
<pdfrwt beam="1">  1        2 0.87039996E-02 0.12971461E+03</pdfrwt>
<pdfrwt beam="2">  1       -2 0.38619818E-01 0.12971461E+03</pdfrwt>
<totfact> 0.46168015E+03</totfact>
</mgrwt>
</event>
<event>
 7    1  0.5400401E-006  0.1260537E+03  0.7546771E-02  0.1247840E+00
         -2   -1    0    0    0  501 -0.00000000000E+00  0.00000000000E+00  0.13603491481E+03  0.13603491481E+03  0.00000000000E+00 0.  1.
          2   -1    0    0  501    0  0.00000000000E+00 -0.00000000000E+00 -0.10278691635E+03  0.10278691635E+03  0.00000000000E+00 0. -1.
         23    2    1    2    0    0 -0.28742819854E+01  0.16050925878E+02  0.61931880853E+02  0.14044605128E+03  0.12499456683E+03 0.  0.
          5    1    3    3  502    0 -0.64729871931E+01  0.42885852720E+02  0.90709764282E+02  0.10065509060E+03  0.47000000000E+01 0.  1.
         -5    1    3    3    0  502  0.35987052077E+01 -0.26834926841E+02 -0.28777883429E+02  0.39790960687E+02  0.47000000000E+01 0.  1.
        -11    1    1    2    0    0  0.37195826232E+02  0.20128540293E+02 -0.23113206032E+02  0.48196555027E+02  0.00000000000E+00 0.  1.
         11    1    1    2    0    0 -0.34321544246E+02 -0.36179466171E+02 -0.55706763645E+01  0.50179224855E+02  0.00000000000E+00 0. -1.
<mgrwt>
<rscale>  0 0.11716974E+03</rscale>
<asrwt>0</asrwt>
<pdfrwt beam="2">  1        2 0.15813372E-01 0.12605370E+03</pdfrwt>
<pdfrwt beam="1">  1       -2 0.20928448E-01 0.12605370E+03</pdfrwt>
<totfact> 0.66975958E+03</totfact>
</mgrwt>
</event>
<event>
 7    1  0.5400401E-006  0.1328254E+03  0.7546771E-02  0.1236314E+00
         -2   -1    0    0    0  501 -0.00000000000E+00  0.00000000000E+00  0.25807927309E+03  0.25807927309E+03  0.00000000000E+00 0.  1.
          2   -1    0    0  501    0  0.00000000000E+00 -0.00000000000E+00 -0.60801870781E+02  0.60801870781E+02  0.00000000000E+00 0. -1.
         23    2    1    2    0    0  0.41310436806E+02 -0.17594890793E+02  0.16602285799E+03  0.21261743169E+03  0.12500580191E+03 0.  0.
          5    1    3    3  502    0  0.28458613217E+02 -0.17099798927E+02 -0.10828349170E+02  0.35236897357E+02  0.47000000000E+01 0. -1.
         -5    1    3    3    0  502  0.12851823589E+02 -0.49509186574E+00  0.17685120716E+03  0.17738053433E+03  0.47000000000E+01 0. -1.
        -11    1    1    2    0    0  0.13729952368E+02  0.38435320579E+02  0.28484372175E+01  0.40913311460E+02  0.00000000000E+00 0.  1.
         11    1    1    2    0    0 -0.55040389174E+02 -0.20840429786E+02  0.28406107102E+02  0.65350400724E+02  0.00000000000E+00 0. -1.
<mgrwt>
<rscale>  0 0.12420674E+03</rscale>
<asrwt>0</asrwt>
<pdfrwt beam="2">  1        2 0.93541341E-02 0.13282538E+03</pdfrwt>
<pdfrwt beam="1">  1       -2 0.39704503E-01 0.13282538E+03</pdfrwt>
<totfact> 0.40146866E+03</totfact>
</mgrwt>
</event>
<event>
 7    1  0.5400401E-006  0.1478058E+03  0.7546771E-02  0.1212805E+00
          1   -1    0    0  501    0  0.00000000000E+00  0.00000000000E+00  0.67128389189E+03  0.67128389189E+03  0.00000000000E+00 0. -1.
         -1   -1    0    0    0  501 -0.00000000000E+00 -0.00000000000E+00 -0.27412047467E+02  0.27412047467E+02  0.00000000000E+00 0.  1.
         23    2    1    2    0    0  0.57205282140E+02  0.54303975238E+02  0.30100462971E+03  0.33533614307E+03  0.12500070286E+03 0.  0.
          5    1    3    3  502    0  0.34142674180E+01  0.83094041817E+02  0.13758034540E+03  0.16083133540E+03  0.47000000000E+01 0. -1.
         -5    1    3    3    0  502  0.53791014722E+02 -0.28790066579E+02  0.16342428431E+03  0.17450480767E+03  0.47000000000E+01 0. -1.
        -11    1    1    2    0    0 -0.21879462944E+02  0.25127169724E+02  0.90322556678E+02  0.96271749760E+02  0.00000000000E+00 0.  1.
         11    1    1    2    0    0 -0.35325819196E+02 -0.79431144962E+02  0.25254465804E+03  0.26708804652E+03  0.00000000000E+00 0. -1.
<mgrwt>
<rscale>  0 0.14038999E+03</rscale>
<asrwt>0</asrwt>
<pdfrwt beam="1">  1        1 0.10327443E+00 0.14780576E+03</pdfrwt>
<pdfrwt beam="2">  1       -1 0.42172386E-02 0.14780576E+03</pdfrwt>
<totfact> 0.65957710E+03</totfact>
</mgrwt>
</event>
<event>
 7    1  0.8801835E-006  0.1451607E+03  0.7546771E-02  0.1216744E+00
         -1   -1    0    0    0  501 -0.00000000000E+00  0.00000000000E+00  0.61586562771E+03  0.61586562771E+03  0.00000000000E+00 0.  1.
          1   -1    0    0  501    0  0.00000000000E+00 -0.00000000000E+00 -0.31376488503E+02  0.31376488503E+02  0.00000000000E+00 0. -1.
         23    2    1    2    0    0  0.70560554133E+02  0.21620717594E+02  0.42803345115E+03  0.45197817556E+03  0.12500155457E+03 0.  0.
          5    1    3    3  502    0  0.92411247186E+02 -0.80456479056E+01  0.19484470686E+03  0.21584976453E+03  0.47000000000E+01 0.  1.
         -5    1    3    3    0  502 -0.21850693054E+02  0.29666365500E+02  0.23318874429E+03  0.23612841102E+03  0.47000000000E+01 0.  1.
        -11    1    1    2    0    0 -0.10444501458E+02 -0.21661147298E+02 -0.35771657837E+01  0.24312322556E+02  0.00000000000E+00 0. -1.
         11    1    1    2    0    0 -0.60116052674E+02  0.40429704121E-01  0.16003285384E+03  0.17095161810E+03  0.00000000000E+00 0.  1.
<mgrwt>
<rscale>  0 0.13749184E+03</rscale>
<asrwt>0</asrwt>
<pdfrwt beam="2">  1        1 0.48271525E-02 0.14516072E+03</pdfrwt>
<pdfrwt beam="1">  1       -1 0.94748549E-01 0.14516072E+03</pdfrwt>
<totfact> 0.19354753E+03</totfact>
</mgrwt>
</event>
<event>
 7    1  0.5400401E-006  0.1435936E+03  0.7546771E-02  0.1218625E+00
          2   -1    0    0  501    0  0.00000000000E+00  0.00000000000E+00  0.67784802009E+03  0.67784802009E+03  0.00000000000E+00 0. -1.
         -2   -1    0    0    0  501 -0.00000000000E+00 -0.00000000000E+00 -0.25081769208E+02  0.25081769208E+02  0.00000000000E+00 0.  1.
         23    2    1    2    0    0  0.36600264144E+02 -0.60449470301E+02  0.32753820432E+03  0.35763164818E+03  0.12500161078E+03 0.  0.
          5    1    3    3  502    0 -0.18158423723E+02 -0.22299406154E+02  0.67095685436E+01  0.29901507938E+02  0.47000000000E+01 0.  1.
         -5    1    3    3    0  502  0.54758687867E+02 -0.38150064147E+02  0.32082863578E+03  0.32773014024E+03  0.47000000000E+01 0.  1.
        -11    1    1    2    0    0 -0.14373978276E+02  0.65265845231E+02  0.31181271476E+03  0.31889404336E+03  0.00000000000E+00 0. -1.
         11    1    1    2    0    0 -0.22226285868E+02 -0.48163749302E+01  0.13415331809E+02  0.26404097760E+02  0.00000000000E+00 0.  1.
<mgrwt>
<rscale>  0 0.13613567E+03</rscale>
<asrwt>0</asrwt>
<pdfrwt beam="1">  1        2 0.10428430E+00 0.14359359E+03</pdfrwt>
<pdfrwt beam="2">  1       -2 0.38587342E-02 0.14359359E+03</pdfrwt>
<totfact> 0.12120708E+04</totfact>
</mgrwt>
</event>
<event>
 7    1  0.9335127E-006  0.2549185E+03  0.7546771E-02  0.1112534E+00
         -1   -1    0    0    0  501 -0.00000000000E+00  0.00000000000E+00  0.54773563577E+03  0.54773563577E+03  0.00000000000E+00 0. -1.
          1   -1    0    0  501    0  0.00000000000E+00 -0.00000000000E+00 -0.11627835258E+03  0.11627835258E+03  0.00000000000E+00 0.  1.
         23    2    1    2    0    0 -0.25409260477E+02  0.22071035223E+03  0.28541610711E+03  0.38268233893E+03  0.12499891293E+03 0.  0.
          5    1    3    3  502    0  0.22482833594E+02  0.84023217354E+02  0.36055836062E+02  0.94273496673E+02  0.47000000000E+01 0.  1.
         -5    1    3    3    0  502 -0.47892094071E+02  0.13668713488E+03  0.24936027105E+03  0.28840884226E+03  0.47000000000E+01 0.  1.
        -11    1    1    2    0    0 -0.31392343547E+01 -0.13892252508E+03  0.40394955988E+02  0.14471031489E+03  0.00000000000E+00 0.  1.
         11    1    1    2    0    0  0.28548494832E+02 -0.81787827154E+02  0.10564622010E+03  0.13662133453E+03  0.00000000000E+00 0. -1.
<mgrwt>
<rscale>  0 0.25122348E+03</rscale>
<asrwt>0</asrwt>
<pdfrwt beam="2">  1        1 0.17888978E-01 0.25491845E+03</pdfrwt>
<pdfrwt beam="1">  1       -1 0.84267019E-01 0.25491845E+03</pdfrwt>
<totfact> 0.43337742E+02</totfact>
</mgrwt>
</event>
<event>
 7    1  0.5400401E-006  0.2008279E+03  0.7546771E-02  0.1153296E+00
         -2   -1    0    0    0  501 -0.00000000000E+00  0.00000000000E+00  0.57318247014E+03  0.57318247014E+03  0.00000000000E+00 0.  1.
          2   -1    0    0  501    0  0.00000000000E+00 -0.00000000000E+00 -0.65198158241E+02  0.65198158241E+02  0.00000000000E+00 0. -1.
         23    2    1    2    0    0 -0.12426758912E+03  0.96254540417E+02  0.31328495250E+03  0.37212807509E+03  0.12499789019E+03 0.  0.
          5    1    3    3  502    0 -0.13378901359E+03  0.75072602482E+02  0.17910898278E+03  0.23587605541E+03  0.47000000000E+01 0.  1.
         -5    1    3    3    0  502  0.95214244671E+01  0.21181937935E+02  0.13417596972E+03  0.13625201969E+03  0.47000000000E+01 0.  1.
        -11    1    1    2    0    0  0.76372007111E+02 -0.98746870857E+02  0.17367912905E+03  0.21388797966E+03  0.00000000000E+00 0.  1.
         11    1    1    2    0    0  0.47895582014E+02  0.24923304399E+01  0.21020230345E+02  0.52364573628E+02  0.00000000000E+00 0. -1.
<mgrwt>
<rscale>  0 0.19584099E+03</rscale>
<asrwt>0</asrwt>
<pdfrwt beam="2">  1        2 0.10030486E-01 0.20082789E+03</pdfrwt>
<pdfrwt beam="1">  1       -2 0.88181915E-01 0.20082789E+03</pdfrwt>
<totfact> 0.72543328E+02</totfact>
</mgrwt>
</event>
<event>
 7    1  0.5400401E-006  0.2262852E+03  0.7546771E-02  0.1132315E+00
          1   -1    0    0  501    0  0.00000000000E+00  0.00000000000E+00  0.11337428833E+03  0.11337428833E+03  0.00000000000E+00 0. -1.
         -1   -1    0    0    0  501 -0.00000000000E+00 -0.00000000000E+00 -0.43356100331E+03  0.43356100331E+03  0.00000000000E+00 0.  1.
         23    2    1    2    0    0  0.75972322694E+02  0.17264970986E+03 -0.21444816911E+03  0.31175795739E+03  0.12500116251E+03 0.  0.
          5    1    3    3  502    0  0.10568724560E+03  0.15210733272E+03 -0.15283568744E+03  0.24018174765E+03  0.47000000000E+01 0.  1.
         -5    1    3    3    0  502 -0.29714922910E+02  0.20542377146E+02 -0.61612481675E+02  0.71576209738E+02  0.47000000000E+01 0.  1.
        -11    1    1    2    0    0  0.21109861696E+01 -0.87680291138E+02 -0.75890373897E+02  0.11598119920E+03  0.00000000000E+00 0. -1.
         11    1    1    2    0    0 -0.78083308864E+02 -0.84969418727E+02 -0.29848171973E+02  0.11919613505E+03  0.00000000000E+00 0.  1.
<mgrwt>
<rscale>  0 0.22211665E+03</rscale>
<asrwt>0</asrwt>
<pdfrwt beam="1">  1        1 0.17442198E-01 0.22628523E+03</pdfrwt>
<pdfrwt beam="2">  1       -1 0.66701692E-01 0.22628523E+03</pdfrwt>
<totfact> 0.72110846E+02</totfact>
</mgrwt>
</event>
<event>
 7    1  0.5400401E-006  0.1228048E+03  0.7546771E-02  0.1247949E+00
          2   -1    0    0  501    0  0.00000000000E+00  0.00000000000E+00  0.18162179192E+03  0.18162179192E+03  0.00000000000E+00 0. -1.
         -2   -1    0    0    0  501 -0.00000000000E+00 -0.00000000000E+00 -0.19976987659E+03  0.19976987659E+03  0.00000000000E+00 0.  1.
         23    2    1    2    0    0 -0.42958450693E+02  0.23115766326E+01 -0.16325152853E+03  0.20428431250E+03  0.11502281033E+03 0.  0.
          5    1    3    3  502    0 -0.52139573762E+02 -0.48099961023E+02 -0.10115570665E+03  0.12363942894E+03  0.47000000000E+01 0. -1.
         -5    1    3    3    0  502  0.91811230686E+01  0.50411537655E+02 -0.62095821880E+02  0.80644883560E+02  0.47000000000E+01 0.  1.
        -11    1    1    2    0    0  0.46678230374E+01 -0.23909016009E+02  0.12741137800E+03  0.12971926944E+03  0.00000000000E+00 0.  1.
         11    1    1    2    0    0  0.38290627656E+02  0.21597439377E+02  0.17692065856E+02  0.47388086564E+02  0.00000000000E+00 0. -1.
<mgrwt>
<rscale>  0 0.11710607E+03</rscale>
<asrwt>0</asrwt>
<pdfrwt beam="1">  1        2 0.27941814E-01 0.12280480E+03</pdfrwt>
<pdfrwt beam="2">  1       -2 0.30733827E-01 0.12280480E+03</pdfrwt>
<totfact> 0.18033676E+03</totfact>
</mgrwt>
</event>
<event>
 7    1  0.5400401E-006  0.1285184E+03  0.7546771E-02  0.1243561E+00
          3   -1    0    0  501    0  0.00000000000E+00  0.00000000000E+00  0.20392560169E+02  0.20392560169E+02  0.00000000000E+00 0. -1.
         -3   -1    0    0    0  501 -0.00000000000E+00 -0.00000000000E+00 -0.66824646284E+03  0.66824646284E+03  0.00000000000E+00 0.  1.
         23    2    1    2    0    0  0.25548021765E+02  0.15452010011E+02 -0.45592788384E+03  0.47369526407E+03  0.12500200762E+03 0.  0.
          5    1    3    3  502    0 -0.25693007754E+02 -0.21903534084E+02 -0.38374946310E+02  0.51328568625E+02  0.47000000000E+01 0.  1.
         -5    1    3    3    0  502  0.51241029519E+02  0.37355544095E+02 -0.41755293753E+03  0.42236669545E+03  0.47000000000E+01 0.  1.
        -11    1    1    2    0    0  0.30493489531E+02 -0.98544314386E+01 -0.11639741457E+03  0.12072829346E+03  0.00000000000E+00 0.  1.
         11    1    1    2    0    0 -0.56041511296E+02 -0.55975785723E+01 -0.75528604259E+02  0.94215465479E+02  0.00000000000E+00 0. -1.
<mgrwt>
<rscale>  0 0.11971915E+03</rscale>
<asrwt>0</asrwt>
<pdfrwt beam="1">  1        3 0.31373167E-02 0.12851836E+03</pdfrwt>
<pdfrwt beam="2">  1       -3 0.10280716E+00 0.12851836E+03</pdfrwt>
<totfact> 0.92417021E+02</totfact>
</mgrwt>
</event>
<event>
 7    1  0.5400401E-006  0.1351499E+03  0.7546771E-02  0.1231445E+00
          2   -1    0    0  501    0  0.00000000000E+00  0.00000000000E+00  0.69825134415E+02  0.69825134415E+02  0.00000000000E+00 0.  1.
         -2   -1    0    0    0  501 -0.00000000000E+00 -0.00000000000E+00 -0.21322521530E+03  0.21322521530E+03  0.00000000000E+00 0. -1.
         23    2    1    2    0    0 -0.46322184957E+02 -0.22230099131E+02 -0.99465638649E+02  0.16780617199E+03  0.12500230381E+03 0.  0.
          5    1    3    3  502    0  0.22450608359E+02  0.30665568498E+02 -0.62676354627E+02  0.73449454295E+02  0.47000000000E+01 0.  1.
         -5    1    3    3    0  502 -0.68772793316E+02 -0.52895667629E+02 -0.36789284022E+02  0.94356717690E+02  0.47000000000E+01 0.  1.
        -11    1    1    2    0    0  0.19066019254E+02  0.10118278995E+02  0.29171117015E+02  0.36288382823E+02  0.00000000000E+00 0.  1.
         11    1    1    2    0    0  0.27256165703E+02  0.12111820136E+02 -0.73105559247E+02  0.78955794903E+02  0.00000000000E+00 0. -1.
<mgrwt>
<rscale>  0 0.12734767E+03</rscale>
<asrwt>0</asrwt>
<pdfrwt beam="1">  1        2 0.10742328E-01 0.13514991E+03</pdfrwt>
<pdfrwt beam="2">  1       -2 0.32803879E-01 0.13514991E+03</pdfrwt>
<totfact> 0.48350190E+03</totfact>
</mgrwt>
</event>
<event>
 7    1  0.5400401E-006  0.1359326E+03  0.7546771E-02  0.1231612E+00
         -1   -1    0    0    0  501 -0.00000000000E+00  0.00000000000E+00  0.18813449851E+03  0.18813449851E+03  0.00000000000E+00 0.  1.
          1   -1    0    0  501    0  0.00000000000E+00 -0.00000000000E+00 -0.86766206806E+02  0.86766206806E+02  0.00000000000E+00 0. -1.
         23    2    1    2    0    0 -0.44811528544E+02  0.29074935059E+02  0.10297858996E+03  0.17053524728E+03  0.12499702251E+03 0.  0.
          5    1    3    3  502    0  0.28607493325E+02 -0.27308172805E+02  0.49466274583E+02  0.63506907478E+02  0.47000000000E+01 0.  1.
         -5    1    3    3    0  502 -0.73419021869E+02  0.56383107865E+02  0.53512315376E+02  0.10702833981E+03  0.47000000000E+01 0.  1.
        -11    1    1    2    0    0  0.37393342298E+02  0.28043139674E+02  0.14969253335E+00  0.46740797371E+02  0.00000000000E+00 0. -1.
         11    1    1    2    0    0  0.74181862459E+01 -0.57118074734E+02 -0.17599907904E+01  0.57624660659E+02  0.00000000000E+00 0.  1.
<mgrwt>
<rscale>  0 0.12723865E+03</rscale>
<asrwt>0</asrwt>
<pdfrwt beam="2">  1        1 0.13348647E-01 0.13593263E+03</pdfrwt>
<pdfrwt beam="1">  1       -1 0.28943769E-01 0.13593263E+03</pdfrwt>
<totfact> 0.45209271E+03</totfact>
</mgrwt>
</event>
<event>
 7    1  0.5400401E-006  0.1572025E+03  0.7546771E-02  0.1200286E+00
          2   -1    0    0  501    0  0.00000000000E+00  0.00000000000E+00  0.57453679080E+03  0.57453679080E+03  0.00000000000E+00 0. -1.
         -2   -1    0    0    0  501 -0.00000000000E+00 -0.00000000000E+00 -0.38264327090E+02  0.38264327090E+02  0.00000000000E+00 0.  1.
         23    2    1    2    0    0 -0.85273964452E+02 -0.42608829838E+02  0.21875695493E+03  0.26938303805E+03  0.12500181785E+03 0.  0.
          5    1    3    3  502    0 -0.59004293132E+02 -0.85233785504E+02  0.12065066325E+03  0.15913823344E+03  0.47000000000E+01 0.  1.
         -5    1    3    3    0  502 -0.26269671320E+02  0.42624955666E+02  0.98106291678E+02  0.11024480461E+03  0.47000000000E+01 0.  1.
        -11    1    1    2    0    0  0.50686689404E+02  0.66603850055E+02  0.25207980546E+03  0.26561144864E+03  0.00000000000E+00 0.  1.
         11    1    1    2    0    0  0.34587275048E+02 -0.23995020217E+02  0.65435703319E+02  0.77806631204E+02  0.00000000000E+00 0. -1.
<mgrwt>
<rscale>  0 0.15015234E+03</rscale>
<asrwt>0</asrwt>
<pdfrwt beam="1">  1        2 0.88390269E-01 0.15720247E+03</pdfrwt>
<pdfrwt beam="2">  1       -2 0.58868200E-02 0.15720247E+03</pdfrwt>
<totfact> 0.78225489E+03</totfact>
</mgrwt>
</event>
<event>
 7    1  0.5400401E-006  0.1325481E+03  0.7546771E-02  0.1236507E+00
          4   -1    0    0  501    0  0.00000000000E+00  0.00000000000E+00  0.32259255654E+02  0.32259255654E+02  0.00000000000E+00 0. -1.
         -4   -1    0    0    0  501 -0.00000000000E+00 -0.00000000000E+00 -0.47734295410E+03  0.47734295410E+03  0.00000000000E+00 0.  1.
         23    2    1    2    0    0  0.44085311194E+02 -0.61886246935E+00 -0.33181551510E+03  0.35731012427E+03  0.12500036477E+03 0.  0.
          5    1    3    3  502    0  0.47502104805E+02  0.49115746163E+02 -0.26562740687E+03  0.27431517596E+03  0.47000000000E+01 0.  1.
         -5    1    3    3    0  502 -0.34167936112E+01 -0.49734608632E+02 -0.66188108230E+02  0.82994948312E+02  0.47000000000E+01 0.  1.
        -11    1    1    2    0    0 -0.39272582677E+02 -0.20994126478E+02 -0.12092436094E+03  0.12886345551E+03  0.00000000000E+00 0.  1.
         11    1    1    2    0    0 -0.48127285164E+01  0.21612988948E+02  0.76561775946E+01  0.23428629973E+02  0.00000000000E+00 0. -1.
<mgrwt>
<rscale>  0 0.12408428E+03</rscale>
<asrwt>0</asrwt>
<pdfrwt beam="1">  1        4 0.49629627E-02 0.13254806E+03</pdfrwt>
<pdfrwt beam="2">  1       -4 0.73437374E-01 0.13254806E+03</pdfrwt>
<totfact> 0.68472422E+02</totfact>
</mgrwt>
</event>
<event>
 7    1  0.5400401E-006  0.1265907E+03  0.7546771E-02  0.1247544E+00
          3   -1    0    0  501    0  0.00000000000E+00  0.00000000000E+00  0.43905558806E+02  0.43905558806E+02  0.00000000000E+00 0. -1.
         -3   -1    0    0    0  501 -0.00000000000E+00 -0.00000000000E+00 -0.33243682865E+03  0.33243682865E+03  0.00000000000E+00 0.  1.
         23    2    1    2    0    0 -0.35915392985E+01 -0.19679501622E+02 -0.23926524528E+03  0.27068996162E+03  0.12500006315E+03 0.  0.
          5    1    3    3  502    0 -0.29230100938E+02  0.41537697645E+02 -0.56141355248E+02  0.75853285332E+02  0.47000000000E+01 0. -1.
         -5    1    3    3    0  502  0.25638561640E+02 -0.61217199268E+02 -0.18312389003E+03  0.19483667629E+03  0.47000000000E+01 0. -1.
        -11    1    1    2    0    0  0.35830751651E+02  0.32989408845E+02 -0.51270282840E+02  0.70716234079E+02  0.00000000000E+00 0.  1.
         11    1    1    2    0    0 -0.32239212352E+02 -0.13309907222E+02  0.20042582684E+01  0.34936191758E+02  0.00000000000E+00 0. -1.
<mgrwt>
<rscale>  0 0.11734402E+03</rscale>
<asrwt>0</asrwt>
<pdfrwt beam="1">  1        3 0.67547016E-02 0.12659067E+03</pdfrwt>
<pdfrwt beam="2">  1       -3 0.51144125E-01 0.12659067E+03</pdfrwt>
<totfact> 0.12212339E+03</totfact>
</mgrwt>
</event>
<event>
 7    1  0.5400401E-006  0.1522791E+03  0.7546771E-02  0.1206638E+00
         -2   -1    0    0    0  501 -0.00000000000E+00  0.00000000000E+00  0.12751853674E+03  0.12751853674E+03  0.00000000000E+00 0.  1.
          2   -1    0    0  501    0  0.00000000000E+00 -0.00000000000E+00 -0.15703948610E+03  0.15703948610E+03  0.00000000000E+00 0. -1.
         23    2    1    2    0    0 -0.27915783339E+01  0.86924537141E+02  0.11006501203E+02  0.15267635523E+03  0.12500103323E+03 0.  0.
          5    1    3    3  502    0 -0.37888896628E+02  0.12866486870E+01  0.40259182829E+02  0.55498790568E+02  0.47000000000E+01 0. -1.
         -5    1    3    3    0  502  0.35097318294E+02  0.85637888454E+02 -0.29252681626E+02  0.97177564657E+02  0.47000000000E+01 0. -1.
        -11    1    1    2    0    0 -0.21190461588E+02  0.70184074472E+01  0.76745819907E+01  0.23604934106E+02  0.00000000000E+00 0.  1.
         11    1    1    2    0    0  0.23982039922E+02 -0.93942944589E+02 -0.48202032552E+02  0.10827673351E+03  0.00000000000E+00 0. -1.
<mgrwt>
<rscale>  0 0.14509129E+03</rscale>
<asrwt>0</asrwt>
<pdfrwt beam="2">  1        2 0.24159921E-01 0.15227911E+03</pdfrwt>
<pdfrwt beam="1">  1       -2 0.19618236E-01 0.15227911E+03</pdfrwt>
<totfact> 0.46783495E+03</totfact>
</mgrwt>
</event>
<event>
 6    1  0.5400401E-006  0.2056334E+03  0.7546771E-02  0.1176145E+00
         -1   -1    0    0    0  501 -0.00000000000E+00  0.00000000000E+00  0.82265661239E+02  0.82265661239E+02  0.00000000000E+00 0.  1.
          1   -1    0    0  501    0  0.00000000000E+00 -0.00000000000E+00 -0.38439858238E+03  0.38439858238E+03  0.00000000000E+00 0. -1.
          5    1    1    2  502    0 -0.49860045010E+02  0.49871047048E+02 -0.90432861205E+02  0.11477516198E+03  0.47000000000E+01 0. -1.
         -5    1    1    2    0  502  0.65857603900E+02 -0.79360901964E+02  0.14873413136E+02  0.10430093562E+03  0.47000000000E+01 0.  1.
        -11    1    1    2    0    0 -0.10039764551E+02  0.41972280306E+02 -0.22943951594E+03  0.23346297492E+03  0.00000000000E+00 0.  1.
         11    1    1    2    0    0 -0.59577943386E+01 -0.12482425390E+02  0.28660428624E+01  0.14125171103E+02  0.00000000000E+00 0. -1.
<mgrwt>
<rscale>  0 0.17164313E+03</rscale>
<asrwt>0</asrwt>
<pdfrwt beam="2">  1        1 0.59138242E-01 0.20563343E+03</pdfrwt>
<pdfrwt beam="1">  1       -1 0.12656256E-01 0.20563343E+03</pdfrwt>
<totfact> 0.26554325E+03</totfact>
</mgrwt>
</event>
<event>
 7    1  0.5400401E-006  0.1830645E+03  0.7546771E-02  0.1169983E+00
          1   -1    0    0  501    0  0.00000000000E+00  0.00000000000E+00  0.51019311274E+02  0.51019311274E+02  0.00000000000E+00 0. -1.
         -1   -1    0    0    0  501 -0.00000000000E+00 -0.00000000000E+00 -0.63794389900E+03  0.63794389900E+03  0.00000000000E+00 0.  1.
         23    2    1    2    0    0  0.13221167828E+03 -0.20206591604E+02 -0.40735479079E+03  0.44659885021E+03  0.12499749282E+03 0.  0.
          5    1    3    3  502    0  0.46476101766E+02 -0.26451545705E+02 -0.31807178195E+03  0.32257008662E+03  0.47000000000E+01 0.  1.
         -5    1    3    3    0  502  0.85735576509E+02  0.62449541008E+01 -0.89283008835E+02  0.12402876359E+03  0.47000000000E+01 0.  1.
        -11    1    1    2    0    0  0.14272034038E+01  0.22997181338E+02 -0.69998291870E+01  0.24081213999E+02  0.00000000000E+00 0. -1.
         11    1    1    2    0    0 -0.13363888168E+03 -0.27905897332E+01 -0.17256996775E+03  0.21828314607E+03  0.00000000000E+00 0.  1.
<mgrwt>
<rscale>  0 0.17776609E+03</rscale>
<asrwt>0</asrwt>
<pdfrwt beam="1">  1        1 0.78491243E-02 0.18306449E+03</pdfrwt>
<pdfrwt beam="2">  1       -1 0.98145222E-01 0.18306449E+03</pdfrwt>
<totfact> 0.93093131E+02</totfact>
</mgrwt>
</event>
<event>
 7    1  0.5400401E-006  0.1286352E+03  0.7546771E-02  0.1244280E+00
          2   -1    0    0  501    0  0.00000000000E+00  0.00000000000E+00  0.25016943533E+03  0.25016943533E+03  0.00000000000E+00 0. -1.
         -2   -1    0    0    0  501 -0.00000000000E+00 -0.00000000000E+00 -0.50033780010E+02  0.50033780010E+02  0.00000000000E+00 0.  1.
         23    2    1    2    0    0 -0.26535167959E+02  0.14761168220E+02  0.11428109474E+03  0.17206741516E+03  0.12500007807E+03 0.  0.
          5    1    3    3  502    0 -0.60090423199E+02  0.31080847682E+02  0.20219041528E+02  0.70765653344E+02  0.47000000000E+01 0.  1.
         -5    1    3    3    0  502  0.33555255241E+02 -0.16319679462E+02  0.94062053213E+02  0.10130176181E+03  0.47000000000E+01 0.  1.
        -11    1    1    2    0    0  0.55074570520E+00  0.30941494462E+02  0.44990041969E+01  0.31271719478E+02  0.00000000000E+00 0.  1.
         11    1    1    2    0    0  0.25984422253E+02 -0.45702662682E+02  0.81355556381E+02  0.96864080702E+02  0.00000000000E+00 0. -1.
<mgrwt>
<rscale>  0 0.11928552E+03</rscale>
<asrwt>0</asrwt>
<pdfrwt beam="1">  1        2 0.38487605E-01 0.12863525E+03</pdfrwt>
<pdfrwt beam="2">  1       -2 0.76975048E-02 0.12863525E+03</pdfrwt>
<totfact> 0.12537237E+04</totfact>
</mgrwt>
</event>
<event>
 7    1  0.5400401E-006  0.1421089E+03  0.7546771E-02  0.1221267E+00
         -1   -1    0    0    0  501 -0.00000000000E+00  0.00000000000E+00  0.16092811506E+03  0.16092811506E+03  0.00000000000E+00 0.  1.
          1   -1    0    0  501    0  0.00000000000E+00 -0.00000000000E+00 -0.11776564198E+03  0.11776564198E+03  0.00000000000E+00 0. -1.
         23    2    1    2    0    0 -0.25502839789E+02  0.62612104427E+02  0.75531884388E+02  0.16093474781E+03  0.12499702811E+03 0.  0.
          5    1    3    3  502    0 -0.89756406589E+01  0.46160453610E+01  0.96329896753E+02  0.96971176173E+02  0.47000000000E+01 0. -1.
         -5    1    3    3    0  502 -0.16527199130E+02  0.57996059066E+02 -0.20798012365E+02  0.63963571637E+02  0.47000000000E+01 0. -1.
        -11    1    1    2    0    0  0.36253704456E+02 -0.69497277006E+02  0.47268916231E+01  0.78527358943E+02  0.00000000000E+00 0.  1.
         11    1    1    2    0    0 -0.10750864667E+02  0.68851725792E+01 -0.37096302933E+02  0.39231650282E+02  0.00000000000E+00 0. -1.
<mgrwt>
<rscale>  0 0.13426084E+03</rscale>
<asrwt>0</asrwt>
<pdfrwt beam="2">  1        1 0.18117791E-01 0.14210886E+03</pdfrwt>
<pdfrwt beam="1">  1       -1 0.24758172E-01 0.14210886E+03</pdfrwt>
<totfact> 0.39564230E+03</totfact>
</mgrwt>
</event>
<event>
 7    1  0.5400401E-006  0.1703235E+03  0.7546771E-02  0.1184076E+00
          2   -1    0    0  501    0  0.00000000000E+00  0.00000000000E+00  0.17177114382E+03  0.17177114382E+03  0.00000000000E+00 0. -1.
         -2   -1    0    0    0  501 -0.00000000000E+00 -0.00000000000E+00 -0.14899879977E+03  0.14899879977E+03  0.00000000000E+00 0.  1.
         23    2    1    2    0    0 -0.11305405149E+03 -0.24568022522E+02 -0.83401610110E+01  0.17052757633E+03  0.12500115885E+03 0.  0.
          5    1    3    3  502    0 -0.44475993304E+02 -0.27036400353E+02 -0.63584917924E+02  0.82305605592E+02  0.47000000000E+01 0.  1.
         -5    1    3    3    0  502 -0.68578058189E+02  0.24683778315E+01  0.55244756913E+02  0.88221970736E+02  0.47000000000E+01 0.  1.
        -11    1    1    2    0    0  0.12842413613E+03  0.16092904989E+02  0.27809815104E+02  0.13238249940E+03  0.00000000000E+00 0.  1.
         11    1    1    2    0    0 -0.15370084640E+02  0.84751175326E+01  0.33026899588E+01  0.17859867860E+02  0.00000000000E+00 0. -1.
<mgrwt>
<rscale>  0 0.16416277E+03</rscale>
<asrwt>0</asrwt>
<pdfrwt beam="1">  1        2 0.26426330E-01 0.17032350E+03</pdfrwt>
<pdfrwt beam="2">  1       -2 0.22922892E-01 0.17032350E+03</pdfrwt>
<totfact> 0.32642109E+03</totfact>
</mgrwt>
</event>
<event>
 7    1  0.5400401E-006  0.1283767E+03  0.7546771E-02  0.1243016E+00
         -1   -1    0    0    0  501 -0.00000000000E+00  0.00000000000E+00  0.47872624447E+02  0.47872624447E+02  0.00000000000E+00 0.  1.
          1   -1    0    0  501    0  0.00000000000E+00 -0.00000000000E+00 -0.32617598066E+03  0.32617598066E+03  0.00000000000E+00 0. -1.
         23    2    1    2    0    0  0.90655827356E+01 -0.27806921967E+02 -0.76005789058E+02  0.14918933411E+03  0.12500067096E+03 0.  0.
          5    1    3    3  502    0 -0.18889655311E+02  0.23243670771E+02  0.20354584356E+02  0.36516933236E+02  0.47000000000E+01 0. -1.
         -5    1    3    3    0  502  0.27955238047E+02 -0.51050592738E+02 -0.96360373414E+02  0.11267240087E+03  0.47000000000E+01 0. -1.
        -11    1    1    2    0    0 -0.48430191408E+02  0.32417792546E+02 -0.11231381675E+03  0.12653375101E+03  0.00000000000E+00 0.  1.
         11    1    1    2    0    0  0.39364608672E+02 -0.46108705789E+01 -0.89983750413E+02  0.98325519993E+02  0.00000000000E+00 0. -1.
<mgrwt>
<rscale>  0 0.12004928E+03</rscale>
<asrwt>0</asrwt>
<pdfrwt beam="2">  1        1 0.50180920E-01 0.12837670E+03</pdfrwt>
<pdfrwt beam="1">  1       -1 0.73650192E-02 0.12837670E+03</pdfrwt>
<totfact> 0.73047800E+03</totfact>
</mgrwt>
</event>
<event>
 7    1  0.5400401E-006  0.1399621E+03  0.7546771E-02  0.1224288E+00
          1   -1    0    0  501    0  0.00000000000E+00  0.00000000000E+00  0.12410514799E+03  0.12410514799E+03  0.00000000000E+00 0. -1.
         -1   -1    0    0    0  501 -0.00000000000E+00 -0.00000000000E+00 -0.12713902190E+03  0.12713902190E+03  0.00000000000E+00 0.  1.
         23    2    1    2    0    0  0.36827976437E+02 -0.51093672996E+02 -0.12228397016E+01  0.13996748748E+03  0.12499015539E+03 0.  0.
          5    1    3    3  502    0  0.20099446000E+02  0.29931326443E+02  0.34135706857E+02  0.49871921106E+02  0.47000000000E+01 0.  1.
         -5    1    3    3    0  502  0.16728530437E+02 -0.81024999440E+02 -0.35358546558E+02  0.90095566370E+02  0.47000000000E+01 0.  1.
        -11    1    1    2    0    0  0.27214041621E+02 -0.19604561230E+01  0.53557027027E+01  0.27805233339E+02  0.00000000000E+00 0.  1.
         11    1    1    2    0    0 -0.64042018058E+02  0.53054129119E+02 -0.71667369071E+01  0.83471449080E+02  0.00000000000E+00 0. -1.
<mgrwt>
<rscale>  0 0.13215835E+03</rscale>
<asrwt>0</asrwt>
<pdfrwt beam="1">  1        1 0.19093100E-01 0.13996215E+03</pdfrwt>
<pdfrwt beam="2">  1       -1 0.19559850E-01 0.13996215E+03</pdfrwt>
<totfact> 0.54183524E+03</totfact>
</mgrwt>
</event>
<event>
 7    1  0.5400401E-006  0.1310444E+03  0.7546771E-02  0.1239154E+00
          1   -1    0    0  501    0  0.00000000000E+00  0.00000000000E+00  0.49395827138E+03  0.49395827138E+03  0.00000000000E+00 0. -1.
         -1   -1    0    0    0  501 -0.00000000000E+00 -0.00000000000E+00 -0.27621868625E+02  0.27621868625E+02  0.00000000000E+00 0.  1.
         23    2    1    2    0    0  0.16803306238E+02  0.35693433908E+02  0.22437555755E+03  0.25984038558E+03  0.12496504643E+03 0.  0.
          5    1    3    3  502    0 -0.48890926988E+02  0.41077843757E+02  0.12591575620E+03  0.14126067977E+03  0.47000000000E+01 0.  1.
         -5    1    3    3    0  502  0.65694233226E+02 -0.53844098493E+01  0.98459801347E+02  0.11857970581E+03  0.47000000000E+01 0.  1.
        -11    1    1    2    0    0  0.24278397244E+02 -0.37416256280E+02  0.19161066742E+03  0.19673348641E+03  0.00000000000E+00 0. -1.
         11    1    1    2    0    0 -0.41081703482E+02  0.17228223718E+01  0.50350177786E+02  0.65006268014E+02  0.00000000000E+00 0.  1.
<mgrwt>
<rscale>  0 0.12242235E+03</rscale>
<asrwt>0</asrwt>
<pdfrwt beam="1">  1        1 0.75993574E-01 0.13104440E+03</pdfrwt>
<pdfrwt beam="2">  1       -1 0.42495186E-02 0.13104440E+03</pdfrwt>
<totfact> 0.97969801E+03</totfact>
</mgrwt>
</event>
<event>
 7    1  0.5400401E-006  0.2790221E+03  0.7546771E-02  0.1098078E+00
         -1   -1    0    0    0  501 -0.00000000000E+00  0.00000000000E+00  0.48152273735E+02  0.48152273735E+02  0.00000000000E+00 0.  1.
          1   -1    0    0  501    0  0.00000000000E+00 -0.00000000000E+00 -0.16450121082E+04  0.16450121082E+04  0.00000000000E+00 0. -1.
         23    2    1    2    0    0  0.11720821087E+03  0.22020621362E+03 -0.10289462755E+04  0.10661068262E+04  0.12499914306E+03 0.  0.
          5    1    3    3  502    0  0.94051051816E+02  0.21097783506E+03 -0.72090253409E+03  0.75702034377E+03  0.47000000000E+01 0. -1.
         -5    1    3    3    0  502  0.23157159054E+02  0.92283785584E+01 -0.30804374145E+03  0.30908648245E+03  0.47000000000E+01 0. -1.
        -11    1    1    2    0    0 -0.64995662870E+02 -0.11212542892E+03 -0.18580191242E+03  0.22653674903E+03  0.00000000000E+00 0.  1.
         11    1    1    2    0    0 -0.52212548000E+02 -0.10808078469E+03 -0.38211164655E+03  0.40052080673E+03  0.00000000000E+00 0. -1.
<mgrwt>
<rscale>  0 0.27566870E+03</rscale>
<asrwt>0</asrwt>
<pdfrwt beam="2">  1        1 0.25307869E+00 0.27902209E+03</pdfrwt>
<pdfrwt beam="1">  1       -1 0.74080449E-02 0.27902209E+03</pdfrwt>
<totfact> 0.55642167E+02</totfact>
</mgrwt>
</event>
<event>
 7    1  0.5400401E-006  0.1754764E+03  0.7546771E-02  0.1178359E+00
         -2   -1    0    0    0  501 -0.00000000000E+00  0.00000000000E+00  0.52938837486E+02  0.52938837486E+02  0.00000000000E+00 0.  1.
          2   -1    0    0  501    0  0.00000000000E+00 -0.00000000000E+00 -0.52911047304E+03  0.52911047304E+03  0.00000000000E+00 0. -1.
         23    2    1    2    0    0 -0.12311036657E+03 -0.35586257317E+01 -0.19718443458E+03  0.26395768210E+03  0.12499252189E+03 0.  0.
          5    1    3    3  502    0 -0.12608649015E+03  0.11215529419E+02 -0.89445545591E+02  0.15506832922E+03  0.47000000000E+01 0.  1.
         -5    1    3    3    0  502  0.29761235861E+01 -0.14774155151E+02 -0.10773888899E+03  0.10888935289E+03  0.47000000000E+01 0.  1.
        -11    1    1    2    0    0  0.75331048706E+02  0.38817048111E+02 -0.10923133614E+03  0.13824982791E+03  0.00000000000E+00 0. -1.
         11    1    1    2    0    0  0.47779317862E+02 -0.35258422379E+02 -0.16975586484E+03  0.17984180052E+03  0.00000000000E+00 0.  1.
<mgrwt>
<rscale>  0 0.16951034E+03</rscale>
<asrwt>0</asrwt>
<pdfrwt beam="2">  1        2 0.81401615E-01 0.17547637E+03</pdfrwt>
<pdfrwt beam="1">  1       -2 0.81444362E-02 0.17547637E+03</pdfrwt>
<totfact> 0.52400514E+03</totfact>
</mgrwt>
</event>
<event>
 7    1  0.5400401E-006  0.1316891E+03  0.7546771E-02  0.1236695E+00
          1   -1    0    0  501    0  0.00000000000E+00  0.00000000000E+00  0.18306898220E+03  0.18306898220E+03  0.00000000000E+00 0. -1.
         -1   -1    0    0    0  501 -0.00000000000E+00 -0.00000000000E+00 -0.87442378467E+02  0.87442378467E+02  0.00000000000E+00 0.  1.
         23    2    1    2    0    0  0.36058435971E+02  0.20393257205E+02  0.30601106779E+01  0.13172462977E+03  0.12500367221E+03 0.  0.
          5    1    3    3  502    0 -0.46456655017E+02  0.97192703284E+00  0.33524328362E+01  0.46824077603E+02  0.47000000000E+01 0.  1.
         -5    1    3    3    0  502  0.82515090988E+02  0.19421330173E+02 -0.29232215829E+00  0.84900552169E+02  0.47000000000E+01 0.  1.
        -11    1    1    2    0    0 -0.27592022319E+02 -0.43158074714E+02  0.10085933033E+03  0.11312180879E+03  0.00000000000E+00 0. -1.
         11    1    1    2    0    0 -0.84664136522E+01  0.22764817508E+02 -0.82928372805E+01  0.25664922102E+02  0.00000000000E+00 0.  1.
<mgrwt>
<rscale>  0 0.12396549E+03</rscale>
<asrwt>0</asrwt>
<pdfrwt beam="1">  1        1 0.28164459E-01 0.13168908E+03</pdfrwt>
<pdfrwt beam="2">  1       -1 0.13452674E-01 0.13168908E+03</pdfrwt>
<totfact> 0.59669998E+03</totfact>
</mgrwt>
</event>
<event>
 7    1  0.5400401E-006  0.1827689E+03  0.7546771E-02  0.1170800E+00
         -1   -1    0    0    0  501 -0.00000000000E+00  0.00000000000E+00  0.60721517447E+02  0.60721517447E+02  0.00000000000E+00 0.  1.
          1   -1    0    0  501    0  0.00000000000E+00 -0.00000000000E+00 -0.57878401213E+03  0.57878401213E+03  0.00000000000E+00 0. -1.
         23    2    1    2    0    0 -0.89672836120E+02  0.98679426954E+02 -0.40141389091E+03  0.44106413660E+03  0.12500245573E+03 0.  0.
          5    1    3    3  502    0 -0.43307799435E+02  0.11898636982E+03 -0.32927298653E+03  0.35281172224E+03  0.47000000000E+01 0. -1.
         -5    1    3    3    0  502 -0.46365036685E+02 -0.20306942862E+02 -0.72140904378E+02  0.88252414356E+02  0.47000000000E+01 0. -1.
        -11    1    1    2    0    0  0.19849000997E+02 -0.57800420644E+01  0.12929364560E+02  0.24383605040E+02  0.00000000000E+00 0.  1.
         11    1    1    2    0    0  0.69823835123E+02 -0.92899384889E+02 -0.12957796834E+03  0.17405778794E+03  0.00000000000E+00 0. -1.
<mgrwt>
<rscale>  0 0.17693770E+03</rscale>
<asrwt>0</asrwt>
<pdfrwt beam="2">  1        1 0.89043692E-01 0.18276887E+03</pdfrwt>
<pdfrwt beam="1">  1       -1 0.93417721E-02 0.18276887E+03</pdfrwt>
<totfact> 0.24767455E+03</totfact>
</mgrwt>
</event>
<event>
 7    1  0.5400401E-006  0.1801603E+03  0.7546771E-02  0.1172812E+00
          4   -1    0    0  501    0  0.00000000000E+00  0.00000000000E+00  0.28709451459E+03  0.28709451459E+03  0.00000000000E+00 0. -1.
         -4   -1    0    0    0  501 -0.00000000000E+00 -0.00000000000E+00 -0.10085087959E+03  0.10085087959E+03  0.00000000000E+00 0.  1.
         23    2    1    2    0    0  0.41215007953E+02  0.12303163612E+03  0.95027800027E+02  0.20368606566E+03  0.12498908032E+03 0.  0.
          5    1    3    3  502    0 -0.52816880826E+01  0.94164155593E+02  0.11171428302E+03  0.14627698198E+03  0.47000000000E+01 0.  1.
         -5    1    3    3    0  502  0.46496696035E+02  0.28867480529E+02 -0.16686482993E+02  0.57409083680E+02  0.47000000000E+01 0.  1.
        -11    1    1    2    0    0  0.17591526875E+02 -0.23651972360E+02  0.56419112757E+02  0.63655273926E+02  0.00000000000E+00 0.  1.
         11    1    1    2    0    0 -0.58806534827E+02 -0.99379663763E+02  0.34796722216E+02  0.12060405460E+03  0.00000000000E+00 0. -1.
<mgrwt>
<rscale>  0 0.17492036E+03</rscale>
<asrwt>0</asrwt>
<pdfrwt beam="1">  1        4 0.44168387E-01 0.18016029E+03</pdfrwt>
<pdfrwt beam="2">  1       -4 0.15515520E-01 0.18016029E+03</pdfrwt>
<totfact> 0.30995199E+02</totfact>
</mgrwt>
</event>
<event>
 6    1  0.5400401E-006  0.1654803E+03  0.7546771E-02  0.1205516E+00
          2   -1    0    0  501    0  0.00000000000E+00  0.00000000000E+00  0.26828654409E+03  0.26828654409E+03  0.00000000000E+00 0. -1.
         -2   -1    0    0    0  501 -0.00000000000E+00 -0.00000000000E+00 -0.72986661695E+02  0.72986661695E+02  0.00000000000E+00 0.  1.
          5    1    1    2  502    0 -0.57796064751E+02 -0.16879732093E+02  0.98352132268E+02  0.11541465409E+03  0.47000000000E+01 0. -1.
         -5    1    1    2    0  502  0.22575698214E+02  0.49787768521E+02 -0.31260654591E+02  0.63149050425E+02  0.47000000000E+01 0.  1.
        -11    1    1    2    0    0  0.16960058349E+02  0.22190071939E+02  0.87402090155E+02  0.91756025608E+02  0.00000000000E+00 0.  1.
         11    1    1    2    0    0  0.18260308188E+02 -0.55098108367E+02  0.40806314562E+02  0.70953475665E+02  0.00000000000E+00 0. -1.
<mgrwt>
<rscale>  0 0.14596884E+03</rscale>
<asrwt>0</asrwt>
<pdfrwt beam="1">  1        2 0.41274852E-01 0.16548030E+03</pdfrwt>
<pdfrwt beam="2">  1       -2 0.11228717E-01 0.16548030E+03</pdfrwt>
<totfact> 0.65618446E+03</totfact>
</mgrwt>
</event>
<event>
 7    1  0.5400401E-006  0.1451782E+03  0.7546771E-02  0.1220476E+00
         -2   -1    0    0    0  501 -0.00000000000E+00  0.00000000000E+00  0.46652159765E+02  0.46652159765E+02  0.00000000000E+00 0.  1.
          2   -1    0    0  501    0  0.00000000000E+00 -0.00000000000E+00 -0.34348425710E+03  0.34348425710E+03  0.00000000000E+00 0. -1.
         23    2    1    2    0    0 -0.44776909424E+02  0.58699683732E+02 -0.16732250059E+03  0.22152543156E+03  0.12500429248E+03 0.  0.
          5    1    3    3  502    0  0.14491083971E+02 -0.32705014247E+02 -0.44378128009E+02  0.57193685990E+02  0.47000000000E+01 0. -1.
         -5    1    3    3    0  502 -0.59267993395E+02  0.91404697979E+02 -0.12294437258E+03  0.16433174557E+03  0.47000000000E+01 0. -1.
        -11    1    1    2    0    0  0.20898572293E+01 -0.34840313459E+02 -0.11094098125E+03  0.11630183260E+03  0.00000000000E+00 0. -1.
         11    1    1    2    0    0  0.42687052195E+02 -0.23859370273E+02 -0.18568615492E+02  0.52309152700E+02  0.00000000000E+00 0.  1.
<mgrwt>
<rscale>  0 0.13481834E+03</rscale>
<asrwt>0</asrwt>
<pdfrwt beam="2">  1        2 0.52843733E-01 0.14517816E+03</pdfrwt>
<pdfrwt beam="1">  1       -2 0.71772552E-02 0.14517816E+03</pdfrwt>
<totfact> 0.10066887E+04</totfact>
</mgrwt>
</event>
<event>
 7    1  0.5400401E-006  0.1381340E+03  0.7546771E-02  0.1228429E+00
         -2   -1    0    0    0  501 -0.00000000000E+00  0.00000000000E+00  0.84558574784E+02  0.84558574784E+02  0.00000000000E+00 0.  1.
          2   -1    0    0  501    0  0.00000000000E+00 -0.00000000000E+00 -0.17719854261E+03  0.17719854261E+03  0.00000000000E+00 0. -1.
         23    2    1    2    0    0  0.58771354450E+02  0.57694282916E+00 -0.44192964530E+02  0.14503106145E+03  0.12500634266E+03 0.  0.
          5    1    3    3  502    0 -0.30935225789E+02 -0.11644041424E+02 -0.42905356377E+02  0.54364800203E+02  0.47000000000E+01 0.  1.
         -5    1    3    3    0  502  0.89706580239E+02  0.12220984253E+02 -0.12876081524E+01  0.90666261250E+02  0.47000000000E+01 0.  1.
        -11    1    1    2    0    0 -0.10322896420E+02 -0.30913819520E+02  0.10861937955E+02  0.34354157303E+02  0.00000000000E+00 0.  1.
         11    1    1    2    0    0 -0.48448458030E+02  0.30336876691E+02 -0.59308941254E+02  0.82371898640E+02  0.00000000000E+00 0. -1.
<mgrwt>
<rscale>  0 0.12934620E+03</rscale>
<asrwt>0</asrwt>
<pdfrwt beam="2">  1        2 0.27261314E-01 0.13813396E+03</pdfrwt>
<pdfrwt beam="1">  1       -2 0.13009012E-01 0.13813396E+03</pdfrwt>
<totfact> 0.80114783E+03</totfact>
</mgrwt>
</event>
<event>
 7    1  0.5400401E-006  0.1432306E+03  0.7546771E-02  0.1219534E+00
          1   -1    0    0  501    0  0.00000000000E+00  0.00000000000E+00  0.27977441417E+03  0.27977441417E+03  0.00000000000E+00 0. -1.
         -1   -1    0    0    0  501 -0.00000000000E+00 -0.00000000000E+00 -0.60662308060E+02  0.60662308060E+02  0.00000000000E+00 0.  1.
         23    2    1    2    0    0  0.69873319097E+02 -0.22508600382E+01  0.97404973832E+02  0.17321293115E+03  0.12501057354E+03 0.  0.
          5    1    3    3  502    0  0.98296790484E+02 -0.11623429447E+02  0.37256342985E+02  0.10586542506E+03  0.47000000000E+01 0. -1.
         -5    1    3    3    0  502 -0.28423471387E+02  0.93725694083E+01  0.60148630847E+02  0.67347506084E+02  0.47000000000E+01 0. -1.
        -11    1    1    2    0    0 -0.14868688160E+02  0.12245965278E+02 -0.11727075570E+02  0.22551404715E+02  0.00000000000E+00 0.  1.
         11    1    1    2    0    0 -0.55004630936E+02 -0.99951052397E+01  0.13343420785E+03  0.14467238637E+03  0.00000000000E+00 0. -1.
<mgrwt>
<rscale>  0 0.13548690E+03</rscale>
<asrwt>0</asrwt>
<pdfrwt beam="1">  1        1 0.43042217E-01 0.14323055E+03</pdfrwt>
<pdfrwt beam="2">  1       -1 0.93326629E-02 0.14323055E+03</pdfrwt>
<totfact> 0.62203299E+03</totfact>
</mgrwt>
</event>
<event>
 7    1  0.5400401E-006  0.1457185E+03  0.7546771E-02  0.1216702E+00
          1   -1    0    0  501    0  0.00000000000E+00  0.00000000000E+00  0.34838408118E+02  0.34838408118E+02  0.00000000000E+00 0. -1.
         -1   -1    0    0    0  501 -0.00000000000E+00 -0.00000000000E+00 -0.49877289541E+03  0.49877289541E+03  0.00000000000E+00 0.  1.
         23    2    1    2    0    0 -0.23296615774E+02  0.71177324670E+02 -0.29333718958E+03  0.32753715585E+03  0.12499975128E+03 0.  0.
          5    1    3    3  502    0  0.88483377148E+01  0.74124883711E+02 -0.72041452330E+02  0.10385014357E+03  0.47000000000E+01 0. -1.
         -5    1    3    3    0  502 -0.32144953489E+02 -0.29475590413E+01 -0.22129573725E+03  0.22368701228E+03  0.47000000000E+01 0. -1.
        -11    1    1    2    0    0 -0.18087790954E+02 -0.36122178191E+02 -0.18189875398E+02  0.44304080014E+02  0.00000000000E+00 0. -1.
         11    1    1    2    0    0  0.41384406728E+02 -0.35055146479E+02 -0.15240742231E+03  0.16177006766E+03  0.00000000000E+00 0.  1.
<mgrwt>
<rscale>  0 0.13752273E+03</rscale>
<asrwt>0</asrwt>
<pdfrwt beam="1">  1        1 0.53597554E-02 0.14571850E+03</pdfrwt>
<pdfrwt beam="2">  1       -1 0.76734288E-01 0.14571850E+03</pdfrwt>
<totfact> 0.26069352E+03</totfact>
</mgrwt>
</event>
<event>
 7    1  0.5400401E-006  0.1454376E+03  0.7546771E-02  0.1215831E+00
          2   -1    0    0  501    0  0.00000000000E+00  0.00000000000E+00  0.15724393820E+03  0.15724393820E+03  0.00000000000E+00 0. -1.
         -2   -1    0    0    0  501 -0.00000000000E+00 -0.00000000000E+00 -0.11148175851E+03  0.11148175851E+03  0.00000000000E+00 0.  1.
         23    2    1    2    0    0 -0.56206702838E+02  0.48648673721E+02  0.36422763002E+02  0.14992907480E+03  0.12500489153E+03 0.  0.
          5    1    3    3  502    0 -0.33912052115E+02  0.80359855629E+02  0.58445890403E+02  0.10509874300E+03  0.47000000000E+01 0. -1.
         -5    1    3    3    0  502 -0.22294650724E+02 -0.31711181908E+02 -0.22023127401E+02  0.44830331801E+02  0.47000000000E+01 0. -1.
        -11    1    1    2    0    0  0.26672814702E+02 -0.25508486997E+00 -0.36973403275E+02  0.45590971279E+02  0.00000000000E+00 0.  1.
         11    1    1    2    0    0  0.29533888136E+02 -0.48393588851E+02  0.46312819965E+02  0.73205650625E+02  0.00000000000E+00 0. -1.
<mgrwt>
<rscale>  0 0.13815674E+03</rscale>
<asrwt>0</asrwt>
<pdfrwt beam="1">  1        2 0.24191375E-01 0.14543765E+03</pdfrwt>
<pdfrwt beam="2">  1       -2 0.17151040E-01 0.14543765E+03</pdfrwt>
<totfact> 0.58356733E+03</totfact>
</mgrwt>
</event>
<event>
 7    1  0.5400401E-006  0.1390514E+03  0.7546771E-02  0.1226108E+00
          1   -1    0    0  501    0  0.00000000000E+00  0.00000000000E+00  0.29225581893E+03  0.29225581893E+03  0.00000000000E+00 0. -1.
         -1   -1    0    0    0  501 -0.00000000000E+00 -0.00000000000E+00 -0.54967417702E+02  0.54967417702E+02  0.00000000000E+00 0.  1.
         23    2    1    2    0    0  0.60608821569E+01  0.60621843165E+02  0.97576571082E+02  0.16987196294E+03  0.12499421749E+03 0.  0.
          5    1    3    3  502    0  0.21516253619E+02  0.27485887071E+02  0.12111614921E+03  0.12613340064E+03  0.47000000000E+01 0.  1.
         -5    1    3    3    0  502 -0.15455371462E+02  0.33135956094E+02 -0.23539578127E+02  0.43738562296E+02  0.47000000000E+01 0.  1.
        -11    1    1    2    0    0 -0.13949996098E+02  0.22056211793E+02  0.30358800487E+02  0.40034180855E+02  0.00000000000E+00 0. -1.
         11    1    1    2    0    0  0.78891139409E+01 -0.82678054958E+02  0.10935302966E+03  0.13731709284E+03  0.00000000000E+00 0.  1.
<mgrwt>
<rscale>  0 0.13091222E+03</rscale>
<asrwt>0</asrwt>
<pdfrwt beam="1">  1        1 0.44962433E-01 0.13905142E+03</pdfrwt>
<pdfrwt beam="2">  1       -1 0.84565260E-02 0.13905142E+03</pdfrwt>
<totfact> 0.68317014E+03</totfact>
</mgrwt>
</event>
<event>
 7    1  0.5400401E-006  0.1494721E+03  0.7546771E-02  0.1210316E+00
         -2   -1    0    0    0  501 -0.00000000000E+00  0.00000000000E+00  0.16506662069E+03  0.16506662069E+03  0.00000000000E+00 0.  1.
          2   -1    0    0  501    0  0.00000000000E+00 -0.00000000000E+00 -0.12184465891E+03  0.12184465891E+03  0.00000000000E+00 0. -1.
         23    2    1    2    0    0 -0.66777179363E+02 -0.45925443184E+02  0.63838819610E+02  0.16253396204E+03  0.12559281791E+03 0.  0.
          5    1    3    3  502    0 -0.20359900813E+02  0.41532960970E+02  0.38132575665E+02  0.60130655534E+02  0.47000000000E+01 0.  1.
         -5    1    3    3    0  502 -0.46417278550E+02 -0.87458404154E+02  0.25706243945E+02  0.10240330650E+03  0.47000000000E+01 0.  1.
        -11    1    1    2    0    0  0.30815510834E+02 -0.17965698390E+02 -0.34650802618E+02  0.49729670707E+02  0.00000000000E+00 0. -1.
         11    1    1    2    0    0  0.35961668529E+02  0.63891141574E+02  0.14033944781E+02  0.74647646856E+02  0.00000000000E+00 0.  1.
<mgrwt>
<rscale>  0 0.14226327E+03</rscale>
<asrwt>0</asrwt>
<pdfrwt beam="2">  1        2 0.18745332E-01 0.14947205E+03</pdfrwt>
<pdfrwt beam="1">  1       -2 0.25394865E-01 0.14947205E+03</pdfrwt>
<totfact> 0.39873371E+03</totfact>
</mgrwt>
</event>
<event>
 7    1  0.5400401E-006  0.1566750E+03  0.7546771E-02  0.1200421E+00
         -1   -1    0    0    0  501 -0.00000000000E+00  0.00000000000E+00  0.17594543879E+03  0.17594543879E+03  0.00000000000E+00 0.  1.
          1   -1    0    0  501    0  0.00000000000E+00 -0.00000000000E+00 -0.12946707564E+03  0.12946707564E+03  0.00000000000E+00 0. -1.
         23    2    1    2    0    0 -0.73632472266E+02  0.59137151278E+02  0.69909011392E+02  0.17156432193E+03  0.12501241159E+03 0.  0.
          5    1    3    3  502    0  0.11760831983E+02  0.43492096510E+02 -0.17235333370E+02  0.48466755040E+02  0.47000000000E+01 0. -1.
         -5    1    3    3    0  502 -0.85393304249E+02  0.15645054768E+02  0.87144344762E+02  0.12309756689E+03  0.47000000000E+01 0. -1.
        -11    1    1    2    0    0 -0.44460903345E+01 -0.47612094547E+02  0.87534032886E+01  0.48613797790E+02  0.00000000000E+00 0. -1.
         11    1    1    2    0    0  0.78078562601E+02 -0.11525056731E+02 -0.32184051527E+02  0.85234394719E+02  0.00000000000E+00 0.  1.
<mgrwt>
<rscale>  0 0.15004215E+03</rscale>
<asrwt>0</asrwt>
<pdfrwt beam="2">  1        1 0.19918012E-01 0.15667497E+03</pdfrwt>
<pdfrwt beam="1">  1       -1 0.27068529E-01 0.15667497E+03</pdfrwt>
<totfact> 0.30397511E+03</totfact>
</mgrwt>
</event>
<event>
 7    1  0.5400401E-006  0.1340075E+03  0.7546771E-02  0.1235762E+00
         -1   -1    0    0    0  501 -0.00000000000E+00  0.00000000000E+00  0.46400675720E+03  0.46400675720E+03  0.00000000000E+00 0.  1.
          1   -1    0    0  501    0  0.00000000000E+00 -0.00000000000E+00 -0.38213426712E+02  0.38213426712E+02  0.00000000000E+00 0. -1.
         23    2    1    2    0    0  0.22924089636E+02 -0.42580175212E+02  0.35563665546E+03  0.38004661419E+03  0.12497765018E+03 0.  0.
          5    1    3    3  502    0 -0.47469827921E+02 -0.11431728106E+01  0.18115500517E+03  0.18733370574E+03  0.47000000000E+01 0. -1.
         -5    1    3    3    0  502  0.70393917557E+02 -0.41437002401E+02  0.17448165029E+03  0.19271290845E+03  0.47000000000E+01 0. -1.
        -11    1    1    2    0    0 -0.41511704078E+02  0.48422424398E+02  0.17663764798E+02  0.66181276407E+02  0.00000000000E+00 0. -1.
         11    1    1    2    0    0  0.18587614442E+02 -0.58422491860E+01  0.52492910233E+02  0.55992293317E+02  0.00000000000E+00 0.  1.
<mgrwt>
<rscale>  0 0.12455774E+03</rscale>
<asrwt>0</asrwt>
<pdfrwt beam="2">  1        1 0.58789891E-02 0.13400746E+03</pdfrwt>
<pdfrwt beam="1">  1       -1 0.71385651E-01 0.13400746E+03</pdfrwt>
<totfact> 0.26450645E+03</totfact>
</mgrwt>
</event>
<event>
 7    1  0.5400401E-006  0.1665586E+03  0.7546771E-02  0.1188035E+00
          1   -1    0    0  501    0  0.00000000000E+00  0.00000000000E+00  0.39452373926E+03  0.39452373926E+03  0.00000000000E+00 0. -1.
         -1   -1    0    0    0  501 -0.00000000000E+00 -0.00000000000E+00 -0.89353436410E+02  0.89353436410E+02  0.00000000000E+00 0.  1.
         23    2    1    2    0    0 -0.94471961613E+02 -0.56494797670E+02  0.24360800129E+02  0.16833066910E+03  0.12500060753E+03 0.  0.
          5    1    3    3  502    0  0.25852506545E+02  0.33765442162E+00 -0.13981161641E+02  0.29766239030E+02  0.47000000000E+01 0. -1.
         -5    1    3    3    0  502 -0.12032446816E+03 -0.56832452091E+02  0.38341961770E+02  0.13856443007E+03  0.47000000000E+01 0. -1.
        -11    1    1    2    0    0  0.49423970640E+02  0.73532665986E+02  0.22507563254E+03  0.24188596942E+03  0.00000000000E+00 0. -1.
         11    1    1    2    0    0  0.45047990973E+02 -0.17037868316E+02  0.55733870183E+02  0.73660537148E+02  0.00000000000E+00 0.  1.
<mgrwt>
<rscale>  0 0.16058779E+03</rscale>
<asrwt>0</asrwt>
<pdfrwt beam="1">  1        1 0.60695959E-01 0.16655860E+03</pdfrwt>
<pdfrwt beam="2">  1       -1 0.13746683E-01 0.16655860E+03</pdfrwt>
<totfact> 0.22428378E+03</totfact>
</mgrwt>
</event>
<event>
 7    1  0.5400401E-006  0.1588605E+03  0.7546771E-02  0.1197890E+00
         -1   -1    0    0    0  501 -0.00000000000E+00  0.00000000000E+00  0.92502490928E+02  0.92502490928E+02  0.00000000000E+00 0.  1.
          1   -1    0    0  501    0  0.00000000000E+00 -0.00000000000E+00 -0.27529425693E+03  0.27529425693E+03  0.00000000000E+00 0. -1.
         23    2    1    2    0    0 -0.93188643586E+02  0.30468289398E+02 -0.24596958731E+02  0.16075343334E+03  0.12499686396E+03 0.  0.
          5    1    3    3  502    0 -0.10026425451E+03  0.21631069286E+01 -0.58165665518E+02  0.11602988585E+03  0.47000000000E+01 0. -1.
         -5    1    3    3    0  502  0.70756109277E+01  0.28305182470E+02  0.33568706787E+02  0.44723547489E+02  0.47000000000E+01 0. -1.
        -11    1    1    2    0    0  0.62497908971E+02  0.24613170055E+02 -0.10449128878E+03  0.12421846158E+03  0.00000000000E+00 0.  1.
         11    1    1    2    0    0  0.30690734615E+02 -0.55081459453E+02 -0.53703518490E+02  0.82824852942E+02  0.00000000000E+00 0. -1.
<mgrwt>
<rscale>  0 0.15212141E+03</rscale>
<asrwt>0</asrwt>
<pdfrwt beam="2">  1        1 0.42352963E-01 0.15886049E+03</pdfrwt>
<pdfrwt beam="1">  1       -1 0.14231152E-01 0.15886049E+03</pdfrwt>
<totfact> 0.33271547E+03</totfact>
</mgrwt>
</event>
<event>
 7    1  0.5400401E-006  0.1312070E+03  0.7546771E-02  0.1236484E+00
         -3   -1    0    0    0  501 -0.00000000000E+00  0.00000000000E+00  0.28360047740E+03  0.28360047740E+03  0.00000000000E+00 0.  1.
          3   -1    0    0  501    0  0.00000000000E+00 -0.00000000000E+00 -0.50159218309E+02  0.50159218309E+02  0.00000000000E+00 0. -1.
         23    2    1    2    0    0  0.37743396690E+01  0.39707274385E+02  0.15254085754E+03  0.20120634896E+03  0.12499747343E+03 0.  0.
          5    1    3    3  502    0  0.54106802181E+01  0.77362900156E+02  0.14187251731E+03  0.16175350058E+03  0.47000000000E+01 0.  1.
         -5    1    3    3    0  502 -0.16363405491E+01 -0.37655625771E+02  0.10668340233E+02  0.39452848388E+02  0.47000000000E+01 0.  1.
        -11    1    1    2    0    0 -0.33460526305E+01  0.21147047223E+02  0.66714722369E+02  0.70066024971E+02  0.00000000000E+00 0.  1.
         11    1    1    2    0    0 -0.42828703853E+00 -0.60854321608E+02  0.14185679175E+02  0.62487321769E+02  0.00000000000E+00 0. -1.
<mgrwt>
<rscale>  0 0.12409882E+03</rscale>
<asrwt>0</asrwt>
<pdfrwt beam="2">  1        3 0.77168030E-02 0.13120702E+03</pdfrwt>
<pdfrwt beam="1">  1       -3 0.43630842E-01 0.13120702E+03</pdfrwt>
<totfact> 0.13564670E+03</totfact>
</mgrwt>
</event>
<event>
 7    1  0.5400401E-006  0.1969006E+03  0.7546771E-02  0.1156630E+00
          2   -1    0    0  501    0  0.00000000000E+00  0.00000000000E+00  0.79627950099E+03  0.79627950099E+03  0.00000000000E+00 0. -1.
         -2   -1    0    0    0  501 -0.00000000000E+00 -0.00000000000E+00 -0.53170221567E+02  0.53170221567E+02  0.00000000000E+00 0.  1.
         23    2    1    2    0    0  0.95155589697E+02 -0.11873351330E+03  0.21239691369E+03  0.28962438960E+03  0.12497041520E+03 0.  0.
          5    1    3    3  502    0  0.77046711713E+02 -0.13531490057E+01  0.96859194151E+02  0.12386210191E+03  0.47000000000E+01 0. -1.
         -5    1    3    3    0  502  0.18108877984E+02 -0.11738036429E+03  0.11553771954E+03  0.16576228769E+03  0.47000000000E+01 0. -1.
        -11    1    1    2    0    0 -0.20995826831E+02 -0.76485294484E+01  0.26056298644E+02  0.34325725718E+02  0.00000000000E+00 0.  1.
         11    1    1    2    0    0 -0.74159762866E+02  0.12638204275E+03  0.50465606709E+03  0.52549960724E+03  0.00000000000E+00 0. -1.
<mgrwt>
<rscale>  0 0.19204418E+03</rscale>
<asrwt>0</asrwt>
<pdfrwt beam="1">  1        2 0.12250453E+00 0.19690058E+03</pdfrwt>
<pdfrwt beam="2">  1       -2 0.81800347E-02 0.19690058E+03</pdfrwt>
<totfact> 0.32260546E+03</totfact>
</mgrwt>
</event>
<event>
 7    1  0.5400401E-006  0.1473705E+03  0.7546771E-02  0.1212843E+00
         -2   -1    0    0    0  501 -0.00000000000E+00  0.00000000000E+00  0.29049102016E+03  0.29049102016E+03  0.00000000000E+00 0.  1.
          2   -1    0    0  501    0  0.00000000000E+00 -0.00000000000E+00 -0.16079956425E+03  0.16079956425E+03  0.00000000000E+00 0. -1.
         23    2    1    2    0    0 -0.45394063818E+01  0.77953977530E+02  0.24373161500E+03  0.28482128135E+03  0.12498253214E+03 0.  0.
          5    1    3    3  502    0 -0.21287726688E+02  0.10922097469E+03  0.19088667839E+03  0.22100272081E+03  0.47000000000E+01 0.  1.
         -5    1    3    3    0  502  0.16748320306E+02 -0.31266997160E+02  0.52844936605E+02  0.63818560539E+02  0.47000000000E+01 0.  1.
        -11    1    1    2    0    0 -0.36358877714E+02 -0.59416928542E+01 -0.48219617700E+02  0.60682808387E+02  0.00000000000E+00 0.  1.
         11    1    1    2    0    0  0.40898284096E+02 -0.72012284675E+02 -0.65820541384E+02  0.10578649467E+03  0.00000000000E+00 0. -1.
<mgrwt>
<rscale>  0 0.14036148E+03</rscale>
<asrwt>0</asrwt>
<pdfrwt beam="2">  1        2 0.24738395E-01 0.14737049E+03</pdfrwt>
<pdfrwt beam="1">  1       -2 0.44690926E-01 0.14737049E+03</pdfrwt>
<totfact> 0.10310813E+03</totfact>
</mgrwt>
</event>
<event>
 7    1  0.5400401E-006  0.1509595E+03  0.7546771E-02  0.1208250E+00
         -1   -1    0    0    0  501 -0.00000000000E+00  0.00000000000E+00  0.54266905818E+02  0.54266905818E+02  0.00000000000E+00 0.  1.
          1   -1    0    0  501    0  0.00000000000E+00 -0.00000000000E+00 -0.45762965402E+03  0.45762965402E+03  0.00000000000E+00 0. -1.
         23    2    1    2    0    0  0.78183396686E+02  0.32427782459E+02 -0.92485872637E+02  0.17703786837E+03  0.12499826242E+03 0.  0.
          5    1    3    3  502    0  0.69592616067E+02 -0.37934441387E+02 -0.56123305626E+02  0.97232039415E+02  0.47000000000E+01 0.  1.
         -5    1    3    3    0  502  0.85907806193E+01  0.70362223846E+02 -0.36362567010E+02  0.79805828959E+02  0.47000000000E+01 0.  1.
        -11    1    1    2    0    0 -0.49499583849E+02  0.24955099944E+02 -0.98774686841E+02  0.11326696153E+03  0.00000000000E+00 0.  1.
         11    1    1    2    0    0 -0.28683812837E+02 -0.57382882403E+02 -0.21210218872E+03  0.22159172993E+03  0.00000000000E+00 0. -1.
<mgrwt>
<rscale>  0 0.14384257E+03</rscale>
<asrwt>0</asrwt>
<pdfrwt beam="2">  1        1 0.70404564E-01 0.15095950E+03</pdfrwt>
<pdfrwt beam="1">  1       -1 0.83487545E-02 0.15095950E+03</pdfrwt>
<totfact> 0.39827258E+03</totfact>
</mgrwt>
</event>
<event>
 7    1  0.5400401E-006  0.1455738E+03  0.7546771E-02  0.1216591E+00
         -1   -1    0    0    0  501 -0.00000000000E+00  0.00000000000E+00  0.26699292730E+02  0.26699292730E+02  0.00000000000E+00 0.  1.
          1   -1    0    0  501    0  0.00000000000E+00 -0.00000000000E+00 -0.64195652509E+03  0.64195652509E+03  0.00000000000E+00 0. -1.
         23    2    1    2    0    0  0.57457758885E+02  0.47648591723E+02 -0.33562322367E+03  0.36583420721E+03  0.12497974455E+03 0.  0.
          5    1    3    3  502    0 -0.24699880204E+02  0.45618799193E+02 -0.66908560937E+02  0.84793893934E+02  0.47000000000E+01 0.  1.
         -5    1    3    3    0  502  0.82157639089E+02  0.20297925303E+01 -0.26871466273E+03  0.28104031327E+03  0.47000000000E+01 0.  1.
        -11    1    1    2    0    0 -0.40691315600E+02  0.19743589393E+02 -0.87041980754E+02  0.98091278414E+02  0.00000000000E+00 0.  1.
         11    1    1    2    0    0 -0.16766443286E+02 -0.67392181116E+02 -0.19259202793E+03  0.20473033219E+03  0.00000000000E+00 0. -1.
<mgrwt>
<rscale>  0 0.13760276E+03</rscale>
<asrwt>0</asrwt>
<pdfrwt beam="2">  1        1 0.98762536E-01 0.14557376E+03</pdfrwt>
<pdfrwt beam="1">  1       -1 0.41075838E-02 0.14557376E+03</pdfrwt>
<totfact> 0.72941244E+03</totfact>
</mgrwt>
</event>
<event>
 7    1  0.5400401E-006  0.3014034E+03  0.7546771E-02  0.1085338E+00
         -1   -1    0    0    0  501 -0.00000000000E+00  0.00000000000E+00  0.15038016965E+03  0.15038016965E+03  0.00000000000E+00 0.  1.
          1   -1    0    0  501    0  0.00000000000E+00 -0.00000000000E+00 -0.60900438601E+03  0.60900438601E+03  0.00000000000E+00 0. -1.
         23    2    1    2    0    0 -0.20248375369E+03  0.17445284974E+03 -0.16248008100E+03  0.33683828952E+03  0.12500715690E+03 0.  0.
          5    1    3    3  502    0 -0.19955475935E+03  0.11385963460E+03 -0.15085572350E+03  0.27489208370E+03  0.47000000000E+01 0. -1.
         -5    1    3    3    0  502 -0.29289943405E+01  0.60593215133E+02 -0.11624357506E+02  0.61946205819E+02  0.47000000000E+01 0. -1.
        -11    1    1    2    0    0  0.57541965097E+02  0.15433257980E+02 -0.84526017814E+02  0.10341136730E+03  0.00000000000E+00 0. -1.
         11    1    1    2    0    0  0.14494178859E+03 -0.18988610772E+03 -0.21161811755E+03  0.31913489884E+03  0.00000000000E+00 0.  1.
<mgrwt>
<rscale>  0 0.29980480E+03</rscale>
<asrwt>0</asrwt>
<pdfrwt beam="2">  1        1 0.93692983E-01 0.30140338E+03</pdfrwt>
<pdfrwt beam="1">  1       -1 0.23135411E-01 0.30140338E+03</pdfrwt>
<totfact> 0.54784900E+02</totfact>
</mgrwt>
</event>
<event>
 7    1  0.5400401E-006  0.1402823E+03  0.7546771E-02  0.1224228E+00
          1   -1    0    0  501    0  0.00000000000E+00  0.00000000000E+00  0.50646317357E+03  0.50646317357E+03  0.00000000000E+00 0. -1.
         -1   -1    0    0    0  501 -0.00000000000E+00 -0.00000000000E+00 -0.32328397124E+02  0.32328397124E+02  0.00000000000E+00 0.  1.
         23    2    1    2    0    0  0.19266788219E+02 -0.60681970176E+02  0.21139521559E+03  0.25370666077E+03  0.12500248763E+03 0.  0.
          5    1    3    3  502    0  0.16337843705E+02  0.37174036282E+02  0.46790204481E+02  0.62130888822E+02  0.47000000000E+01 0.  1.
         -5    1    3    3    0  502  0.29289445144E+01 -0.97856006459E+02  0.16460501110E+03  0.19157577195E+03  0.47000000000E+01 0.  1.
        -11    1    1    2    0    0  0.13088456974E+02  0.68203499192E+02  0.12108120582E+03  0.13958396545E+03  0.00000000000E+00 0. -1.
         11    1    1    2    0    0 -0.32355245193E+02 -0.75215290160E+01  0.14165835505E+03  0.14550094448E+03  0.00000000000E+00 0.  1.
<mgrwt>
<rscale>  0 0.13219980E+03</rscale>
<asrwt>0</asrwt>
<pdfrwt beam="1">  1        1 0.77917405E-01 0.14028233E+03</pdfrwt>
<pdfrwt beam="2">  1       -1 0.49735999E-02 0.14028233E+03</pdfrwt>
<totfact> 0.75523432E+03</totfact>
</mgrwt>
</event>
<event>
 7    1  0.5400401E-006  0.2489153E+03  0.7546771E-02  0.1116021E+00
         -1   -1    0    0    0  501 -0.00000000000E+00  0.00000000000E+00  0.76629956948E+02  0.76629956948E+02  0.00000000000E+00 0.  1.
          1   -1    0    0  501    0  0.00000000000E+00 -0.00000000000E+00 -0.11587473278E+04  0.11587473278E+04  0.00000000000E+00 0. -1.
         23    2    1    2    0    0 -0.19520139787E+03 -0.90727774630E+02 -0.19194920414E+03  0.31432998203E+03  0.12499490314E+03 0.  0.
          5    1    3    3  502    0 -0.13798829988E+03 -0.11314233242E+03 -0.10291243247E+03  0.20604615271E+03  0.47000000000E+01 0.  1.
         -5    1    3    3    0  502 -0.57213097986E+02  0.22414557788E+02 -0.89036771670E+02  0.10828382932E+03  0.47000000000E+01 0.  1.
        -11    1    1    2    0    0  0.17313810929E+03  0.84988042701E+02 -0.86827824241E+03  0.88944189160E+03  0.00000000000E+00 0. -1.
         11    1    1    2    0    0  0.22063288580E+02  0.57397319290E+01 -0.21889924275E+02  0.31605411093E+02  0.00000000000E+00 0.  1.
<mgrwt>
<rscale>  0 0.24574978E+03</rscale>
<asrwt>0</asrwt>
<pdfrwt beam="2">  1        1 0.17826880E+00 0.24891533E+03</pdfrwt>
<pdfrwt beam="1">  1       -1 0.11789226E-01 0.24891533E+03</pdfrwt>
<totfact> 0.57992310E+02</totfact>
</mgrwt>
</event>
<event>
 6    1  0.5400401E-006  0.1645399E+03  0.7546771E-02  0.1207298E+00
          2   -1    0    0  501    0  0.00000000000E+00  0.00000000000E+00  0.92827905872E+02  0.92827905872E+02  0.00000000000E+00 0. -1.
         -2   -1    0    0    0  501 -0.00000000000E+00 -0.00000000000E+00 -0.50047444415E+03  0.50047444415E+03  0.00000000000E+00 0.  1.
          5    1    1    2  502    0  0.62803878561E+02 -0.15581597096E+02 -0.13752878928E+03  0.15206370774E+03  0.47000000000E+01 0. -1.
         -5    1    1    2    0  502 -0.96209356025E+02 -0.17196794599E+01 -0.31786924307E+03  0.33214777310E+03  0.47000000000E+01 0.  1.
        -11    1    1    2    0    0  0.45596034727E+02  0.45826421669E+01 -0.11524152497E+02  0.47252566944E+02  0.00000000000E+00 0.  1.
         11    1    1    2    0    0 -0.12190557263E+02  0.12718634389E+02  0.59275646573E+02  0.61838302239E+02  0.00000000000E+00 0. -1.
<mgrwt>
<rscale>  0 0.14457854E+03</rscale>
<asrwt>0</asrwt>
<pdfrwt beam="1">  1        2 0.14281216E-01 0.16453994E+03</pdfrwt>
<pdfrwt beam="2">  1       -2 0.76996068E-01 0.16453994E+03</pdfrwt>
<totfact> 0.63505343E+02</totfact>
</mgrwt>
</event>
<event>
 7    1  0.5400401E-006  0.1766110E+03  0.7546771E-02  0.1178764E+00
         -1   -1    0    0    0  501 -0.00000000000E+00  0.00000000000E+00  0.11441631699E+03  0.11441631699E+03  0.00000000000E+00 0.  1.
          1   -1    0    0  501    0  0.00000000000E+00 -0.00000000000E+00 -0.23414464177E+03  0.23414464177E+03  0.00000000000E+00 0. -1.
         23    2    1    2    0    0  0.10546092707E+03  0.66660618787E+02 -0.44750898971E+02  0.18219247538E+03  0.12500323952E+03 0.  0.
          5    1    3    3  502    0  0.17620883496E+02 -0.23913127533E+02  0.23956090223E+02  0.38448894163E+02  0.47000000000E+01 0.  1.
         -5    1    3    3    0  502  0.87840043577E+02  0.90573746321E+02 -0.68706989193E+02  0.14374358122E+03  0.47000000000E+01 0.  1.
        -11    1    1    2    0    0 -0.47877134438E+02  0.10809711153E+02 -0.10230315158E+02  0.50137104079E+02  0.00000000000E+00 0.  1.
         11    1    1    2    0    0 -0.57583792634E+02 -0.77470329940E+02 -0.64747110650E+02  0.11623137929E+03  0.00000000000E+00 0. -1.
<mgrwt>
<rscale>  0 0.16912442E+03</rscale>
<asrwt>0</asrwt>
<pdfrwt beam="2">  1        1 0.36022252E-01 0.17661103E+03</pdfrwt>
<pdfrwt beam="1">  1       -1 0.17602510E-01 0.17661103E+03</pdfrwt>
<totfact> 0.29202206E+03</totfact>
</mgrwt>
</event>
<event>
 7    1  0.5400401E-006  0.1429550E+03  0.7546771E-02  0.1222307E+00
          1   -1    0    0  501    0  0.00000000000E+00  0.00000000000E+00  0.29333979443E+03  0.29333979443E+03  0.00000000000E+00 0. -1.
         -1   -1    0    0    0  501 -0.00000000000E+00 -0.00000000000E+00 -0.66321709251E+02  0.66321709251E+02  0.00000000000E+00 0.  1.
         23    2    1    2    0    0 -0.50517510163E+02 -0.47535397587E+02  0.49201867866E+02  0.15118516008E+03  0.12499798386E+03 0.  0.
          5    1    3    3  502    0  0.17021269833E+02 -0.26810020297E+02 -0.30704900746E+02  0.44422761563E+02  0.47000000000E+01 0. -1.
         -5    1    3    3    0  502 -0.67538779996E+02 -0.20725377289E+02  0.79906768612E+02  0.10676239852E+03  0.47000000000E+01 0. -1.
        -11    1    1    2    0    0  0.79325708355E+01  0.45932202228E+02  0.31946172605E+02  0.56508856170E+02  0.00000000000E+00 0.  1.
         11    1    1    2    0    0  0.42584939327E+02  0.16031953587E+01  0.14587004471E+03  0.15196748743E+03  0.00000000000E+00 0. -1.
<mgrwt>
<rscale>  0 0.13353213E+03</rscale>
<asrwt>0</asrwt>
<pdfrwt beam="1">  1        1 0.45129198E-01 0.14295499E+03</pdfrwt>
<pdfrwt beam="2">  1       -1 0.10203340E-01 0.14295499E+03</pdfrwt>
<totfact> 0.51188953E+03</totfact>
</mgrwt>
</event>
<event>
 7    1  0.5400401E-006  0.1628704E+03  0.7546771E-02  0.1192276E+00
          1   -1    0    0  501    0  0.00000000000E+00  0.00000000000E+00  0.44623234148E+03  0.44623234148E+03  0.00000000000E+00 0. -1.
         -1   -1    0    0    0  501 -0.00000000000E+00 -0.00000000000E+00 -0.51449481447E+02  0.51449481447E+02  0.00000000000E+00 0.  1.
         23    2    1    2    0    0 -0.79932000010E+02  0.67292005589E+02  0.21352786793E+03  0.26855336530E+03  0.12493766842E+03 0.  0.
          5    1    3    3  502    0 -0.24926537076E+02  0.27127527361E+01 -0.11528602171E+02  0.27994462775E+02  0.47000000000E+01 0. -1.
         -5    1    3    3    0  502 -0.55005462934E+02  0.64579252853E+02  0.22505647010E+03  0.24055890253E+03  0.47000000000E+01 0. -1.
        -11    1    1    2    0    0 -0.84588620941E+01 -0.28984607724E+02  0.85640095979E+01  0.31384743001E+02  0.00000000000E+00 0.  1.
         11    1    1    2    0    0  0.88390862104E+02 -0.38307397866E+02  0.17269098251E+03  0.19774371463E+03  0.00000000000E+00 0. -1.
<mgrwt>
<rscale>  0 0.15687082E+03</rscale>
<asrwt>0</asrwt>
<pdfrwt beam="1">  1        1 0.68651127E-01 0.16287038E+03</pdfrwt>
<pdfrwt beam="2">  1       -1 0.79153051E-02 0.16287038E+03</pdfrwt>
<totfact> 0.44760603E+03</totfact>
</mgrwt>
</event>
<event>
 7    1  0.5400401E-006  0.2073971E+03  0.7546771E-02  0.1147731E+00
         -2   -1    0    0    0  501 -0.00000000000E+00  0.00000000000E+00  0.31368160622E+02  0.31368160622E+02  0.00000000000E+00 0.  1.
          2   -1    0    0  501    0  0.00000000000E+00 -0.00000000000E+00 -0.14062216869E+04  0.14062216869E+04  0.00000000000E+00 0. -1.
         23    2    1    2    0    0  0.51434718112E+02 -0.15731463185E+03 -0.47531777659E+03  0.51859477319E+03  0.12498050414E+03 0.  0.
          5    1    3    3  502    0  0.99520475382E+01 -0.92982648585E+02 -0.40105767223E+03  0.41184240025E+03  0.47000000000E+01 0. -1.
         -5    1    3    3    0  502  0.41482670574E+02 -0.64331983264E+02 -0.74260104359E+02  0.10675237294E+03  0.47000000000E+01 0. -1.
        -11    1    1    2    0    0 -0.45344125484E+02  0.18261068720E+02 -0.24276355049E+03  0.24763622068E+03  0.00000000000E+00 0. -1.
         11    1    1    2    0    0 -0.60905926285E+01  0.13905356313E+03 -0.65677219917E+03  0.67135885363E+03  0.00000000000E+00 0.  1.
<mgrwt>
<rscale>  0 0.20239885E+03</rscale>
<asrwt>0</asrwt>
<pdfrwt beam="2">  1        2 0.21634179E+00 0.20739708E+03</pdfrwt>
<pdfrwt beam="1">  1       -2 0.48258709E-02 0.20739708E+03</pdfrwt>
<totfact> 0.31621383E+03</totfact>
</mgrwt>
</event>
<event>
 7    1  0.5400401E-006  0.1507601E+03  0.7546771E-02  0.1208791E+00
          2   -1    0    0  501    0  0.00000000000E+00  0.00000000000E+00  0.42556666717E+03  0.42556666717E+03  0.00000000000E+00 0. -1.
         -2   -1    0    0    0  501 -0.00000000000E+00 -0.00000000000E+00 -0.46827608973E+02  0.46827608973E+02  0.00000000000E+00 0.  1.
         23    2    1    2    0    0  0.83901699911E+02  0.79583899256E+01  0.15130065574E+03  0.21358952028E+03  0.12500305408E+03 0.  0.
          5    1    3    3  502    0  0.10368800602E+03  0.26440274951E+02  0.15218084132E+03  0.18609510793E+03  0.47000000000E+01 0. -1.
         -5    1    3    3    0  502 -0.19786306111E+02 -0.18481885026E+02 -0.88018558205E+00  0.27494412346E+02  0.47000000000E+01 0. -1.
        -11    1    1    2    0    0 -0.36498787896E+02  0.14600116861E+02  0.19074917586E+03  0.19475772904E+03  0.00000000000E+00 0. -1.
         11    1    1    2    0    0 -0.47402912015E+02 -0.22558506786E+02  0.36689226597E+02  0.64047026818E+02  0.00000000000E+00 0.  1.
<mgrwt>
<rscale>  0 0.14342650E+03</rscale>
<asrwt>0</asrwt>
<pdfrwt beam="1">  1        2 0.65471792E-01 0.15076006E+03</pdfrwt>
<pdfrwt beam="2">  1       -2 0.72042478E-02 0.15076006E+03</pdfrwt>
<totfact> 0.79786409E+03</totfact>
</mgrwt>
</event>
<event>
 7    1  0.5400401E-006  0.2043999E+03  0.7546771E-02  0.1150100E+00
          1   -1    0    0  501    0  0.00000000000E+00  0.00000000000E+00  0.20690192846E+03  0.20690192846E+03  0.00000000000E+00 0. -1.
         -1   -1    0    0    0  501 -0.00000000000E+00 -0.00000000000E+00 -0.18429534919E+03  0.18429534919E+03  0.00000000000E+00 0.  1.
         23    2    1    2    0    0  0.15167887003E+03 -0.56091080661E+02  0.20442285390E+02  0.20541956542E+03  0.12500648737E+03 0.  0.
          5    1    3    3  502    0 -0.14121132665E+02  0.16771951279E+02  0.80756763638E+01  0.23832987353E+02  0.47000000000E+01 0.  1.
         -5    1    3    3    0  502  0.16580000269E+03 -0.72863031940E+02  0.12366609026E+02  0.18158657807E+03  0.47000000000E+01 0.  1.
        -11    1    1    2    0    0 -0.95730524993E+02 -0.45834951838E+01 -0.24719999721E+02  0.98976867144E+02  0.00000000000E+00 0. -1.
         11    1    1    2    0    0 -0.55948345033E+02  0.60674575845E+02  0.26884293603E+02  0.86800845091E+02  0.00000000000E+00 0.  1.
<mgrwt>
<rscale>  0 0.19957287E+03</rscale>
<asrwt>0</asrwt>
<pdfrwt beam="1">  1        1 0.31831066E-01 0.20439988E+03</pdfrwt>
<pdfrwt beam="2">  1       -1 0.28353131E-01 0.20439988E+03</pdfrwt>
<totfact> 0.15688336E+03</totfact>
</mgrwt>
</event>
<event>
 7    1  0.5400401E-006  0.1542316E+03  0.7546771E-02  0.1203534E+00
          2   -1    0    0  501    0  0.00000000000E+00  0.00000000000E+00  0.24445529822E+03  0.24445529822E+03  0.00000000000E+00 0. -1.
         -2   -1    0    0    0  501 -0.00000000000E+00 -0.00000000000E+00 -0.82339475773E+02  0.82339475773E+02  0.00000000000E+00 0.  1.
         23    2    1    2    0    0  0.58315513655E+01  0.90153990997E+02  0.79858870961E+02  0.17368027477E+03  0.12500259793E+03 0.  0.
          5    1    3    3  502    0 -0.32877962153E+02  0.94976658716E+02  0.87866191708E+02  0.13358174928E+03  0.47000000000E+01 0. -1.
         -5    1    3    3    0  502  0.38709513518E+02 -0.48226677192E+01 -0.80073207470E+01  0.40098525488E+02  0.47000000000E+01 0. -1.
        -11    1    1    2    0    0 -0.37348653100E+02 -0.23497415525E+02  0.20588445970E+01  0.44173399980E+02  0.00000000000E+00 0.  1.
         11    1    1    2    0    0  0.31517101735E+02 -0.66656575472E+02  0.80198106888E+02  0.10894109924E+03  0.00000000000E+00 0. -1.
<mgrwt>
<rscale>  0 0.14753586E+03</rscale>
<asrwt>0</asrwt>
<pdfrwt beam="1">  1        2 0.37608507E-01 0.15423164E+03</pdfrwt>
<pdfrwt beam="2">  1       -2 0.12667612E-01 0.15423164E+03</pdfrwt>
<totfact> 0.59496159E+03</totfact>
</mgrwt>
</event>
<event>
 7    1  0.5400401E-006  0.1396254E+03  0.7546771E-02  0.1221331E+00
          1   -1    0    0  501    0  0.00000000000E+00  0.00000000000E+00  0.61848623934E+02  0.61848623934E+02  0.00000000000E+00 0. -1.
         -1   -1    0    0    0  501 -0.00000000000E+00 -0.00000000000E+00 -0.27773116775E+03  0.27773116775E+03  0.00000000000E+00 0.  1.
         23    2    1    2    0    0  0.37276313408E+02 -0.49824294912E+02 -0.89517809013E+02  0.16585743962E+03  0.12499307277E+03 0.  0.
          5    1    3    3  502    0 -0.61434356015E+01  0.32132766699E+02 -0.59844815792E+02  0.68364818978E+02  0.47000000000E+01 0. -1.
         -5    1    3    3    0  502  0.43419749010E+02 -0.81957061611E+02 -0.29672993221E+02  0.97492620637E+02  0.47000000000E+01 0. -1.
        -11    1    1    2    0    0 -0.24276462337E+02  0.51100225391E+02 -0.14229064519E+03  0.15312480977E+03  0.00000000000E+00 0.  1.
         11    1    1    2    0    0 -0.12999851071E+02 -0.12759304783E+01  0.15925910396E+02  0.20597542290E+02  0.00000000000E+00 0. -1.
<mgrwt>
<rscale>  0 0.13421559E+03</rscale>
<asrwt>0</asrwt>
<pdfrwt beam="1">  1        1 0.95151727E-02 0.13962540E+03</pdfrwt>
<pdfrwt beam="2">  1       -1 0.42727873E-01 0.13962540E+03</pdfrwt>
<totfact> 0.36199313E+03</totfact>
</mgrwt>
</event>
<event>
 7    1  0.5400401E-006  0.1352239E+03  0.7546771E-02  0.1232240E+00
          2   -1    0    0  501    0  0.00000000000E+00  0.00000000000E+00  0.45518813443E+03  0.45518813443E+03  0.00000000000E+00 0. -1.
         -2   -1    0    0    0  501 -0.00000000000E+00 -0.00000000000E+00 -0.32087657652E+02  0.32087657652E+02  0.00000000000E+00 0.  1.
         23    2    1    2    0    0 -0.17712824607E+02 -0.48457881022E+02  0.20829567954E+03  0.24833969658E+03  0.12499441745E+03 0.  0.
          5    1    3    3  502    0  0.32173288813E+02  0.18853939113E+02  0.20881130418E+02  0.42996548008E+02  0.47000000000E+01 0. -1.
         -5    1    3    3    0  502 -0.49886113420E+02 -0.67311820135E+02  0.18741454913E+03  0.20534314857E+03  0.47000000000E+01 0. -1.
        -11    1    1    2    0    0  0.44933517833E+02  0.56983999315E+01  0.14984043042E+03  0.15653640911E+03  0.00000000000E+00 0. -1.
         11    1    1    2    0    0 -0.27220693226E+02  0.42759481091E+02  0.64964366814E+02  0.82399686397E+02  0.00000000000E+00 0.  1.
<mgrwt>
<rscale>  0 0.12682760E+03</rscale>
<asrwt>0</asrwt>
<pdfrwt beam="1">  1        2 0.70028939E-01 0.13522394E+03</pdfrwt>
<pdfrwt beam="2">  1       -2 0.49365630E-02 0.13522394E+03</pdfrwt>
<totfact> 0.13069713E+04</totfact>
</mgrwt>
</event>
<event>
 7    1  0.5400401E-006  0.1285201E+03  0.7546771E-02  0.1241990E+00
          4   -1    0    0  501    0  0.00000000000E+00  0.00000000000E+00  0.83339293755E+02  0.83339293755E+02  0.00000000000E+00 0. -1.
         -4   -1    0    0    0  501 -0.00000000000E+00 -0.00000000000E+00 -0.19168075098E+03  0.19168075098E+03  0.00000000000E+00 0.  1.
         23    2    1    2    0    0  0.83075442379E+01 -0.28681856721E+02 -0.11824054434E+03  0.17463743701E+03  0.12500297549E+03 0.  0.
          5    1    3    3  502    0  0.22913376204E+01  0.49009816682E+02 -0.34563709053E+02  0.60199271946E+02  0.47000000000E+01 0.  1.
         -5    1    3    3    0  502  0.60162066175E+01 -0.77691673403E+02 -0.83676835291E+02  0.11443816506E+03  0.47000000000E+01 0.  1.
        -11    1    1    2    0    0 -0.34093150906E+02  0.44314606094E+02 -0.18567553752E+02  0.58914185934E+02  0.00000000000E+00 0.  1.
         11    1    1    2    0    0  0.25785606669E+02 -0.15632749373E+02  0.28466640866E+02  0.41468421798E+02  0.00000000000E+00 0. -1.
<mgrwt>
<rscale>  0 0.12067362E+03</rscale>
<asrwt>0</asrwt>
<pdfrwt beam="1">  1        4 0.12821430E-01 0.12852007E+03</pdfrwt>
<pdfrwt beam="2">  1       -4 0.29489346E-01 0.12852007E+03</pdfrwt>
<totfact> 0.88935646E+02</totfact>
</mgrwt>
</event>
<event>
 7    1  0.5400401E-006  0.1551198E+03  0.7546771E-02  0.1202715E+00
          1   -1    0    0  501    0  0.00000000000E+00  0.00000000000E+00  0.17354251791E+04  0.17354251791E+04  0.00000000000E+00 0. -1.
         -1   -1    0    0    0  501 -0.00000000000E+00 -0.00000000000E+00 -0.11870856545E+02  0.11870856545E+02  0.00000000000E+00 0.  1.
         23    2    1    2    0    0 -0.82988336265E+02 -0.39374801306E+02  0.10587522396E+04  0.10700553555E+04  0.12499888086E+03 0.  0.
          5    1    3    3  502    0 -0.99046955777E+02 -0.55992252794E+02  0.10040442195E+04  0.10104812302E+04  0.47000000000E+01 0. -1.
         -5    1    3    3    0  502  0.16058619512E+02  0.16617451488E+02  0.54708020070E+02  0.59574125378E+02  0.47000000000E+01 0. -1.
        -11    1    1    2    0    0  0.99094653119E+02  0.48795957714E+02  0.57707426570E+03  0.58755042668E+03  0.00000000000E+00 0.  1.
         11    1    1    2    0    0 -0.16106316854E+02 -0.94211564082E+01  0.87727817341E+02  0.89690253462E+02  0.00000000000E+00 0. -1.
<mgrwt>
<rscale>  0 0.14818959E+03</rscale>
<asrwt>0</asrwt>
<pdfrwt beam="1">  1        1 0.26698829E+00 0.15511982E+03</pdfrwt>
<pdfrwt beam="2">  1       -1 0.18262870E-02 0.15511982E+03</pdfrwt>
<totfact> 0.38958137E+03</totfact>
</mgrwt>
</event>
<event>
 7    1  0.5400401E-006  0.1814403E+03  0.7546771E-02  0.1171749E+00
         -2   -1    0    0    0  501 -0.00000000000E+00  0.00000000000E+00  0.25524223580E+02  0.25524223580E+02  0.00000000000E+00 0.  1.
          2   -1    0    0  501    0  0.00000000000E+00 -0.00000000000E+00 -0.11457534956E+04  0.11457534956E+04  0.00000000000E+00 0. -1.
         23    2    1    2    0    0 -0.12346597585E+03  0.45297092597E+02 -0.59043074934E+03  0.61768036754E+03  0.12499957153E+03 0.  0.
          5    1    3    3  502    0 -0.88555233432E+02 -0.35885240586E+01 -0.50732301320E+03  0.51502780177E+03  0.47000000000E+01 0. -1.
         -5    1    3    3    0  502 -0.34910742418E+02  0.48885616656E+02 -0.83107736141E+02  0.10265256577E+03  0.47000000000E+01 0. -1.
        -11    1    1    2    0    0  0.10826743328E+03  0.26934478821E-01 -0.30156421685E+03  0.32041038485E+03  0.00000000000E+00 0.  1.
         11    1    1    2    0    0  0.15198542571E+02 -0.45324027076E+02 -0.22823430586E+03  0.23318696683E+03  0.00000000000E+00 0. -1.
<mgrwt>
<rscale>  0 0.17598193E+03</rscale>
<asrwt>0</asrwt>
<pdfrwt beam="2">  1        2 0.17626978E+00 0.18144026E+03</pdfrwt>
<pdfrwt beam="1">  1       -2 0.39268033E-02 0.18144026E+03</pdfrwt>
<totfact> 0.59876576E+03</totfact>
</mgrwt>
</event>
<event>
 7    1  0.5400401E-006  0.1438111E+03  0.7546771E-02  0.1218568E+00
         -2   -1    0    0    0  501 -0.00000000000E+00  0.00000000000E+00  0.82808330417E+02  0.82808330417E+02  0.00000000000E+00 0.  1.
          2   -1    0    0  501    0  0.00000000000E+00 -0.00000000000E+00 -0.21255805343E+03  0.21255805343E+03  0.00000000000E+00 0. -1.
         23    2    1    2    0    0 -0.39078614880E+02 -0.59785249961E+02 -0.40791240305E+02  0.14948431391E+03  0.12482075375E+03 0.  0.
          5    1    3    3  502    0 -0.80486467155E+02 -0.61739592448E+02 -0.34753899908E+02  0.10733020185E+03  0.47000000000E+01 0.  1.
         -5    1    3    3    0  502  0.41407852275E+02  0.19543424873E+01 -0.60373403966E+01  0.42154112061E+02  0.47000000000E+01 0.  1.
        -11    1    1    2    0    0 -0.14058283366E+02  0.60853791166E+02 -0.49259675587E+02  0.79544546446E+02  0.00000000000E+00 0. -1.
         11    1    1    2    0    0  0.53136898246E+02 -0.10685412045E+01 -0.39698807118E+02  0.66337523485E+02  0.00000000000E+00 0.  1.
<mgrwt>
<rscale>  0 0.13617660E+03</rscale>
<asrwt>0</asrwt>
<pdfrwt beam="2">  1        2 0.32701239E-01 0.14381111E+03</pdfrwt>
<pdfrwt beam="1">  1       -2 0.12739743E-01 0.14381111E+03</pdfrwt>
<totfact> 0.68203567E+03</totfact>
</mgrwt>
</event>
<event>
 7    1  0.5400401E-006  0.1399213E+03  0.7546771E-02  0.1224800E+00
         -2   -1    0    0    0  501 -0.00000000000E+00  0.00000000000E+00  0.72679404072E+02  0.72679404072E+02  0.00000000000E+00 0.  1.
          2   -1    0    0  501    0  0.00000000000E+00 -0.00000000000E+00 -0.24009294032E+03  0.24009294032E+03  0.00000000000E+00 0. -1.
         23    2    1    2    0    0 -0.62850247319E+02  0.16894554020E+01 -0.42547277064E+02  0.14624717214E+03  0.12499982690E+03 0.  0.
          5    1    3    3  502    0 -0.12020635023E+02 -0.47127903628E+02 -0.56025946079E+02  0.74340645684E+02  0.47000000000E+01 0. -1.
         -5    1    3    3    0  502 -0.50829612296E+02  0.48817359030E+02  0.13478669015E+02  0.71906526458E+02  0.47000000000E+01 0. -1.
        -11    1    1    2    0    0  0.71245742031E+02 -0.25964826302E+02 -0.59799123992E+02  0.96571544425E+02  0.00000000000E+00 0.  1.
         11    1    1    2    0    0 -0.83954947117E+01  0.24275370900E+02 -0.65067135192E+02  0.69953627825E+02  0.00000000000E+00 0. -1.
<mgrwt>
<rscale>  0 0.13180622E+03</rscale>
<asrwt>0</asrwt>
<pdfrwt beam="2">  1        2 0.36937375E-01 0.13992128E+03</pdfrwt>
<pdfrwt beam="1">  1       -2 0.11181447E-01 0.13992128E+03</pdfrwt>
<totfact> 0.73580769E+03</totfact>
</mgrwt>
</event>
<event>
 7    1  0.5400401E-006  0.1314682E+03  0.7546771E-02  0.1239166E+00
         -2   -1    0    0    0  501 -0.00000000000E+00  0.00000000000E+00  0.20632607688E+03  0.20632607688E+03  0.00000000000E+00 0.  1.
          2   -1    0    0  501    0  0.00000000000E+00 -0.00000000000E+00 -0.82856089609E+02  0.82856089609E+02  0.00000000000E+00 0. -1.
         23    2    1    2    0    0  0.33524635487E+02 -0.23138711526E+02  0.13648170524E+03  0.18950237022E+03  0.12499836519E+03 0.  0.
          5    1    3    3  502    0 -0.11863870751E+01 -0.63445584811E+02  0.11600592880E+03  0.13231105495E+03  0.47000000000E+01 0.  1.
         -5    1    3    3    0  502  0.34711022562E+02  0.40306873284E+02  0.20475776438E+02  0.57191315267E+02  0.47000000000E+01 0.  1.
        -11    1    1    2    0    0 -0.23193150756E+02  0.13513482381E+02 -0.51832496944E+02  0.58370747704E+02  0.00000000000E+00 0. -1.
         11    1    1    2    0    0 -0.10331484731E+02  0.96252291456E+01  0.38820778978E+02  0.41309048565E+02  0.00000000000E+00 0.  1.
<mgrwt>
<rscale>  0 0.12241493E+03</rscale>
<asrwt>0</asrwt>
<pdfrwt beam="2">  1        2 0.12747091E-01 0.13146822E+03</pdfrwt>
<pdfrwt beam="1">  1       -2 0.31742473E-01 0.13146822E+03</pdfrwt>
<totfact> 0.41692185E+03</totfact>
</mgrwt>
</event>
<event>
 7    1  0.5400401E-006  0.1297557E+03  0.7546771E-02  0.1241726E+00
          1   -1    0    0  501    0  0.00000000000E+00  0.00000000000E+00  0.20148606089E+02  0.20148606089E+02  0.00000000000E+00 0. -1.
         -1   -1    0    0    0  501 -0.00000000000E+00 -0.00000000000E+00 -0.64296399005E+03  0.64296399005E+03  0.00000000000E+00 0.  1.
         23    2    1    2    0    0 -0.32974129594E+02 -0.11241724969E+02 -0.37208294207E+03  0.39405870745E+03  0.12499151784E+03 0.  0.
          5    1    3    3  502    0  0.13471249286E+02 -0.99326743001E+01  0.16099891180E+01  0.17458941578E+02  0.47000000000E+01 0. -1.
         -5    1    3    3    0  502 -0.46445378880E+02 -0.13090506690E+01 -0.37369293119E+03  0.37659976587E+03  0.47000000000E+01 0. -1.
        -11    1    1    2    0    0 -0.24984973416E+02  0.95011719920E+01 -0.15376962560E+03  0.15607568332E+03  0.00000000000E+00 0.  1.
         11    1    1    2    0    0  0.57959103010E+02  0.17405529771E+01 -0.96962816293E+02  0.11297820538E+03  0.00000000000E+00 0. -1.
<mgrwt>
<rscale>  0 0.12083507E+03</rscale>
<asrwt>0</asrwt>
<pdfrwt beam="1">  1        1 0.30997859E-02 0.12975573E+03</pdfrwt>
<pdfrwt beam="2">  1       -1 0.98917524E-01 0.12975573E+03</pdfrwt>
<totfact> 0.32249692E+03</totfact>
</mgrwt>
</event>
<event>
 7    1  0.5400401E-006  0.1477539E+03  0.7546771E-02  0.1211971E+00
          1   -1    0    0  501    0  0.00000000000E+00  0.00000000000E+00  0.18925003416E+03  0.18925003416E+03  0.00000000000E+00 0. -1.
         -1   -1    0    0    0  501 -0.00000000000E+00 -0.00000000000E+00 -0.98493538278E+02  0.98493538278E+02  0.00000000000E+00 0.  1.
         23    2    1    2    0    0  0.39639816062E+02  0.68086899038E+02  0.29356018086E+02  0.15064191435E+03  0.12499627884E+03 0.  0.
          5    1    3    3  502    0  0.85119633491E+02  0.44007841606E+02  0.15935335219E+02  0.97252593986E+02  0.47000000000E+01 0. -1.
         -5    1    3    3    0  502 -0.45479817429E+02  0.24079057432E+02  0.13420682867E+02  0.53389320363E+02  0.47000000000E+01 0. -1.
        -11    1    1    2    0    0 -0.46216608863E+02 -0.77666870446E+02  0.17974328344E+02  0.92147675929E+02  0.00000000000E+00 0.  1.
         11    1    1    2    0    0  0.65767928009E+01  0.95799714081E+01  0.43426149450E+02  0.44953982157E+02  0.00000000000E+00 0. -1.
<mgrwt>
<rscale>  0 0.14101414E+03</rscale>
<asrwt>0</asrwt>
<pdfrwt beam="1">  1        1 0.29115390E-01 0.14775389E+03</pdfrwt>
<pdfrwt beam="2">  1       -1 0.15152852E-01 0.14775389E+03</pdfrwt>
<totfact> 0.47870178E+03</totfact>
</mgrwt>
</event>
<event>
 7    1  0.5400401E-006  0.1298661E+03  0.7546771E-02  0.1235125E+00
         -1   -1    0    0    0  501 -0.00000000000E+00  0.00000000000E+00  0.14957021564E+03  0.14957021564E+03  0.00000000000E+00 0.  1.
          1   -1    0    0  501    0  0.00000000000E+00 -0.00000000000E+00 -0.98527910941E+02  0.98527910941E+02  0.00000000000E+00 0. -1.
         23    2    1    2    0    0 -0.10432034904E+01 -0.35338013403E+02  0.41562022621E+02  0.13635474884E+03  0.12496140341E+03 0.  0.
          5    1    3    3  502    0 -0.15547508076E+02  0.23252588302E+02 -0.30890499239E+02  0.41937105448E+02  0.47000000000E+01 0. -1.
         -5    1    3    3    0  502  0.14504304585E+02 -0.58590601705E+02  0.72452521860E+02  0.94417643391E+02  0.47000000000E+01 0. -1.
        -11    1    1    2    0    0 -0.13312207194E+02  0.71079222809E+02  0.10878012063E+01  0.72323261036E+02  0.00000000000E+00 0. -1.
         11    1    1    2    0    0  0.14355410684E+02 -0.35741209406E+02  0.83924808667E+01  0.39420116702E+02  0.00000000000E+00 0.  1.
<mgrwt>
<rscale>  0 0.12496410E+03</rscale>
<asrwt>0</asrwt>
<pdfrwt beam="2">  1        1 0.15158140E-01 0.12986615E+03</pdfrwt>
<pdfrwt beam="1">  1       -1 0.23010802E-01 0.12986615E+03</pdfrwt>
<totfact> 0.55782896E+03</totfact>
</mgrwt>
</event>
<event>
 7    1  0.5400401E-006  0.1710019E+03  0.7546771E-02  0.1183116E+00
         -2   -1    0    0    0  501 -0.00000000000E+00  0.00000000000E+00  0.36202598808E+03  0.36202598808E+03  0.00000000000E+00 0.  1.
          2   -1    0    0  501    0  0.00000000000E+00 -0.00000000000E+00 -0.72126247184E+02  0.72126247184E+02  0.00000000000E+00 0. -1.
         23    2    1    2    0    0 -0.21094163852E+02  0.11476943088E+03  0.18803017239E+03  0.25415941862E+03  0.12499871332E+03 0.  0.
          5    1    3    3  502    0 -0.13944469781E+02  0.11844288303E+03  0.75465141489E+02  0.14120992302E+03  0.47000000000E+01 0.  1.
         -5    1    3    3    0  502 -0.71496940716E+01 -0.36734521514E+01  0.11256503090E+03  0.11294949560E+03  0.47000000000E+01 0.  1.
        -11    1    1    2    0    0  0.43282412119E+01 -0.11758392556E+03  0.54514527818E+02  0.12967862957E+03  0.00000000000E+00 0. -1.
         11    1    1    2    0    0  0.16765922640E+02  0.28144946816E+01  0.47355040691E+02  0.50314187076E+02  0.00000000000E+00 0.  1.
<mgrwt>
<rscale>  0 0.16504522E+03</rscale>
<asrwt>0</asrwt>
<pdfrwt beam="2">  1        2 0.11096346E-01 0.17100194E+03</pdfrwt>
<pdfrwt beam="1">  1       -2 0.55696305E-01 0.17100194E+03</pdfrwt>
<totfact> 0.17011332E+03</totfact>
</mgrwt>
</event>
<event>
 7    1  0.5400401E-006  0.1368926E+03  0.7546771E-02  0.1229184E+00
          2   -1    0    0  501    0  0.00000000000E+00  0.00000000000E+00  0.53970502452E+03  0.53970502452E+03  0.00000000000E+00 0.  1.
         -2   -1    0    0    0  501 -0.00000000000E+00 -0.00000000000E+00 -0.27664129374E+02  0.27664129374E+02  0.00000000000E+00 0. -1.
         23    2    1    2    0    0 -0.28306909269E+02  0.48077550113E+02  0.29348675468E+03  0.32384264295E+03  0.12500740092E+03 0.  0.
          5    1    3    3  502    0 -0.56649846068E+02  0.11186858616E+02  0.51930316690E+02  0.77802304958E+02  0.47000000000E+01 0.  1.
         -5    1    3    3    0  502  0.28342936799E+02  0.36890691497E+02  0.24155643799E+03  0.24604033799E+03  0.47000000000E+01 0.  1.
        -11    1    1    2    0    0  0.13480193191E+02 -0.39700537490E+02  0.22219168850E+03  0.22611279204E+03  0.00000000000E+00 0.  1.
         11    1    1    2    0    0  0.14826716077E+02 -0.83770126231E+01 -0.36375480388E+01  0.17413718898E+02  0.00000000000E+00 0. -1.
<mgrwt>
<rscale>  0 0.12884191E+03</rscale>
<asrwt>0</asrwt>
<pdfrwt beam="1">  1        2 0.83031535E-01 0.13689259E+03</pdfrwt>
<pdfrwt beam="2">  1       -2 0.42560203E-02 0.13689259E+03</pdfrwt>
<totfact> 0.13547056E+04</totfact>
</mgrwt>
</event>
<event>
 7    1  0.5400401E-006  0.1265869E+03  0.7546771E-02  0.1247947E+00
          1   -1    0    0  501    0  0.00000000000E+00  0.00000000000E+00  0.42384848537E+02  0.42384848537E+02  0.00000000000E+00 0. -1.
         -1   -1    0    0    0  501 -0.00000000000E+00 -0.00000000000E+00 -0.32841180252E+03  0.32841180252E+03  0.00000000000E+00 0.  1.
         23    2    1    2    0    0 -0.13283135260E+02  0.14867827550E+02 -0.22980427984E+03  0.26236283013E+03  0.12500701428E+03 0.  0.
          5    1    3    3  502    0 -0.43512482838E+02  0.36189053989E+01 -0.17022072450E+02  0.47098551883E+02  0.47000000000E+01 0.  1.
         -5    1    3    3    0  502  0.30229347578E+02  0.11248922151E+02 -0.21278220739E+03  0.21526427825E+03  0.47000000000E+01 0.  1.
        -11    1    1    2    0    0  0.22213480527E+02  0.24584315179E+02  0.65328707797E+01  0.33771373537E+02  0.00000000000E+00 0. -1.
         11    1    1    2    0    0 -0.89303452678E+01 -0.39452142729E+02 -0.62755544915E+02  0.74662447389E+02  0.00000000000E+00 0.  1.
<mgrwt>
<rscale>  0 0.11710741E+03</rscale>
<asrwt>0</asrwt>
<pdfrwt beam="1">  1        1 0.65207461E-02 0.12658692E+03</pdfrwt>
<pdfrwt beam="2">  1       -1 0.50524891E-01 0.12658692E+03</pdfrwt>
<totfact> 0.44174379E+03</totfact>
</mgrwt>
</event>
<event>
 6    1  0.5400401E-006  0.1683359E+03  0.7546771E-02  0.1217280E+00
          2   -1    0    0  501    0  0.00000000000E+00  0.00000000000E+00  0.18246905483E+03  0.18246905483E+03  0.00000000000E+00 0. -1.
         -2   -1    0    0    0  501 -0.00000000000E+00 -0.00000000000E+00 -0.10014978409E+03  0.10014978409E+03  0.00000000000E+00 0.  1.
          5    1    1    2  502    0  0.49991600083E+02  0.34298869648E+02  0.25751711542E+02  0.66036453458E+02  0.47000000000E+01 0. -1.
         -5    1    1    2    0  502 -0.60950026772E+02 -0.76278902645E+02 -0.30376005104E+02  0.10236292512E+03  0.47000000000E+01 0.  1.
        -11    1    1    2    0    0  0.67894724058E+01  0.24111307721E+02 -0.31664232825E+00  0.25050995148E+02  0.00000000000E+00 0. -1.
         11    1    1    2    0    0  0.41689542830E+01  0.17868725276E+02  0.87260206635E+02  0.89168465192E+02  0.00000000000E+00 0.  1.
<mgrwt>
<rscale>  0 0.13710346E+03</rscale>
<asrwt>0</asrwt>
<pdfrwt beam="1">  1        2 0.28072162E-01 0.16833587E+03</pdfrwt>
<pdfrwt beam="2">  1       -2 0.15407659E-01 0.16833587E+03</pdfrwt>
<totfact> 0.59679736E+03</totfact>
</mgrwt>
</event>
<event>
 7    1  0.5400401E-006  0.1430522E+03  0.7546771E-02  0.1218784E+00
          2   -1    0    0  501    0  0.00000000000E+00  0.00000000000E+00  0.11886638172E+04  0.11886638172E+04  0.00000000000E+00 0. -1.
         -2   -1    0    0    0  501 -0.00000000000E+00 -0.00000000000E+00 -0.14235509205E+02  0.14235509205E+02  0.00000000000E+00 0.  1.
         23    2    1    2    0    0 -0.15271193939E+02 -0.68057108736E+02  0.62423042306E+03  0.64041202291E+03  0.12489579096E+03 0.  0.
          5    1    3    3  502    0 -0.22163281509E+02 -0.19710406395E+02  0.24715208980E+02  0.38892707832E+02  0.47000000000E+01 0. -1.
         -5    1    3    3    0  502  0.68920875706E+01 -0.48346702341E+02  0.59951521408E+03  0.60151931507E+03  0.47000000000E+01 0. -1.
        -11    1    1    2    0    0  0.54165829776E+02  0.49782569907E+02  0.36912706779E+03  0.37638681374E+03  0.00000000000E+00 0. -1.
         11    1    1    2    0    0 -0.38894635837E+02  0.18274538829E+02  0.18107081718E+03  0.18610048979E+03  0.00000000000E+00 0.  1.
<mgrwt>
<rscale>  0 0.13602192E+03</rscale>
<asrwt>0</asrwt>
<pdfrwt beam="1">  1        2 0.18287128E+00 0.14305222E+03</pdfrwt>
<pdfrwt beam="2">  1       -2 0.21900793E-02 0.14305222E+03</pdfrwt>
<totfact> 0.13263068E+04</totfact>
</mgrwt>
</event>
<event>
 6    1  0.5400401E-006  0.1545327E+03  0.7546771E-02  0.1205344E+00
         -1   -1    0    0    0  501 -0.00000000000E+00  0.00000000000E+00  0.94190398813E+02  0.94190398813E+02  0.00000000000E+00 0.  1.
          1   -1    0    0  501    0  0.00000000000E+00 -0.00000000000E+00 -0.23001352231E+03  0.23001352231E+03  0.00000000000E+00 0. -1.
          5    1    1    2  502    0 -0.34601430733E+02 -0.50987077735E+02 -0.50290215695E+02  0.79675196262E+02  0.47000000000E+01 0. -1.
         -5    1    1    2    0  502 -0.47918968758E+02  0.51910998778E+02  0.28621563888E+02  0.76369256120E+02  0.47000000000E+01 0.  1.
        -11    1    1    2    0    0  0.46964068373E+02  0.34469048156E+02 -0.20216223757E+02  0.61663884908E+02  0.00000000000E+00 0.  1.
         11    1    1    2    0    0  0.35556331118E+02 -0.35392969199E+02 -0.93938247936E+02  0.10649558384E+03  0.00000000000E+00 0. -1.
<mgrwt>
<rscale>  0 0.14610362E+03</rscale>
<asrwt>0</asrwt>
<pdfrwt beam="2">  1        1 0.35386696E-01 0.15453265E+03</pdfrwt>
<pdfrwt beam="1">  1       -1 0.14490831E-01 0.15453265E+03</pdfrwt>
<totfact> 0.40373946E+03</totfact>
</mgrwt>
</event>
<event>
 7    1  0.5400401E-006  0.1566722E+03  0.7546771E-02  0.1201075E+00
          1   -1    0    0  501    0  0.00000000000E+00  0.00000000000E+00  0.23619556212E+03  0.23619556212E+03  0.00000000000E+00 0. -1.
         -1   -1    0    0    0  501 -0.00000000000E+00 -0.00000000000E+00 -0.86965631702E+02  0.86965631702E+02  0.00000000000E+00 0.  1.
         23    2    1    2    0    0  0.30225356496E+02  0.89478351228E+02  0.79012412341E+02  0.17546837057E+03  0.12500496092E+03 0.  0.
          5    1    3    3  502    0 -0.47978039198E+02  0.41055365715E+02  0.43179737091E+02  0.76642122847E+02  0.47000000000E+01 0. -1.
         -5    1    3    3    0  502  0.78203395693E+02  0.48422985514E+02  0.35832675250E+02  0.98826247726E+02  0.47000000000E+01 0. -1.
        -11    1    1    2    0    0 -0.43774991012E+02 -0.96799598763E+02  0.76649981415E+02  0.13100241147E+03  0.00000000000E+00 0. -1.
         11    1    1    2    0    0  0.13549634517E+02  0.73212475348E+01 -0.64324633369E+01  0.16690411786E+02  0.00000000000E+00 0.  1.
<mgrwt>
<rscale>  0 0.14951135E+03</rscale>
<asrwt>0</asrwt>
<pdfrwt beam="1">  1        1 0.36337779E-01 0.15667223E+03</pdfrwt>
<pdfrwt beam="2">  1       -1 0.13379328E-01 0.15667223E+03</pdfrwt>
<totfact> 0.44290231E+03</totfact>
</mgrwt>
</event>
<event>
 7    1  0.5400401E-006  0.1891658E+03  0.7546771E-02  0.1164444E+00
          1   -1    0    0  501    0  0.00000000000E+00  0.00000000000E+00  0.57576712647E+03  0.57576712647E+03  0.00000000000E+00 0. -1.
         -1   -1    0    0    0  501 -0.00000000000E+00 -0.00000000000E+00 -0.55378898574E+02  0.55378898574E+02  0.00000000000E+00 0.  1.
         23    2    1    2    0    0 -0.23194378714E+02  0.14007741108E+03  0.29094935489E+03  0.34703777901E+03  0.12499613055E+03 0.  0.
          5    1    3    3  502    0  0.34061539849E+02  0.11922174572E+03  0.15954357393E+03  0.20211446047E+03  0.47000000000E+01 0.  1.
         -5    1    3    3    0  502 -0.57255918563E+02  0.20855665361E+02  0.13140578095E+03  0.14492331854E+03  0.47000000000E+01 0.  1.
        -11    1    1    2    0    0  0.29370017442E+02 -0.10069698120E+03  0.21912057347E+03  0.24293271839E+03  0.00000000000E+00 0. -1.
         11    1    1    2    0    0 -0.61756387280E+01 -0.39380429877E+02  0.10318299538E+02  0.41175527639E+02  0.00000000000E+00 0.  1.
<mgrwt>
<rscale>  0 0.18351539E+03</rscale>
<asrwt>0</asrwt>
<pdfrwt beam="1">  1        1 0.88579554E-01 0.18916578E+03</pdfrwt>
<pdfrwt beam="2">  1       -1 0.85198310E-02 0.18916578E+03</pdfrwt>
<totfact> 0.28744498E+03</totfact>
</mgrwt>
</event>
<event>
 7    1  0.5400401E-006  0.1298714E+03  0.7546771E-02  0.1241739E+00
          1   -1    0    0  501    0  0.00000000000E+00  0.00000000000E+00  0.65861077838E+02  0.65861077838E+02  0.00000000000E+00 0. -1.
         -1   -1    0    0    0  501 -0.00000000000E+00 -0.00000000000E+00 -0.26695238098E+03  0.26695238098E+03  0.00000000000E+00 0.  1.
         23    2    1    2    0    0 -0.18525291690E+02 -0.30072230471E+02 -0.19632986794E+03  0.23539754058E+03  0.12497623609E+03 0.  0.
          5    1    3    3  502    0 -0.26175302450E+02 -0.49340439030E+02 -0.20493691412E+03  0.21246377138E+03  0.47000000000E+01 0.  1.
         -5    1    3    3    0  502  0.76500107595E+01  0.19268208559E+02  0.86070461756E+01  0.22933769196E+02  0.47000000000E+01 0.  1.
        -11    1    1    2    0    0  0.31292162862E+02  0.39293795051E+01 -0.40500810903E+02  0.51331814342E+02  0.00000000000E+00 0.  1.
         11    1    1    2    0    0 -0.12766871172E+02  0.26142850966E+02  0.35739375704E+02  0.46084103896E+02  0.00000000000E+00 0. -1.
<mgrwt>
<rscale>  0 0.12082667E+03</rscale>
<asrwt>0</asrwt>
<pdfrwt beam="1">  1        1 0.10132474E-01 0.12987142E+03</pdfrwt>
<pdfrwt beam="2">  1       -1 0.41069597E-01 0.12987142E+03</pdfrwt>
<totfact> 0.35567335E+03</totfact>
</mgrwt>
</event>
<event>
 7    1  0.5400401E-006  0.1378605E+03  0.7546771E-02  0.1228264E+00
          4   -1    0    0  501    0  0.00000000000E+00  0.00000000000E+00  0.16520192614E+03  0.16520192614E+03  0.00000000000E+00 0. -1.
         -4   -1    0    0    0  501 -0.00000000000E+00 -0.00000000000E+00 -0.91244618950E+02  0.91244618950E+02  0.00000000000E+00 0.  1.
         23    2    1    2    0    0  0.57347256864E+02  0.96733790267E+01  0.33519602475E+02  0.14187704060E+03  0.12499299487E+03 0.  0.
          5    1    3    3  502    0  0.87568234424E+02  0.20498842646E+02 -0.65777115607E+01  0.90298142391E+02  0.47000000000E+01 0. -1.
         -5    1    3    3    0  502 -0.30220977559E+02 -0.10825463619E+02  0.40097314036E+02  0.51578898206E+02  0.47000000000E+01 0. -1.
        -11    1    1    2    0    0 -0.73223319727E+02 -0.23476304325E+02  0.49726775998E+02  0.91572614180E+02  0.00000000000E+00 0.  1.
         11    1    1    2    0    0  0.15876062862E+02  0.13802925298E+02 -0.92890712831E+01  0.22996890314E+02  0.00000000000E+00 0. -1.
<mgrwt>
<rscale>  0 0.12945671E+03</rscale>
<asrwt>0</asrwt>
<pdfrwt beam="1">  1        4 0.25415681E-01 0.13786055E+03</pdfrwt>
<pdfrwt beam="2">  1       -4 0.14037634E-01 0.13786055E+03</pdfrwt>
<totfact> 0.10186136E+03</totfact>
</mgrwt>
</event>
<event>
 7    1  0.5400401E-006  0.1260224E+03  0.7546771E-02  0.1247842E+00
         -2   -1    0    0    0  501 -0.00000000000E+00  0.00000000000E+00  0.34189505134E+02  0.34189505134E+02  0.00000000000E+00 0.  1.
          2   -1    0    0  501    0  0.00000000000E+00 -0.00000000000E+00 -0.35457470485E+03  0.35457470485E+03  0.00000000000E+00 0. -1.
         23    2    1    2    0    0 -0.20775208336E+01  0.15862388100E+02 -0.18110617191E+03  0.22063793470E+03  0.12500288508E+03 0.  0.
          5    1    3    3  502    0 -0.55231083664E+02  0.38946987674E+02 -0.10257181714E+03  0.12292440003E+03  0.47000000000E+01 0. -1.
         -5    1    3    3    0  502  0.53153562831E+02 -0.23084599574E+02 -0.78534354769E+02  0.97713534672E+02  0.47000000000E+01 0. -1.
        -11    1    1    2    0    0 -0.36898035366E+02 -0.34806363544E+02 -0.71062258992E+02  0.87308605590E+02  0.00000000000E+00 0. -1.
         11    1    1    2    0    0  0.38975556199E+02  0.18943975444E+02 -0.68216768811E+02  0.80817669687E+02  0.00000000000E+00 0.  1.
<mgrwt>
<rscale>  0 0.11716903E+03</rscale>
<asrwt>0</asrwt>
<pdfrwt beam="2">  1        2 0.54549957E-01 0.12602243E+03</pdfrwt>
<pdfrwt beam="1">  1       -2 0.52599237E-02 0.12602243E+03</pdfrwt>
<totfact> 0.15429781E+04</totfact>
</mgrwt>
</event>
<event>
 7    1  0.5400401E-006  0.1643348E+03  0.7546771E-02  0.1191225E+00
         -2   -1    0    0    0  501 -0.00000000000E+00  0.00000000000E+00  0.61276633706E+02  0.61276633706E+02  0.00000000000E+00 0. -1.
          2   -1    0    0  501    0  0.00000000000E+00 -0.00000000000E+00 -0.37718687020E+03  0.37718687020E+03  0.00000000000E+00 0.  1.
         23    2    1    2    0    0  0.10666947508E+03  0.59898194679E+00 -0.16585088639E+03  0.23347899323E+03  0.12500875198E+03 0.  0.
          5    1    3    3  502    0  0.11914053217E+03  0.13357624424E+02 -0.17555154510E+03  0.21263425764E+03  0.47000000000E+01 0. -1.
         -5    1    3    3    0  502 -0.12471057090E+02 -0.12758642477E+02  0.97006587032E+01  0.20844735596E+02  0.47000000000E+01 0. -1.
        -11    1    1    2    0    0 -0.43646505277E+02 -0.44753787558E+02 -0.62100601234E+02  0.88115853269E+02  0.00000000000E+00 0.  1.
         11    1    1    2    0    0 -0.63022969800E+02  0.44154805611E+02 -0.87958748871E+02  0.11686865741E+03  0.00000000000E+00 0. -1.
<mgrwt>
<rscale>  0 0.15778067E+03</rscale>
<asrwt>0</asrwt>
<pdfrwt beam="2">  1        2 0.58028749E-01 0.16433479E+03</pdfrwt>
<pdfrwt beam="1">  1       -2 0.94271744E-02 0.16433479E+03</pdfrwt>
<totfact> 0.60123429E+03</totfact>
</mgrwt>
</event>
<event>
 7    1  0.5400401E-006  0.1385407E+03  0.7546771E-02  0.1229268E+00
          3   -1    0    0  501    0  0.00000000000E+00  0.00000000000E+00  0.50245042274E+02  0.50245042274E+02  0.00000000000E+00 0. -1.
         -3   -1    0    0    0  501 -0.00000000000E+00 -0.00000000000E+00 -0.31890601052E+03  0.31890601052E+03  0.00000000000E+00 0.  1.
         23    2    1    2    0    0  0.55405772302E+02  0.22354012056E+02 -0.20582975630E+03  0.24811168705E+03  0.12499607679E+03 0.  0.
          5    1    3    3  502    0 -0.32778246147E+02 -0.12749398778E+02 -0.98817573878E+02  0.10499506415E+03  0.47000000000E+01 0. -1.
         -5    1    3    3    0  502  0.88184018449E+02  0.35103410834E+02 -0.10701218242E+03  0.14311662289E+03  0.47000000000E+01 0. -1.
        -11    1    1    2    0    0  0.60181699647E+01  0.22926936942E+02 -0.26452061635E+01  0.23850784535E+02  0.00000000000E+00 0.  1.
         11    1    1    2    0    0 -0.61423942266E+02 -0.45280948998E+02 -0.60186005783E+02  0.97188581211E+02  0.00000000000E+00 0. -1.
<mgrwt>
<rscale>  0 0.12878640E+03</rscale>
<asrwt>0</asrwt>
<pdfrwt beam="1">  1        3 0.77300064E-02 0.13854068E+03</pdfrwt>
<pdfrwt beam="2">  1       -3 0.49062464E-01 0.13854068E+03</pdfrwt>
<totfact> 0.10829369E+03</totfact>
</mgrwt>
</event>
<event>
 7    1  0.5400401E-006  0.1324277E+03  0.7546771E-02  0.1236322E+00
         -1   -1    0    0    0  501 -0.00000000000E+00  0.00000000000E+00  0.29607707743E+03  0.29607707743E+03  0.00000000000E+00 0.  1.
          1   -1    0    0  501    0  0.00000000000E+00 -0.00000000000E+00 -0.49069161610E+02  0.49069161610E+02  0.00000000000E+00 0. -1.
         23    2    1    2    0    0  0.38651360343E+02  0.20495368426E+02  0.17696358245E+03  0.22102760436E+03  0.12499241814E+03 0.  0.
          5    1    3    3  502    0  0.79169832151E+02 -0.95275116787E+01  0.12592743208E+03  0.14912559791E+03  0.47000000000E+01 0.  1.
         -5    1    3    3    0  502 -0.40518471808E+02  0.30022880105E+02  0.51036150373E+02  0.71902006455E+02  0.47000000000E+01 0.  1.
        -11    1    1    2    0    0 -0.75383748632E+01  0.21551114168E+02  0.68046230742E+02  0.71774418393E+02  0.00000000000E+00 0.  1.
         11    1    1    2    0    0 -0.31112985480E+02 -0.42046482594E+02  0.19981026261E+01  0.52344216282E+02  0.00000000000E+00 0. -1.
<mgrwt>
<rscale>  0 0.12420205E+03</rscale>
<asrwt>0</asrwt>
<pdfrwt beam="2">  1        1 0.75491020E-02 0.13242769E+03</pdfrwt>
<pdfrwt beam="1">  1       -1 0.45550318E-01 0.13242769E+03</pdfrwt>
<totfact> 0.43874917E+03</totfact>
</mgrwt>
</event>
<event>
 7    1  0.5400401E-006  0.1355369E+03  0.7546771E-02  0.1232003E+00
         -1   -1    0    0    0  501 -0.00000000000E+00  0.00000000000E+00  0.32117114021E+03  0.32117114021E+03  0.00000000000E+00 0.  1.
          1   -1    0    0  501    0  0.00000000000E+00 -0.00000000000E+00 -0.45028541387E+02  0.45028541387E+02  0.00000000000E+00 0. -1.
         23    2    1    2    0    0 -0.19633465938E+02  0.48596325615E+02  0.14359136498E+03  0.19745561886E+03  0.12499266169E+03 0.  0.
          5    1    3    3  502    0 -0.31134757984E+02 -0.34717448042E+02  0.76720489735E+02  0.89904381976E+02  0.47000000000E+01 0.  1.
         -5    1    3    3    0  502  0.11501292047E+02  0.83313773657E+02  0.66870875243E+02  0.10755123688E+03  0.47000000000E+01 0.  1.
        -11    1    1    2    0    0 -0.22532719690E+02 -0.53622557605E+02  0.53590166617E+02  0.79088609159E+02  0.00000000000E+00 0. -1.
         11    1    1    2    0    0  0.42166185628E+02  0.50262319896E+01  0.78961067226E+02  0.89655453576E+02  0.00000000000E+00 0.  1.
<mgrwt>
<rscale>  0 0.12698281E+03</rscale>
<asrwt>0</asrwt>
<pdfrwt beam="2">  1        1 0.69274681E-02 0.13553686E+03</pdfrwt>
<pdfrwt beam="1">  1       -1 0.49410943E-01 0.13553686E+03</pdfrwt>
<totfact> 0.42587865E+03</totfact>
</mgrwt>
</event>
<event>
 7    1  0.5400401E-006  0.1273529E+03  0.7546771E-02  0.1246243E+00
         -2   -1    0    0    0  501 -0.00000000000E+00  0.00000000000E+00  0.34302409887E+02  0.34302409887E+02  0.00000000000E+00 0.  1.
          2   -1    0    0  501    0  0.00000000000E+00 -0.00000000000E+00 -0.36185359627E+03  0.36185359627E+03  0.00000000000E+00 0. -1.
         23    2    1    2    0    0  0.17022418598E+02 -0.17467443718E+02 -0.16731745899E+03  0.21027100141E+03  0.12499555042E+03 0.  0.
          5    1    3    3  502    0 -0.64493504037E+01 -0.20426124019E+02 -0.18114573647E+03  0.18246832192E+03  0.47000000000E+01 0.  1.
         -5    1    3    3    0  502  0.23471769002E+02  0.29586803008E+01  0.13828277473E+02  0.27802679494E+02  0.47000000000E+01 0.  1.
        -11    1    1    2    0    0 -0.39458613474E+02 -0.42509921638E+01 -0.14648520916E+03  0.15176616756E+03  0.00000000000E+00 0. -1.
         11    1    1    2    0    0  0.22436194876E+02  0.21718435882E+02 -0.13748518229E+02  0.34118837189E+02  0.00000000000E+00 0.  1.
<mgrwt>
<rscale>  0 0.11811319E+03</rscale>
<asrwt>0</asrwt>
<pdfrwt beam="2">  1        2 0.55669786E-01 0.12735290E+03</pdfrwt>
<pdfrwt beam="1">  1       -2 0.52772936E-02 0.12735290E+03</pdfrwt>
<totfact> 0.15039690E+04</totfact>
</mgrwt>
</event>
<event>
 7    1  0.5400401E-006  0.1633577E+03  0.7546771E-02  0.1191465E+00
          1   -1    0    0  501    0  0.00000000000E+00  0.00000000000E+00  0.43719170504E+03  0.43719170504E+03  0.00000000000E+00 0. -1.
         -1   -1    0    0    0  501 -0.00000000000E+00 -0.00000000000E+00 -0.77549591494E+02  0.77549591494E+02  0.00000000000E+00 0.  1.
         23    2    1    2    0    0 -0.10484560082E+03  0.82488462022E+01  0.44480391830E+02  0.16930516713E+03  0.12500036354E+03 0.  0.
          5    1    3    3  502    0  0.14675322598E+02 -0.29914999939E+02  0.25726582983E+02  0.42358226907E+02  0.47000000000E+01 0.  1.
         -5    1    3    3    0  502 -0.11952092341E+03  0.38163846141E+02  0.18753808847E+02  0.12694694022E+03  0.47000000000E+01 0.  1.
        -11    1    1    2    0    0  0.47308854526E+02  0.27244908921E+02  0.23162322704E+03  0.23797002350E+03  0.00000000000E+00 0. -1.
         11    1    1    2    0    0  0.57536746290E+02 -0.35493755123E+02  0.83538494680E+02  0.10746610591E+03  0.00000000000E+00 0.  1.
<mgrwt>
<rscale>  0 0.15757281E+03</rscale>
<asrwt>0</asrwt>
<pdfrwt beam="1">  1        1 0.67260261E-01 0.16335769E+03</pdfrwt>
<pdfrwt beam="2">  1       -1 0.11930707E-01 0.16335769E+03</pdfrwt>
<totfact> 0.24518750E+03</totfact>
</mgrwt>
</event>
<event>
 7    1  0.5400401E-006  0.1517770E+03  0.7546771E-02  0.1206974E+00
          1   -1    0    0  501    0  0.00000000000E+00  0.00000000000E+00  0.22586171283E+03  0.22586171283E+03  0.00000000000E+00 0. -1.
         -1   -1    0    0    0  501 -0.00000000000E+00 -0.00000000000E+00 -0.99501326906E+02  0.99501326906E+02  0.00000000000E+00 0.  1.
         23    2    1    2    0    0  0.17047446706E+00 -0.86085861708E+02  0.70261383244E+01  0.15193949468E+03  0.12500175510E+03 0.  0.
          5    1    3    3  502    0  0.55064883756E+01 -0.11246599854E+03 -0.18902444955E+02  0.11427298310E+03  0.47000000000E+01 0.  1.
         -5    1    3    3    0  502 -0.53360139085E+01  0.26380136833E+02  0.25928583279E+02  0.37666511580E+02  0.47000000000E+01 0.  1.
        -11    1    1    2    0    0  0.10399093985E+02  0.70288032427E+02  0.13246736942E+03  0.15032016704E+03  0.00000000000E+00 0. -1.
         11    1    1    2    0    0 -0.10569568453E+02  0.15797829281E+02 -0.13133121814E+02  0.23103378019E+02  0.00000000000E+00 0.  1.
<mgrwt>
<rscale>  0 0.14482944E+03</rscale>
<asrwt>0</asrwt>
<pdfrwt beam="1">  1        1 0.34747956E-01 0.15177695E+03</pdfrwt>
<pdfrwt beam="2">  1       -1 0.15307896E-01 0.15177695E+03</pdfrwt>
<totfact> 0.37853547E+03</totfact>
</mgrwt>
</event>
<event>
 7    1  0.5400401E-006  0.2983861E+03  0.7546771E-02  0.1087677E+00
         -2   -1    0    0    0  501 -0.00000000000E+00  0.00000000000E+00  0.63144350772E+02  0.63144350772E+02  0.00000000000E+00 0.  1.
          2   -1    0    0  501    0  0.00000000000E+00 -0.00000000000E+00 -0.15813967718E+04  0.15813967718E+04  0.00000000000E+00 0. -1.
         23    2    1    2    0    0 -0.18589097251E+03  0.19711392612E+03 -0.45931491520E+03  0.54772661494E+03  0.12499959943E+03 0.  0.
          5    1    3    3  502    0 -0.90403175063E+02  0.17577608687E+03 -0.27101425291E+03  0.33547098542E+03  0.47000000000E+01 0.  1.
         -5    1    3    3    0  502 -0.95487797446E+02  0.21337839250E+02 -0.18830066229E+03  0.21225562952E+03  0.47000000000E+01 0.  1.
        -11    1    1    2    0    0  0.70050587201E+02 -0.10992284151E+03 -0.35679574466E+03  0.37985960467E+03  0.00000000000E+00 0. -1.
         11    1    1    2    0    0  0.11584038531E+03 -0.87191084609E+02 -0.70214176113E+03  0.71695490292E+03  0.00000000000E+00 0.  1.
<mgrwt>
<rscale>  0 0.29517578E+03</rscale>
<asrwt>0</asrwt>
<pdfrwt beam="2">  1        2 0.24329181E+00 0.29838608E+03</pdfrwt>
<pdfrwt beam="1">  1       -2 0.97145156E-02 0.29838608E+03</pdfrwt>
<totfact> 0.85734319E+02</totfact>
</mgrwt>
</event>
<event>
 7    1  0.5400401E-006  0.1634884E+03  0.7546771E-02  0.1191302E+00
         -1   -1    0    0    0  501 -0.00000000000E+00  0.00000000000E+00  0.76875011574E+02  0.76875011574E+02  0.00000000000E+00 0.  1.
          1   -1    0    0  501    0  0.00000000000E+00 -0.00000000000E+00 -0.30530105926E+03  0.30530105926E+03  0.00000000000E+00 0. -1.
         23    2    1    2    0    0  0.39469984871E+02  0.97702778516E+02 -0.10464575043E+03  0.19411124515E+03  0.12499891909E+03 0.  0.
          5    1    3    3  502    0 -0.95352767960E+01 -0.16839459548E+02 -0.57449691906E+02  0.60803338737E+02  0.47000000000E+01 0. -1.
         -5    1    3    3    0  502  0.49005261667E+02  0.11454223806E+03 -0.47196058523E+02  0.13330790641E+03  0.47000000000E+01 0. -1.
        -11    1    1    2    0    0 -0.38671997133E+01  0.18690879753E+02 -0.10473556038E+02  0.21771531771E+02  0.00000000000E+00 0.  1.
         11    1    1    2    0    0 -0.35602785157E+02 -0.11639365827E+03 -0.11330674122E+03  0.16629329392E+03  0.00000000000E+00 0. -1.
<mgrwt>
<rscale>  0 0.15771420E+03</rscale>
<asrwt>0</asrwt>
<pdfrwt beam="2">  1        1 0.46969395E-01 0.16348836E+03</pdfrwt>
<pdfrwt beam="1">  1       -1 0.11826925E-01 0.16348836E+03</pdfrwt>
<totfact> 0.39079684E+03</totfact>
</mgrwt>
</event>
<event>
 7    1  0.5400401E-006  0.1306642E+03  0.7546771E-02  0.1237240E+00
          1   -1    0    0  501    0  0.00000000000E+00  0.00000000000E+00  0.24236076217E+03  0.24236076217E+03  0.00000000000E+00 0. -1.
         -1   -1    0    0    0  501 -0.00000000000E+00 -0.00000000000E+00 -0.57496071708E+02  0.57496071708E+02  0.00000000000E+00 0.  1.
         23    2    1    2    0    0 -0.38036436788E+02  0.70357871710E+00  0.90791436461E+02  0.15911070927E+03  0.12500346925E+03 0.  0.
          5    1    3    3  502    0 -0.54097758924E+02  0.20594301138E+02 -0.64705723474E+01  0.58435015756E+02  0.47000000000E+01 0. -1.
         -5    1    3    3    0  502  0.16061322136E+02 -0.19890722420E+02  0.97262008809E+02  0.10067569351E+03  0.47000000000E+01 0. -1.
        -11    1    1    2    0    0  0.50179883864E+02  0.37293640370E+02  0.71236725414E+02  0.94781366335E+02  0.00000000000E+00 0. -1.
         11    1    1    2    0    0 -0.12143447076E+02 -0.37997219087E+02  0.22836528588E+02  0.45964758274E+02  0.00000000000E+00 0.  1.
<mgrwt>
<rscale>  0 0.12362100E+03</rscale>
<asrwt>0</asrwt>
<pdfrwt beam="1">  1        1 0.37286271E-01 0.13066420E+03</pdfrwt>
<pdfrwt beam="2">  1       -1 0.88455496E-02 0.13066420E+03</pdfrwt>
<totfact> 0.80091861E+03</totfact>
</mgrwt>
</event>
<event>
 7    1  0.5400401E-006  0.1465460E+03  0.7546771E-02  0.1215027E+00
         -1   -1    0    0    0  501 -0.00000000000E+00  0.00000000000E+00  0.23436640218E+03  0.23436640218E+03  0.00000000000E+00 0.  1.
          1   -1    0    0  501    0  0.00000000000E+00 -0.00000000000E+00 -0.75932595515E+02  0.75932595515E+02  0.00000000000E+00 0. -1.
         23    2    1    2    0    0 -0.45772749140E+02 -0.61284188633E+02  0.10878799808E+03  0.18251181561E+03  0.12499935188E+03 0.  0.
          5    1    3    3  502    0  0.17749782004E+02 -0.78408466315E+02  0.57236610453E+02  0.98798086657E+02  0.47000000000E+01 0. -1.
         -5    1    3    3    0  502 -0.63522531144E+02  0.17124277682E+02  0.51551387629E+02  0.83713728955E+02  0.47000000000E+01 0. -1.
        -11    1    1    2    0    0  0.18580785855E+02  0.64894075873E+02  0.67177347214E+02  0.95232781462E+02  0.00000000000E+00 0.  1.
         11    1    1    2    0    0  0.27191963285E+02 -0.36098872399E+01 -0.17531538628E+02  0.32554400622E+02  0.00000000000E+00 0. -1.
<mgrwt>
<rscale>  0 0.13874583E+03</rscale>
<asrwt>0</asrwt>
<pdfrwt beam="2">  1        1 0.11681938E-01 0.14654601E+03</pdfrwt>
<pdfrwt beam="1">  1       -1 0.36056369E-01 0.14654601E+03</pdfrwt>
<totfact> 0.37233819E+03</totfact>
</mgrwt>
</event>
<event>
 7    1  0.5400401E-006  0.1208188E+03  0.7546771E-02  0.1256739E+00
         -1   -1    0    0    0  501 -0.00000000000E+00  0.00000000000E+00  0.15809347467E+03  0.15809347467E+03  0.00000000000E+00 0.  1.
          1   -1    0    0  501    0  0.00000000000E+00 -0.00000000000E+00 -0.73320135419E+02  0.73320135419E+02  0.00000000000E+00 0. -1.
         23    2    1    2    0    0  0.13901528695E+02 -0.16543558794E+02  0.72894858548E+02  0.14110580728E+03  0.11887071384E+03 0.  0.
          5    1    3    3  502    0 -0.30474572296E+02 -0.29117453006E+02 -0.12261359410E+02  0.44146988128E+02  0.47000000000E+01 0. -1.
         -5    1    3    3    0  502  0.44376100991E+02  0.12573894212E+02  0.85156217958E+02  0.96958819154E+02  0.47000000000E+01 0.  1.
        -11    1    1    2    0    0 -0.17729586676E+01 -0.35566238617E+02  0.89878224611E+01  0.36727124369E+02  0.00000000000E+00 0.  1.
         11    1    1    2    0    0 -0.12128570028E+02  0.52109797411E+02  0.28906582460E+01  0.53580678441E+02  0.00000000000E+00 0. -1.
<mgrwt>
<rscale>  0 0.11209464E+03</rscale>
<asrwt>0</asrwt>
<pdfrwt beam="2">  1        1 0.11280021E-01 0.12081882E+03</pdfrwt>
<pdfrwt beam="1">  1       -1 0.24322073E-01 0.12081882E+03</pdfrwt>
<totfact> 0.74487466E+03</totfact>
</mgrwt>
</event>
<event>
 7    1  0.5400401E-006  0.1267789E+03  0.7546771E-02  0.1245844E+00
          3   -1    0    0  501    0  0.00000000000E+00  0.00000000000E+00  0.66412173828E+02  0.66412173828E+02  0.00000000000E+00 0. -1.
         -3   -1    0    0    0  501 -0.00000000000E+00 -0.00000000000E+00 -0.19241487399E+03  0.19241487399E+03  0.00000000000E+00 0.  1.
         23    2    1    2    0    0 -0.63583790895E+01 -0.20259915206E+02 -0.92303001172E+02  0.15682067274E+03  0.12498794432E+03 0.  0.
          5    1    3    3  502    0  0.62218992167E+01 -0.38169158815E+02  0.18961313275E+02  0.43326875212E+02  0.47000000000E+01 0.  1.
         -5    1    3    3    0  502 -0.12580278306E+02  0.17909243609E+02 -0.11126431445E+03  0.11349379753E+03  0.47000000000E+01 0.  1.
        -11    1    1    2    0    0  0.34943143398E+02 -0.93330341106E+01 -0.46506677078E+02  0.58915191667E+02  0.00000000000E+00 0.  1.
         11    1    1    2    0    0 -0.28584764309E+02  0.29592949317E+02  0.12806978087E+02  0.43091183409E+02  0.00000000000E+00 0. -1.
<mgrwt>
<rscale>  0 0.11834991E+03</rscale>
<asrwt>0</asrwt>
<pdfrwt beam="1">  1        3 0.10217258E-01 0.12677886E+03</pdfrwt>
<pdfrwt beam="2">  1       -3 0.29602288E-01 0.12677886E+03</pdfrwt>
<totfact> 0.17765051E+03</totfact>
</mgrwt>
</event>
<event>
 7    1  0.5400401E-006  0.1551861E+03  0.7546771E-02  0.1201737E+00
         -1   -1    0    0    0  501 -0.00000000000E+00  0.00000000000E+00  0.30950860747E+03  0.30950860747E+03  0.00000000000E+00 0.  1.
          1   -1    0    0  501    0  0.00000000000E+00 -0.00000000000E+00 -0.96907869427E+02  0.96907869427E+02  0.00000000000E+00 0. -1.
         23    2    1    2    0    0 -0.60999802311E+02 -0.68664622687E+02  0.22577264592E+03  0.27396349999E+03  0.12508759088E+03 0.  0.
          5    1    3    3  502    0 -0.35173285033E+02 -0.58069873774E+02  0.23463147008E+03  0.24430163113E+03  0.47000000000E+01 0.  1.
         -5    1    3    3    0  502 -0.25826517278E+02 -0.10594748912E+02 -0.88588241587E+01  0.29661868867E+02  0.47000000000E+01 0.  1.
        -11    1    1    2    0    0  0.21800929124E+02 -0.22863417784E+02  0.23629225269E+01  0.31679643090E+02  0.00000000000E+00 0.  1.
         11    1    1    2    0    0  0.39198873187E+02  0.91528040471E+02 -0.15534830406E+02  0.10077333381E+03  0.00000000000E+00 0. -1.
<mgrwt>
<rscale>  0 0.14897569E+03</rscale>
<asrwt>0</asrwt>
<pdfrwt beam="2">  1        1 0.14908903E-01 0.15518606E+03</pdfrwt>
<pdfrwt beam="1">  1       -1 0.47616708E-01 0.15518606E+03</pdfrwt>
<totfact> 0.16588926E+03</totfact>
</mgrwt>
</event>
<event>
 7    1  0.5400401E-006  0.1367669E+03  0.7546771E-02  0.1228955E+00
         -3   -1    0    0    0  501 -0.00000000000E+00  0.00000000000E+00  0.33295931743E+02  0.33295931743E+02  0.00000000000E+00 0.  1.
          3   -1    0    0  501    0  0.00000000000E+00 -0.00000000000E+00 -0.46424509810E+03  0.46424509810E+03  0.00000000000E+00 0. -1.
         23    2    1    2    0    0 -0.47728322899E+02 -0.32233380600E+02 -0.19759495972E+03  0.24031010482E+03  0.12404916259E+03 0.  0.
          5    1    3    3  502    0 -0.61374171600E+02 -0.53793259689E+02 -0.19815977546E+03  0.21435925531E+03  0.47000000000E+01 0. -1.
         -5    1    3    3    0  502  0.13645848701E+02  0.21559879089E+02  0.56481574050E+00  0.25950849503E+02  0.47000000000E+01 0.  1.
        -11    1    1    2    0    0  0.70153401243E+02  0.37901824726E+02 -0.14060487774E+03  0.16164089727E+03  0.00000000000E+00 0.  1.
         11    1    1    2    0    0 -0.22425078344E+02 -0.56684441264E+01 -0.92749328892E+02  0.95590027762E+02  0.00000000000E+00 0. -1.
<mgrwt>
<rscale>  0 0.12899469E+03</rscale>
<asrwt>0</asrwt>
<pdfrwt beam="2">  1        3 0.71422318E-01 0.13676688E+03</pdfrwt>
<pdfrwt beam="1">  1       -3 0.51224514E-02 0.13676688E+03</pdfrwt>
<totfact> 0.96695030E+02</totfact>
</mgrwt>
</event>
<event>
 7    1  0.5400401E-006  0.1593369E+03  0.7546771E-02  0.1197322E+00
          2   -1    0    0  501    0  0.00000000000E+00  0.00000000000E+00  0.57236068814E+03  0.57236068814E+03  0.00000000000E+00 0.  1.
         -2   -1    0    0    0  501 -0.00000000000E+00 -0.00000000000E+00 -0.41972765462E+02  0.41972765462E+02  0.00000000000E+00 0. -1.
         23    2    1    2    0    0  0.98756848880E+02 -0.32170857439E+01  0.18676993215E+03  0.24550207554E+03  0.12499998680E+03 0.  0.
          5    1    3    3  502    0 -0.85844516373E+00 -0.38549490932E+02  0.10448012138E+03  0.11146742099E+03  0.47000000000E+01 0. -1.
         -5    1    3    3    0  502  0.99615294043E+02  0.35332405188E+02  0.82289810767E+02  0.13403465455E+03  0.47000000000E+01 0. -1.
        -11    1    1    2    0    0 -0.22059126872E+02 -0.35269473842E+02  0.63912337089E+02  0.76258295914E+02  0.00000000000E+00 0. -1.
         11    1    1    2    0    0 -0.76697722008E+02  0.38486559586E+02  0.27970565344E+03  0.29257308214E+03  0.00000000000E+00 0.  1.
<mgrwt>
<rscale>  0 0.15259332E+03</rscale>
<asrwt>0</asrwt>
<pdfrwt beam="1">  1        2 0.88055485E-01 0.15933694E+03</pdfrwt>
<pdfrwt beam="2">  1       -2 0.64573489E-02 0.15933694E+03</pdfrwt>
<totfact> 0.68281678E+03</totfact>
</mgrwt>
</event>
<event>
 7    1  0.5400401E-006  0.1663917E+03  0.7546771E-02  0.1189876E+00
          1   -1    0    0  501    0  0.00000000000E+00  0.00000000000E+00  0.80025975993E+03  0.80025975993E+03  0.00000000000E+00 0. -1.
         -1   -1    0    0    0  501 -0.00000000000E+00 -0.00000000000E+00 -0.29276148564E+02  0.29276148564E+02  0.00000000000E+00 0.  1.
         23    2    1    2    0    0 -0.94432986808E+02  0.56080904772E+02  0.38478300092E+03  0.41921851303E+03  0.12499418784E+03 0.  0.
          5    1    3    3  502    0 -0.16678987486E+02 -0.55590011704E+01 -0.34123381885E+01  0.18515538596E+02  0.47000000000E+01 0. -1.
         -5    1    3    3    0  502 -0.77753999322E+02  0.61639905943E+02  0.38819533911E+03  0.40070297444E+03  0.47000000000E+01 0. -1.
        -11    1    1    2    0    0  0.46160523135E+01 -0.30471191757E+02  0.33759078512E+02  0.45710795749E+02  0.00000000000E+00 0.  1.
         11    1    1    2    0    0  0.89816934495E+02 -0.25609713015E+02  0.35244153193E+03  0.36460659971E+03  0.00000000000E+00 0. -1.
<mgrwt>
<rscale>  0 0.15896011E+03</rscale>
<asrwt>0</asrwt>
<pdfrwt beam="1">  1        1 0.12311687E+00 0.16639172E+03</pdfrwt>
<pdfrwt beam="2">  1       -1 0.45040235E-02 0.16639172E+03</pdfrwt>
<totfact> 0.46529488E+03</totfact>
</mgrwt>
</event>
<event>
 7    1  0.5400401E-006  0.2054540E+03  0.7546771E-02  0.1149150E+00
          2   -1    0    0  501    0  0.00000000000E+00  0.00000000000E+00  0.36106913892E+02  0.36106913892E+02  0.00000000000E+00 0.  1.
         -2   -1    0    0    0  501 -0.00000000000E+00 -0.00000000000E+00 -0.11123237931E+04  0.11123237931E+04  0.00000000000E+00 0. -1.
         23    2    1    2    0    0 -0.92882973715E+02  0.13399380299E+03 -0.67817094513E+03  0.70860932515E+03  0.12501903382E+03 0.  0.
          5    1    3    3  502    0 -0.85763482407E+02  0.13083575300E+03 -0.38913099547E+03  0.41942626386E+03  0.47000000000E+01 0. -1.
         -5    1    3    3    0  502 -0.71194913079E+01  0.31580499940E+01 -0.28903994966E+03  0.28918306129E+03  0.47000000000E+01 0. -1.
        -11    1    1    2    0    0  0.38409379030E+02 -0.79092510425E+02 -0.31187818116E+03  0.32403534605E+03  0.00000000000E+00 0. -1.
         11    1    1    2    0    0  0.54473594685E+02 -0.54901292568E+02 -0.86167752914E+02  0.11578603580E+03  0.00000000000E+00 0.  1.
<mgrwt>
<rscale>  0 0.20070029E+03</rscale>
<asrwt>0</asrwt>
<pdfrwt beam="1">  1        2 0.55549089E-02 0.20545400E+03</pdfrwt>
<pdfrwt beam="2">  1       -2 0.17112677E+00 0.20545400E+03</pdfrwt>
<totfact> 0.30436934E+02</totfact>
</mgrwt>
</event>
<event>
 7    1  0.5400401E-006  0.1426648E+03  0.7546771E-02  0.1223775E+00
         -3   -1    0    0    0  501 -0.00000000000E+00  0.00000000000E+00  0.22895207356E+02  0.22895207356E+02  0.00000000000E+00 0.  1.
          3   -1    0    0  501    0  0.00000000000E+00 -0.00000000000E+00 -0.69140182152E+03  0.69140182152E+03  0.00000000000E+00 0. -1.
         23    2    1    2    0    0  0.67412189782E+02  0.13589943716E+02 -0.32977692517E+03  0.35931333280E+03  0.12499664335E+03 0.  0.
          5    1    3    3  502    0  0.49146199485E+02 -0.52522141834E+02 -0.19737940914E+03  0.21013006795E+03  0.47000000000E+01 0.  1.
         -5    1    3    3    0  502  0.18265990298E+02  0.66112085550E+02 -0.13239751604E+03  0.14918326485E+03  0.47000000000E+01 0.  1.
        -11    1    1    2    0    0  0.17247603391E+02  0.50747268037E+01 -0.38553198111E+02  0.42539179111E+02  0.00000000000E+00 0.  1.
         11    1    1    2    0    0 -0.84659793174E+02 -0.18664670519E+02 -0.30017649088E+03  0.31244451697E+03  0.00000000000E+00 0. -1.
<mgrwt>
<rscale>  0 0.13251201E+03</rscale>
<asrwt>0</asrwt>
<pdfrwt beam="2">  1        3 0.10636951E+00 0.14266482E+03</pdfrwt>
<pdfrwt beam="1">  1       -3 0.35223396E-02 0.14266482E+03</pdfrwt>
<totfact> 0.72730488E+02</totfact>
</mgrwt>
</event>
<event>
 7    1  0.5400401E-006  0.1441577E+03  0.7546771E-02  0.1218308E+00
          4   -1    0    0  501    0  0.00000000000E+00  0.00000000000E+00  0.13131240985E+03  0.13131240985E+03  0.00000000000E+00 0. -1.
         -4   -1    0    0    0  501 -0.00000000000E+00 -0.00000000000E+00 -0.17773655970E+03  0.17773655970E+03  0.00000000000E+00 0.  1.
         23    2    1    2    0    0 -0.58542086047E+02  0.41527716703E+02 -0.10621556712E+03  0.17906197979E+03  0.12501887383E+03 0.  0.
          5    1    3    3  502    0 -0.34300793835E+02 -0.24268540893E+02 -0.99927683262E+02  0.10850409401E+03  0.47000000000E+01 0.  1.
         -5    1    3    3    0  502 -0.24241292212E+02  0.65796257596E+02 -0.62878838588E+01  0.70557885776E+02  0.47000000000E+01 0.  1.
        -11    1    1    2    0    0  0.22597967840E+01 -0.56908895077E+02  0.26580987356E+02  0.62851236338E+02  0.00000000000E+00 0. -1.
         11    1    1    2    0    0  0.56282289263E+02  0.15381178375E+02  0.33210429910E+02  0.67135753423E+02  0.00000000000E+00 0.  1.
<mgrwt>
<rscale>  0 0.13636345E+03</rscale>
<asrwt>0</asrwt>
<pdfrwt beam="1">  1        4 0.20201909E-01 0.14415771E+03</pdfrwt>
<pdfrwt beam="2">  1       -4 0.27344086E-01 0.14415771E+03</pdfrwt>
<totfact> 0.47120755E+02</totfact>
</mgrwt>
</event>
<event>
 7    1  0.5946790E-006  0.1496039E+03  0.7546771E-02  0.1210183E+00
          3   -1    0    0  501    0  0.00000000000E+00  0.00000000000E+00  0.84609480321E+02  0.84609480321E+02  0.00000000000E+00 0. -1.
         -3   -1    0    0    0  501 -0.00000000000E+00 -0.00000000000E+00 -0.21923857823E+03  0.21923857823E+03  0.00000000000E+00 0.  1.
         23    2    1    2    0    0  0.57851388165E+02 -0.58389482784E+02 -0.78281716467E+02  0.16884717004E+03  0.12500089954E+03 0.  0.
          5    1    3    3  502    0  0.47274952444E+02  0.73388723042E+01 -0.89095956276E+02  0.10123714536E+03  0.47000000000E+01 0.  1.
         -5    1    3    3    0  502  0.10576435721E+02 -0.65728355088E+02  0.10814239809E+02  0.67610024684E+02  0.47000000000E+01 0.  1.
        -11    1    1    2    0    0 -0.48120076235E+02  0.41107594181E+02 -0.81361539130E+02  0.10307800971E+03  0.00000000000E+00 0.  1.
         11    1    1    2    0    0 -0.97313119306E+01  0.17281888603E+02  0.25014157692E+02  0.31922878796E+02  0.00000000000E+00 0. -1.
<mgrwt>
<rscale>  0 0.14236398E+03</rscale>
<asrwt>0</asrwt>
<pdfrwt beam="1">  1        3 0.13016843E-01 0.14960394E+03</pdfrwt>
<pdfrwt beam="2">  1       -3 0.33729011E-01 0.14960394E+03</pdfrwt>
<totfact> 0.95466103E+02</totfact>
</mgrwt>
</event>
<event>
 7    1  0.5400401E-006  0.1458175E+03  0.7546771E-02  0.1215071E+00
         -1   -1    0    0    0  501 -0.00000000000E+00  0.00000000000E+00  0.17371234156E+03  0.17371234156E+03  0.00000000000E+00 0.  1.
          1   -1    0    0  501    0  0.00000000000E+00 -0.00000000000E+00 -0.10213814614E+03  0.10213814614E+03  0.00000000000E+00 0. -1.
         23    2    1    2    0    0  0.68952294963E+02  0.29713853992E+02  0.52200320752E+02  0.15487933705E+03  0.12500161382E+03 0.  0.
          5    1    3    3  502    0  0.89889092108E+02  0.17045308039E+02 -0.57569432943E+01  0.91792286181E+02  0.47000000000E+01 0.  1.
         -5    1    3    3    0  502 -0.20936797146E+02  0.12668545953E+02  0.57957264047E+02  0.63087050867E+02  0.47000000000E+01 0.  1.
        -11    1    1    2    0    0 -0.16806219962E+01 -0.45630072482E+02  0.24193415242E+02  0.51674455451E+02  0.00000000000E+00 0.  1.
         11    1    1    2    0    0 -0.67271672966E+02  0.15916218490E+02 -0.48195405765E+01  0.69296695203E+02  0.00000000000E+00 0. -1.
<mgrwt>
<rscale>  0 0.13871297E+03</rscale>
<asrwt>0</asrwt>
<pdfrwt beam="2">  1        1 0.15713561E-01 0.14581747E+03</pdfrwt>
<pdfrwt beam="1">  1       -1 0.26724976E-01 0.14581747E+03</pdfrwt>
<totfact> 0.41949405E+03</totfact>
</mgrwt>
</event>
<event>
 7    1  0.5400401E-006  0.1863737E+03  0.7546771E-02  0.1168292E+00
          2   -1    0    0  501    0  0.00000000000E+00  0.00000000000E+00  0.18055010048E+04  0.18055010048E+04  0.00000000000E+00 0. -1.
         -2   -1    0    0    0  501 -0.00000000000E+00 -0.00000000000E+00 -0.16747850820E+02  0.16747850820E+02  0.00000000000E+00 0.  1.
         23    2    1    2    0    0  0.14431421086E+02 -0.13750019535E+03  0.10320860298E+04  0.10487786771E+04  0.12498228234E+03 0.  0.
          5    1    3    3  502    0 -0.12363045832E+02 -0.91000863995E+02  0.91820373124E+03  0.92279693552E+03  0.47000000000E+01 0.  1.
         -5    1    3    3    0  502  0.26794466918E+02 -0.46499331356E+02  0.11388229857E+03  0.12598174154E+03  0.47000000000E+01 0.  1.
        -11    1    1    2    0    0  0.26396532334E+02  0.14098554562E+02  0.16528903585E+03  0.16797622311E+03  0.00000000000E+00 0. -1.
         11    1    1    2    0    0 -0.40827953420E+02  0.12340164079E+03  0.59137808837E+03  0.60549395549E+03  0.00000000000E+00 0.  1.
<mgrwt>
<rscale>  0 0.17949536E+03</rscale>
<asrwt>0</asrwt>
<pdfrwt beam="1">  1        2 0.27776923E+00 0.18637366E+03</pdfrwt>
<pdfrwt beam="2">  1       -2 0.25765939E-02 0.18637366E+03</pdfrwt>
<totfact> 0.49733323E+03</totfact>
</mgrwt>
</event>
<event>
 7    1  0.5400401E-006  0.1787921E+03  0.7546771E-02  0.1172165E+00
         -3   -1    0    0    0  501 -0.00000000000E+00  0.00000000000E+00  0.25150297118E+03  0.25150297118E+03  0.00000000000E+00 0.  1.
          3   -1    0    0  501    0  0.00000000000E+00 -0.00000000000E+00 -0.11908565379E+03  0.11908565379E+03  0.00000000000E+00 0. -1.
         23    2    1    2    0    0 -0.10835728653E+03 -0.88941771152E+02  0.83350506528E+02  0.19726611684E+03  0.11097149956E+03 0.  0.
          5    1    3    3  502    0 -0.16663629624E+02 -0.72984917609E+02  0.44186542066E+01  0.75140463505E+02  0.47000000000E+01 0. -1.
         -5    1    3    3    0  502 -0.91693656905E+02 -0.15956853542E+02  0.78931852322E+02  0.12212565333E+03  0.47000000000E+01 0.  1.
        -11    1    1    2    0    0  0.15267867457E+02  0.10403477954E+02 -0.24764707425E+02  0.30897101224E+02  0.00000000000E+00 0.  1.
         11    1    1    2    0    0  0.93089419072E+02  0.78538293198E+02  0.73831518281E+02  0.14242540691E+03  0.00000000000E+00 0. -1.
<mgrwt>
<rscale>  0 0.17556584E+03</rscale>
<asrwt>0</asrwt>
<pdfrwt beam="2">  1        3 0.18320870E-01 0.17879210E+03</pdfrwt>
<pdfrwt beam="1">  1       -3 0.38692765E-01 0.17879210E+03</pdfrwt>
<totfact> 0.41803031E+02</totfact>
</mgrwt>
</event>
<event>
 7    1  0.5400401E-006  0.1327852E+03  0.7546771E-02  0.1235087E+00
         -2   -1    0    0    0  501 -0.00000000000E+00  0.00000000000E+00  0.65496530378E+02  0.65496530378E+02  0.00000000000E+00 0.  1.
          2   -1    0    0  501    0  0.00000000000E+00 -0.00000000000E+00 -0.23086244130E+03  0.23086244130E+03  0.00000000000E+00 0. -1.
         23    2    1    2    0    0 -0.23149955402E+02 -0.38364824893E+02 -0.52679679813E+02  0.14285328978E+03  0.12499653400E+03 0.  0.
          5    1    3    3  502    0 -0.24791512911E+02 -0.32061412955E+01  0.37853289088E+02  0.45605481570E+02  0.47000000000E+01 0.  1.
         -5    1    3    3    0  502  0.16415575099E+01 -0.35158683597E+02 -0.90532968902E+02  0.97247808209E+02  0.47000000000E+01 0.  1.
        -11    1    1    2    0    0  0.36065680641E+02  0.96532777628E+01 -0.87375012501E+00  0.37345448597E+02  0.00000000000E+00 0.  1.
         11    1    1    2    0    0 -0.12915725239E+02  0.28711547130E+02 -0.11181248098E+03  0.11616023330E+03  0.00000000000E+00 0. -1.
<mgrwt>
<rscale>  0 0.12498850E+03</rscale>
<asrwt>0</asrwt>
<pdfrwt beam="2">  1        2 0.35517298E-01 0.13278522E+03</pdfrwt>
<pdfrwt beam="1">  1       -2 0.10076389E-01 0.13278522E+03</pdfrwt>
<totfact> 0.90105719E+03</totfact>
</mgrwt>
</event>
<event>
 7    1  0.5400401E-006  0.1471359E+03  0.7546771E-02  0.1215639E+00
          2   -1    0    0  501    0  0.00000000000E+00  0.00000000000E+00  0.36120168089E+02  0.36120168089E+02  0.00000000000E+00 0.  1.
         -2   -1    0    0    0  501 -0.00000000000E+00 -0.00000000000E+00 -0.47536692050E+03  0.47536692050E+03  0.00000000000E+00 0. -1.
         23    2    1    2    0    0  0.37155580184E+02  0.67128439801E+02 -0.25347555219E+03  0.29308499517E+03  0.12554757769E+03 0.  0.
          5    1    3    3  502    0  0.27845477293E+02  0.77813489520E+02 -0.68328265619E+02  0.10733662767E+03  0.47000000000E+01 0. -1.
         -5    1    3    3    0  502  0.93101028905E+01 -0.10685049719E+02 -0.18514728657E+03  0.18574836750E+03  0.47000000000E+01 0. -1.
        -11    1    1    2    0    0  0.22184552305E+02 -0.35337737195E+01 -0.15787201634E+02  0.27456832540E+02  0.00000000000E+00 0.  1.
         11    1    1    2    0    0 -0.59340132489E+02 -0.63594666081E+02 -0.16998399859E+03  0.19094526088E+03  0.00000000000E+00 0. -1.
<mgrwt>
<rscale>  0 0.13829722E+03</rscale>
<asrwt>0</asrwt>
<pdfrwt beam="1">  1        2 0.55569490E-02 0.14713585E+03</pdfrwt>
<pdfrwt beam="2">  1       -2 0.73133372E-01 0.14713585E+03</pdfrwt>
<totfact> 0.22877700E+03</totfact>
</mgrwt>
</event>
<event>
 7    1  0.5400401E-006  0.2523886E+03  0.7546771E-02  0.1113974E+00
          3   -1    0    0  501    0  0.00000000000E+00  0.00000000000E+00  0.56025745452E+03  0.56025745452E+03  0.00000000000E+00 0. -1.
         -3   -1    0    0    0  501 -0.00000000000E+00 -0.00000000000E+00 -0.10780949926E+03  0.10780949926E+03  0.00000000000E+00 0.  1.
         23    2    1    2    0    0  0.14416025932E+03 -0.16520847072E+03  0.22164172557E+03  0.33589445233E+03  0.12499603763E+03 0.  0.
          5    1    3    3  502    0  0.14161834402E+03 -0.75058501635E+02  0.16023403928E+03  0.22668606347E+03  0.47000000000E+01 0. -1.
         -5    1    3    3    0  502  0.25419153012E+01 -0.90149969087E+02  0.61407686290E+02  0.10920838885E+03  0.47000000000E+01 0. -1.
        -11    1    1    2    0    0 -0.10452815331E+03  0.16185120615E+03  0.15783678185E+03  0.24906705416E+03  0.00000000000E+00 0.  1.
         11    1    1    2    0    0 -0.39632106013E+02  0.33572645733E+01  0.72969447843E+02  0.83105447300E+02  0.00000000000E+00 0. -1.
<mgrwt>
<rscale>  0 0.24894336E+03</rscale>
<asrwt>0</asrwt>
<pdfrwt beam="1">  1        3 0.86193453E-01 0.25238865E+03</pdfrwt>
<pdfrwt beam="2">  1       -3 0.16586077E-01 0.25238865E+03</pdfrwt>
<totfact> 0.98383710E+01</totfact>
</mgrwt>
</event>
<event>
 7    1  0.5400401E-006  0.1377558E+03  0.7546771E-02  0.1228308E+00
         -1   -1    0    0    0  501 -0.00000000000E+00  0.00000000000E+00  0.12633753380E+03  0.12633753380E+03  0.00000000000E+00 0.  1.
          1   -1    0    0  501    0  0.00000000000E+00 -0.00000000000E+00 -0.19751585023E+03  0.19751585023E+03  0.00000000000E+00 0. -1.
         23    2    1    2    0    0 -0.55912399332E+02  0.14971857323E+02  0.63452937698E+02  0.15166715711E+03  0.12500519323E+03 0.  0.
          5    1    3    3  502    0  0.31139066053E+02  0.33577743829E+02  0.81116715366E+01  0.46743935761E+02  0.47000000000E+01 0. -1.
         -5    1    3    3    0  502 -0.87051465386E+02 -0.18605886506E+02  0.55341266161E+02  0.10492322135E+03  0.47000000000E+01 0. -1.
        -11    1    1    2    0    0  0.61393854096E+02 -0.40423608289E+02 -0.12382012555E+03  0.14399547535E+03  0.00000000000E+00 0. -1.
         11    1    1    2    0    0 -0.54814547634E+01  0.25451750966E+02 -0.10811128572E+02  0.28190751579E+02  0.00000000000E+00 0.  1.
<mgrwt>
<rscale>  0 0.12942727E+03</rscale>
<asrwt>0</asrwt>
<pdfrwt beam="2">  1        1 0.30387054E-01 0.13775577E+03</pdfrwt>
<pdfrwt beam="1">  1       -1 0.19436544E-01 0.13775577E+03</pdfrwt>
<totfact> 0.30468766E+03</totfact>
</mgrwt>
</event>
<event>
 7    1  0.5400401E-006  0.1325167E+03  0.7546771E-02  0.1236259E+00
         -2   -1    0    0    0  501 -0.00000000000E+00  0.00000000000E+00  0.18216037356E+02  0.18216037356E+02  0.00000000000E+00 0.  1.
          2   -1    0    0  501    0  0.00000000000E+00 -0.00000000000E+00 -0.76481154449E+03  0.76481154449E+03  0.00000000000E+00 0. -1.
         23    2    1    2    0    0  0.34241971995E+02 -0.27600769880E+02 -0.45914721835E+03  0.47788789982E+03  0.12500544602E+03 0.  0.
          5    1    3    3  502    0  0.73591476964E+02 -0.13638547302E+02 -0.38865199652E+03  0.39582089366E+03  0.47000000000E+01 0.  1.
         -5    1    3    3    0  502 -0.39349504969E+02 -0.13962222578E+02 -0.70495221825E+02  0.82067006165E+02  0.47000000000E+01 0.  1.
        -11    1    1    2    0    0 -0.60231351858E+02  0.56187789999E+00 -0.21851183686E+03  0.22666176188E+03  0.00000000000E+00 0. -1.
         11    1    1    2    0    0  0.25989379863E+02  0.27038891980E+02 -0.68936451932E+02  0.78477920144E+02  0.00000000000E+00 0.  1.
<mgrwt>
<rscale>  0 0.12424168E+03</rscale>
<asrwt>0</asrwt>
<pdfrwt beam="2">  1        2 0.11766330E+00 0.13251670E+03</pdfrwt>
<pdfrwt beam="1">  1       -2 0.28024676E-02 0.13251670E+03</pdfrwt>
<totfact> 0.16716146E+04</totfact>
</mgrwt>
</event>
<event>
 7    1  0.5400401E-006  0.1900042E+03  0.7546771E-02  0.1163059E+00
         -2   -1    0    0    0  501 -0.00000000000E+00  0.00000000000E+00  0.54544671716E+02  0.54544671716E+02  0.00000000000E+00 0.  1.
          2   -1    0    0  501    0  0.00000000000E+00 -0.00000000000E+00 -0.59658781785E+03  0.59658781785E+03  0.00000000000E+00 0. -1.
         23    2    1    2    0    0  0.12623862428E+03  0.67376389308E+02 -0.29089023133E+03  0.34744602146E+03  0.12500337214E+03 0.  0.
          5    1    3    3  502    0  0.24492051090E+02  0.49444967740E+02 -0.20699696795E+03  0.21427669062E+03  0.47000000000E+01 0.  1.
         -5    1    3    3    0  502  0.10174657319E+03  0.17931421568E+02 -0.83893263379E+02  0.13316933084E+03  0.47000000000E+01 0.  1.
        -11    1    1    2    0    0 -0.83537520040E+02  0.17610355506E+01 -0.87604427072E+02  0.12106260423E+03  0.00000000000E+00 0.  1.
         11    1    1    2    0    0 -0.42701104239E+02 -0.69137424858E+02 -0.16354848772E+03  0.18262386387E+03  0.00000000000E+00 0. -1.
<mgrwt>
<rscale>  0 0.18498988E+03</rscale>
<asrwt>0</asrwt>
<pdfrwt beam="2">  1        2 0.91782741E-01 0.19000424E+03</pdfrwt>
<pdfrwt beam="1">  1       -2 0.83914880E-02 0.19000424E+03</pdfrwt>
<totfact> 0.43798420E+03</totfact>
</mgrwt>
</event>
<event>
 7    1  0.5400401E-006  0.1724567E+03  0.7546771E-02  0.1181594E+00
         -2   -1    0    0    0  501 -0.00000000000E+00  0.00000000000E+00  0.35798733081E+02  0.35798733081E+02  0.00000000000E+00 0.  1.
          2   -1    0    0  501    0  0.00000000000E+00 -0.00000000000E+00 -0.73343703871E+03  0.73343703871E+03  0.00000000000E+00 0. -1.
         23    2    1    2    0    0 -0.76899264110E+02 -0.90568511041E+02 -0.33129416337E+03  0.37349314362E+03  0.12500061453E+03 0.  0.
          5    1    3    3  502    0  0.20651235855E+02 -0.59084691926E+02 -0.77426160674E+02  0.99671333487E+02  0.47000000000E+01 0.  1.
         -5    1    3    3    0  502 -0.97550499965E+02 -0.31483819115E+02 -0.25386800270E+03  0.27382181013E+03  0.47000000000E+01 0.  1.
        -11    1    1    2    0    0  0.76280113038E+02  0.64849167422E+02 -0.35267257374E+03  0.36660880299E+03  0.00000000000E+00 0. -1.
         11    1    1    2    0    0  0.61915107200E+00  0.25719343619E+02 -0.13671568518E+02  0.29133825186E+02  0.00000000000E+00 0.  1.
<mgrwt>
<rscale>  0 0.16645666E+03</rscale>
<asrwt>0</asrwt>
<pdfrwt beam="2">  1        2 0.11283646E+00 0.17245668E+03</pdfrwt>
<pdfrwt beam="1">  1       -2 0.55074976E-02 0.17245668E+03</pdfrwt>
<totfact> 0.65325620E+03</totfact>
</mgrwt>
</event>
<event>
 7    1  0.5400401E-006  0.2445007E+03  0.7546771E-02  0.1119144E+00
          1   -1    0    0  501    0  0.00000000000E+00  0.00000000000E+00  0.10143398997E+03  0.10143398997E+03  0.00000000000E+00 0. -1.
         -1   -1    0    0    0  501 -0.00000000000E+00 -0.00000000000E+00 -0.59713657562E+03  0.59713657562E+03  0.00000000000E+00 0.  1.
         23    2    1    2    0    0 -0.16940497100E+03  0.12432845682E+03 -0.34555500767E+03  0.42330705442E+03  0.12499995849E+03 0.  0.
          5    1    3    3  502    0 -0.13467561794E+03  0.10348617645E+03 -0.34260800334E+03  0.38242547606E+03  0.47000000000E+01 0.  1.
         -5    1    3    3    0  502 -0.34729353064E+02  0.20842280367E+02 -0.29470043291E+01  0.40881578365E+02  0.47000000000E+01 0.  1.
        -11    1    1    2    0    0  0.58647639883E+02 -0.10008725270E+03 -0.90643525630E+02  0.14721838389E+03  0.00000000000E+00 0. -1.
         11    1    1    2    0    0  0.11075733112E+03 -0.24241204121E+02 -0.59504052353E+02  0.12804512728E+03  0.00000000000E+00 0.  1.
<mgrwt>
<rscale>  0 0.24097682E+03</rscale>
<asrwt>0</asrwt>
<pdfrwt beam="1">  1        1 0.15605229E-01 0.24450071E+03</pdfrwt>
<pdfrwt beam="2">  1       -1 0.91867166E-01 0.24450071E+03</pdfrwt>
<totfact> 0.43090718E+02</totfact>
</mgrwt>
</event>
<event>
 7    1  0.5400401E-006  0.1285960E+03  0.7546771E-02  0.1244057E+00
         -3   -1    0    0    0  501 -0.00000000000E+00  0.00000000000E+00  0.28215986890E+02  0.28215986890E+02  0.00000000000E+00 0.  1.
          3   -1    0    0  501    0  0.00000000000E+00 -0.00000000000E+00 -0.47691321020E+03  0.47691321020E+03  0.00000000000E+00 0. -1.
         23    2    1    2    0    0  0.18066205368E+01  0.29748618510E+02 -0.19098284015E+03  0.23024199287E+03  0.12509470759E+03 0.  0.
          5    1    3    3  502    0  0.34353687914E+02 -0.30537401953E+02 -0.13153267956E+03  0.13941178065E+03  0.47000000000E+01 0. -1.
         -5    1    3    3    0  502 -0.32547067377E+02  0.60286020463E+02 -0.59450160591E+02  0.90830212223E+02  0.47000000000E+01 0. -1.
        -11    1    1    2    0    0 -0.55578903732E+01 -0.59618777246E+02 -0.12235576299E+03  0.13622122259E+03  0.00000000000E+00 0.  1.
         11    1    1    2    0    0  0.37512698364E+01  0.29870158736E+02 -0.13535862017E+03  0.13866598163E+03  0.00000000000E+00 0. -1.
<mgrwt>
<rscale>  0 0.11941973E+03</rscale>
<asrwt>0</asrwt>
<pdfrwt beam="2">  1        3 0.73371255E-01 0.12859600E+03</pdfrwt>
<pdfrwt beam="1">  1       -3 0.43409215E-02 0.12859600E+03</pdfrwt>
<totfact> 0.11736830E+03</totfact>
</mgrwt>
</event>
<event>
 7    1  0.5400401E-006  0.1593502E+03  0.7546771E-02  0.1193737E+00
          3   -1    0    0  501    0  0.00000000000E+00  0.00000000000E+00  0.71246532574E+03  0.71246532574E+03  0.00000000000E+00 0. -1.
         -3   -1    0    0    0  501 -0.00000000000E+00 -0.00000000000E+00 -0.32950913110E+02  0.32950913110E+02  0.00000000000E+00 0.  1.
         23    2    1    2    0    0  0.37296404336E+02 -0.93293057537E+02  0.39976485993E+03  0.43035384349E+03  0.12368456253E+03 0.  0.
          5    1    3    3  502    0  0.17988507913E+02 -0.11848730973E+03  0.35881607807E+03  0.37833040701E+03  0.47000000000E+01 0. -1.
         -5    1    3    3    0  502  0.19307896424E+02  0.25194252188E+02  0.40948781861E+02  0.52023436483E+02  0.47000000000E+01 0.  1.
        -11    1    1    2    0    0 -0.16147113939E+02  0.49852495044E+02  0.25584593208E+03  0.26115731181E+03  0.00000000000E+00 0. -1.
         11    1    1    2    0    0 -0.21149290397E+02  0.43440562494E+02  0.23903620620E+02  0.53905083552E+02  0.00000000000E+00 0.  1.
<mgrwt>
<rscale>  0 0.15561574E+03</rscale>
<asrwt>0</asrwt>
<pdfrwt beam="1">  1        3 0.10961004E+00 0.15935020E+03</pdfrwt>
<pdfrwt beam="2">  1       -3 0.50693718E-02 0.15935020E+03</pdfrwt>
<totfact> 0.38874388E+02</totfact>
</mgrwt>
</event>
<event>
 7    1  0.5400401E-006  0.1366904E+03  0.7546771E-02  0.1222965E+00
          4   -1    0    0  501    0  0.00000000000E+00  0.00000000000E+00  0.46786191425E+02  0.46786191425E+02  0.00000000000E+00 0. -1.
         -4   -1    0    0    0  501 -0.00000000000E+00 -0.00000000000E+00 -0.42675405355E+03  0.42675405355E+03  0.00000000000E+00 0.  1.
         23    2    1    2    0    0 -0.79763597830E+02  0.35890283978E+01 -0.29225656633E+03  0.32264246450E+03  0.11094659380E+03 0.  0.
          5    1    3    3  502    0 -0.12414449407E+02  0.43490907807E+02 -0.48059770319E+02  0.66161991650E+02  0.47000000000E+01 0. -1.
         -5    1    3    3    0  502 -0.67349148423E+02 -0.39901879409E+02 -0.24419679601E+03  0.25648047285E+03  0.47000000000E+01 0.  1.
        -11    1    1    2    0    0  0.53525963397E+02 -0.41580303291E+02 -0.78686166939E+02  0.10385308492E+03  0.00000000000E+00 0.  1.
         11    1    1    2    0    0  0.26237634433E+02  0.37991274894E+02 -0.90251288558E+01  0.47044695552E+02  0.00000000000E+00 0. -1.
<mgrwt>
<rscale>  0 0.13307374E+03</rscale>
<asrwt>0</asrwt>
<pdfrwt beam="1">  1        4 0.71978757E-02 0.13669038E+03</pdfrwt>
<pdfrwt beam="2">  1       -4 0.65654469E-01 0.13669038E+03</pdfrwt>
<totfact> 0.47924397E+02</totfact>
</mgrwt>
</event>
<event>
 6    1  0.5400401E-006  0.1678329E+03  0.7546771E-02  0.1199976E+00
          1   -1    0    0  501    0  0.00000000000E+00  0.00000000000E+00  0.31288776595E+03  0.31288776595E+03  0.00000000000E+00 0. -1.
         -1   -1    0    0    0  501 -0.00000000000E+00 -0.00000000000E+00 -0.62588900985E+02  0.62588900985E+02  0.00000000000E+00 0.  1.
          5    1    1    2  502    0  0.33739463929E+02 -0.39018660067E+02  0.15930172626E+03  0.16751100635E+03  0.47000000000E+01 0. -1.
         -5    1    1    2    0  502  0.95186650042E+01 -0.31158123321E+01 -0.37994086720E+02  0.39572135344E+02  0.47000000000E+01 0.  1.
        -11    1    1    2    0    0 -0.42119069557E+02  0.67534271672E+02  0.11348228036E+03  0.13861140583E+03  0.00000000000E+00 0.  1.
         11    1    1    2    0    0 -0.11390593767E+01 -0.25399799272E+02  0.15508945060E+02  0.29782119404E+02  0.00000000000E+00 0. -1.
<mgrwt>
<rscale>  0 0.15040521E+03</rscale>
<asrwt>0</asrwt>
<pdfrwt beam="1">  1        1 0.48136578E-01 0.16783291E+03</pdfrwt>
<pdfrwt beam="2">  1       -1 0.96290619E-02 0.16783291E+03</pdfrwt>
<totfact> 0.52082880E+03</totfact>
</mgrwt>
</event>
<event>
 7    1  0.5400401E-006  0.2829318E+03  0.7546771E-02  0.1095778E+00
          2   -1    0    0  501    0  0.00000000000E+00  0.00000000000E+00  0.61211269875E+03  0.61211269875E+03  0.00000000000E+00 0.  1.
         -2   -1    0    0    0  501 -0.00000000000E+00 -0.00000000000E+00 -0.13079502604E+03  0.13079502604E+03  0.00000000000E+00 0. -1.
         23    2    1    2    0    0  0.69763391696E+02  0.24405653609E+03  0.16898376040E+03  0.32955410555E+03  0.12497949262E+03 0.  0.
          5    1    3    3  502    0 -0.15039127191E+01  0.94933864491E+02  0.27640207649E+01  0.95102209183E+02  0.47000000000E+01 0. -1.
         -5    1    3    3    0  502  0.71267304415E+02  0.14912267159E+03  0.16621973964E+03  0.23445189636E+03  0.47000000000E+01 0. -1.
        -11    1    1    2    0    0  0.14576028167E+02 -0.70534017036E+02  0.49856580163E+02  0.87596727918E+02  0.00000000000E+00 0.  1.
         11    1    1    2    0    0 -0.84339419863E+02 -0.17352251905E+03  0.26247733214E+03  0.32575689133E+03  0.00000000000E+00 0. -1.
<mgrwt>
<rscale>  0 0.27983741E+03</rscale>
<asrwt>0</asrwt>
<pdfrwt beam="1">  1        2 0.94171183E-01 0.28293179E+03</pdfrwt>
<pdfrwt beam="2">  1       -2 0.20122312E-01 0.28293179E+03</pdfrwt>
<totfact> 0.10269824E+03</totfact>
</mgrwt>
</event>
<event>
 7    1  0.5400401E-006  0.1439262E+03  0.7546771E-02  0.1217444E+00
          1   -1    0    0  501    0  0.00000000000E+00  0.00000000000E+00  0.45483804156E+02  0.45483804156E+02  0.00000000000E+00 0. -1.
         -1   -1    0    0    0  501 -0.00000000000E+00 -0.00000000000E+00 -0.43243752918E+03  0.43243752918E+03  0.00000000000E+00 0.  1.
         23    2    1    2    0    0  0.59687357399E+02  0.39083482962E+02 -0.29500908425E+03  0.32824551713E+03  0.12499864180E+03 0.  0.
          5    1    3    3  502    0 -0.38334465802E+02  0.14708428620E+02 -0.10823246782E+03  0.11585433195E+03  0.47000000000E+01 0.  1.
         -5    1    3    3    0  502  0.98021823200E+02  0.24375054342E+02 -0.18677661643E+03  0.21239118518E+03  0.47000000000E+01 0.  1.
        -11    1    1    2    0    0 -0.51809526142E+02 -0.19786267353E+02 -0.62539673155E-01  0.55459239861E+02  0.00000000000E+00 0. -1.
         11    1    1    2    0    0 -0.78778312568E+01 -0.19297215610E+02 -0.91882101099E+02  0.94216576344E+02  0.00000000000E+00 0.  1.
<mgrwt>
<rscale>  0 0.13698499E+03</rscale>
<asrwt>0</asrwt>
<pdfrwt beam="1">  1        1 0.69975080E-02 0.14392623E+03</pdfrwt>
<pdfrwt beam="2">  1       -1 0.66528854E-01 0.14392623E+03</pdfrwt>
<totfact> 0.24079145E+03</totfact>
</mgrwt>
</event>
<event>
 7    1  0.5400401E-006  0.1430124E+03  0.7546771E-02  0.1219678E+00
         -2   -1    0    0    0  501 -0.00000000000E+00  0.00000000000E+00  0.61891555384E+02  0.61891555384E+02  0.00000000000E+00 0.  1.
          2   -1    0    0  501    0  0.00000000000E+00 -0.00000000000E+00 -0.26937602730E+03  0.26937602730E+03  0.00000000000E+00 0. -1.
         23    2    1    2    0    0  0.23574439740E+02  0.65372547402E+02 -0.12389187715E+03  0.18921349294E+03  0.12499289789E+03 0.  0.
          5    1    3    3  502    0  0.70936068574E+02  0.58074165961E+02 -0.61893369614E+02  0.11071320508E+03  0.47000000000E+01 0.  1.
         -5    1    3    3    0  502 -0.47361628835E+02  0.72983814413E+01 -0.61998507534E+02  0.78500287859E+02  0.47000000000E+01 0.  1.
        -11    1    1    2    0    0 -0.33772429463E+02 -0.76510139964E+02 -0.34114215611E+02  0.90322523303E+02  0.00000000000E+00 0.  1.
         11    1    1    2    0    0  0.10197989723E+02  0.11137592562E+02 -0.49478379161E+02  0.51731566445E+02  0.00000000000E+00 0. -1.
<mgrwt>
<rscale>  0 0.13538410E+03</rscale>
<asrwt>0</asrwt>
<pdfrwt beam="2">  1        2 0.41442465E-01 0.14301241E+03</pdfrwt>
<pdfrwt beam="1">  1       -2 0.95217779E-02 0.14301241E+03</pdfrwt>
<totfact> 0.83983371E+03</totfact>
</mgrwt>
</event>
<event>
 7    1  0.5400401E-006  0.1972353E+03  0.7546771E-02  0.1156535E+00
          2   -1    0    0  501    0  0.00000000000E+00  0.00000000000E+00  0.20358093752E+03  0.20358093752E+03  0.00000000000E+00 0. -1.
         -2   -1    0    0    0  501 -0.00000000000E+00 -0.00000000000E+00 -0.24743281530E+03  0.24743281530E+03  0.00000000000E+00 0.  1.
         23    2    1    2    0    0 -0.15192673869E+03  0.14027639450E+02 -0.14661789980E+03  0.24576119160E+03  0.12499298444E+03 0.  0.
          5    1    3    3  502    0 -0.12362098721E+03 -0.66303498631E+01 -0.35087415822E+02  0.12876073457E+03  0.47000000000E+01 0. -1.
         -5    1    3    3    0  502 -0.28305751479E+02  0.20657989313E+02 -0.11153048397E+03  0.11700045703E+03  0.47000000000E+01 0. -1.
        -11    1    1    2    0    0  0.35783964579E+02  0.27763640342E+02  0.58805119318E+02  0.74225022088E+02  0.00000000000E+00 0. -1.
         11    1    1    2    0    0  0.11614277411E+03 -0.41791279792E+02  0.43960902692E+02  0.13102753913E+03  0.00000000000E+00 0.  1.
<mgrwt>
<rscale>  0 0.19215156E+03</rscale>
<asrwt>0</asrwt>
<pdfrwt beam="1">  1        2 0.31320144E-01 0.19723528E+03</pdfrwt>
<pdfrwt beam="2">  1       -2 0.38066587E-01 0.19723528E+03</pdfrwt>
<totfact> 0.10891255E+03</totfact>
</mgrwt>
</event>
<event>
 7    1  0.5400401E-006  0.1340278E+03  0.7546771E-02  0.1234203E+00
         -1   -1    0    0    0  501 -0.00000000000E+00  0.00000000000E+00  0.66953953591E+02  0.66953953591E+02  0.00000000000E+00 0.  1.
          1   -1    0    0  501    0  0.00000000000E+00 -0.00000000000E+00 -0.21445202501E+03  0.21445202501E+03  0.00000000000E+00 0. -1.
         23    2    1    2    0    0  0.63806906145E+01  0.47953161388E+02 -0.63415155727E+02  0.14827318582E+03  0.12499294684E+03 0.  0.
          5    1    3    3  502    0 -0.18128487016E+02  0.84310492129E+01 -0.91477381506E+02  0.93754605004E+02  0.47000000000E+01 0.  1.
         -5    1    3    3    0  502  0.24509177630E+02  0.39522112175E+02  0.28062225779E+02  0.54518580819E+02  0.47000000000E+01 0.  1.
        -11    1    1    2    0    0  0.25446165270E+02  0.15801429353E+01  0.53584423506E+01  0.26052199199E+02  0.00000000000E+00 0. -1.
         11    1    1    2    0    0 -0.31826855885E+02 -0.49533304323E+02 -0.89441358041E+02  0.10708059358E+03  0.00000000000E+00 0.  1.
<mgrwt>
<rscale>  0 0.12555597E+03</rscale>
<asrwt>0</asrwt>
<pdfrwt beam="2">  1        1 0.32992619E-01 0.13402782E+03</pdfrwt>
<pdfrwt beam="1">  1       -1 0.10300608E-01 0.13402782E+03</pdfrwt>
<totfact> 0.74046304E+03</totfact>
</mgrwt>
</event>
<event>
 7    1  0.5400401E-006  0.2356264E+03  0.7546771E-02  0.1125502E+00
          2   -1    0    0  501    0  0.00000000000E+00  0.00000000000E+00  0.16480378550E+04  0.16480378550E+04  0.00000000000E+00 0. -1.
         -2   -1    0    0    0  501 -0.00000000000E+00 -0.00000000000E+00 -0.32450405176E+02  0.32450405176E+02  0.00000000000E+00 0.  1.
         23    2    1    2    0    0 -0.36778988107E+02 -0.19632214935E+03  0.69047695981E+03  0.72957401776E+03  0.12499894027E+03 0.  0.
          5    1    3    3  502    0  0.12096668316E+02 -0.13655815372E+03  0.57099847426E+03  0.58724424760E+03  0.47000000000E+01 0.  1.
         -5    1    3    3    0  502 -0.48875656423E+02 -0.59763995627E+02  0.11947848555E+03  0.14232977016E+03  0.47000000000E+01 0.  1.
        -11    1    1    2    0    0 -0.25378690706E+02  0.85700504048E+02  0.47118664816E+03  0.47958889869E+03  0.00000000000E+00 0.  1.
         11    1    1    2    0    0  0.62157678814E+02  0.11062164530E+03  0.45392384187E+03  0.47132534375E+03  0.00000000000E+00 0. -1.
<mgrwt>
<rscale>  0 0.23162380E+03</rscale>
<asrwt>0</asrwt>
<pdfrwt beam="1">  1        2 0.25354422E+00 0.23562643E+03</pdfrwt>
<pdfrwt beam="2">  1       -2 0.49923713E-02 0.23562643E+03</pdfrwt>
<totfact> 0.22353384E+03</totfact>
</mgrwt>
</event>
<event>
 7    1  0.5400401E-006  0.1307919E+03  0.7546771E-02  0.1240064E+00
          2   -1    0    0  501    0  0.00000000000E+00  0.00000000000E+00  0.31252004552E+03  0.31252004552E+03  0.00000000000E+00 0. -1.
         -2   -1    0    0    0  501 -0.00000000000E+00 -0.00000000000E+00 -0.42243783974E+02  0.42243783974E+02  0.00000000000E+00 0.  1.
         23    2    1    2    0    0  0.37925439522E+02  0.65503196630E+01  0.16511242159E+03  0.21063862183E+03  0.12500108636E+03 0.  0.
          5    1    3    3  502    0 -0.36443237385E+02  0.32472814831E+02  0.85435656145E+02  0.98508550873E+02  0.47000000000E+01 0.  1.
         -5    1    3    3    0  502  0.74368676908E+02 -0.25922495168E+02  0.79676765443E+02  0.11213007095E+03  0.47000000000E+01 0.  1.
        -11    1    1    2    0    0  0.43798475797E+01 -0.12976920896E+02 -0.12734540099E+02  0.18701659079E+02  0.00000000000E+00 0.  1.
         11    1    1    2    0    0 -0.42305287102E+02  0.64266012326E+01  0.11789838005E+03  0.12542354859E+03  0.00000000000E+00 0. -1.
<mgrwt>
<rscale>  0 0.12185764E+03</rscale>
<asrwt>0</asrwt>
<pdfrwt beam="1">  1        2 0.48080006E-01 0.13079189E+03</pdfrwt>
<pdfrwt beam="2">  1       -2 0.64990439E-02 0.13079189E+03</pdfrwt>
<totfact> 0.12849502E+04</totfact>
</mgrwt>
</event>
<event>
 7    1  0.5400401E-006  0.1781195E+03  0.7546771E-02  0.1174276E+00
         -2   -1    0    0    0  501 -0.00000000000E+00  0.00000000000E+00  0.57120403248E+02  0.57120403248E+02  0.00000000000E+00 0.  1.
          2   -1    0    0  501    0  0.00000000000E+00 -0.00000000000E+00 -0.64205920792E+03  0.64205920792E+03  0.00000000000E+00 0. -1.
         23    2    1    2    0    0  0.41627204296E+02  0.11986755912E+03 -0.14089294049E+03  0.22710650449E+03  0.12500195132E+03 0.  0.
          5    1    3    3  502    0 -0.34144460085E+02  0.33637906263E+01 -0.50570200883E+02  0.61291063453E+02  0.47000000000E+01 0. -1.
         -5    1    3    3    0  502  0.75771664381E+02  0.11650376849E+03 -0.90322739606E+02  0.16581544103E+03  0.47000000000E+01 0. -1.
        -11    1    1    2    0    0 -0.24712873566E+02 -0.13491723943E+03 -0.36810056167E+03  0.39282491152E+03  0.00000000000E+00 0. -1.
         11    1    1    2    0    0 -0.16914330730E+02  0.15049680309E+02 -0.75945302518E+02  0.79248195159E+02  0.00000000000E+00 0.  1.
<mgrwt>
<rscale>  0 0.17347027E+03</rscale>
<asrwt>0</asrwt>
<pdfrwt beam="2">  1        2 0.98778344E-01 0.17811946E+03</pdfrwt>
<pdfrwt beam="1">  1       -2 0.87877540E-02 0.17811946E+03</pdfrwt>
<totfact> 0.37329427E+03</totfact>
</mgrwt>
</event>
<event>
 6    1  0.5400401E-006  0.1654871E+03  0.7546771E-02  0.1203988E+00
         -2   -1    0    0    0  501 -0.00000000000E+00  0.00000000000E+00  0.15708628201E+03  0.15708628201E+03  0.00000000000E+00 0.  1.
          2   -1    0    0  501    0  0.00000000000E+00 -0.00000000000E+00 -0.32669128307E+03  0.32669128307E+03  0.00000000000E+00 0. -1.
          5    1    1    2  502    0 -0.12161533881E+02  0.44447211659E+02 -0.33151783580E+02  0.56961287601E+02  0.47000000000E+01 0. -1.
         -5    1    1    2    0  502  0.26580340756E+02  0.21819683498E+01  0.13427043141E+03  0.13697413716E+03  0.47000000000E+01 0.  1.
        -11    1    1    2    0    0  0.38096592682E+02 -0.10217342326E+02 -0.11166629533E+03  0.11842764023E+03  0.00000000000E+00 0.  1.
         11    1    1    2    0    0 -0.52515399557E+02 -0.36411837683E+02 -0.15905735356E+03  0.17141450007E+03  0.00000000000E+00 0. -1.
<mgrwt>
<rscale>  0 0.14717467E+03</rscale>
<asrwt>0</asrwt>
<pdfrwt beam="2">  1        2 0.50260198E-01 0.16548706E+03</pdfrwt>
<pdfrwt beam="1">  1       -2 0.24167120E-01 0.16548706E+03</pdfrwt>
<totfact> 0.14870588E+03</totfact>
</mgrwt>
</event>
<event>
 7    1  0.5400401E-006  0.1301744E+03  0.7546771E-02  0.1239136E+00
         -2   -1    0    0    0  501 -0.00000000000E+00  0.00000000000E+00  0.74827920626E+02  0.74827920626E+02  0.00000000000E+00 0.  1.
          2   -1    0    0  501    0  0.00000000000E+00 -0.00000000000E+00 -0.19131457565E+03  0.19131457565E+03  0.00000000000E+00 0. -1.
         23    2    1    2    0    0  0.34905024262E+02 -0.10104181123E+02 -0.32629634651E+02  0.13420163306E+03  0.12499972025E+03 0.  0.
          5    1    3    3  502    0  0.70164355678E+02 -0.74168534826E+01  0.17338793467E+02  0.72806389020E+02  0.47000000000E+01 0.  1.
         -5    1    3    3    0  502 -0.35259331416E+02 -0.26873276407E+01 -0.49968428118E+02  0.61395244037E+02  0.47000000000E+01 0.  1.
        -11    1    1    2    0    0 -0.34718120170E+02  0.49482382657E+02 -0.63275771492E+02  0.87508155732E+02  0.00000000000E+00 0.  1.
         11    1    1    2    0    0 -0.18690409156E+00 -0.39378201534E+02 -0.20581248882E+02  0.44432707489E+02  0.00000000000E+00 0. -1.
<mgrwt>
<rscale>  0 0.12243345E+03</rscale>
<asrwt>0</asrwt>
<pdfrwt beam="2">  1        2 0.29433012E-01 0.13017444E+03</pdfrwt>
<pdfrwt beam="1">  1       -2 0.11511988E-01 0.13017444E+03</pdfrwt>
<totfact> 0.89226736E+03</totfact>
</mgrwt>
</event>
<event>
 6    1  0.5400401E-006  0.2177594E+03  0.7546771E-02  0.1163361E+00
          1   -1    0    0  501    0  0.00000000000E+00  0.00000000000E+00  0.62016232453E+03  0.62016232453E+03  0.00000000000E+00 0. -1.
         -1   -1    0    0    0  501 -0.00000000000E+00 -0.00000000000E+00 -0.44360054827E+02  0.44360054827E+02  0.00000000000E+00 0.  1.
          5    1    1    2  502    0  0.77038743084E+02  0.80651637361E+02  0.19470991642E+03  0.22444085212E+03  0.47000000000E+01 0. -1.
         -5    1    1    2    0  502 -0.15366135210E+02 -0.10434877771E+03  0.15573962249E+03  0.18815340958E+03  0.47000000000E+01 0.  1.
        -11    1    1    2    0    0  0.22771159892E+02  0.66897107778E+01  0.28734948341E+02  0.37268957716E+02  0.00000000000E+00 0. -1.
         11    1    1    2    0    0 -0.84443767766E+02  0.17007429574E+02  0.19661778244E+03  0.21465915994E+03  0.00000000000E+00 0.  1.
<mgrwt>
<rscale>  0 0.18466702E+03</rscale>
<asrwt>0</asrwt>
<pdfrwt beam="1">  1        1 0.95409582E-01 0.21775938E+03</pdfrwt>
<pdfrwt beam="2">  1       -1 0.68246243E-02 0.21775938E+03</pdfrwt>
<totfact> 0.36509459E+03</totfact>
</mgrwt>
</event>
<event>
 7    1  0.5400401E-006  0.1509305E+03  0.7546771E-02  0.1208046E+00
         -2   -1    0    0    0  501 -0.00000000000E+00  0.00000000000E+00  0.24779317980E+02  0.24779317980E+02  0.00000000000E+00 0.  1.
          2   -1    0    0  501    0  0.00000000000E+00 -0.00000000000E+00 -0.77165647030E+03  0.77165647030E+03  0.00000000000E+00 0. -1.
         23    2    1    2    0    0 -0.61031449541E+02  0.58567176092E+02 -0.38290342839E+03  0.41157629910E+03  0.12500025024E+03 0.  0.
          5    1    3    3  502    0  0.34376799128E+02 -0.17734337670E+01 -0.13036682415E+03  0.13491667141E+03  0.47000000000E+01 0. -1.
         -5    1    3    3    0  502 -0.95408248669E+02  0.60340609859E+02 -0.25253660424E+03  0.27665962769E+03  0.47000000000E+01 0. -1.
        -11    1    1    2    0    0 -0.65970322842E+00 -0.12432991149E+02  0.37514659389E+00  0.12456131511E+02  0.00000000000E+00 0.  1.
         11    1    1    2    0    0  0.61691152769E+02 -0.46134184943E+02 -0.36434887053E+03  0.37240335768E+03  0.00000000000E+00 0. -1.
<mgrwt>
<rscale>  0 0.14399990E+03</rscale>
<asrwt>0</asrwt>
<pdfrwt beam="2">  1        2 0.11871636E+00 0.15093050E+03</pdfrwt>
<pdfrwt beam="1">  1       -2 0.38122033E-02 0.15093050E+03</pdfrwt>
<totfact> 0.10591411E+04</totfact>
</mgrwt>
</event>
<event>
 7    1  0.5400401E-006  0.1276142E+03  0.7546771E-02  0.1245974E+00
         -4   -1    0    0    0  501 -0.00000000000E+00  0.00000000000E+00  0.86288557761E+02  0.86288557761E+02  0.00000000000E+00 0.  1.
          4   -1    0    0  501    0  0.00000000000E+00 -0.00000000000E+00 -0.18763964788E+03  0.18763964788E+03  0.00000000000E+00 0. -1.
         23    2    1    2    0    0  0.14439340316E+02 -0.21220465118E+02  0.10119201555E+02  0.12801473616E+03  0.12500628683E+03 0.  0.
          5    1    3    3  502    0 -0.53382530325E+02  0.64734944976E+01  0.80601167694E+01  0.54577066220E+02  0.47000000000E+01 0. -1.
         -5    1    3    3    0  502  0.67821870640E+02 -0.27693959616E+02  0.20590847852E+01  0.73437669942E+02  0.47000000000E+01 0. -1.
        -11    1    1    2    0    0  0.34521193557E+02  0.25276444300E+02 -0.67856193153E+02  0.80218915414E+02  0.00000000000E+00 0. -1.
         11    1    1    2    0    0 -0.48960533872E+02 -0.40559791812E+01 -0.43614098525E+02  0.65694554069E+02  0.00000000000E+00 0.  1.
<mgrwt>
<rscale>  0 0.11827275E+03</rscale>
<asrwt>0</asrwt>
<pdfrwt beam="2">  1        4 0.28867638E-01 0.12761416E+03</pdfrwt>
<pdfrwt beam="1">  1       -4 0.13275163E-01 0.12761416E+03</pdfrwt>
<totfact> 0.87060554E+02</totfact>
</mgrwt>
</event>
<event>
 7    1  0.5400401E-006  0.1497378E+03  0.7546771E-02  0.1210074E+00
         -1   -1    0    0    0  501 -0.00000000000E+00  0.00000000000E+00  0.54878284087E+02  0.54878284087E+02  0.00000000000E+00 0.  1.
          1   -1    0    0  501    0  0.00000000000E+00 -0.00000000000E+00 -0.35636742664E+03  0.35636742664E+03  0.00000000000E+00 0. -1.
         23    2    1    2    0    0 -0.82441676005E+02 -0.38855765014E+00 -0.11846365359E+03  0.19093202943E+03  0.12499848688E+03 0.  0.
          5    1    3    3  502    0 -0.38688840665E+02 -0.42994864551E+02 -0.52025354574E+00  0.58032279238E+02  0.47000000000E+01 0.  1.
         -5    1    3    3    0  502 -0.43752835341E+02  0.42606306901E+02 -0.11794340004E+03  0.13289975019E+03  0.47000000000E+01 0.  1.
        -11    1    1    2    0    0  0.47649665391E+02 -0.41385625173E+02 -0.66233408549E+02  0.91488387192E+02  0.00000000000E+00 0.  1.
         11    1    1    2    0    0  0.34792010614E+02  0.41774182823E+02 -0.11679208042E+03  0.12882529410E+03  0.00000000000E+00 0. -1.
<mgrwt>
<rscale>  0 0.14244715E+03</rscale>
<asrwt>0</asrwt>
<pdfrwt beam="2">  1        1 0.54825761E-01 0.14973778E+03</pdfrwt>
<pdfrwt beam="1">  1       -1 0.84428125E-02 0.14973778E+03</pdfrwt>
<totfact> 0.53745377E+03</totfact>
</mgrwt>
</event>
<event>
 6    1  0.5400401E-006  0.1976719E+03  0.7546771E-02  0.1200994E+00
          2   -1    0    0  501    0  0.00000000000E+00  0.00000000000E+00  0.28410870470E+02  0.28410870470E+02  0.00000000000E+00 0. -1.
         -2   -1    0    0    0  501 -0.00000000000E+00 -0.00000000000E+00 -0.65273722833E+03  0.65273722833E+03  0.00000000000E+00 0.  1.
          5    1    1    2  502    0 -0.18814110944E+02  0.67820815458E+02 -0.43231192354E+03  0.43802890659E+03  0.47000000000E+01 0. -1.
         -5    1    1    2    0  502  0.39034317802E+00 -0.84148381953E+02 -0.10595732411E+03  0.13538887357E+03  0.47000000000E+01 0.  1.
        -11    1    1    2    0    0  0.33514582075E+02  0.28414415001E+02 -0.48198999056E+02  0.65220776609E+02  0.00000000000E+00 0. -1.
         11    1    1    2    0    0 -0.15090814309E+02 -0.12086848506E+02 -0.37858111159E+02  0.42509542033E+02  0.00000000000E+00 0.  1.
<mgrwt>
<rscale>  0 0.14957698E+03</rscale>
<asrwt>0</asrwt>
<pdfrwt beam="1">  1        2 0.43709036E-02 0.19767187E+03</pdfrwt>
<pdfrwt beam="2">  1       -2 0.10042110E+00 0.19767187E+03</pdfrwt>
<totfact> 0.15720423E+03</totfact>
</mgrwt>
</event>
<event>
 7    1  0.5400401E-006  0.1441334E+03  0.7546771E-02  0.1218185E+00
         -1   -1    0    0    0  501 -0.00000000000E+00  0.00000000000E+00  0.92161960554E+02  0.92161960554E+02  0.00000000000E+00 0.  1.
          1   -1    0    0  501    0  0.00000000000E+00 -0.00000000000E+00 -0.30375535930E+03  0.30375535930E+03  0.00000000000E+00 0. -1.
         23    2    1    2    0    0 -0.32788606549E+02  0.63824249305E+02  0.11479050897E+02  0.14458980170E+03  0.12500325847E+03 0.  0.
          5    1    3    3  502    0 -0.41844340361E+02  0.96805175714E+02 -0.63065712491E+01  0.10575468645E+03  0.47000000000E+01 0.  1.
         -5    1    3    3    0  502  0.90557338124E+01 -0.32980926409E+02  0.17785622147E+02  0.38835115254E+02  0.47000000000E+01 0.  1.
        -11    1    1    2    0    0  0.58460007895E+02 -0.17153744920E+02 -0.13950299850E+03  0.15222650911E+03  0.00000000000E+00 0. -1.
         11    1    1    2    0    0 -0.25671401346E+02 -0.46670504385E+02 -0.83569451149E+02  0.99101009036E+02  0.00000000000E+00 0.  1.
<mgrwt>
<rscale>  0 0.13645160E+03</rscale>
<asrwt>0</asrwt>
<pdfrwt beam="2">  1        1 0.46731595E-01 0.14413342E+03</pdfrwt>
<pdfrwt beam="1">  1       -1 0.14178763E-01 0.14413342E+03</pdfrwt>
<totfact> 0.29491197E+03</totfact>
</mgrwt>
</event>
<event>
 6    1  0.5400401E-006  0.1418236E+03  0.7546771E-02  0.1265976E+00
          2   -1    0    0  501    0  0.00000000000E+00  0.00000000000E+00  0.65049760248E+02  0.65049760248E+02  0.00000000000E+00 0. -1.
         -2   -1    0    0    0  501 -0.00000000000E+00 -0.00000000000E+00 -0.14792606404E+03  0.14792606404E+03  0.00000000000E+00 0.  1.
          5    1    1    2  502    0  0.18653310760E+02  0.56270038643E+02  0.12112141885E+02  0.60688196812E+02  0.47000000000E+01 0. -1.
         -5    1    1    2    0  502 -0.30773086369E+02 -0.18590710126E+02 -0.99490918612E+02  0.10589206880E+03  0.47000000000E+01 0.  1.
        -11    1    1    2    0    0  0.18964509760E+02 -0.25094051031E+02  0.58952015327E+01  0.32001834771E+02  0.00000000000E+00 0. -1.
         11    1    1    2    0    0 -0.68447341514E+01 -0.12585277487E+02 -0.13927285965E+01  0.14393723909E+02  0.00000000000E+00 0.  1.
<mgrwt>
<rscale>  0 0.10713141E+03</rscale>
<asrwt>0</asrwt>
<pdfrwt beam="1">  1        2 0.10007655E-01 0.14182360E+03</pdfrwt>
<pdfrwt beam="2">  1       -2 0.22757856E-01 0.14182360E+03</pdfrwt>
<totfact> 0.10117453E+04</totfact>
</mgrwt>
</event>
<event>
 7    1  0.5400401E-006  0.2027308E+03  0.7546771E-02  0.1151767E+00
          2   -1    0    0  501    0  0.00000000000E+00  0.00000000000E+00  0.47984198206E+03  0.47984198206E+03  0.00000000000E+00 0. -1.
         -2   -1    0    0    0  501 -0.00000000000E+00 -0.00000000000E+00 -0.77531662907E+02  0.77531662907E+02  0.00000000000E+00 0.  1.
         23    2    1    2    0    0 -0.14708349110E+03 -0.61990997315E+02  0.21186781541E+03  0.29323666830E+03  0.12499334113E+03 0.  0.
          5    1    3    3  502    0 -0.14930700167E+03 -0.69822976012E+02  0.12773761974E+03  0.20858288094E+03  0.47000000000E+01 0. -1.
         -5    1    3    3    0  502  0.22235105712E+01  0.78319786971E+01  0.84130195676E+02  0.84653787358E+02  0.47000000000E+01 0. -1.
        -11    1    1    2    0    0  0.12232863324E+03  0.38131829379E+02  0.86351984578E+02  0.15451535899E+03  0.00000000000E+00 0.  1.
         11    1    1    2    0    0  0.24754857856E+02  0.23859167936E+02  0.10409051917E+03  0.10962161768E+03  0.00000000000E+00 0. -1.
<mgrwt>
<rscale>  0 0.19761521E+03</rscale>
<asrwt>0</asrwt>
<pdfrwt beam="1">  1        2 0.73821842E-01 0.20273079E+03</pdfrwt>
<pdfrwt beam="2">  1       -2 0.11927948E-01 0.20273079E+03</pdfrwt>
<totfact> 0.32131554E+03</totfact>
</mgrwt>
</event>
<event>
 7    1  0.5400401E-006  0.1513373E+03  0.7546771E-02  0.1207271E+00
         -2   -1    0    0    0  501 -0.00000000000E+00  0.00000000000E+00  0.43557196702E+03  0.43557196702E+03  0.00000000000E+00 0.  1.
          2   -1    0    0  501    0  0.00000000000E+00 -0.00000000000E+00 -0.44243335461E+02  0.44243335461E+02  0.00000000000E+00 0. -1.
         23    2    1    2    0    0 -0.76765942411E+02 -0.37213263970E+02  0.22185280108E+03  0.26855475166E+03  0.12500060945E+03 0.  0.
          5    1    3    3  502    0 -0.62620819583E+02 -0.80814177927E+02  0.12702799822E+03  0.16312725318E+03  0.47000000000E+01 0. -1.
         -5    1    3    3    0  502 -0.14145122828E+02  0.43600913957E+02  0.94824802865E+02  0.10542749848E+03  0.47000000000E+01 0. -1.
        -11    1    1    2    0    0  0.23057619597E+02  0.61811535430E+02  0.10313917100E+03  0.12243368951E+03  0.00000000000E+00 0.  1.
         11    1    1    2    0    0  0.53708322815E+02 -0.24598271460E+02  0.66336659475E+02  0.88826861302E+02  0.00000000000E+00 0. -1.
<mgrwt>
<rscale>  0 0.14459884E+03</rscale>
<asrwt>0</asrwt>
<pdfrwt beam="2">  1        2 0.68066673E-02 0.15133734E+03</pdfrwt>
<pdfrwt beam="1">  1       -2 0.67011069E-01 0.15133734E+03</pdfrwt>
<totfact> 0.21252199E+03</totfact>
</mgrwt>
</event>
<event>
 7    1  0.5400401E-006  0.1272584E+03  0.7546771E-02  0.1244946E+00
         -2   -1    0    0    0  501 -0.00000000000E+00  0.00000000000E+00  0.62310044429E+02  0.62310044429E+02  0.00000000000E+00 0.  1.
          2   -1    0    0  501    0  0.00000000000E+00 -0.00000000000E+00 -0.20259190353E+03  0.20259190353E+03  0.00000000000E+00 0. -1.
         23    2    1    2    0    0 -0.35745073639E+01  0.23542590100E+02 -0.88499441356E+02  0.15500600256E+03  0.12501071577E+03 0.  0.
          5    1    3    3  502    0  0.42092658540E+02 -0.16437567193E+02 -0.82049972229E+02  0.93788450573E+02  0.47000000000E+01 0.  1.
         -5    1    3    3    0  502 -0.45667165904E+02  0.39980157292E+02 -0.64494691276E+01  0.61217551984E+02  0.47000000000E+01 0.  1.
        -11    1    1    2    0    0  0.29749856975E+02 -0.14132797958E+02  0.16008435954E+02  0.36620485931E+02  0.00000000000E+00 0.  1.
         11    1    1    2    0    0 -0.26175349611E+02 -0.94097921417E+01 -0.67790853701E+02  0.73275459472E+02  0.00000000000E+00 0. -1.
<mgrwt>
<rscale>  0 0.11888610E+03</rscale>
<asrwt>0</asrwt>
<pdfrwt beam="2">  1        2 0.31167986E-01 0.12725844E+03</pdfrwt>
<pdfrwt beam="1">  1       -2 0.95861606E-02 0.12725844E+03</pdfrwt>
<totfact> 0.11171600E+04</totfact>
</mgrwt>
</event>
<event>
 7    1  0.5400401E-006  0.2742816E+03  0.7546771E-02  0.1100900E+00
          2   -1    0    0  501    0  0.00000000000E+00  0.00000000000E+00  0.77560705735E+03  0.77560705735E+03  0.00000000000E+00 0. -1.
         -2   -1    0    0    0  501 -0.00000000000E+00 -0.00000000000E+00 -0.93189987151E+02  0.93189987151E+02  0.00000000000E+00 0.  1.
         23    2    1    2    0    0 -0.24272965702E+03 -0.26227063829E+02  0.30198448412E+03  0.40795224781E+03  0.12499945029E+03 0.  0.
          5    1    3    3  502    0 -0.14525100853E+02 -0.61257204247E+00  0.10280013823E+03  0.10392936168E+03  0.47000000000E+01 0.  1.
         -5    1    3    3    0  502 -0.22820455617E+03 -0.25614491786E+02  0.19918434589E+03  0.30402288613E+03  0.47000000000E+01 0.  1.
        -11    1    1    2    0    0  0.15774967062E+03 -0.26143238975E+02  0.24607512375E+03  0.29346446812E+03  0.00000000000E+00 0.  1.
         11    1    1    2    0    0  0.84979986405E+02  0.52370302803E+02  0.13435746234E+03  0.16738032857E+03  0.00000000000E+00 0. -1.
<mgrwt>
<rscale>  0 0.27066381E+03</rscale>
<asrwt>0</asrwt>
<pdfrwt beam="1">  1        2 0.11932416E+00 0.27428162E+03</pdfrwt>
<pdfrwt beam="2">  1       -2 0.14336922E-01 0.27428162E+03</pdfrwt>
<totfact> 0.13627483E+03</totfact>
</mgrwt>
</event>
<event>
 7    1  0.5400401E-006  0.1299393E+03  0.7546771E-02  0.1253118E+00
         -1   -1    0    0    0  501 -0.00000000000E+00  0.00000000000E+00  0.67219254074E+02  0.67219254074E+02  0.00000000000E+00 0.  1.
          1   -1    0    0  501    0  0.00000000000E+00 -0.00000000000E+00 -0.19924903697E+03  0.19924903697E+03  0.00000000000E+00 0. -1.
         23    2    1    2    0    0  0.24134016245E+01  0.35409611228E+02 -0.21693048583E+02  0.13173768107E+03  0.12499825271E+03 0.  0.
          5    1    3    3  502    0  0.79539796387E+01  0.82112377862E+02 -0.15452484700E+02  0.84062938764E+02  0.47000000000E+01 0. -1.
         -5    1    3    3    0  502 -0.55405780142E+01 -0.46702766633E+02 -0.62405638830E+01  0.47674742301E+02  0.47000000000E+01 0. -1.
        -11    1    1    2    0    0  0.20791330948E+02 -0.40118308198E+02 -0.98258368554E+02  0.10815019688E+03  0.00000000000E+00 0.  1.
         11    1    1    2    0    0 -0.23204732573E+02  0.47086969693E+01 -0.12078365763E+02  0.26580413097E+02  0.00000000000E+00 0. -1.
<mgrwt>
<rscale>  0 0.11412380E+03</rscale>
<asrwt>0</asrwt>
<pdfrwt beam="2">  1        1 0.30653697E-01 0.12993933E+03</pdfrwt>
<pdfrwt beam="1">  1       -1 0.10341424E-01 0.12993933E+03</pdfrwt>
<totfact> 0.80447331E+03</totfact>
</mgrwt>
</event>
<event>
 7    1  0.5400401E-006  0.1292663E+03  0.7546771E-02  0.1240977E+00
          1   -1    0    0  501    0  0.00000000000E+00  0.00000000000E+00  0.13760827048E+03  0.13760827048E+03  0.00000000000E+00 0. -1.
         -1   -1    0    0    0  501 -0.00000000000E+00 -0.00000000000E+00 -0.96320745323E+02  0.96320745323E+02  0.00000000000E+00 0.  1.
         23    2    1    2    0    0 -0.32420138002E+02 -0.59485878980E+01  0.13682981456E+02  0.12998843691E+03  0.12499327463E+03 0.  0.
          5    1    3    3  502    0 -0.13423888585E+02  0.57571727805E+02  0.21465667187E+02  0.63067975193E+02  0.47000000000E+01 0.  1.
         -5    1    3    3    0  502 -0.18996249417E+02 -0.63520315703E+02 -0.77826857313E+01  0.66920461715E+02  0.47000000000E+01 0.  1.
        -11    1    1    2    0    0  0.63763659448E+02 -0.10192206625E+02  0.22145915570E+02  0.68265122270E+02  0.00000000000E+00 0. -1.
         11    1    1    2    0    0 -0.31343521446E+02  0.16140794523E+02  0.54586281327E+01  0.35675456627E+02  0.00000000000E+00 0.  1.
<mgrwt>
<rscale>  0 0.12129404E+03</rscale>
<asrwt>0</asrwt>
<pdfrwt beam="1">  1        1 0.21170503E-01 0.12926627E+03</pdfrwt>
<pdfrwt beam="2">  1       -1 0.14818576E-01 0.12926627E+03</pdfrwt>
<totfact> 0.73340584E+03</totfact>
</mgrwt>
</event>
<event>
 7    1  0.5400401E-006  0.1447032E+03  0.7546771E-02  0.1217496E+00
          2   -1    0    0  501    0  0.00000000000E+00  0.00000000000E+00  0.32733585941E+03  0.32733585941E+03  0.00000000000E+00 0. -1.
         -2   -1    0    0    0  501 -0.00000000000E+00 -0.00000000000E+00 -0.51947805868E+02  0.51947805868E+02  0.00000000000E+00 0.  1.
         23    2    1    2    0    0 -0.72114422665E+02 -0.10652098447E+02  0.15448395858E+03  0.21167031855E+03  0.12500029255E+03 0.  0.
          5    1    3    3  502    0 -0.65614188343E+02 -0.12921755379E+02  0.10989816136E+02  0.67934229463E+02  0.47000000000E+01 0. -1.
         -5    1    3    3    0  502 -0.65002343219E+01  0.22696569322E+01  0.14349414245E+03  0.14373608908E+03  0.47000000000E+01 0. -1.
        -11    1    1    2    0    0  0.14985572980E+02 -0.37946885050E+02  0.48297754104E+02  0.63223465059E+02  0.00000000000E+00 0. -1.
         11    1    1    2    0    0  0.57128849685E+02  0.48598983497E+02  0.72606340856E+02  0.10438988167E+03  0.00000000000E+00 0.  1.
<mgrwt>
<rscale>  0 0.13694797E+03</rscale>
<asrwt>0</asrwt>
<pdfrwt beam="1">  1        2 0.50359362E-01 0.14470325E+03</pdfrwt>
<pdfrwt beam="2">  1       -2 0.79919704E-02 0.14470325E+03</pdfrwt>
<totfact> 0.89758266E+03</totfact>
</mgrwt>
</event>
<event>
 7    1  0.5400401E-006  0.1470707E+03  0.7546771E-02  0.1213708E+00
         -2   -1    0    0    0  501 -0.00000000000E+00  0.00000000000E+00  0.10253823276E+02  0.10253823276E+02  0.00000000000E+00 0.  1.
          2   -1    0    0  501    0  0.00000000000E+00 -0.00000000000E+00 -0.17812126089E+04  0.17812126089E+04  0.00000000000E+00 0. -1.
         23    2    1    2    0    0 -0.29532744191E+02  0.71637360518E+02 -0.11151010959E+04  0.11247578583E+04  0.12500276517E+03 0.  0.
          5    1    3    3  502    0 -0.71136464420E+02  0.10219883507E+02 -0.60438918373E+03  0.60866511154E+03  0.47000000000E+01 0. -1.
         -5    1    3    3    0  502  0.41603720228E+02  0.61417477011E+02 -0.51071191220E+03  0.51609274678E+03  0.47000000000E+01 0. -1.
        -11    1    1    2    0    0 -0.31510132007E+02 -0.38337946677E+02 -0.23990437069E+03  0.24498325178E+03  0.00000000000E+00 0.  1.
         11    1    1    2    0    0  0.61042876198E+02 -0.33299413841E+02 -0.41595331905E+03  0.42172532213E+03  0.00000000000E+00 0. -1.
<mgrwt>
<rscale>  0 0.13971882E+03</rscale>
<asrwt>0</asrwt>
<pdfrwt beam="2">  1        2 0.27403250E+00 0.14707068E+03</pdfrwt>
<pdfrwt beam="1">  1       -2 0.15775125E-02 0.14707068E+03</pdfrwt>
<totfact> 0.10416517E+04</totfact>
</mgrwt>
</event>
<event>
 7    1  0.5400401E-006  0.1986046E+03  0.7546771E-02  0.1155430E+00
          2   -1    0    0  501    0  0.00000000000E+00  0.00000000000E+00  0.42950629870E+02  0.42950629870E+02  0.00000000000E+00 0. -1.
         -2   -1    0    0    0  501 -0.00000000000E+00 -0.00000000000E+00 -0.91794997886E+03  0.91794997886E+03  0.00000000000E+00 0.  1.
         23    2    1    2    0    0 -0.88419810666E+02 -0.12648200867E+03 -0.60853810965E+03  0.64012687710E+03  0.12501210520E+03 0.  0.
          5    1    3    3  502    0 -0.15405996223E+02 -0.67439543618E+02 -0.45379775598E+03  0.45906418951E+03  0.47000000000E+01 0.  1.
         -5    1    3    3    0  502 -0.73013814443E+02 -0.59042465056E+02 -0.15474035367E+03  0.18106268758E+03  0.47000000000E+01 0.  1.
        -11    1    1    2    0    0  0.89899872649E+00  0.70271884319E+02 -0.14300019003E+03  0.15933612356E+03  0.00000000000E+00 0.  1.
         11    1    1    2    0    0  0.87520811940E+02  0.56210124355E+02 -0.12346104931E+03  0.16143760807E+03  0.00000000000E+00 0. -1.
<mgrwt>
<rscale>  0 0.19339976E+03</rscale>
<asrwt>0</asrwt>
<pdfrwt beam="1">  1        2 0.66077895E-02 0.19860460E+03</pdfrwt>
<pdfrwt beam="2">  1       -2 0.14122307E+00 0.19860460E+03</pdfrwt>
<totfact> 0.40074444E+02</totfact>
</mgrwt>
</event>
<event>
 7    1  0.5400401E-006  0.1386089E+03  0.7546771E-02  0.1226463E+00
         -2   -1    0    0    0  501 -0.00000000000E+00  0.00000000000E+00  0.23985999079E+02  0.23985999079E+02  0.00000000000E+00 0.  1.
          2   -1    0    0  501    0  0.00000000000E+00 -0.00000000000E+00 -0.66571358894E+03  0.66571358894E+03  0.00000000000E+00 0. -1.
         23    2    1    2    0    0 -0.21078632626E+00  0.59885920771E+02 -0.29186313975E+03  0.32310450353E+03  0.12500423961E+03 0.  0.
          5    1    3    3  502    0 -0.18959686491E+02  0.95565705094E+02 -0.19334103439E+03  0.21655280945E+03  0.47000000000E+01 0. -1.
         -5    1    3    3    0  502  0.18748900165E+02 -0.35679784323E+02 -0.98522105359E+02  0.10655169408E+03  0.47000000000E+01 0. -1.
        -11    1    1    2    0    0  0.39222430015E+02 -0.13352420312E+02 -0.21107683483E+03  0.21510489615E+03  0.00000000000E+00 0. -1.
         11    1    1    2    0    0 -0.39011643689E+02 -0.46533500459E+02 -0.13878761528E+03  0.15149018834E+03  0.00000000000E+00 0.  1.
<mgrwt>
<rscale>  0 0.13067164E+03</rscale>
<asrwt>0</asrwt>
<pdfrwt beam="2">  1        2 0.10241747E+00 0.13860890E+03</pdfrwt>
<pdfrwt beam="1">  1       -2 0.36901537E-02 0.13860890E+03</pdfrwt>
<totfact> 0.13197036E+04</totfact>
</mgrwt>
</event>
<event>
 7    1  0.5400401E-006  0.1858769E+03  0.7546771E-02  0.1170435E+00
         -3   -1    0    0    0  501 -0.00000000000E+00  0.00000000000E+00  0.61371977291E+02  0.61371977291E+02  0.00000000000E+00 0.  1.
          3   -1    0    0  501    0  0.00000000000E+00 -0.00000000000E+00 -0.48169495604E+03  0.48169495604E+03  0.00000000000E+00 0. -1.
         23    2    1    2    0    0  0.65174546036E+02  0.12114579342E+03 -0.18783778612E+03  0.26425983634E+03  0.12500480987E+03 0.  0.
          5    1    3    3  502    0 -0.97660409842E+01  0.66163227360E+01  0.14915417048E+02  0.19588541262E+02  0.47000000000E+01 0. -1.
         -5    1    3    3    0  502  0.74940587020E+02  0.11452947068E+03 -0.20275320317E+03  0.24467129507E+03  0.47000000000E+01 0. -1.
        -11    1    1    2    0    0 -0.23291683172E+02 -0.10577028179E+02 -0.11220855736E+02  0.27933557481E+02  0.00000000000E+00 0.  1.
         11    1    1    2    0    0 -0.41882862864E+02 -0.11056876524E+03 -0.22126433689E+03  0.25087353951E+03  0.00000000000E+00 0. -1.
<mgrwt>
<rscale>  0 0.17730707E+03</rscale>
<asrwt>0</asrwt>
<pdfrwt beam="2">  1        3 0.74106914E-01 0.18587691E+03</pdfrwt>
<pdfrwt beam="1">  1       -3 0.94418430E-02 0.18587691E+03</pdfrwt>
<totfact> 0.34645678E+02</totfact>
</mgrwt>
</event>
<event>
 7    1  0.6956756E-006  0.2071510E+03  0.7546771E-02  0.1147809E+00
         -1   -1    0    0    0  501 -0.00000000000E+00  0.00000000000E+00  0.55076215453E+02  0.55076215453E+02  0.00000000000E+00 0.  1.
          1   -1    0    0  501    0  0.00000000000E+00 -0.00000000000E+00 -0.94841114872E+03  0.94841114872E+03  0.00000000000E+00 0. -1.
         23    2    1    2    0    0 -0.15698596425E+03  0.51401655381E+02 -0.21131375725E+03  0.29591390160E+03  0.12499924004E+03 0.  0.
          5    1    3    3  502    0 -0.17824744947E+03  0.41211857240E+02 -0.18375329813E+03  0.25934134841E+03  0.47000000000E+01 0.  1.
         -5    1    3    3    0  502  0.21261485225E+02  0.10189798141E+02 -0.27560459121E+02  0.36572553194E+02  0.47000000000E+01 0.  1.
        -11    1    1    2    0    0  0.70241684157E+02 -0.63050011678E+02 -0.44522055981E+03  0.45511596879E+03  0.00000000000E+00 0.  1.
         11    1    1    2    0    0  0.86744280089E+02  0.11648356297E+02 -0.23680061621E+03  0.25245749379E+03  0.00000000000E+00 0. -1.
<mgrwt>
<rscale>  0 0.20230425E+03</rscale>
<asrwt>0</asrwt>
<pdfrwt beam="2">  1        1 0.14590940E+00 0.20715099E+03</pdfrwt>
<pdfrwt beam="1">  1       -1 0.84732646E-02 0.20715099E+03</pdfrwt>
<totfact> 0.13798923E+03</totfact>
</mgrwt>
</event>
<event>
 7    1  0.5400401E-006  0.1539523E+03  0.7546771E-02  0.1204373E+00
         -1   -1    0    0    0  501 -0.00000000000E+00  0.00000000000E+00  0.10025035424E+03  0.10025035424E+03  0.00000000000E+00 0.  1.
          1   -1    0    0  501    0  0.00000000000E+00 -0.00000000000E+00 -0.21786905468E+03  0.21786905468E+03  0.00000000000E+00 0. -1.
         23    2    1    2    0    0  0.79305032746E+02 -0.42271754954E+02 -0.15460499242E+02  0.15472665737E+03  0.12500048791E+03 0.  0.
          5    1    3    3  502    0  0.98620252672E+02 -0.58588239095E+02  0.13957455886E+02  0.11565222251E+03  0.47000000000E+01 0. -1.
         -5    1    3    3    0  502 -0.19315219926E+02  0.16316484141E+02 -0.29417955128E+02  0.39074434857E+02  0.47000000000E+01 0. -1.
        -11    1    1    2    0    0 -0.19517862026E+01  0.16473415157E+02  0.13838590088E+02  0.21602996365E+02  0.00000000000E+00 0.  1.
         11    1    1    2    0    0 -0.77353246543E+02  0.25798339797E+02 -0.11599679128E+03  0.14178975518E+03  0.00000000000E+00 0. -1.
<mgrwt>
<rscale>  0 0.14686986E+03</rscale>
<asrwt>0</asrwt>
<pdfrwt beam="2">  1        1 0.33518316E-01 0.15395230E+03</pdfrwt>
<pdfrwt beam="1">  1       -1 0.15423131E-01 0.15395230E+03</pdfrwt>
<totfact> 0.39151734E+03</totfact>
</mgrwt>
</event>
<event>
 7    1  0.5400401E-006  0.1809243E+03  0.7546771E-02  0.1171828E+00
         -1   -1    0    0    0  501 -0.00000000000E+00  0.00000000000E+00  0.53159246061E+02  0.53159246061E+02  0.00000000000E+00 0.  1.
          1   -1    0    0  501    0  0.00000000000E+00 -0.00000000000E+00 -0.76367547927E+03  0.76367547927E+03  0.00000000000E+00 0. -1.
         23    2    1    2    0    0  0.94773014773E+02 -0.90157967858E+02 -0.15489173564E+03  0.23817022673E+03  0.12499289433E+03 0.  0.
          5    1    3    3  502    0  0.95124599141E+02 -0.76061182466E+02 -0.17493952890E+03  0.21321332418E+03  0.47000000000E+01 0. -1.
         -5    1    3    3    0  502 -0.35158436753E+00 -0.14096785392E+02  0.20047793258E+02  0.24956902541E+02  0.47000000000E+01 0. -1.
        -11    1    1    2    0    0 -0.74387576085E+02  0.11537534667E+02 -0.34041314100E+03  0.34863696412E+03  0.00000000000E+00 0. -1.
         11    1    1    2    0    0 -0.20385438688E+02  0.78620433191E+02 -0.21521135657E+03  0.23002753449E+03  0.00000000000E+00 0.  1.
<mgrwt>
<rscale>  0 0.17590309E+03</rscale>
<asrwt>0</asrwt>
<pdfrwt beam="2">  1        1 0.11748852E+00 0.18092431E+03</pdfrwt>
<pdfrwt beam="1">  1       -1 0.81783464E-02 0.18092431E+03</pdfrwt>
<totfact> 0.20451195E+03</totfact>
</mgrwt>
</event>
<event>
 7    1  0.5400401E-006  0.1304939E+03  0.7546771E-02  0.1239627E+00
          3   -1    0    0  501    0  0.00000000000E+00  0.00000000000E+00  0.48929133670E+02  0.48929133670E+02  0.00000000000E+00 0. -1.
         -3   -1    0    0    0  501 -0.00000000000E+00 -0.00000000000E+00 -0.28189317251E+03  0.28189317251E+03  0.00000000000E+00 0.  1.
         23    2    1    2    0    0 -0.11472605127E+02  0.35681276108E+02 -0.16243737641E+03  0.20836160052E+03  0.12499552465E+03 0.  0.
          5    1    3    3  502    0  0.10888613973E+02  0.54283515020E+02 -0.14371378067E+02  0.57392407379E+02  0.47000000000E+01 0. -1.
         -5    1    3    3    0  502 -0.22361219100E+02 -0.18602238912E+02 -0.14806599835E+03  0.15096919314E+03  0.47000000000E+01 0. -1.
        -11    1    1    2    0    0 -0.30999011887E+02 -0.45714122481E+02 -0.29756813765E+02  0.62739044443E+02  0.00000000000E+00 0. -1.
         11    1    1    2    0    0  0.42471617014E+02  0.10032846373E+02 -0.40769848656E+02  0.59721661209E+02  0.00000000000E+00 0.  1.
<mgrwt>
<rscale>  0 0.12212800E+03</rscale>
<asrwt>0</asrwt>
<pdfrwt beam="1">  1        3 0.75275589E-02 0.13049389E+03</pdfrwt>
<pdfrwt beam="2">  1       -3 0.43368181E-01 0.13049389E+03</pdfrwt>
<totfact> 0.14275291E+03</totfact>
</mgrwt>
</event>
<event>
 6    1  0.5400401E-006  0.2210569E+03  0.7546771E-02  0.1144064E+00
         -2   -1    0    0    0  501 -0.00000000000E+00  0.00000000000E+00  0.94714920024E+02  0.94714920024E+02  0.00000000000E+00 0.  1.
          2   -1    0    0  501    0  0.00000000000E+00 -0.00000000000E+00 -0.46237371458E+03  0.46237371458E+03  0.00000000000E+00 0. -1.
          5    1    1    2  502    0 -0.47623399262E+02  0.55277387764E+02 -0.90709304215E+01  0.73674619334E+02  0.47000000000E+01 0. -1.
         -5    1    1    2    0  502  0.12629959702E+03  0.63658957673E+02 -0.96598427988E+02  0.17134000522E+03  0.47000000000E+01 0.  1.
        -11    1    1    2    0    0 -0.16256322392E+02 -0.21422876392E+02 -0.14086666649E+01  0.26929389009E+02  0.00000000000E+00 0.  1.
         11    1    1    2    0    0 -0.62419875363E+02 -0.97513469045E+02 -0.26058076948E+03  0.28514462104E+03  0.00000000000E+00 0. -1.
<mgrwt>
<rscale>  0 0.20687644E+03</rscale>
<asrwt>0</asrwt>
<pdfrwt beam="2">  1        2 0.71134418E-01 0.22105690E+03</pdfrwt>
<pdfrwt beam="1">  1       -2 0.14571526E-01 0.22105690E+03</pdfrwt>
<totfact> 0.24227228E+03</totfact>
</mgrwt>
</event>
<event>
 7    1  0.5400401E-006  0.1459860E+03  0.7546771E-02  0.1215179E+00
          1   -1    0    0  501    0  0.00000000000E+00  0.00000000000E+00  0.17053930976E+03  0.17053930976E+03  0.00000000000E+00 0. -1.
         -1   -1    0    0    0  501 -0.00000000000E+00 -0.00000000000E+00 -0.13413369059E+03  0.13413369059E+03  0.00000000000E+00 0.  1.
         23    2    1    2    0    0 -0.52311283072E+02 -0.54286710123E+02 -0.53780990764E+02  0.15557735075E+03  0.12501359873E+03 0.  0.
          5    1    3    3  502    0 -0.26588324661E+02  0.83292955057E+01  0.34267695784E+02  0.44414875281E+02  0.47000000000E+01 0. -1.
         -5    1    3    3    0  502 -0.25722958410E+02 -0.62616005629E+02 -0.88048686548E+02  0.11116247547E+03  0.47000000000E+01 0. -1.
        -11    1    1    2    0    0  0.26254341951E+02  0.36651124795E+01  0.88231590749E+02  0.92127830361E+02  0.00000000000E+00 0. -1.
         11    1    1    2    0    0  0.26056941120E+02  0.50621597644E+02  0.19550191822E+01  0.56967819236E+02  0.00000000000E+00 0.  1.
<mgrwt>
<rscale>  0 0.13863408E+03</rscale>
<asrwt>0</asrwt>
<pdfrwt beam="1">  1        1 0.26236817E-01 0.14598602E+03</pdfrwt>
<pdfrwt beam="2">  1       -1 0.20635952E-01 0.14598602E+03</pdfrwt>
<totfact> 0.33334716E+03</totfact>
</mgrwt>
</event>
<event>
 7    1  0.5400401E-006  0.1613863E+03  0.7546771E-02  0.1194796E+00
         -2   -1    0    0    0  501 -0.00000000000E+00  0.00000000000E+00  0.36542878483E+02  0.36542878483E+02  0.00000000000E+00 0.  1.
          2   -1    0    0  501    0  0.00000000000E+00 -0.00000000000E+00 -0.62616840210E+03  0.62616840210E+03  0.00000000000E+00 0. -1.
         23    2    1    2    0    0  0.72260617521E+02 -0.72101608504E+02 -0.26003170908E+03  0.30604254489E+03  0.12500124305E+03 0.  0.
          5    1    3    3  502    0 -0.12059474717E+02  0.27032654718E+02 -0.64350864018E+02  0.70988161347E+02  0.47000000000E+01 0. -1.
         -5    1    3    3    0  502  0.84320092238E+02 -0.99134263222E+02 -0.19568084506E+03  0.23505438355E+03  0.47000000000E+01 0. -1.
        -11    1    1    2    0    0 -0.81484818243E+02  0.29792145634E+02 -0.26551087326E+03  0.27932663920E+03  0.00000000000E+00 0. -1.
         11    1    1    2    0    0  0.92242007217E+01  0.42309462870E+02 -0.64082941269E+02  0.77342096487E+02  0.00000000000E+00 0.  1.
<mgrwt>
<rscale>  0 0.15471494E+03</rscale>
<asrwt>0</asrwt>
<pdfrwt beam="2">  1        2 0.96333591E-01 0.16138634E+03</pdfrwt>
<pdfrwt beam="1">  1       -2 0.56219818E-02 0.16138634E+03</pdfrwt>
<totfact> 0.76128289E+03</totfact>
</mgrwt>
</event>
<event>
 6    1  0.5400401E-006  0.3392420E+03  0.7546771E-02  0.1105550E+00
          2   -1    0    0  501    0  0.00000000000E+00  0.00000000000E+00  0.13985904149E+03  0.13985904149E+03  0.00000000000E+00 0. -1.
         -2   -1    0    0    0  501 -0.00000000000E+00 -0.00000000000E+00 -0.22707976319E+04  0.22707976319E+04  0.00000000000E+00 0.  1.
          5    1    1    2  502    0 -0.35621208783E+02 -0.22044648185E+02 -0.24434118182E+02  0.48723230189E+02  0.47000000000E+01 0. -1.
         -5    1    1    2    0  502 -0.26258557955E+02  0.73365583315E+02 -0.22042683186E+04  0.22056502286E+04  0.47000000000E+01 0.  1.
        -11    1    1    2    0    0 -0.81777439640E+00 -0.35021445251E+02  0.82642034725E+02  0.89760104088E+02  0.00000000000E+00 0.  1.
         11    1    1    2    0    0  0.62697541135E+02 -0.16299489879E+02  0.15121811687E+02  0.66523110446E+02  0.00000000000E+00 0. -1.
<mgrwt>
<rscale>  0 0.26266907E+03</rscale>
<asrwt>0</asrwt>
<pdfrwt beam="1">  1        2 0.21516776E-01 0.33924201E+03</pdfrwt>
<pdfrwt beam="2">  1       -2 0.34935347E+00 0.33924201E+03</pdfrwt>
<totfact> 0.46603150E+00</totfact>
</mgrwt>
</event>
<event>
 7    1  0.5400401E-006  0.1303079E+03  0.7546771E-02  0.1236667E+00
          1   -1    0    0  501    0  0.00000000000E+00  0.00000000000E+00  0.46472381944E+02  0.46472381944E+02  0.00000000000E+00 0. -1.
         -1   -1    0    0    0  501 -0.00000000000E+00 -0.00000000000E+00 -0.35670741600E+03  0.35670741600E+03  0.00000000000E+00 0.  1.
         23    2    1    2    0    0  0.38225931426E+00 -0.36809609605E+02 -0.24647415515E+03  0.27880037246E+03  0.12500018016E+03 0.  0.
          5    1    3    3  502    0 -0.49070595111E+02 -0.43266196448E+02 -0.19995706009E+03  0.21043954699E+03  0.47000000000E+01 0.  1.
         -5    1    3    3    0  502  0.49452854426E+02  0.64565868427E+01 -0.46517095064E+02  0.68360825461E+02  0.47000000000E+01 0.  1.
        -11    1    1    2    0    0  0.18870781873E+02  0.56315136023E+02 -0.74207722357E+02  0.95048866438E+02  0.00000000000E+00 0.  1.
         11    1    1    2    0    0 -0.19253041187E+02 -0.19505526418E+02  0.10446843457E+02  0.29330559047E+02  0.00000000000E+00 0. -1.
<mgrwt>
<rscale>  0 0.12398350E+03</rscale>
<asrwt>0</asrwt>
<pdfrwt beam="1">  1        1 0.71495970E-02 0.13030786E+03</pdfrwt>
<pdfrwt beam="2">  1       -1 0.54878066E-01 0.13030786E+03</pdfrwt>
<totfact> 0.33568564E+03</totfact>
</mgrwt>
</event>
<event>
 7    1  0.5400401E-006  0.1318197E+03  0.7546771E-02  0.1236851E+00
         -3   -1    0    0    0  501 -0.00000000000E+00  0.00000000000E+00  0.62006283772E+03  0.62006283772E+03  0.00000000000E+00 0.  1.
          3   -1    0    0  501    0  0.00000000000E+00 -0.00000000000E+00 -0.31965532056E+02  0.31965532056E+02  0.00000000000E+00 0. -1.
         23    2    1    2    0    0  0.40609803679E+02  0.99875140974E+01  0.49866019702E+03  0.51578913879E+03  0.12501014765E+03 0.  0.
          5    1    3    3  502    0  0.43225643267E+02  0.32914511967E+02  0.82084586292E+02  0.98548417748E+02  0.47000000000E+01 0. -1.
         -5    1    3    3    0  502 -0.26158395885E+01 -0.22926997870E+02  0.41657561072E+03  0.41724072105E+03  0.47000000000E+01 0. -1.
        -11    1    1    2    0    0  0.23434046815E+02 -0.95411808471E+01  0.61240758935E+02  0.66261747917E+02  0.00000000000E+00 0.  1.
         11    1    1    2    0    0 -0.64043850494E+02 -0.44633325036E+00  0.28196349715E+02  0.69977483069E+02  0.00000000000E+00 0. -1.
<mgrwt>
<rscale>  0 0.12386662E+03</rscale>
<asrwt>0</asrwt>
<pdfrwt beam="2">  1        3 0.49177746E-02 0.13181974E+03</pdfrwt>
<pdfrwt beam="1">  1       -3 0.95394274E-01 0.13181974E+03</pdfrwt>
<totfact> 0.54461239E+02</totfact>
</mgrwt>
</event>
<event>
 7    1  0.5400401E-006  0.2047631E+03  0.7546771E-02  0.1149625E+00
          2   -1    0    0  501    0  0.00000000000E+00  0.00000000000E+00  0.28172360396E+03  0.28172360396E+03  0.00000000000E+00 0. -1.
         -2   -1    0    0    0  501 -0.00000000000E+00 -0.00000000000E+00 -0.16956964263E+03  0.16956964263E+03  0.00000000000E+00 0.  1.
         23    2    1    2    0    0  0.11843056249E+03  0.11080916846E+03 -0.42024677969E+02  0.20903109970E+03  0.12499382841E+03 0.  0.
          5    1    3    3  502    0  0.45213929427E+02 -0.21877270694E+02  0.39286686106E+01  0.50600778890E+02  0.47000000000E+01 0. -1.
         -5    1    3    3    0  502  0.73216633059E+02  0.13268643915E+03 -0.45953346580E+02  0.15843032081E+03  0.47000000000E+01 0. -1.
        -11    1    1    2    0    0  0.14982558766E+02 -0.19519858495E+02  0.14112826677E+02  0.28366773163E+02  0.00000000000E+00 0.  1.
         11    1    1    2    0    0 -0.13341312125E+03 -0.91289309963E+02  0.14006581262E+03  0.21389537373E+03  0.00000000000E+00 0. -1.
<mgrwt>
<rscale>  0 0.20013493E+03</rscale>
<asrwt>0</asrwt>
<pdfrwt beam="1">  1        2 0.43342093E-01 0.20476310E+03</pdfrwt>
<pdfrwt beam="2">  1       -2 0.26087637E-01 0.20476310E+03</pdfrwt>
<totfact> 0.15311258E+03</totfact>
</mgrwt>
</event>
<event>
 7    1  0.5400401E-006  0.2232051E+03  0.7546771E-02  0.1134889E+00
         -3   -1    0    0    0  501 -0.00000000000E+00  0.00000000000E+00  0.56449040048E+03  0.56449040048E+03  0.00000000000E+00 0.  1.
          3   -1    0    0  501    0  0.00000000000E+00 -0.00000000000E+00 -0.81418774170E+02  0.81418774170E+02  0.00000000000E+00 0. -1.
         23    2    1    2    0    0 -0.11706054941E+03  0.14314982687E+03  0.25234169368E+03  0.33689295503E+03  0.12500195048E+03 0.  0.
          5    1    3    3  502    0 -0.38257084647E+02  0.13849751526E+03  0.17187118345E+03  0.22406909640E+03  0.47000000000E+01 0. -1.
         -5    1    3    3    0  502 -0.78803464760E+02  0.46523116095E+01  0.80470510228E+02  0.11282385864E+03  0.47000000000E+01 0. -1.
        -11    1    1    2    0    0  0.68814329880E+02 -0.13605008775E+03  0.19957566785E+03  0.25114833380E+03  0.00000000000E+00 0.  1.
         11    1    1    2    0    0  0.48246219527E+02 -0.70997391275E+01  0.31154264778E+02  0.57867885811E+02  0.00000000000E+00 0. -1.
<mgrwt>
<rscale>  0 0.21865658E+03</rscale>
<asrwt>0</asrwt>
<pdfrwt beam="2">  1        3 0.12525966E-01 0.22320514E+03</pdfrwt>
<pdfrwt beam="1">  1       -3 0.86844674E-01 0.22320514E+03</pdfrwt>
<totfact> 0.15510251E+02</totfact>
</mgrwt>
</event>
<event>
 7    1  0.5400401E-006  0.1333427E+03  0.7546771E-02  0.1235218E+00
         -1   -1    0    0    0  501 -0.00000000000E+00  0.00000000000E+00  0.10207969879E+04  0.10207969879E+04  0.00000000000E+00 0.  1.
          1   -1    0    0  501    0  0.00000000000E+00 -0.00000000000E+00 -0.15239583658E+02  0.15239583658E+02  0.00000000000E+00 0. -1.
         23    2    1    2    0    0 -0.25136234349E+02  0.39372812150E+02  0.72778397446E+03  0.73989850310E+03  0.12489288531E+03 0.  0.
          5    1    3    3  502    0  0.32686831414E+01  0.81100716955E+02  0.39558743139E+03  0.40385581147E+03  0.47000000000E+01 0. -1.
         -5    1    3    3    0  502 -0.28404917490E+02 -0.41727904805E+02  0.33219654306E+03  0.33604269163E+03  0.47000000000E+01 0. -1.
        -11    1    1    2    0    0 -0.28136008291E+02  0.31422094898E+01  0.41549379816E+02  0.50277822209E+02  0.00000000000E+00 0.  1.
         11    1    1    2    0    0  0.53272242639E+02 -0.42515021640E+02  0.23622404999E+03  0.24586024626E+03  0.00000000000E+00 0. -1.
<mgrwt>
<rscale>  0 0.12490517E+03</rscale>
<asrwt>0</asrwt>
<pdfrwt beam="2">  1        1 0.23445521E-02 0.13334272E+03</pdfrwt>
<pdfrwt beam="1">  1       -1 0.15704564E+00 0.13334272E+03</pdfrwt>
<totfact> 0.15720736E+03</totfact>
</mgrwt>
</event>
<event>
 7    1  0.5400401E-006  0.1986700E+03  0.7546771E-02  0.1155345E+00
         -1   -1    0    0    0  501 -0.00000000000E+00  0.00000000000E+00  0.12142572751E+04  0.12142572751E+04  0.00000000000E+00 0.  1.
          1   -1    0    0  501    0  0.00000000000E+00 -0.00000000000E+00 -0.29796978221E+02  0.29796978221E+02  0.00000000000E+00 0. -1.
         23    2    1    2    0    0 -0.14703765272E+03 -0.47163484882E+02  0.70065475169E+03  0.72827664356E+03  0.12500129147E+03 0.  0.
          5    1    3    3  502    0 -0.57582923608E+02 -0.31775034314E+02  0.53736763008E+03  0.54139773343E+03  0.47000000000E+01 0.  1.
         -5    1    3    3    0  502 -0.89454729111E+02 -0.15388450567E+02  0.16328712161E+03  0.18687891014E+03  0.47000000000E+01 0.  1.
        -11    1    1    2    0    0  0.68229783631E+02  0.67151511480E+02  0.29696147957E+03  0.31201081587E+03  0.00000000000E+00 0.  1.
         11    1    1    2    0    0  0.78807869088E+02 -0.19988026598E+02  0.18684406563E+03  0.20376679391E+03  0.00000000000E+00 0. -1.
<mgrwt>
<rscale>  0 0.19349645E+03</rscale>
<asrwt>0</asrwt>
<pdfrwt beam="2">  1        1 0.45841514E-02 0.19867005E+03</pdfrwt>
<pdfrwt beam="1">  1       -1 0.18680877E+00 0.19867005E+03</pdfrwt>
<totfact> 0.38557196E+02</totfact>
</mgrwt>
</event>
<event>
 7    1  0.5400401E-006  0.1296147E+03  0.7546771E-02  0.1246312E+00
         -3   -1    0    0    0  501 -0.00000000000E+00  0.00000000000E+00  0.10511118400E+03  0.10511118400E+03  0.00000000000E+00 0.  1.
          3   -1    0    0  501    0  0.00000000000E+00 -0.00000000000E+00 -0.11811998339E+03  0.11811998339E+03  0.00000000000E+00 0. -1.
         23    2    1    2    0    0 -0.91384490663E+01  0.33037004229E+02  0.13001264904E+02  0.13026516277E+03  0.12500009937E+03 0.  0.
          5    1    3    3  502    0  0.56619560482E+02  0.18953557303E+02 -0.60885997516E+01  0.60201104729E+02  0.47000000000E+01 0.  1.
         -5    1    3    3    0  502 -0.65758009548E+02  0.14083446926E+02  0.19089864656E+02  0.70064058044E+02  0.47000000000E+01 0.  1.
        -11    1    1    2    0    0 -0.23006405114E+02 -0.26813997696E+02 -0.43343595009E+02  0.55919159302E+02  0.00000000000E+00 0. -1.
         11    1    1    2    0    0  0.32144854181E+02 -0.62230065329E+01  0.17333530714E+02  0.37046845313E+02  0.00000000000E+00 0.  1.
<mgrwt>
<rscale>  0 0.11807199E+03</rscale>
<asrwt>0</asrwt>
<pdfrwt beam="2">  1        3 0.18172305E-01 0.12961474E+03</pdfrwt>
<pdfrwt beam="1">  1       -3 0.16170951E-01 0.12961474E+03</pdfrwt>
<totfact> 0.19701919E+03</totfact>
</mgrwt>
</event>
<event>
 7    1  0.5400401E-006  0.1657366E+03  0.7546771E-02  0.1188687E+00
          2   -1    0    0  501    0  0.00000000000E+00  0.00000000000E+00  0.20184976059E+03  0.20184976059E+03  0.00000000000E+00 0. -1.
         -2   -1    0    0    0  501 -0.00000000000E+00 -0.00000000000E+00 -0.41530305279E+03  0.41530305279E+03  0.00000000000E+00 0.  1.
         23    2    1    2    0    0  0.90227817063E+02 -0.66414027418E+02 -0.36941479247E+03  0.40488997667E+03  0.12213403418E+03 0.  0.
          5    1    3    3  502    0  0.13792438751E+02 -0.20820419848E+01  0.63588766974E+01  0.16034075538E+02  0.47000000000E+01 0. -1.
         -5    1    3    3    0  502  0.76435378313E+02 -0.64331985433E+02 -0.37577366917E+03  0.38885590114E+03  0.47000000000E+01 0.  1.
        -11    1    1    2    0    0 -0.40578748682E+02  0.21010013775E+02  0.37546317869E+01  0.45849239724E+02  0.00000000000E+00 0.  1.
         11    1    1    2    0    0 -0.49649068382E+02  0.45404013643E+02  0.15220686849E+03  0.16641359698E+03  0.00000000000E+00 0. -1.
<mgrwt>
<rscale>  0 0.16000834E+03</rscale>
<asrwt>0</asrwt>
<pdfrwt beam="1">  1        2 0.31053810E-01 0.16573655E+03</pdfrwt>
<pdfrwt beam="2">  1       -2 0.63892777E-01 0.16573655E+03</pdfrwt>
<totfact> 0.39239896E+02</totfact>
</mgrwt>
</event>
<event>
 7    1  0.5400401E-006  0.1411794E+03  0.7546771E-02  0.1222268E+00
          1   -1    0    0  501    0  0.00000000000E+00  0.00000000000E+00  0.18268655075E+03  0.18268655075E+03  0.00000000000E+00 0. -1.
         -1   -1    0    0    0  501 -0.00000000000E+00 -0.00000000000E+00 -0.89001116077E+02  0.89001116077E+02  0.00000000000E+00 0.  1.
         23    2    1    2    0    0 -0.49850946030E+02  0.42649047197E+02  0.62442673192E+02  0.15437194374E+03  0.12501020571E+03 0.  0.
          5    1    3    3  502    0  0.11317444559E+02  0.78151400671E+01  0.80295037771E+02  0.81599902305E+02  0.47000000000E+01 0.  1.
         -5    1    3    3    0  502 -0.61168390589E+02  0.34833907130E+02 -0.17852364579E+02  0.72772041433E+02  0.47000000000E+01 0.  1.
        -11    1    1    2    0    0 -0.55971350123E+01 -0.52959853645E+02  0.87709314252E+00  0.53262025035E+02  0.00000000000E+00 0.  1.
         11    1    1    2    0    0  0.55448081043E+02  0.10310806448E+02  0.30365668339E+02  0.64053698056E+02  0.00000000000E+00 0. -1.
<mgrwt>
<rscale>  0 0.13355923E+03</rscale>
<asrwt>0</asrwt>
<pdfrwt beam="1">  1        1 0.28105623E-01 0.14117935E+03</pdfrwt>
<pdfrwt beam="2">  1       -1 0.13692479E-01 0.14117935E+03</pdfrwt>
<totfact> 0.58463063E+03</totfact>
</mgrwt>
</event>
<event>
 7    1  0.5400401E-006  0.1340789E+03  0.7546771E-02  0.1233061E+00
          3   -1    0    0  501    0  0.00000000000E+00  0.00000000000E+00  0.88494043957E+02  0.88494043957E+02  0.00000000000E+00 0. -1.
         -3   -1    0    0    0  501 -0.00000000000E+00 -0.00000000000E+00 -0.16222654938E+03  0.16222654938E+03  0.00000000000E+00 0.  1.
         23    2    1    2    0    0  0.28156260926E+02 -0.38942521716E+02 -0.42291239643E+02  0.14059056484E+03  0.12517133436E+03 0.  0.
          5    1    3    3  502    0 -0.31118104043E+02 -0.33462945817E+02 -0.62487093222E+02  0.77555347729E+02  0.47000000000E+01 0. -1.
         -5    1    3    3    0  502  0.59274364970E+02 -0.54795758989E+01  0.20195853579E+02  0.63035217112E+02  0.47000000000E+01 0. -1.
        -11    1    1    2    0    0 -0.77097377446E+01  0.58463837394E+02 -0.49154424515E+02  0.76769901578E+02  0.00000000000E+00 0.  1.
         11    1    1    2    0    0 -0.20446523182E+02 -0.19521315678E+02  0.17713158732E+02  0.33360126922E+02  0.00000000000E+00 0. -1.
<mgrwt>
<rscale>  0 0.12629361E+03</rscale>
<asrwt>0</asrwt>
<pdfrwt beam="1">  1        3 0.13614468E-01 0.13407892E+03</pdfrwt>
<pdfrwt beam="2">  1       -3 0.24957931E-01 0.13407892E+03</pdfrwt>
<totfact> 0.15150037E+03</totfact>
</mgrwt>
</event>
<event>
 7    1  0.5400401E-006  0.1333160E+03  0.7546771E-02  0.1238021E+00
         -2   -1    0    0    0  501 -0.00000000000E+00  0.00000000000E+00  0.23760891937E+02  0.23760891937E+02  0.00000000000E+00 0.  1.
          2   -1    0    0  501    0  0.00000000000E+00 -0.00000000000E+00 -0.63419770046E+03  0.63419770046E+03  0.00000000000E+00 0. -1.
         23    2    1    2    0    0 -0.27671088519E+02 -0.32031827676E+02 -0.23490027021E+03  0.27009497728E+03  0.12641769135E+03 0.  0.
          5    1    3    3  502    0  0.27838398693E+02  0.30423994338E+02 -0.12657557110E+03  0.13320683569E+03  0.47000000000E+01 0. -1.
         -5    1    3    3    0  502 -0.55509487212E+02 -0.62455822014E+02 -0.10832469910E+03  0.13688814160E+03  0.47000000000E+01 0.  1.
        -11    1    1    2    0    0 -0.15998924205E+02 -0.21499425212E+02 -0.80374982997E+02  0.84725018453E+02  0.00000000000E+00 0.  1.
         11    1    1    2    0    0  0.43670012724E+02  0.53531252888E+02 -0.29516155532E+03  0.30313859666E+03  0.00000000000E+00 0. -1.
<mgrwt>
<rscale>  0 0.12312983E+03</rscale>
<asrwt>0</asrwt>
<pdfrwt beam="2">  1        2 0.97568889E-01 0.13331601E+03</pdfrwt>
<pdfrwt beam="1">  1       -2 0.36555214E-02 0.13331601E+03</pdfrwt>
<totfact> 0.14118858E+04</totfact>
</mgrwt>
</event>
<event>
 7    1  0.5400401E-006  0.1506573E+03  0.7546771E-02  0.1206111E+00
         -2   -1    0    0    0  501 -0.00000000000E+00  0.00000000000E+00  0.31869989946E+02  0.31869989946E+02  0.00000000000E+00 0.  1.
          2   -1    0    0  501    0  0.00000000000E+00 -0.00000000000E+00 -0.65771516456E+03  0.65771516456E+03  0.00000000000E+00 0. -1.
         23    2    1    2    0    0  0.82150636387E+02  0.18013998835E+02 -0.25404839066E+03  0.29536116098E+03  0.12499759759E+03 0.  0.
          5    1    3    3  502    0 -0.13348619311E+02 -0.24333906371E+02 -0.13048247777E+03  0.13348442472E+03  0.47000000000E+01 0.  1.
         -5    1    3    3    0  502  0.95499255698E+02  0.42347905206E+02 -0.12356591289E+03  0.16187673626E+03  0.47000000000E+01 0.  1.
        -11    1    1    2    0    0 -0.84489658203E+02  0.24869767941E+02 -0.25498793907E+03  0.26977000717E+03  0.00000000000E+00 0. -1.
         11    1    1    2    0    0  0.23390218161E+01 -0.42883766776E+02 -0.11680884489E+03  0.12445398636E+03  0.00000000000E+00 0.  1.
<mgrwt>
<rscale>  0 0.14550224E+03</rscale>
<asrwt>0</asrwt>
<pdfrwt beam="2">  1        2 0.10118694E+00 0.15065733E+03</pdfrwt>
<pdfrwt beam="1">  1       -2 0.49030760E-02 0.15065733E+03</pdfrwt>
<totfact> 0.88051900E+03</totfact>
</mgrwt>
</event>
<event>
 7    1  0.5400401E-006  0.1276510E+03  0.7546771E-02  0.1245129E+00
          2   -1    0    0  501    0  0.00000000000E+00  0.00000000000E+00  0.22800607228E+03  0.22800607228E+03  0.00000000000E+00 0.  1.
         -2   -1    0    0    0  501 -0.00000000000E+00 -0.00000000000E+00 -0.70615231278E+02  0.70615231278E+02  0.00000000000E+00 0. -1.
         23    2    1    2    0    0 -0.26101162172E+02 -0.21760137839E+01  0.17079941971E+02  0.12878858233E+03  0.12493505840E+03 0.  0.
          5    1    3    3  502    0 -0.31107602602E+02  0.53018671525E+02 -0.16496885335E+02  0.63819273700E+02  0.47000000000E+01 0. -1.
         -5    1    3    3    0  502  0.50064404293E+01 -0.55194685309E+02  0.33576827306E+02  0.64969308631E+02  0.47000000000E+01 0. -1.
        -11    1    1    2    0    0  0.35849670621E+02 -0.50834344749E+01  0.14998783489E+03  0.15429643808E+03  0.00000000000E+00 0.  1.
         11    1    1    2    0    0 -0.97485084485E+01  0.72594482587E+01 -0.96769358661E+01  0.15536283138E+02  0.00000000000E+00 0. -1.
<mgrwt>
<rscale>  0 0.11877674E+03</rscale>
<asrwt>0</asrwt>
<pdfrwt beam="1">  1        2 0.35077857E-01 0.12765099E+03</pdfrwt>
<pdfrwt beam="2">  1       -2 0.10863882E-01 0.12765099E+03</pdfrwt>
<totfact> 0.80863311E+03</totfact>
</mgrwt>
</event>
<event>
 7    1  0.5400401E-006  0.1625549E+03  0.7546771E-02  0.1193253E+00
         -3   -1    0    0    0  501 -0.00000000000E+00  0.00000000000E+00  0.11073105993E+03  0.11073105993E+03  0.00000000000E+00 0.  1.
          3   -1    0    0  501    0  0.00000000000E+00 -0.00000000000E+00 -0.20433541836E+03  0.20433541836E+03  0.00000000000E+00 0. -1.
         23    2    1    2    0    0  0.10368923490E+03  0.68664059368E+01 -0.43615605566E+02  0.16830454676E+03  0.12500197777E+03 0.  0.
          5    1    3    3  502    0  0.79288930970E+02  0.38646130569E+01  0.34198652772E+02  0.86563893512E+02  0.47000000000E+01 0.  1.
         -5    1    3    3    0  502  0.24400303926E+02  0.30017928799E+01 -0.77814258338E+02  0.81740653245E+02  0.47000000000E+01 0.  1.
        -11    1    1    2    0    0  0.12756588663E+01  0.26670431388E+02 -0.26520002719E+01  0.26832299965E+02  0.00000000000E+00 0.  1.
         11    1    1    2    0    0 -0.10496489376E+03 -0.33536837325E+02 -0.47336752591E+02  0.11992963156E+03  0.00000000000E+00 0. -1.
<mgrwt>
<rscale>  0 0.15603031E+03</rscale>
<asrwt>0</asrwt>
<pdfrwt beam="2">  1        3 0.31436218E-01 0.16255491E+03</pdfrwt>
<pdfrwt beam="1">  1       -3 0.17035548E-01 0.16255491E+03</pdfrwt>
<totfact> 0.69534302E+02</totfact>
</mgrwt>
</event>
<event>
 7    1  0.5400401E-006  0.1251400E+03  0.7546771E-02  0.1250853E+00
          1   -1    0    0  501    0  0.00000000000E+00  0.00000000000E+00  0.19799186465E+03  0.19799186465E+03  0.00000000000E+00 0. -1.
         -1   -1    0    0    0  501 -0.00000000000E+00 -0.00000000000E+00 -0.64366409677E+02  0.64366409677E+02  0.00000000000E+00 0.  1.
         23    2    1    2    0    0  0.59060622374E+01 -0.28907369905E+00  0.38279084187E+02  0.13086372380E+03  0.12500024314E+03 0.  0.
          5    1    3    3  502    0 -0.46712636591E+02  0.31453274896E+02  0.39956545982E+02  0.69209786055E+02  0.47000000000E+01 0. -1.
         -5    1    3    3    0  502  0.52618698829E+02 -0.31742348595E+02 -0.16774617950E+01  0.61653937740E+02  0.47000000000E+01 0. -1.
        -11    1    1    2    0    0  0.87603948547E+01  0.32011776269E+02  0.36805702850E+01  0.33392288563E+02  0.00000000000E+00 0.  1.
         11    1    1    2    0    0 -0.14666457092E+02 -0.31722702570E+02  0.91665800500E+02  0.98102261968E+02  0.00000000000E+00 0. -1.
<mgrwt>
<rscale>  0 0.11541790E+03</rscale>
<asrwt>0</asrwt>
<pdfrwt beam="1">  1        1 0.30460287E-01 0.12514003E+03</pdfrwt>
<pdfrwt beam="2">  1       -1 0.99025247E-02 0.12514003E+03</pdfrwt>
<totfact> 0.86376001E+03</totfact>
</mgrwt>
</event>
<event>
 7    1  0.5400401E-006  0.1352912E+03  0.7546771E-02  0.1231415E+00
         -2   -1    0    0    0  501 -0.00000000000E+00  0.00000000000E+00  0.48055939379E+02  0.48055939379E+02  0.00000000000E+00 0.  1.
          2   -1    0    0  501    0  0.00000000000E+00 -0.00000000000E+00 -0.32590720752E+03  0.32590720752E+03  0.00000000000E+00 0. -1.
         23    2    1    2    0    0 -0.51280308734E+02 -0.71129863448E+01 -0.10585209253E+03  0.17178002649E+03  0.12499378932E+03 0.  0.
          5    1    3    3  502    0  0.96241384893E+01 -0.34927722579E+02 -0.97527835624E+02  0.10414575636E+03  0.47000000000E+01 0. -1.
         -5    1    3    3    0  502 -0.60904447223E+02  0.27814736235E+02 -0.83242569098E+01  0.67634270134E+02  0.47000000000E+01 0. -1.
        -11    1    1    2    0    0  0.47880671014E+02 -0.30929353736E+02 -0.55400877783E+02  0.79488620810E+02  0.00000000000E+00 0.  1.
         11    1    1    2    0    0  0.33996377206E+01  0.38042340081E+02 -0.11659829783E+03  0.12269449960E+03  0.00000000000E+00 0. -1.
<mgrwt>
<rscale>  0 0.12736778E+03</rscale>
<asrwt>0</asrwt>
<pdfrwt beam="2">  1        2 0.50139572E-01 0.13529121E+03</pdfrwt>
<pdfrwt beam="1">  1       -2 0.73932213E-02 0.13529121E+03</pdfrwt>
<totfact> 0.10119030E+04</totfact>
</mgrwt>
</event>
<event>
 7    1  0.5400401E-006  0.1343180E+03  0.7546771E-02  0.1230165E+00
          2   -1    0    0  501    0  0.00000000000E+00  0.00000000000E+00  0.37153431493E+02  0.37153431493E+02  0.00000000000E+00 0. -1.
         -2   -1    0    0    0  501 -0.00000000000E+00 -0.00000000000E+00 -0.40660210121E+03  0.40660210121E+03  0.00000000000E+00 0.  1.
         23    2    1    2    0    0 -0.24751387434E+01  0.49090716887E+02 -0.20695588302E+03  0.24672262092E+03  0.12500115745E+03 0.  0.
          5    1    3    3  502    0  0.14369025500E+02 -0.15658265898E+02 -0.16750087615E+03  0.16890909891E+03  0.47000000000E+01 0.  1.
         -5    1    3    3    0  502 -0.16844164243E+02  0.64748982785E+02 -0.39455006869E+02  0.77813522012E+02  0.47000000000E+01 0.  1.
        -11    1    1    2    0    0  0.42197074651E+02 -0.42406602501E+02 -0.51432827581E+02  0.78893908495E+02  0.00000000000E+00 0. -1.
         11    1    1    2    0    0 -0.39721935907E+02 -0.66841143863E+01 -0.11105995912E+03  0.11813900329E+03  0.00000000000E+00 0.  1.
<mgrwt>
<rscale>  0 0.12819093E+03</rscale>
<asrwt>0</asrwt>
<pdfrwt beam="1">  1        2 0.57159127E-02 0.13431796E+03</pdfrwt>
<pdfrwt beam="2">  1       -2 0.62554168E-01 0.13431796E+03</pdfrwt>
<totfact> 0.30491677E+03</totfact>
</mgrwt>
</event>
<event>
 7    1  0.5400401E-006  0.1304886E+03  0.7546771E-02  0.1240144E+00
          4   -1    0    0  501    0  0.00000000000E+00  0.00000000000E+00  0.19158473682E+03  0.19158473682E+03  0.00000000000E+00 0. -1.
         -4   -1    0    0    0  501 -0.00000000000E+00 -0.00000000000E+00 -0.75159945172E+02  0.75159945172E+02  0.00000000000E+00 0.  1.
         23    2    1    2    0    0  0.28488807800E+02  0.24345842787E+02  0.26946111309E+02  0.13324180819E+03  0.12499181695E+03 0.  0.
          5    1    3    3  502    0 -0.12096806397E+02 -0.43422957125E+02  0.29486799822E+02  0.54068912457E+02  0.47000000000E+01 0. -1.
         -5    1    3    3    0  502  0.40585614197E+02  0.67768799912E+02 -0.25406885132E+01  0.79172895738E+02  0.47000000000E+01 0. -1.
        -11    1    1    2    0    0 -0.38079286311E+02  0.22929093345E+02  0.66707773665E+02  0.80160479258E+02  0.00000000000E+00 0. -1.
         11    1    1    2    0    0  0.95904785107E+01 -0.47274936132E+02  0.22770906670E+02  0.53342394537E+02  0.00000000000E+00 0.  1.
<mgrwt>
<rscale>  0 0.12180766E+03</rscale>
<asrwt>0</asrwt>
<pdfrwt beam="1">  1        4 0.29474575E-01 0.13048865E+03</pdfrwt>
<pdfrwt beam="2">  1       -4 0.11563069E-01 0.13048865E+03</pdfrwt>
<totfact> 0.10657955E+03</totfact>
</mgrwt>
</event>
<event>
 6    1  0.5400401E-006  0.3344871E+03  0.7546771E-02  0.1154496E+00
         -2   -1    0    0    0  501 -0.00000000000E+00  0.00000000000E+00  0.59861192920E+02  0.59861192920E+02  0.00000000000E+00 0.  1.
          2   -1    0    0  501    0  0.00000000000E+00 -0.00000000000E+00 -0.62600217425E+03  0.62600217425E+03  0.00000000000E+00 0. -1.
          5    1    1    2  502    0  0.83339420342E+02  0.13527634056E+03 -0.15355262384E+03  0.22101051012E+03  0.47000000000E+01 0. -1.
         -5    1    1    2    0  502 -0.57824899474E+02 -0.15798261093E+03 -0.27827904346E+03  0.32521306920E+03  0.47000000000E+01 0.  1.
        -11    1    1    2    0    0 -0.89820688244E+01  0.12235611045E+02 -0.31276629552E+02  0.34765144817E+02  0.00000000000E+00 0. -1.
         11    1    1    2    0    0 -0.16532452044E+02  0.10470659319E+02 -0.10303268449E+03  0.10487464303E+03  0.00000000000E+00 0.  1.
<mgrwt>
<rscale>  0 0.19446389E+03</rscale>
<asrwt>0</asrwt>
<pdfrwt beam="2">  1        2 0.96308027E-01 0.33448708E+03</pdfrwt>
<pdfrwt beam="1">  1       -2 0.92094143E-02 0.33448708E+03</pdfrwt>
<totfact> 0.36392737E+03</totfact>
</mgrwt>
</event>
<event>
 7    1  0.5400401E-006  0.1503922E+03  0.7546771E-02  0.1208483E+00
          2   -1    0    0  501    0  0.00000000000E+00  0.00000000000E+00  0.59691369690E+03  0.59691369690E+03  0.00000000000E+00 0. -1.
         -2   -1    0    0    0  501 -0.00000000000E+00 -0.00000000000E+00 -0.37000091078E+02  0.37000091078E+02  0.00000000000E+00 0.  1.
         23    2    1    2    0    0  0.81728826478E+02 -0.17710459449E+02  0.18372591801E+03  0.23743001765E+03  0.12499815552E+03 0.  0.
          5    1    3    3  502    0  0.10876608720E+03  0.11587062465E+02  0.12337670735E+03  0.16494915476E+03  0.47000000000E+01 0.  1.
         -5    1    3    3    0  502 -0.27037260721E+02 -0.29297521915E+02  0.60349210664E+02  0.72480862891E+02  0.47000000000E+01 0.  1.
        -11    1    1    2    0    0  0.58764565325E+01  0.28771707052E+02  0.45055836687E+02  0.53780779909E+02  0.00000000000E+00 0.  1.
         11    1    1    2    0    0 -0.87605283011E+02 -0.11061247602E+02  0.33113185112E+03  0.34270299041E+03  0.00000000000E+00 0. -1.
<mgrwt>
<rscale>  0 0.14366295E+03</rscale>
<asrwt>0</asrwt>
<pdfrwt beam="1">  1        2 0.91832870E-01 0.15039216E+03</pdfrwt>
<pdfrwt beam="2">  1       -2 0.56923221E-02 0.15039216E+03</pdfrwt>
<totfact> 0.78615443E+03</totfact>
</mgrwt>
</event>
<event>
 7    1  0.5400401E-006  0.1745379E+03  0.7546771E-02  0.1180358E+00
         -1   -1    0    0    0  501 -0.00000000000E+00  0.00000000000E+00  0.87963722740E+02  0.87963722740E+02  0.00000000000E+00 0.  1.
          1   -1    0    0  501    0  0.00000000000E+00 -0.00000000000E+00 -0.33711655507E+03  0.33711655507E+03  0.00000000000E+00 0. -1.
         23    2    1    2    0    0  0.13821666252E+01 -0.12180514108E+03 -0.59856461937E+02  0.18451632400E+03  0.12500030003E+03 0.  0.
          5    1    3    3  502    0  0.47360866266E+02 -0.11884313196E+03 -0.39962981778E+02  0.13411141480E+03  0.47000000000E+01 0.  1.
         -5    1    3    3    0  502 -0.45978699641E+02 -0.29620091273E+01 -0.19893480159E+02  0.50404909201E+02  0.47000000000E+01 0.  1.
        -11    1    1    2    0    0  0.11313184918E+02  0.79254982405E+02 -0.17734811707E+03  0.19458081873E+03  0.00000000000E+00 0.  1.
         11    1    1    2    0    0 -0.12695351543E+02  0.42550158679E+02 -0.11948253322E+02  0.45983135081E+02  0.00000000000E+00 0. -1.
<mgrwt>
<rscale>  0 0.16761527E+03</rscale>
<asrwt>0</asrwt>
<pdfrwt beam="2">  1        1 0.51864086E-01 0.17453790E+03</pdfrwt>
<pdfrwt beam="1">  1       -1 0.13532880E-01 0.17453790E+03</pdfrwt>
<totfact> 0.28067958E+03</totfact>
</mgrwt>
</event>
<event>
 7    1  0.5400401E-006  0.1353845E+03  0.7546771E-02  0.1231655E+00
         -1   -1    0    0    0  501 -0.00000000000E+00  0.00000000000E+00  0.56197165164E+03  0.56197165164E+03  0.00000000000E+00 0.  1.
          1   -1    0    0  501    0  0.00000000000E+00 -0.00000000000E+00 -0.26887009261E+02  0.26887009261E+02  0.00000000000E+00 0. -1.
         23    2    1    2    0    0 -0.42535873777E+02  0.29888392375E+02  0.35760387216E+03  0.38237349205E+03  0.12500536581E+03 0.  0.
          5    1    3    3  502    0 -0.24486986196E+02  0.56694912862E+02  0.72277154758E+02  0.95184046653E+02  0.47000000000E+01 0.  1.
         -5    1    3    3    0  502 -0.18048887582E+02 -0.26806520487E+02  0.28532671740E+03  0.28718944540E+03  0.47000000000E+01 0.  1.
        -11    1    1    2    0    0  0.36356008645E+02 -0.12296970908E+01  0.17305333830E+03  0.17683531722E+03  0.00000000000E+00 0.  1.
         11    1    1    2    0    0  0.61798651325E+01 -0.28658695285E+02  0.44274319215E+01  0.29649851634E+02  0.00000000000E+00 0. -1.
<mgrwt>
<rscale>  0 0.12721000E+03</rscale>
<asrwt>0</asrwt>
<pdfrwt beam="2">  1        1 0.41364634E-02 0.13538448E+03</pdfrwt>
<pdfrwt beam="1">  1       -1 0.86457169E-01 0.13538448E+03</pdfrwt>
<totfact> 0.28969863E+03</totfact>
</mgrwt>
</event>
<event>
 6    1  0.5400401E-006  0.3690338E+03  0.7546771E-02  0.1082113E+00
          1   -1    0    0  501    0  0.00000000000E+00  0.00000000000E+00  0.50844929920E+03  0.50844929920E+03  0.00000000000E+00 0. -1.
         -1   -1    0    0    0  501 -0.00000000000E+00 -0.00000000000E+00 -0.14946989646E+03  0.14946989646E+03  0.00000000000E+00 0.  1.
          5    1    1    2  502    0 -0.10671735808E+03 -0.14803136948E+03  0.11750950785E+03  0.21710010434E+03  0.47000000000E+01 0. -1.
         -5    1    1    2    0  502  0.18335858623E+03  0.19652204583E+02  0.75050171528E+02  0.19915119516E+03  0.47000000000E+01 0.  1.
        -11    1    1    2    0    0 -0.28145935584E+02  0.19987934911E+02 -0.31394500103E+01  0.34663631926E+02  0.00000000000E+00 0.  1.
         11    1    1    2    0    0 -0.48495292560E+02  0.10839122999E+03  0.16955917337E+03  0.20700426424E+03  0.00000000000E+00 0. -1.
<mgrwt>
<rscale>  0 0.30634144E+03</rscale>
<asrwt>0</asrwt>
<pdfrwt beam="1">  1        1 0.78222968E-01 0.36903376E+03</pdfrwt>
<pdfrwt beam="2">  1       -1 0.22995369E-01 0.36903376E+03</pdfrwt>
<totfact> 0.70788703E+02</totfact>
</mgrwt>
</event>
<event>
 7    1  0.5400401E-006  0.1436767E+03  0.7546771E-02  0.1219037E+00
         -2   -1    0    0    0  501 -0.00000000000E+00  0.00000000000E+00  0.69573822309E+02  0.69573822309E+02  0.00000000000E+00 0.  1.
          2   -1    0    0  501    0  0.00000000000E+00 -0.00000000000E+00 -0.25587266303E+03  0.25587266303E+03  0.00000000000E+00 0. -1.
         23    2    1    2    0    0  0.61405974495E+02 -0.35319851153E+02 -0.62726429941E+02  0.15677245398E+03  0.12499924689E+03 0.  0.
          5    1    3    3  502    0  0.32068239454E+02 -0.33606877022E+02 -0.99235350530E+02  0.10967013705E+03  0.47000000000E+01 0. -1.
         -5    1    3    3    0  502  0.29337735040E+02 -0.17129741307E+01  0.36508920589E+02  0.47102316931E+02  0.47000000000E+01 0. -1.
        -11    1    1    2    0    0 -0.70236129691E+02  0.57590212519E+02 -0.96411914258E+02  0.13245755434E+03  0.00000000000E+00 0.  1.
         11    1    1    2    0    0  0.88301551963E+01 -0.22270361367E+02 -0.27160496521E+02  0.36216477016E+02  0.00000000000E+00 0. -1.
<mgrwt>
<rscale>  0 0.13584150E+03</rscale>
<asrwt>0</asrwt>
<pdfrwt beam="2">  1        2 0.39365025E-01 0.14367671E+03</pdfrwt>
<pdfrwt beam="1">  1       -2 0.10703665E-01 0.14367671E+03</pdfrwt>
<totfact> 0.73803542E+03</totfact>
</mgrwt>
</event>
<event>
 7    1  0.5400401E-006  0.1579924E+03  0.7546771E-02  0.1198414E+00
          1   -1    0    0  501    0  0.00000000000E+00  0.00000000000E+00  0.30954736765E+03  0.30954736765E+03  0.00000000000E+00 0. -1.
         -1   -1    0    0    0  501 -0.00000000000E+00 -0.00000000000E+00 -0.70971923854E+02  0.70971923854E+02  0.00000000000E+00 0.  1.
         23    2    1    2    0    0  0.33179523981E+02 -0.90763087552E+02  0.96881322116E+02  0.18533098941E+03  0.12499106442E+03 0.  0.
          5    1    3    3  502    0  0.56516192822E+02 -0.11213242042E+03  0.82025722845E+02  0.15006021780E+03  0.47000000000E+01 0.  1.
         -5    1    3    3    0  502 -0.23336668841E+02  0.21369332863E+02  0.14855599271E+02  0.35270771601E+02  0.47000000000E+01 0.  1.
        -11    1    1    2    0    0 -0.60533253937E+02  0.35045717478E+02  0.92608371169E+02  0.11605510569E+03  0.00000000000E+00 0.  1.
         11    1    1    2    0    0  0.27353729957E+02  0.55717370074E+02  0.49085750507E+02  0.79133196406E+02  0.00000000000E+00 0. -1.
<mgrwt>
<rscale>  0 0.15168763E+03</rscale>
<asrwt>0</asrwt>
<pdfrwt beam="1">  1        1 0.47622671E-01 0.15799236E+03</pdfrwt>
<pdfrwt beam="2">  1       -1 0.10918758E-01 0.15799236E+03</pdfrwt>
<totfact> 0.43385414E+03</totfact>
</mgrwt>
</event>
<event>
 7    1  0.5400401E-006  0.1346106E+03  0.7546771E-02  0.1233778E+00
          1   -1    0    0  501    0  0.00000000000E+00  0.00000000000E+00  0.23938339023E+03  0.23938339023E+03  0.00000000000E+00 0. -1.
         -1   -1    0    0    0  501 -0.00000000000E+00 -0.00000000000E+00 -0.59794252741E+02  0.59794252741E+02  0.00000000000E+00 0.  1.
         23    2    1    2    0    0 -0.46312947657E+02  0.18689050349E+02  0.83034174422E+02  0.15816033358E+03  0.12500338905E+03 0.  0.
          5    1    3    3  502    0 -0.32235741031E+02  0.64349205968E+02  0.13059090864E+02  0.73297975161E+02  0.47000000000E+01 0. -1.
         -5    1    3    3    0  502 -0.14077206626E+02 -0.45660155620E+02  0.69975083558E+02  0.84862358420E+02  0.47000000000E+01 0. -1.
        -11    1    1    2    0    0  0.79328138112E+01  0.30085509968E+02  0.67253045784E+01  0.31832328955E+02  0.00000000000E+00 0.  1.
         11    1    1    2    0    0  0.38380133846E+02 -0.48774560317E+02  0.89829658484E+02  0.10918498043E+03  0.00000000000E+00 0. -1.
<mgrwt>
<rscale>  0 0.12582965E+03</rscale>
<asrwt>0</asrwt>
<pdfrwt beam="1">  1        1 0.36828213E-01 0.13461061E+03</pdfrwt>
<pdfrwt beam="2">  1       -1 0.91991159E-02 0.13461061E+03</pdfrwt>
<totfact> 0.76794102E+03</totfact>
</mgrwt>
</event>
<event>
 6    1  0.5400401E-006  0.1698103E+03  0.7546771E-02  0.1191996E+00
         -2   -1    0    0    0  501 -0.00000000000E+00  0.00000000000E+00  0.21696030490E+02  0.21696030490E+02  0.00000000000E+00 0. -1.
          2   -1    0    0  501    0  0.00000000000E+00 -0.00000000000E+00 -0.10490732239E+04  0.10490732239E+04  0.00000000000E+00 0.  1.
          5    1    1    2  502    0  0.47585429674E+02  0.89226576952E+02 -0.19637127191E+03  0.22092877038E+03  0.47000000000E+01 0. -1.
         -5    1    1    2    0  502 -0.52709398458E+02 -0.42200631488E+01 -0.27547536844E+03  0.28054386152E+03  0.47000000000E+01 0.  1.
        -11    1    1    2    0    0 -0.11401537610E+02 -0.10037215975E+03 -0.47751832762E+03  0.48808638449E+03  0.00000000000E+00 0.  1.
         11    1    1    2    0    0  0.16525506394E+02  0.15365645950E+02 -0.78012225434E+02  0.81210237989E+02  0.00000000000E+00 0. -1.
<mgrwt>
<rscale>  0 0.15711225E+03</rscale>
<asrwt>0</asrwt>
<pdfrwt beam="2">  1        2 0.16139586E+00 0.16981033E+03</pdfrwt>
<pdfrwt beam="1">  1       -2 0.33378513E-02 0.16981033E+03</pdfrwt>
<totfact> 0.86555588E+03</totfact>
</mgrwt>
</event>
<event>
 7    1  0.5400401E-006  0.1258003E+03  0.7546771E-02  0.1247122E+00
         -1   -1    0    0    0  501 -0.00000000000E+00  0.00000000000E+00  0.66731920192E+02  0.66731920192E+02  0.00000000000E+00 0.  1.
          1   -1    0    0  501    0  0.00000000000E+00 -0.00000000000E+00 -0.22632372036E+03  0.22632372036E+03  0.00000000000E+00 0. -1.
         23    2    1    2    0    0 -0.26972321345E+01  0.13902385187E+02 -0.25897182735E+02  0.12843821596E+03  0.12500063948E+03 0.  0.
          5    1    3    3  502    0 -0.22620113174E+02  0.58240243794E+02  0.15357613452E+02  0.64510013239E+02  0.47000000000E+01 0. -1.
         -5    1    3    3    0  502  0.19922881039E+02 -0.44337858607E+02 -0.41254796187E+02  0.63928202721E+02  0.47000000000E+01 0. -1.
        -11    1    1    2    0    0  0.26034470245E+02 -0.29920223179E+02 -0.14692318819E+02  0.42295125349E+02  0.00000000000E+00 0.  1.
         11    1    1    2    0    0 -0.23337238111E+02  0.16017837992E+02 -0.11900229861E+03  0.12232229924E+03  0.00000000000E+00 0. -1.
<mgrwt>
<rscale>  0 0.11759258E+03</rscale>
<asrwt>0</asrwt>
<pdfrwt beam="2">  1        1 0.34819034E-01 0.12580028E+03</pdfrwt>
<pdfrwt beam="1">  1       -1 0.10266449E-01 0.12580028E+03</pdfrwt>
<totfact> 0.69310430E+03</totfact>
</mgrwt>
</event>
<event>
 7    1  0.5400401E-006  0.1343437E+03  0.7546771E-02  0.1233823E+00
         -1   -1    0    0    0  501 -0.00000000000E+00  0.00000000000E+00  0.52777396014E+02  0.52777396014E+02  0.00000000000E+00 0.  1.
          1   -1    0    0  501    0  0.00000000000E+00 -0.00000000000E+00 -0.26750480477E+03  0.26750480477E+03  0.00000000000E+00 0. -1.
         23    2    1    2    0    0 -0.11166590323E+02  0.47938289785E+02 -0.12108370397E+03  0.18085763685E+03  0.12500179628E+03 0.  0.
          5    1    3    3  502    0 -0.61656162785E+02  0.55112554650E+02 -0.68889813672E+02  0.10773473218E+03  0.47000000000E+01 0.  1.
         -5    1    3    3    0  502  0.50489572462E+02 -0.71742648642E+01 -0.52193890299E+02  0.73122904677E+02  0.47000000000E+01 0.  1.
        -11    1    1    2    0    0  0.16868512526E+02 -0.36697332487E+02 -0.11091690541E+03  0.11804152164E+03  0.00000000000E+00 0. -1.
         11    1    1    2    0    0 -0.57019222037E+01 -0.11240957298E+02  0.17273200623E+02  0.21383042289E+02  0.00000000000E+00 0.  1.
<mgrwt>
<rscale>  0 0.12580091E+03</rscale>
<asrwt>0</asrwt>
<pdfrwt beam="2">  1        1 0.41154585E-01 0.13434367E+03</pdfrwt>
<pdfrwt beam="1">  1       -1 0.81195995E-02 0.13434367E+03</pdfrwt>
<totfact> 0.80858132E+03</totfact>
</mgrwt>
</event>
<event>
 7    1  0.5400401E-006  0.1985270E+03  0.7546771E-02  0.1154983E+00
         -1   -1    0    0    0  501 -0.00000000000E+00  0.00000000000E+00  0.22775760676E+03  0.22775760676E+03  0.00000000000E+00 0.  1.
          1   -1    0    0  501    0  0.00000000000E+00 -0.00000000000E+00 -0.19715673170E+03  0.19715673170E+03  0.00000000000E+00 0. -1.
         23    2    1    2    0    0 -0.48968530206E+02 -0.14625502187E+03  0.11066117811E+03  0.22728588826E+03  0.12499812115E+03 0.  0.
          5    1    3    3  502    0  0.24905635101E+02  0.83065594526E+01  0.20518691462E+02  0.33651096402E+02  0.47000000000E+01 0.  1.
         -5    1    3    3    0  502 -0.73874165308E+02 -0.15456158132E+03  0.90142486647E+02  0.19363479186E+03  0.47000000000E+01 0.  1.
        -11    1    1    2    0    0 -0.24683908996E+02  0.30947520098E+02 -0.37011403981E+02  0.54193065868E+02  0.00000000000E+00 0.  1.
         11    1    1    2    0    0  0.73652439202E+02  0.11530750177E+03 -0.43048899064E+02  0.14343538432E+03  0.00000000000E+00 0. -1.
<mgrwt>
<rscale>  0 0.19390800E+03</rscale>
<asrwt>0</asrwt>
<pdfrwt beam="2">  1        1 0.30331805E-01 0.19852702E+03</pdfrwt>
<pdfrwt beam="1">  1       -1 0.35039632E-01 0.19852702E+03</pdfrwt>
<totfact> 0.11604427E+03</totfact>
</mgrwt>
</event>
<event>
 7    1  0.5400401E-006  0.2313129E+03  0.7546771E-02  0.1128827E+00
         -2   -1    0    0    0  501 -0.00000000000E+00  0.00000000000E+00  0.43089932153E+02  0.43089932153E+02  0.00000000000E+00 0.  1.
          2   -1    0    0  501    0  0.00000000000E+00 -0.00000000000E+00 -0.11714953002E+04  0.11714953002E+04  0.00000000000E+00 0. -1.
         23    2    1    2    0    0  0.17118579578E+03 -0.92606572079E+02 -0.50661327947E+03  0.55692252134E+03  0.12500050392E+03 0.  0.
          5    1    3    3  502    0  0.12458146656E+03 -0.59273411965E+02 -0.46733196913E+03  0.48729368818E+03  0.47000000000E+01 0.  1.
         -5    1    3    3    0  502  0.46604329221E+02 -0.33333160115E+02 -0.39281310338E+02  0.69628833160E+02  0.47000000000E+01 0.  1.
        -11    1    1    2    0    0 -0.14046938433E+03  0.30469355531E+02 -0.45062360248E+03  0.47299224166E+03  0.00000000000E+00 0. -1.
         11    1    1    2    0    0 -0.30716411448E+02  0.62137216548E+02 -0.17116848606E+03  0.18467046930E+03  0.00000000000E+00 0.  1.
<mgrwt>
<rscale>  0 0.22691878E+03</rscale>
<asrwt>0</asrwt>
<pdfrwt beam="2">  1        2 0.18023003E+00 0.23131295E+03</pdfrwt>
<pdfrwt beam="1">  1       -2 0.66292209E-02 0.23131295E+03</pdfrwt>
<totfact> 0.26262915E+03</totfact>
</mgrwt>
</event>
<event>
 7    1  0.5400401E-006  0.1374360E+03  0.7546771E-02  0.1227979E+00
          1   -1    0    0  501    0  0.00000000000E+00  0.00000000000E+00  0.70724978003E+02  0.70724978003E+02  0.00000000000E+00 0. -1.
         -1   -1    0    0    0  501 -0.00000000000E+00 -0.00000000000E+00 -0.21446565517E+03  0.21446565517E+03  0.00000000000E+00 0.  1.
         23    2    1    2    0    0 -0.72256158365E+00  0.57127057967E+02 -0.83018271788E+02  0.16056364789E+03  0.12499851490E+03 0.  0.
          5    1    3    3  502    0 -0.41087468024E+02 -0.68580543571E+01  0.74086541653E+01  0.42569837852E+02  0.47000000000E+01 0.  1.
         -5    1    3    3    0  502  0.40364906440E+02  0.63985112324E+02 -0.90426925953E+02  0.11799381004E+03  0.47000000000E+01 0.  1.
        -11    1    1    2    0    0 -0.28182580055E+02 -0.29490918604E+01 -0.56339564884E+02  0.63064265100E+02  0.00000000000E+00 0.  1.
         11    1    1    2    0    0  0.28905141639E+02 -0.54177966107E+02 -0.43828404915E+01  0.61562720175E+02  0.00000000000E+00 0. -1.
<mgrwt>
<rscale>  0 0.12964798E+03</rscale>
<asrwt>0</asrwt>
<pdfrwt beam="1">  1        1 0.10880766E-01 0.13743599E+03</pdfrwt>
<pdfrwt beam="2">  1       -1 0.32994716E-01 0.13743599E+03</pdfrwt>
<totfact> 0.47428281E+03</totfact>
</mgrwt>
</event>
<event>
 7    1  0.5400401E-006  0.2761109E+03  0.7546771E-02  0.1099741E+00
          2   -1    0    0  501    0  0.00000000000E+00  0.00000000000E+00  0.74736159351E+02  0.74736159351E+02  0.00000000000E+00 0. -1.
         -2   -1    0    0    0  501 -0.00000000000E+00 -0.00000000000E+00 -0.10293908410E+04  0.10293908410E+04  0.00000000000E+00 0.  1.
         23    2    1    2    0    0 -0.73656648606E+02  0.23491883735E+03 -0.61961373029E+03  0.67834977146E+03  0.12500030256E+03 0.  0.
          5    1    3    3  502    0 -0.10012143591E+03  0.11256091187E+03 -0.32855406478E+03  0.36147492900E+03  0.47000000000E+01 0. -1.
         -5    1    3    3    0  502  0.26464787304E+02  0.12235792548E+03 -0.29105966551E+03  0.31687484246E+03  0.47000000000E+01 0. -1.
        -11    1    1    2    0    0  0.94255287845E+02 -0.19975247885E+03 -0.26761492229E+03  0.34699115079E+03  0.00000000000E+00 0. -1.
         11    1    1    2    0    0 -0.20598639238E+02 -0.35166358497E+02 -0.67426029091E+02  0.78786078131E+02  0.00000000000E+00 0.  1.
<mgrwt>
<rscale>  0 0.27270645E+03</rscale>
<asrwt>0</asrwt>
<pdfrwt beam="1">  1        2 0.11497871E-01 0.27611092E+03</pdfrwt>
<pdfrwt beam="2">  1       -2 0.15836782E+00 0.27611092E+03</pdfrwt>
<totfact> 0.14834853E+02</totfact>
</mgrwt>
</event>
<event>
 7    1  0.5400401E-006  0.1539121E+03  0.7546771E-02  0.1199016E+00
          4   -1    0    0  501    0  0.00000000000E+00  0.00000000000E+00  0.20143000982E+03  0.20143000982E+03  0.00000000000E+00 0. -1.
         -4   -1    0    0    0  501 -0.00000000000E+00 -0.00000000000E+00 -0.12082403108E+03  0.12082403108E+03  0.00000000000E+00 0.  1.
         23    2    1    2    0    0 -0.50209535487E+02 -0.48891042334E+02 -0.99796022557E+01  0.14366319713E+03  0.12501276044E+03 0.  0.
          5    1    3    3  502    0 -0.73404162736E+02 -0.76737395295E+02 -0.12517262416E+02  0.10703070028E+03  0.47000000000E+01 0.  1.
         -5    1    3    3    0  502  0.23194627249E+02  0.27846352961E+02  0.25376601604E+01  0.36632496851E+02  0.47000000000E+01 0.  1.
        -11    1    1    2    0    0  0.74598108963E+02  0.57608127846E+02  0.10994499773E+02  0.94891797749E+02  0.00000000000E+00 0.  1.
         11    1    1    2    0    0 -0.24388573476E+02 -0.87170855123E+01  0.79591081218E+02  0.83699046025E+02  0.00000000000E+00 0. -1.
<mgrwt>
<rscale>  0 0.15119186E+03</rscale>
<asrwt>0</asrwt>
<pdfrwt beam="1">  1        4 0.30989232E-01 0.15391212E+03</pdfrwt>
<pdfrwt beam="2">  1       -4 0.18588313E-01 0.15391212E+03</pdfrwt>
<totfact> 0.43747560E+02</totfact>
</mgrwt>
</event>
<event>
 7    1  0.5400401E-006  0.2255131E+03  0.7546771E-02  0.1133058E+00
          2   -1    0    0  501    0  0.00000000000E+00  0.00000000000E+00  0.13589154607E+04  0.13589154607E+04  0.00000000000E+00 0. -1.
         -2   -1    0    0    0  501 -0.00000000000E+00 -0.00000000000E+00 -0.39018143904E+02  0.39018143904E+02  0.00000000000E+00 0.  1.
         23    2    1    2    0    0 -0.14172700852E+03  0.12306785681E+03  0.44905468956E+03  0.50250001545E+03  0.12499563587E+03 0.  0.
          5    1    3    3  502    0 -0.92812207858E+02  0.70520522543E+02  0.12675308466E+03  0.17226631852E+03  0.47000000000E+01 0. -1.
         -5    1    3    3    0  502 -0.48914800663E+02  0.52547334262E+02  0.32230160490E+03  0.33023369692E+03  0.47000000000E+01 0. -1.
        -11    1    1    2    0    0 -0.87443734214E+01 -0.28297157928E+02  0.15742218927E+03  0.16018407814E+03  0.00000000000E+00 0. -1.
         11    1    1    2    0    0  0.15047138194E+03 -0.94770698877E+02  0.71342043794E+03  0.73524951099E+03  0.00000000000E+00 0.  1.
<mgrwt>
<rscale>  0 0.22110984E+03</rscale>
<asrwt>0</asrwt>
<pdfrwt beam="1">  1        2 0.20906388E+00 0.22551308E+03</pdfrwt>
<pdfrwt beam="2">  1       -2 0.60027924E-02 0.22551308E+03</pdfrwt>
<totfact> 0.24061645E+03</totfact>
</mgrwt>
</event>
<event>
 7    1  0.5400401E-006  0.1335415E+03  0.7546771E-02  0.1233013E+00
         -2   -1    0    0    0  501 -0.00000000000E+00  0.00000000000E+00  0.48733694457E+02  0.48733694457E+02  0.00000000000E+00 0.  1.
          2   -1    0    0  501    0  0.00000000000E+00 -0.00000000000E+00 -0.34540203314E+03  0.34540203314E+03  0.00000000000E+00 0. -1.
         23    2    1    2    0    0 -0.20511771089E+02 -0.72051804057E+02 -0.88784597099E+02  0.16036218402E+03  0.11054922053E+03 0.  0.
          5    1    3    3  502    0 -0.63480527095E+02 -0.37477629324E+02 -0.70387540231E+02  0.10203355252E+03  0.47000000000E+01 0. -1.
         -5    1    3    3    0  502  0.42968756006E+02 -0.34574174733E+02 -0.18397056868E+02  0.58328631499E+02  0.47000000000E+01 0.  1.
        -11    1    1    2    0    0 -0.36494616662E+01  0.74666205415E+02 -0.18818805467E+03  0.20249223373E+03  0.00000000000E+00 0. -1.
         11    1    1    2    0    0  0.24161232755E+02 -0.26144013581E+01 -0.19695686917E+02  0.31281309848E+02  0.00000000000E+00 0.  1.
<mgrwt>
<rscale>  0 0.12632488E+03</rscale>
<asrwt>0</asrwt>
<pdfrwt beam="2">  1        2 0.53138772E-01 0.13354147E+03</pdfrwt>
<pdfrwt beam="1">  1       -2 0.74974918E-02 0.13354147E+03</pdfrwt>
<totfact> 0.93031380E+03</totfact>
</mgrwt>
</event>
<event>
 7    1  0.5400401E-006  0.1549426E+03  0.7546771E-02  0.1202765E+00
         -1   -1    0    0    0  501 -0.00000000000E+00  0.00000000000E+00  0.33148865964E+03  0.33148865964E+03  0.00000000000E+00 0.  1.
          1   -1    0    0  501    0  0.00000000000E+00 -0.00000000000E+00 -0.61340317553E+02  0.61340317553E+02  0.00000000000E+00 0. -1.
         23    2    1    2    0    0  0.41056522043E+02  0.81830870565E+02  0.13297797513E+03  0.20418216070E+03  0.12500113399E+03 0.  0.
          5    1    3    3  502    0  0.78726252214E+02  0.20833613678E+02  0.56359514248E+02  0.99148106854E+02  0.47000000000E+01 0.  1.
         -5    1    3    3    0  502 -0.37669730171E+02  0.60997256887E+02  0.76618460885E+02  0.10503405385E+03  0.47000000000E+01 0.  1.
        -11    1    1    2    0    0 -0.25332200753E+02 -0.44150967830E+02  0.13874448449E+03  0.14778721302E+03  0.00000000000E+00 0.  1.
         11    1    1    2    0    0 -0.15724321290E+02 -0.37679902735E+02 -0.15741175349E+01  0.40859603475E+02  0.00000000000E+00 0. -1.
<mgrwt>
<rscale>  0 0.14814977E+03</rscale>
<asrwt>0</asrwt>
<pdfrwt beam="2">  1        1 0.94369722E-02 0.15494261E+03</pdfrwt>
<pdfrwt beam="1">  1       -1 0.50998254E-01 0.15494261E+03</pdfrwt>
<totfact> 0.26736528E+03</totfact>
</mgrwt>
</event>
<event>
 7    1  0.5400401E-006  0.1251149E+03  0.7546771E-02  0.1251912E+00
         -3   -1    0    0    0  501 -0.00000000000E+00  0.00000000000E+00  0.30973337377E+03  0.30973337377E+03  0.00000000000E+00 0.  1.
          3   -1    0    0  501    0  0.00000000000E+00 -0.00000000000E+00 -0.42231172257E+02  0.42231172257E+02  0.00000000000E+00 0. -1.
         23    2    1    2    0    0  0.53702468227E+01  0.22898887033E+00  0.21534678622E+03  0.24905418484E+03  0.12499942665E+03 0.  0.
          5    1    3    3  502    0  0.58140361610E+02 -0.14307440020E+02  0.62706329419E+02  0.86828441407E+02  0.47000000000E+01 0.  1.
         -5    1    3    3    0  502 -0.52770114787E+02  0.14536428890E+02  0.15264045680E+03  0.16222574343E+03  0.47000000000E+01 0.  1.
        -11    1    1    2    0    0 -0.25936510363E+02 -0.24402370708E+02  0.60401831757E+02  0.70118182703E+02  0.00000000000E+00 0.  1.
         11    1    1    2    0    0  0.20566263540E+02  0.24173381837E+02 -0.82464164618E+01  0.32792178487E+02  0.00000000000E+00 0. -1.
<mgrwt>
<rscale>  0 0.11481039E+03</rscale>
<asrwt>0</asrwt>
<pdfrwt beam="2">  1        3 0.64971036E-02 0.12511494E+03</pdfrwt>
<pdfrwt beam="1">  1       -3 0.47651287E-01 0.12511494E+03</pdfrwt>
<totfact> 0.14931404E+03</totfact>
</mgrwt>
</event>
<event>
 7    1  0.5400401E-006  0.1622456E+03  0.7546771E-02  0.1193419E+00
          2   -1    0    0  501    0  0.00000000000E+00  0.00000000000E+00  0.44758709173E+03  0.44758709173E+03  0.00000000000E+00 0. -1.
         -2   -1    0    0    0  501 -0.00000000000E+00 -0.00000000000E+00 -0.50549960620E+02  0.50549960620E+02  0.00000000000E+00 0.  1.
         23    2    1    2    0    0  0.10392296956E+03 -0.51764123558E+01  0.20288385600E+03  0.25977972012E+03  0.12448640532E+03 0.  0.
          5    1    3    3  502    0 -0.11141844680E+02  0.28346019250E+02  0.89778230067E+02  0.94920272356E+02  0.47000000000E+01 0.  1.
         -5    1    3    3    0  502  0.11506481424E+03 -0.33522431606E+02  0.11310562594E+03  0.16485944776E+03  0.47000000000E+01 0.  1.
        -11    1    1    2    0    0 -0.23408963834E+02  0.31115218005E+02  0.11898989824E+03  0.12519877101E+03  0.00000000000E+00 0. -1.
         11    1    1    2    0    0 -0.80514005728E+02 -0.25938805650E+02  0.75163376872E+02  0.11315856123E+03  0.00000000000E+00 0.  1.
<mgrwt>
<rscale>  0 0.15588780E+03</rscale>
<asrwt>0</asrwt>
<pdfrwt beam="1">  1        2 0.68859550E-01 0.16224563E+03</pdfrwt>
<pdfrwt beam="2">  1       -2 0.77769173E-02 0.16224563E+03</pdfrwt>
<totfact> 0.67431697E+03</totfact>
</mgrwt>
</event>
<event>
 6    1  0.5400401E-006  0.1890246E+03  0.7546771E-02  0.1181392E+00
          2   -1    0    0  501    0  0.00000000000E+00  0.00000000000E+00  0.79163630539E+02  0.79163630539E+02  0.00000000000E+00 0. -1.
         -2   -1    0    0    0  501 -0.00000000000E+00 -0.00000000000E+00 -0.33656863870E+03  0.33656863870E+03  0.00000000000E+00 0.  1.
          5    1    1    2  502    0 -0.41729866860E+02 -0.85366642290E+02 -0.75263297731E+02  0.12130745810E+03  0.47000000000E+01 0. -1.
         -5    1    1    2    0  502 -0.25434986597E+02  0.80401373390E+02 -0.15582699723E+03  0.17724407593E+03  0.47000000000E+01 0.  1.
        -11    1    1    2    0    0  0.10041820498E+02 -0.40156595033E+02 -0.94058807862E+01  0.42448331851E+02  0.00000000000E+00 0. -1.
         11    1    1    2    0    0  0.57123032960E+02  0.45121863934E+02 -0.16908832417E+02  0.74732403368E+02  0.00000000000E+00 0.  1.
<mgrwt>
<rscale>  0 0.16664553E+03</rscale>
<asrwt>0</asrwt>
<pdfrwt beam="1">  1        2 0.12179020E-01 0.18902459E+03</pdfrwt>
<pdfrwt beam="2">  1       -2 0.51779790E-01 0.18902459E+03</pdfrwt>
<totfact> 0.17672184E+03</totfact>
</mgrwt>
</event>
<event>
 7    1  0.5400401E-006  0.1317295E+03  0.7546771E-02  0.1238430E+00
          2   -1    0    0  501    0  0.00000000000E+00  0.00000000000E+00  0.11373703784E+03  0.11373703784E+03  0.00000000000E+00 0.  1.
         -2   -1    0    0    0  501 -0.00000000000E+00 -0.00000000000E+00 -0.12843340596E+03  0.12843340596E+03  0.00000000000E+00 0. -1.
         23    2    1    2    0    0  0.33054003177E+02  0.25211081729E+02 -0.42896601772E+02  0.13853797946E+03  0.12499795015E+03 0.  0.
          5    1    3    3  502    0  0.23127507223E+02  0.74165168019E+02 -0.98243250316E+01  0.78447186693E+02  0.47000000000E+01 0. -1.
         -5    1    3    3    0  502  0.99264959538E+01 -0.48954086290E+02 -0.33072276740E+02  0.60090792766E+02  0.47000000000E+01 0. -1.
        -11    1    1    2    0    0 -0.58648285834E+02 -0.19082779322E+02  0.41308939177E+02  0.74230737258E+02  0.00000000000E+00 0.  1.
         11    1    1    2    0    0  0.25594282658E+02 -0.61283024065E+01 -0.13108705524E+02  0.29401727087E+02  0.00000000000E+00 0. -1.
<mgrwt>
<rscale>  0 0.12287392E+03</rscale>
<asrwt>0</asrwt>
<pdfrwt beam="1">  1        2 0.17498006E-01 0.13172947E+03</pdfrwt>
<pdfrwt beam="2">  1       -2 0.19758986E-01 0.13172947E+03</pdfrwt>
<totfact> 0.65902186E+03</totfact>
</mgrwt>
</event>
<event>
 7    1  0.5400401E-006  0.1286906E+03  0.7546771E-02  0.1245997E+00
         -1   -1    0    0    0  501 -0.00000000000E+00  0.00000000000E+00  0.31570235931E+03  0.31570235931E+03  0.00000000000E+00 0.  1.
          1   -1    0    0  501    0  0.00000000000E+00 -0.00000000000E+00 -0.38671777980E+02  0.38671777980E+02  0.00000000000E+00 0. -1.
         23    2    1    2    0    0 -0.17131838899E+01  0.30534903523E+02  0.17366063430E+03  0.21614642610E+03  0.12500378505E+03 0.  0.
          5    1    3    3  502    0  0.10496630350E+02 -0.44992723655E+02  0.36682550776E+02  0.59179590756E+02  0.47000000000E+01 0.  1.
         -5    1    3    3    0  502 -0.12209814240E+02  0.75527627178E+02  0.13697808352E+03  0.15696683534E+03  0.47000000000E+01 0.  1.
        -11    1    1    2    0    0 -0.35386522725E+02 -0.24380822816E+01  0.15324045694E+02  0.38639055530E+02  0.00000000000E+00 0. -1.
         11    1    1    2    0    0  0.37099706615E+02 -0.28096821242E+02  0.88045901333E+02  0.99588655661E+02  0.00000000000E+00 0.  1.
<mgrwt>
<rscale>  0 0.11825896E+03</rscale>
<asrwt>0</asrwt>
<pdfrwt beam="2">  1        1 0.59495045E-02 0.12869057E+03</pdfrwt>
<pdfrwt beam="1">  1       -1 0.48569592E-01 0.12869057E+03</pdfrwt>
<totfact> 0.53795118E+03</totfact>
</mgrwt>
</event>
<event>
 7    1  0.5400401E-006  0.1320487E+03  0.7546771E-02  0.1239731E+00
         -4   -1    0    0    0  501 -0.00000000000E+00  0.00000000000E+00  0.16838502307E+03  0.16838502307E+03  0.00000000000E+00 0.  1.
          4   -1    0    0  501    0  0.00000000000E+00 -0.00000000000E+00 -0.95434236945E+02  0.95434236945E+02  0.00000000000E+00 0. -1.
         23    2    1    2    0    0 -0.86459061922E+01 -0.41696668599E+02  0.97718555828E+02  0.16427346296E+03  0.12499396231E+03 0.  0.
          5    1    3    3  502    0 -0.55603053815E+02 -0.41447571027E+02  0.18279284283E+02  0.71873659789E+02  0.47000000000E+01 0.  1.
         -5    1    3    3    0  502  0.46957147623E+02 -0.24909757262E+00  0.79439271545E+02  0.92399803172E+02  0.47000000000E+01 0.  1.
        -11    1    1    2    0    0  0.65790523522E+01  0.16673112539E+02  0.32444383635E+02  0.37066354569E+02  0.00000000000E+00 0.  1.
         11    1    1    2    0    0  0.20668538401E+01  0.25023556060E+02 -0.57212153342E+02  0.62479442481E+02  0.00000000000E+00 0. -1.
<mgrwt>
<rscale>  0 0.12206387E+03</rscale>
<asrwt>0</asrwt>
<pdfrwt beam="2">  1        4 0.14682190E-01 0.13204868E+03</pdfrwt>
<pdfrwt beam="1">  1       -4 0.25905388E-01 0.13204868E+03</pdfrwt>
<totfact> 0.90139835E+02</totfact>
</mgrwt>
</event>
<event>
 7    1  0.5400401E-006  0.1436623E+03  0.7546771E-02  0.1218385E+00
         -1   -1    0    0    0  501 -0.00000000000E+00  0.00000000000E+00  0.14921371285E+02  0.14921371285E+02  0.00000000000E+00 0.  1.
          1   -1    0    0  501    0  0.00000000000E+00 -0.00000000000E+00 -0.11576015048E+04  0.11576015048E+04  0.00000000000E+00 0. -1.
         23    2    1    2    0    0  0.37127836009E+02 -0.60296878299E+02 -0.54556681981E+03  0.56416489052E+03  0.12499871631E+03 0.  0.
          5    1    3    3  502    0  0.81139312334E+02 -0.52418221473E+02 -0.41336283799E+03  0.42452583405E+03  0.47000000000E+01 0.  1.
         -5    1    3    3    0  502 -0.44011476325E+02 -0.78786568256E+01 -0.13220398183E+03  0.13963905647E+03  0.47000000000E+01 0.  1.
        -11    1    1    2    0    0 -0.19504422704E+02 -0.21632994745E+02 -0.97249491794E+02  0.10151784385E+03  0.00000000000E+00 0.  1.
         11    1    1    2    0    0 -0.17623413305E+02  0.81929873043E+02 -0.49986382191E+03  0.50684014171E+03  0.00000000000E+00 0. -1.
<mgrwt>
<rscale>  0 0.13630763E+03</rscale>
<asrwt>0</asrwt>
<pdfrwt beam="2">  1        1 0.17809255E+00 0.14366234E+03</pdfrwt>
<pdfrwt beam="1">  1       -1 0.22955954E-02 0.14366234E+03</pdfrwt>
<totfact> 0.67069413E+03</totfact>
</mgrwt>
</event>
<event>
 6    1  0.5400401E-006  0.1877274E+03  0.7546771E-02  0.1184490E+00
         -1   -1    0    0    0  501 -0.00000000000E+00  0.00000000000E+00  0.50918115532E+03  0.50918115532E+03  0.00000000000E+00 0.  1.
          1   -1    0    0  501    0  0.00000000000E+00 -0.00000000000E+00 -0.43237658266E+02  0.43237658266E+02  0.00000000000E+00 0. -1.
          5    1    1    2  502    0  0.39548195505E+02 -0.92027705373E+01  0.47527724052E+00  0.40878681996E+02  0.47000000000E+01 0. -1.
         -5    1    1    2    0  502 -0.83844773516E+02 -0.28238765634E+02  0.30557303885E+03  0.31815773761E+03  0.47000000000E+01 0.  1.
        -11    1    1    2    0    0  0.12762860246E+02 -0.17633004269E+02  0.45059945945E+00  0.21771919554E+02  0.00000000000E+00 0.  1.
         11    1    1    2    0    0  0.31533717765E+02  0.55074540440E+02  0.15944458150E+03  0.17161047442E+03  0.00000000000E+00 0. -1.
<mgrwt>
<rscale>  0 0.16378350E+03</rscale>
<asrwt>0</asrwt>
<pdfrwt beam="2">  1        1 0.66519478E-02 0.18772741E+03</pdfrwt>
<pdfrwt beam="1">  1       -1 0.78335558E-01 0.18772741E+03</pdfrwt>
<totfact> 0.18818927E+03</totfact>
</mgrwt>
</event>
<event>
 7    1  0.5400401E-006  0.1680633E+03  0.7546771E-02  0.1186502E+00
          1   -1    0    0  501    0  0.00000000000E+00  0.00000000000E+00  0.34628599546E+03  0.34628599546E+03  0.00000000000E+00 0. -1.
         -1   -1    0    0    0  501 -0.00000000000E+00 -0.00000000000E+00 -0.72368469114E+02  0.72368469114E+02  0.00000000000E+00 0.  1.
         23    2    1    2    0    0 -0.87800407789E+02 -0.70089587571E+02  0.17822532586E+03  0.24496843549E+03  0.12499522275E+03 0.  0.
          5    1    3    3  502    0 -0.10483741119E+03 -0.19197978314E+02  0.15022657135E+03  0.18425405801E+03  0.47000000000E+01 0.  1.
         -5    1    3    3    0  502  0.17037003396E+02 -0.50891609258E+02  0.27998754518E+02  0.60714377475E+02  0.47000000000E+01 0.  1.
        -11    1    1    2    0    0  0.47688523130E+02  0.41710050395E+01  0.82529044433E+02  0.95407733944E+02  0.00000000000E+00 0.  1.
         11    1    1    2    0    0  0.40111884659E+02  0.65918582532E+02  0.13163156053E+02  0.78278295147E+02  0.00000000000E+00 0. -1.
<mgrwt>
<rscale>  0 0.16195989E+03</rscale>
<asrwt>0</asrwt>
<pdfrwt beam="1">  1        1 0.53274767E-01 0.16806328E+03</pdfrwt>
<pdfrwt beam="2">  1       -1 0.11133611E-01 0.16806328E+03</pdfrwt>
<totfact> 0.36699734E+03</totfact>
</mgrwt>
</event>
<event>
 7    1  0.5400401E-006  0.1583675E+03  0.7546771E-02  0.1199209E+00
         -1   -1    0    0    0  501 -0.00000000000E+00  0.00000000000E+00  0.19939100555E+02  0.19939100555E+02  0.00000000000E+00 0.  1.
          1   -1    0    0  501    0  0.00000000000E+00 -0.00000000000E+00 -0.10499376817E+04  0.10499376817E+04  0.00000000000E+00 0. -1.
         23    2    1    2    0    0 -0.16001847724E+02  0.95904045770E+02 -0.56619697579E+03  0.58792795086E+03  0.12500645936E+03 0.  0.
          5    1    3    3  502    0 -0.16153973399E+02  0.12593532325E+03 -0.42987190483E+03  0.44825506250E+03  0.47000000000E+01 0.  1.
         -5    1    3    3    0  502  0.15212567503E+00 -0.30031277477E+02 -0.13632507096E+03  0.13967288836E+03  0.47000000000E+01 0.  1.
        -11    1    1    2    0    0  0.35695429076E+02 -0.54777193418E+01 -0.17478028322E+03  0.17847217282E+03  0.00000000000E+00 0. -1.
         11    1    1    2    0    0 -0.19693581353E+02 -0.90426326428E+02 -0.28902132216E+03  0.30347665861E+03  0.00000000000E+00 0.  1.
<mgrwt>
<rscale>  0 0.15103335E+03</rscale>
<asrwt>0</asrwt>
<pdfrwt beam="2">  1        1 0.16152889E+00 0.15836748E+03</pdfrwt>
<pdfrwt beam="1">  1       -1 0.30675536E-02 0.15836748E+03</pdfrwt>
<totfact> 0.52608572E+03</totfact>
</mgrwt>
</event>
<event>
 7    1  0.5400401E-006  0.1292451E+03  0.7546771E-02  0.1241581E+00
          3   -1    0    0  501    0  0.00000000000E+00  0.00000000000E+00  0.22954184292E+02  0.22954184292E+02  0.00000000000E+00 0. -1.
         -3   -1    0    0    0  501 -0.00000000000E+00 -0.00000000000E+00 -0.10918025351E+04  0.10918025351E+04  0.00000000000E+00 0.  1.
         23    2    1    2    0    0  0.43621445501E+01  0.32498376639E+02 -0.95564706110E+03  0.96434723636E+03  0.12501645526E+03 0.  0.
          5    1    3    3  502    0  0.52613837007E+02 -0.15774069932E+02 -0.57176254632E+03  0.57441408105E+03  0.47000000000E+01 0.  1.
         -5    1    3    3    0  502 -0.48251692457E+02  0.48272446571E+02 -0.38388451478E+03  0.38993315531E+03  0.47000000000E+01 0.  1.
        -11    1    1    2    0    0 -0.23897723760E+02  0.27191530626E+02 -0.39565993371E+02  0.53627869342E+02  0.00000000000E+00 0.  1.
         11    1    1    2    0    0  0.19535579210E+02 -0.59689907265E+02 -0.73635296372E+02  0.96781613730E+02  0.00000000000E+00 0. -1.
<mgrwt>
<rscale>  0 0.12092350E+03</rscale>
<asrwt>0</asrwt>
<pdfrwt beam="1">  1        3 0.35314135E-02 0.12924507E+03</pdfrwt>
<pdfrwt beam="2">  1       -3 0.16796960E+00 0.12924507E+03</pdfrwt>
<totfact> 0.23556196E+02</totfact>
</mgrwt>
</event>
<event>
 7    1  0.5400401E-006  0.1489033E+03  0.7546771E-02  0.1211076E+00
         -2   -1    0    0    0  501 -0.00000000000E+00  0.00000000000E+00  0.45802934292E+03  0.45802934292E+03  0.00000000000E+00 0.  1.
          2   -1    0    0  501    0  0.00000000000E+00 -0.00000000000E+00 -0.50200698203E+02  0.50200698203E+02  0.00000000000E+00 0. -1.
         23    2    1    2    0    0 -0.17390362705E+00  0.80905163280E+02  0.33369808446E+03  0.36541291011E+03  0.12500603031E+03 0.  0.
          5    1    3    3  502    0  0.58187198067E+02  0.20958909869E+02  0.10637222636E+03  0.12313474921E+03  0.47000000000E+01 0.  1.
         -5    1    3    3    0  502 -0.58361101694E+02  0.59946253411E+02  0.22732585810E+03  0.24227816090E+03  0.47000000000E+01 0.  1.
        -11    1    1    2    0    0  0.79401486566E+01 -0.32085043050E+02 -0.18458537367E+02  0.37857806988E+02  0.00000000000E+00 0. -1.
         11    1    1    2    0    0 -0.77662450296E+01 -0.48820120230E+02  0.92589097622E+02  0.10495932402E+03  0.00000000000E+00 0.  1.
<mgrwt>
<rscale>  0 0.14168750E+03</rscale>
<asrwt>0</asrwt>
<pdfrwt beam="2">  1        2 0.77231846E-02 0.14890327E+03</pdfrwt>
<pdfrwt beam="1">  1       -2 0.70466050E-01 0.14890327E+03</pdfrwt>
<totfact> 0.16257714E+03</totfact>
</mgrwt>
</event>
<event>
 7    1  0.5400401E-006  0.1349774E+03  0.7546771E-02  0.1232704E+00
          1   -1    0    0  501    0  0.00000000000E+00  0.00000000000E+00  0.46595877203E+02  0.46595877203E+02  0.00000000000E+00 0. -1.
         -1   -1    0    0    0  501 -0.00000000000E+00 -0.00000000000E+00 -0.30755306152E+03  0.30755306152E+03  0.00000000000E+00 0.  1.
         23    2    1    2    0    0  0.17404309535E+02 -0.40274821647E+02 -0.15489125687E+03  0.20545121195E+03  0.12764767051E+03 0.  0.
          5    1    3    3  502    0  0.30631600052E+02 -0.24898902082E+02  0.85721794186E+01  0.40667216608E+02  0.47000000000E+01 0.  1.
         -5    1    3    3    0  502 -0.13227290516E+02 -0.15375919565E+02 -0.16346343629E+03  0.16478399534E+03  0.47000000000E+01 0.  1.
        -11    1    1    2    0    0 -0.31721844200E+02 -0.52101908372E+01 -0.94234208950E+02  0.99566598940E+02  0.00000000000E+00 0.  1.
         11    1    1    2    0    0  0.14317534665E+02  0.45485012484E+02 -0.11831718494E+02  0.49131127832E+02  0.00000000000E+00 0. -1.
<mgrwt>
<rscale>  0 0.12652597E+03</rscale>
<asrwt>0</asrwt>
<pdfrwt beam="1">  1        1 0.71685964E-02 0.13497740E+03</pdfrwt>
<pdfrwt beam="2">  1       -1 0.47315856E-01 0.13497740E+03</pdfrwt>
<totfact> 0.43979764E+03</totfact>
</mgrwt>
</event>
<event>
 6    1  0.5400401E-006  0.1487783E+03  0.7546771E-02  0.1214465E+00
         -1   -1    0    0    0  501 -0.00000000000E+00  0.00000000000E+00  0.10638838385E+03  0.10638838385E+03  0.00000000000E+00 0.  1.
          1   -1    0    0  501    0  0.00000000000E+00 -0.00000000000E+00 -0.17526396119E+03  0.17526396119E+03  0.00000000000E+00 0. -1.
          5    1    1    2  502    0  0.29043449020E+02 -0.70878018830E+02  0.48256083103E+02  0.90652937298E+02  0.47000000000E+01 0. -1.
         -5    1    1    2    0  502 -0.30593341358E+02  0.72540083017E+01 -0.48661643160E+02  0.58125886547E+02  0.47000000000E+01 0.  1.
        -11    1    1    2    0    0 -0.42799567337E+02  0.12406921312E+02 -0.16622314388E+02  0.47560866227E+02  0.00000000000E+00 0.  1.
         11    1    1    2    0    0  0.44349459675E+02  0.51217089217E+02 -0.51847702905E+02  0.85312654968E+02  0.00000000000E+00 0. -1.
<mgrwt>
<rscale>  0 0.13915875E+03</rscale>
<asrwt>0</asrwt>
<pdfrwt beam="2">  1        1 0.26963686E-01 0.14877827E+03</pdfrwt>
<pdfrwt beam="1">  1       -1 0.16367444E-01 0.14877827E+03</pdfrwt>
<totfact> 0.46682216E+03</totfact>
</mgrwt>
</event>
<event>
 6    1  0.5400401E-006  0.1643621E+03  0.7546771E-02  0.1194790E+00
          2   -1    0    0  501    0  0.00000000000E+00  0.00000000000E+00  0.40773052246E+03  0.40773052246E+03  0.00000000000E+00 0. -1.
         -2   -1    0    0    0  501 -0.00000000000E+00 -0.00000000000E+00 -0.72642249345E+02  0.72642249345E+02  0.00000000000E+00 0.  1.
          5    1    1    2  502    0  0.46908987978E+02 -0.71484064309E+02  0.54189141079E+02  0.10133596407E+03  0.47000000000E+01 0. -1.
         -5    1    1    2    0  502 -0.71016907910E+02 -0.14623141985E+02  0.31029563179E+01  0.72725207656E+02  0.47000000000E+01 0.  1.
        -11    1    1    2    0    0  0.11820077741E+01  0.26164385175E+02  0.57721993920E+01  0.26819591342E+02  0.00000000000E+00 0.  1.
         11    1    1    2    0    0  0.22925912159E+02  0.59942821119E+02  0.27202397633E+03  0.27949200874E+03  0.00000000000E+00 0. -1.
<mgrwt>
<rscale>  0 0.15472052E+03</rscale>
<asrwt>0</asrwt>
<pdfrwt beam="1">  1        2 0.62727771E-01 0.16436212E+03</pdfrwt>
<pdfrwt beam="2">  1       -2 0.11175731E-01 0.16436212E+03</pdfrwt>
<totfact> 0.42248451E+03</totfact>
</mgrwt>
</event>
<event>
 7    1  0.5400401E-006  0.1333063E+03  0.7546771E-02  0.1235516E+00
          2   -1    0    0  501    0  0.00000000000E+00  0.00000000000E+00  0.70325102923E+03  0.70325102923E+03  0.00000000000E+00 0. -1.
         -2   -1    0    0    0  501 -0.00000000000E+00 -0.00000000000E+00 -0.19978301616E+02  0.19978301616E+02  0.00000000000E+00 0.  1.
         23    2    1    2    0    0  0.46312720359E+02  0.92560367634E+00  0.34422020387E+03  0.36913156169E+03  0.12499934509E+03 0.  0.
          5    1    3    3  502    0  0.57304057924E+01  0.26864102625E+02  0.30652796308E+03  0.30779213718E+03  0.47000000000E+01 0. -1.
         -5    1    3    3    0  502  0.40582314566E+02 -0.25938498949E+02  0.37692240791E+02  0.61339424509E+02  0.47000000000E+01 0. -1.
        -11    1    1    2    0    0 -0.34634840455E+02  0.36746734656E+02  0.10231811790E+03  0.11410035903E+03  0.00000000000E+00 0. -1.
         11    1    1    2    0    0 -0.11677879904E+02 -0.37672338333E+02  0.23673440584E+03  0.23999741012E+03  0.00000000000E+00 0.  1.
<mgrwt>
<rscale>  0 0.12471430E+03</rscale>
<asrwt>0</asrwt>
<pdfrwt beam="1">  1        2 0.10819245E+00 0.13330627E+03</pdfrwt>
<pdfrwt beam="2">  1       -2 0.30735854E-02 0.13330627E+03</pdfrwt>
<totfact> 0.16156764E+04</totfact>
</mgrwt>
</event>
<event>
 7    1  0.5400401E-006  0.2917322E+03  0.7546771E-02  0.1091141E+00
         -2   -1    0    0    0  501 -0.00000000000E+00  0.00000000000E+00  0.32899076533E+02  0.32899076533E+02  0.00000000000E+00 0.  1.
          2   -1    0    0  501    0  0.00000000000E+00 -0.00000000000E+00 -0.24765298970E+04  0.24765298970E+04  0.00000000000E+00 0. -1.
         23    2    1    2    0    0 -0.20666282989E+03  0.16362590514E+03 -0.12182526060E+04  0.12526959192E+04  0.12499876741E+03 0.  0.
          5    1    3    3  502    0 -0.93774463755E+02  0.16623132155E+02 -0.26631045423E+03  0.28286626983E+03  0.47000000000E+01 0. -1.
         -5    1    3    3    0  502 -0.11288836613E+03  0.14700277299E+03 -0.95194215179E+03  0.96982964938E+03  0.47000000000E+01 0. -1.
        -11    1    1    2    0    0  0.46275698841E+02 -0.89579112546E+02 -0.50951386734E+03  0.51939410732E+03  0.00000000000E+00 0.  1.
         11    1    1    2    0    0  0.16038713105E+03 -0.74046792595E+02 -0.71586434711E+03  0.73733894700E+03  0.00000000000E+00 0. -1.
<mgrwt>
<rscale>  0 0.28848880E+03</rscale>
<asrwt>0</asrwt>
<pdfrwt beam="2">  1        2 0.38100466E+00 0.29173216E+03</pdfrwt>
<pdfrwt beam="1">  1       -2 0.50613956E-02 0.29173216E+03</pdfrwt>
<totfact> 0.79124646E+02</totfact>
</mgrwt>
</event>
<event>
 7    1  0.5400401E-006  0.1267419E+03  0.7546771E-02  0.1247693E+00
         -2   -1    0    0    0  501 -0.00000000000E+00  0.00000000000E+00  0.24862624701E+02  0.24862624701E+02  0.00000000000E+00 0.  1.
          2   -1    0    0  501    0  0.00000000000E+00 -0.00000000000E+00 -0.51444988682E+03  0.51444988682E+03  0.00000000000E+00 0. -1.
         23    2    1    2    0    0 -0.18391729139E+02 -0.10022959643E+02 -0.21647623056E+03  0.25084948402E+03  0.12499915926E+03 0.  0.
          5    1    3    3  502    0 -0.13070937891E+02 -0.93191119239E+01  0.13048226154E+02  0.21214180874E+02  0.47000000000E+01 0. -1.
         -5    1    3    3    0  502 -0.53207912473E+01 -0.70384771905E+00 -0.22952445672E+03  0.22963530315E+03  0.47000000000E+01 0. -1.
        -11    1    1    2    0    0  0.41972811488E+01  0.46284062245E+02 -0.90376477654E+02  0.10162548549E+03  0.00000000000E+00 0.  1.
         11    1    1    2    0    0  0.14194447990E+02 -0.36261102603E+02 -0.18273455390E+03  0.18683754201E+03  0.00000000000E+00 0. -1.
<mgrwt>
<rscale>  0 0.11725641E+03</rscale>
<asrwt>0</asrwt>
<pdfrwt beam="2">  1        2 0.79146128E-01 0.12674188E+03</pdfrwt>
<pdfrwt beam="1">  1       -2 0.38250196E-02 0.12674188E+03</pdfrwt>
<totfact> 0.16637982E+04</totfact>
</mgrwt>
</event>
<event>
 7    1  0.5400401E-006  0.1648071E+03  0.7546771E-02  0.1191064E+00
         -1   -1    0    0    0  501 -0.00000000000E+00  0.00000000000E+00  0.38210066338E+03  0.38210066338E+03  0.00000000000E+00 0.  1.
          1   -1    0    0  501    0  0.00000000000E+00 -0.00000000000E+00 -0.61582198014E+02  0.61582198014E+02  0.00000000000E+00 0. -1.
         23    2    1    2    0    0  0.10641496957E+03 -0.14565247535E+02  0.20470742588E+03  0.26280506965E+03  0.12500032895E+03 0.  0.
          5    1    3    3  502    0  0.64926988927E+02  0.53959567694E+02  0.10651825832E+03  0.13599771392E+03  0.47000000000E+01 0. -1.
         -5    1    3    3    0  502  0.41487980638E+02 -0.68524815229E+02  0.98189167558E+02  0.12680735572E+03  0.47000000000E+01 0. -1.
        -11    1    1    2    0    0 -0.16302640515E+02  0.40363606040E+02  0.24174122255E+02  0.49793422931E+02  0.00000000000E+00 0. -1.
         11    1    1    2    0    0 -0.90112329050E+02 -0.25798358505E+02  0.91636917235E+02  0.13108436882E+03  0.00000000000E+00 0.  1.
<mgrwt>
<rscale>  0 0.15792084E+03</rscale>
<asrwt>0</asrwt>
<pdfrwt beam="2">  1        1 0.94741845E-02 0.16480708E+03</pdfrwt>
<pdfrwt beam="1">  1       -1 0.58784716E-01 0.16480708E+03</pdfrwt>
<totfact> 0.20451396E+03</totfact>
</mgrwt>
</event>
<event>
 7    1  0.5400401E-006  0.1456765E+03  0.7546771E-02  0.1215746E+00
         -2   -1    0    0    0  501 -0.00000000000E+00  0.00000000000E+00  0.35308925133E+03  0.35308925133E+03  0.00000000000E+00 0. -1.
          2   -1    0    0  501    0  0.00000000000E+00 -0.00000000000E+00 -0.53208830640E+02  0.53208830640E+02  0.00000000000E+00 0.  1.
         23    2    1    2    0    0  0.11418160268E+02  0.73932318970E+02  0.21961039082E+03  0.26353439096E+03  0.12500115716E+03 0.  0.
          5    1    3    3  502    0 -0.12431910746E+02  0.74461014228E+02  0.22606060390E+03  0.23837886165E+03  0.47000000000E+01 0. -1.
         -5    1    3    3    0  502  0.23850071014E+02 -0.52869525814E+00 -0.64502130856E+01  0.25155529311E+02  0.47000000000E+01 0. -1.
        -11    1    1    2    0    0 -0.17118222004E+02 -0.25772546457E+02 -0.16101052084E+02  0.34878382326E+02  0.00000000000E+00 0.  1.
         11    1    1    2    0    0  0.57000617357E+01 -0.48159772513E+02  0.96371081955E+02  0.10788530868E+03  0.00000000000E+00 0. -1.
<mgrwt>
<rscale>  0 0.13821908E+03</rscale>
<asrwt>0</asrwt>
<pdfrwt beam="2">  1        2 0.81859742E-02 0.14567653E+03</pdfrwt>
<pdfrwt beam="1">  1       -2 0.54321422E-01 0.14567653E+03</pdfrwt>
<totfact> 0.25869077E+03</totfact>
</mgrwt>
</event>
<event>
 7    1  0.5400401E-006  0.1497400E+03  0.7546771E-02  0.1211747E+00
         -2   -1    0    0    0  501 -0.00000000000E+00  0.00000000000E+00  0.66642358404E+02  0.66642358404E+02  0.00000000000E+00 0.  1.
          2   -1    0    0  501    0  0.00000000000E+00 -0.00000000000E+00 -0.27506762450E+03  0.27506762450E+03  0.00000000000E+00 0. -1.
         23    2    1    2    0    0 -0.44912881348E+02  0.78946231474E+02 -0.92224244099E+02  0.17586177500E+03  0.11904779852E+03 0.  0.
          5    1    3    3  502    0 -0.45871938024E+02  0.18468285321E+02 -0.10289973280E+03  0.11426179270E+03  0.47000000000E+01 0. -1.
         -5    1    3    3    0  502  0.95905667651E+00  0.60477946153E+02  0.10675488702E+02  0.61599982302E+02  0.47000000000E+01 0.  1.
        -11    1    1    2    0    0  0.12162121801E+02 -0.61831529664E+02 -0.11219210391E+03  0.12867837210E+03  0.00000000000E+00 0. -1.
         11    1    1    2    0    0  0.32750759546E+02 -0.17114701810E+02 -0.40089180850E+01  0.37169835796E+02  0.00000000000E+00 0.  1.
<mgrwt>
<rscale>  0 0.14118245E+03</rscale>
<asrwt>0</asrwt>
<pdfrwt beam="2">  1        2 0.42318096E-01 0.14973995E+03</pdfrwt>
<pdfrwt beam="1">  1       -2 0.10252671E-01 0.14973995E+03</pdfrwt>
<totfact> 0.73346245E+03</totfact>
</mgrwt>
</event>
<event>
 7    1  0.5400401E-006  0.1735650E+03  0.7546771E-02  0.1180864E+00
          1   -1    0    0  501    0  0.00000000000E+00  0.00000000000E+00  0.14997194296E+03  0.14997194296E+03  0.00000000000E+00 0. -1.
         -1   -1    0    0    0  501 -0.00000000000E+00 -0.00000000000E+00 -0.18333557544E+03  0.18333557544E+03  0.00000000000E+00 0.  1.
         23    2    1    2    0    0  0.70397193397E+02 -0.97687660235E+02 -0.55930741834E+02  0.18235419593E+03  0.12500464428E+03 0.  0.
          5    1    3    3  502    0  0.61825579289E+02 -0.12741669000E+03 -0.51382296706E+02  0.15073037371E+03  0.47000000000E+01 0.  1.
         -5    1    3    3    0  502  0.85716141084E+01  0.29729029761E+02 -0.45484451283E+01  0.31623822223E+02  0.47000000000E+01 0.  1.
        -11    1    1    2    0    0 -0.38550841637E+02  0.48562338558E+02 -0.32998219935E+02  0.70237814858E+02  0.00000000000E+00 0.  1.
         11    1    1    2    0    0 -0.31846351760E+02  0.49125321677E+02  0.55565329282E+02  0.80715507609E+02  0.00000000000E+00 0. -1.
<mgrwt>
<rscale>  0 0.16713993E+03</rscale>
<asrwt>0</asrwt>
<pdfrwt beam="1">  1        1 0.23072607E-01 0.17356499E+03</pdfrwt>
<pdfrwt beam="2">  1       -1 0.28205473E-01 0.17356499E+03</pdfrwt>
<totfact> 0.23635818E+03</totfact>
</mgrwt>
</event>
<event>
 6    1  0.5400401E-006  0.2567702E+03  0.7546771E-02  0.1114147E+00
          1   -1    0    0  501    0  0.00000000000E+00  0.00000000000E+00  0.72788336191E+03  0.72788336191E+03  0.00000000000E+00 0. -1.
         -1   -1    0    0    0  501 -0.00000000000E+00 -0.00000000000E+00 -0.20428156531E+03  0.20428156531E+03  0.00000000000E+00 0.  1.
          5    1    1    2  502    0 -0.79339914429E+02 -0.34311706546E+02 -0.60467986841E+02  0.10559631935E+03  0.47000000000E+01 0. -1.
         -5    1    1    2    0  502  0.17660754957E+02 -0.16356467950E+03 -0.34402575927E+02  0.16813962614E+03  0.47000000000E+01 0.  1.
        -11    1    1    2    0    0 -0.23338284447E+02  0.51033382714E+02  0.14614255499E+03  0.15654624892E+03  0.00000000000E+00 0.  1.
         11    1    1    2    0    0  0.85017443920E+02  0.14684300333E+03  0.47232980437E+03  0.50188273281E+03  0.00000000000E+00 0. -1.
<mgrwt>
<rscale>  0 0.24867192E+03</rscale>
<asrwt>0</asrwt>
<pdfrwt beam="1">  1        1 0.11198205E+00 0.25677022E+03</pdfrwt>
<pdfrwt beam="2">  1       -1 0.31427933E-01 0.25677022E+03</pdfrwt>
<totfact> 0.25366115E+02</totfact>
</mgrwt>
</event>
<event>
 7    1  0.5400401E-006  0.1553813E+03  0.7546771E-02  0.1201916E+00
          2   -1    0    0  501    0  0.00000000000E+00  0.00000000000E+00  0.45701859954E+02  0.45701859954E+02  0.00000000000E+00 0. -1.
         -2   -1    0    0    0  501 -0.00000000000E+00 -0.00000000000E+00 -0.46977477321E+03  0.46977477321E+03  0.00000000000E+00 0.  1.
         23    2    1    2    0    0 -0.49735537617E+02  0.77906889133E+02 -0.28472203589E+03  0.32436088076E+03  0.12490090541E+03 0.  0.
          5    1    3    3  502    0 -0.39129887702E+02 -0.27901895177E+02 -0.10304704208E+03  0.11380002964E+03  0.47000000000E+01 0. -1.
         -5    1    3    3    0  502 -0.10605649915E+02  0.10580878431E+03 -0.18167499381E+03  0.21056085112E+03  0.47000000000E+01 0. -1.
        -11    1    1    2    0    0 -0.19082088956E+02 -0.26717564096E+02 -0.80942915074E+02  0.87348210347E+02  0.00000000000E+00 0. -1.
         11    1    1    2    0    0  0.68817626573E+02 -0.51189325037E+02 -0.58407962292E+02  0.10376754205E+03  0.00000000000E+00 0.  1.
<mgrwt>
<rscale>  0 0.14883133E+03</rscale>
<asrwt>0</asrwt>
<pdfrwt beam="1">  1        2 0.70310553E-02 0.15538128E+03</pdfrwt>
<pdfrwt beam="2">  1       -2 0.72273042E-01 0.15538128E+03</pdfrwt>
<totfact> 0.17387995E+03</totfact>
</mgrwt>
</event>
<event>
 7    1  0.5400401E-006  0.1895790E+03  0.7546771E-02  0.1163836E+00
          1   -1    0    0  501    0  0.00000000000E+00  0.00000000000E+00  0.26330691520E+03  0.26330691520E+03  0.00000000000E+00 0. -1.
         -1   -1    0    0    0  501 -0.00000000000E+00 -0.00000000000E+00 -0.14590224619E+03  0.14590224619E+03  0.00000000000E+00 0.  1.
         23    2    1    2    0    0 -0.22647407990E+02 -0.14071900262E+03 -0.21226877062E+02  0.19076367104E+03  0.12500182035E+03 0.  0.
          5    1    3    3  502    0  0.51327014276E+02 -0.50534950362E+02 -0.15854851230E+02  0.73903382264E+02  0.47000000000E+01 0.  1.
         -5    1    3    3    0  502 -0.73974422266E+02 -0.90184052254E+02 -0.53720258322E+01  0.11686028877E+03  0.47000000000E+01 0.  1.
        -11    1    1    2    0    0 -0.75061556150E+01  0.93183450291E+02  0.33711394171E+02  0.99377843996E+02  0.00000000000E+00 0.  1.
         11    1    1    2    0    0  0.30153563605E+02  0.47535552324E+02  0.10492015191E+03  0.11906764636E+03  0.00000000000E+00 0. -1.
<mgrwt>
<rscale>  0 0.18416104E+03</rscale>
<asrwt>0</asrwt>
<pdfrwt beam="1">  1        1 0.40508756E-01 0.18957900E+03</pdfrwt>
<pdfrwt beam="2">  1       -1 0.22446500E-01 0.18957900E+03</pdfrwt>
<totfact> 0.17065875E+03</totfact>
</mgrwt>
</event>
<event>
 7    1  0.5400401E-006  0.1286610E+03  0.7546771E-02  0.1242485E+00
          2   -1    0    0  501    0  0.00000000000E+00  0.00000000000E+00  0.56486872988E+03  0.56486872988E+03  0.00000000000E+00 0. -1.
         -2   -1    0    0    0  501 -0.00000000000E+00 -0.00000000000E+00 -0.23971180052E+02  0.23971180052E+02  0.00000000000E+00 0.  1.
         23    2    1    2    0    0  0.26250136660E+02 -0.15444278984E+02  0.24153120812E+03  0.27366213992E+03  0.12500418755E+03 0.  0.
          5    1    3    3  502    0  0.30892929461E+02 -0.67414406900E+02  0.16451500019E+03  0.18051689848E+03  0.47000000000E+01 0. -1.
         -5    1    3    3    0  502 -0.46427928013E+01  0.51970127916E+02  0.77016207921E+02  0.93145241441E+02  0.47000000000E+01 0. -1.
        -11    1    1    2    0    0 -0.40363918193E+02 -0.29871667314E+02  0.17501315358E+03  0.18207461747E+03  0.00000000000E+00 0. -1.
         11    1    1    2    0    0  0.14113781533E+02  0.45315946298E+02  0.12435318813E+03  0.13310315254E+03  0.00000000000E+00 0.  1.
<mgrwt>
<rscale>  0 0.12037204E+03</rscale>
<asrwt>0</asrwt>
<pdfrwt beam="1">  1        2 0.86902872E-01 0.12866096E+03</pdfrwt>
<pdfrwt beam="2">  1       -2 0.36878743E-02 0.12866096E+03</pdfrwt>
<totfact> 0.15850516E+04</totfact>
</mgrwt>
</event>
<event>
 7    1  0.5400401E-006  0.1851808E+03  0.7546771E-02  0.1168187E+00
          2   -1    0    0  501    0  0.00000000000E+00  0.00000000000E+00  0.16766957425E+03  0.16766957425E+03  0.00000000000E+00 0. -1.
         -2   -1    0    0    0  501 -0.00000000000E+00 -0.00000000000E+00 -0.21210176068E+03  0.21210176068E+03  0.00000000000E+00 0.  1.
         23    2    1    2    0    0  0.13640503332E+03  0.77090981677E+01  0.48452982037E+02  0.19141482323E+03  0.12500471900E+03 0.  0.
          5    1    3    3  502    0  0.13301744556E+03 -0.17189560350E+02 -0.26963947838E+01  0.13423294064E+03  0.47000000000E+01 0.  1.
         -5    1    3    3    0  502  0.33875877601E+01  0.24898658517E+02  0.51149376821E+02  0.57181882585E+02  0.47000000000E+01 0.  1.
        -11    1    1    2    0    0 -0.93597385310E+01 -0.10932462583E+02 -0.53358596169E+02  0.55265389066E+02  0.00000000000E+00 0.  1.
         11    1    1    2    0    0 -0.12704529479E+03  0.32233644157E+01 -0.39526572296E+02  0.13309112264E+03  0.00000000000E+00 0. -1.
<mgrwt>
<rscale>  0 0.17960405E+03</rscale>
<asrwt>0</asrwt>
<pdfrwt beam="1">  1        2 0.25795319E-01 0.18518084E+03</pdfrwt>
<pdfrwt beam="2">  1       -2 0.32631040E-01 0.18518084E+03</pdfrwt>
<totfact> 0.17929560E+03</totfact>
</mgrwt>
</event>
<event>
 7    1  0.5400401E-006  0.1282480E+03  0.7546771E-02  0.1242372E+00
          1   -1    0    0  501    0  0.00000000000E+00  0.00000000000E+00  0.50361057349E+02  0.50361057349E+02  0.00000000000E+00 0. -1.
         -1   -1    0    0    0  501 -0.00000000000E+00 -0.00000000000E+00 -0.25806653991E+03  0.25806653991E+03  0.00000000000E+00 0.  1.
         23    2    1    2    0    0 -0.24072148315E+02  0.15571607339E+02 -0.11645793162E+03  0.17323392358E+03  0.12500239663E+03 0.  0.
          5    1    3    3  502    0 -0.24777342885E+02 -0.18872022678E+02  0.16671800731E+02  0.35638587234E+02  0.47000000000E+01 0. -1.
         -5    1    3    3    0  502  0.70519457018E+00  0.34443630017E+02 -0.13312973235E+03  0.13759533635E+03  0.47000000000E+01 0. -1.
        -11    1    1    2    0    0 -0.25151646833E+02 -0.16989340666E+02  0.12788847432E+01  0.30378916716E+02  0.00000000000E+00 0. -1.
         11    1    1    2    0    0  0.49223795148E+02  0.14177333270E+01 -0.92526435684E+02  0.10481475696E+03  0.00000000000E+00 0.  1.
<mgrwt>
<rscale>  0 0.12044046E+03</rscale>
<asrwt>0</asrwt>
<pdfrwt beam="1">  1        1 0.77478551E-02 0.12824797E+03</pdfrwt>
<pdfrwt beam="2">  1       -1 0.39702544E-01 0.12824797E+03</pdfrwt>
<totfact> 0.53916313E+03</totfact>
</mgrwt>
</event>
<event>
 7    1  0.5400401E-006  0.1261668E+03  0.7546771E-02  0.1248899E+00
         -2   -1    0    0    0  501 -0.00000000000E+00  0.00000000000E+00  0.15601605724E+03  0.15601605724E+03  0.00000000000E+00 0.  1.
          2   -1    0    0  501    0  0.00000000000E+00 -0.00000000000E+00 -0.79643907697E+02  0.79643907697E+02  0.00000000000E+00 0. -1.
         23    2    1    2    0    0  0.14198296317E+02  0.95349534839E+01  0.68194003192E+02  0.14341717270E+03  0.12500222557E+03 0.  0.
          5    1    3    3  502    0 -0.30273546377E+02  0.54112872120E+02  0.25576451075E+02  0.67237901431E+02  0.47000000000E+01 0.  1.
         -5    1    3    3    0  502  0.44471842694E+02 -0.44577918636E+02  0.42617552117E+02  0.76179271268E+02  0.47000000000E+01 0.  1.
        -11    1    1    2    0    0 -0.42347054763E+02  0.63801364581E+01 -0.21882732742E+02  0.48091924276E+02  0.00000000000E+00 0. -1.
         11    1    1    2    0    0  0.28148758446E+02 -0.15915089942E+02  0.30060879090E+02  0.44150867959E+02  0.00000000000E+00 0.  1.
<mgrwt>
<rscale>  0 0.11655034E+03</rscale>
<asrwt>0</asrwt>
<pdfrwt beam="2">  1        2 0.12252909E-01 0.12616681E+03</pdfrwt>
<pdfrwt beam="1">  1       -2 0.24002470E-01 0.12616681E+03</pdfrwt>
<totfact> 0.71513207E+03</totfact>
</mgrwt>
</event>
<event>
 7    1  0.5400401E-006  0.1304156E+03  0.7546771E-02  0.1239988E+00
          2   -1    0    0  501    0  0.00000000000E+00  0.00000000000E+00  0.72353129178E+02  0.72353129178E+02  0.00000000000E+00 0. -1.
         -2   -1    0    0    0  501 -0.00000000000E+00 -0.00000000000E+00 -0.89940627786E+03  0.89940627786E+03  0.00000000000E+00 0.  1.
         23    2    1    2    0    0  0.19157141515E+02 -0.29641221661E+02 -0.85772322522E+03  0.86758133076E+03  0.12554933814E+03 0.  0.
          5    1    3    3  502    0  0.42770690475E+02  0.38038689647E+02 -0.43902514593E+03  0.44276567464E+03  0.47000000000E+01 0. -1.
         -5    1    3    3    0  502 -0.23613548959E+02 -0.67679911308E+02 -0.41869807929E+03  0.42481565612E+03  0.47000000000E+01 0.  1.
        -11    1    1    2    0    0 -0.43252901031E+02  0.45829984940E+02  0.15150515309E+01  0.63035675203E+02  0.00000000000E+00 0. -1.
         11    1    1    2    0    0  0.24095759516E+02 -0.16188763279E+02  0.29155025007E+02  0.41142401076E+02  0.00000000000E+00 0.  1.
<mgrwt>
<rscale>  0 0.12190448E+03</rscale>
<asrwt>0</asrwt>
<pdfrwt beam="1">  1        2 0.11131250E-01 0.13041562E+03</pdfrwt>
<pdfrwt beam="2">  1       -2 0.13837020E+00 0.13041562E+03</pdfrwt>
<totfact> 0.21817568E+02</totfact>
</mgrwt>
</event>
<event>
 7    1  0.5400401E-006  0.1446221E+03  0.7546771E-02  0.1217270E+00
         -1   -1    0    0    0  501 -0.00000000000E+00  0.00000000000E+00  0.37038688395E+03  0.37038688395E+03  0.00000000000E+00 0.  1.
          1   -1    0    0  501    0  0.00000000000E+00 -0.00000000000E+00 -0.51023495035E+02  0.51023495035E+02  0.00000000000E+00 0. -1.
         23    2    1    2    0    0 -0.23810667975E+02  0.68736453041E+02  0.23986621242E+03  0.28009169036E+03  0.12499562897E+03 0.  0.
          5    1    3    3  502    0 -0.97841499950E+01 -0.10007327863E+02 -0.99089559566E+01  0.17780708935E+02  0.47000000000E+01 0. -1.
         -5    1    3    3    0  502 -0.14026517980E+02  0.78743780904E+02  0.24977516838E+03  0.26231098143E+03  0.47000000000E+01 0. -1.
        -11    1    1    2    0    0  0.18421673481E+00 -0.63512171857E+02  0.93748239198E+02  0.11323675314E+03  0.00000000000E+00 0.  1.
         11    1    1    2    0    0  0.23626451240E+02 -0.52242811833E+01 -0.14251062705E+02  0.28081935480E+02  0.00000000000E+00 0. -1.
<mgrwt>
<rscale>  0 0.13711099E+03</rscale>
<asrwt>0</asrwt>
<pdfrwt beam="2">  1        1 0.78497687E-02 0.14462211E+03</pdfrwt>
<pdfrwt beam="1">  1       -1 0.56982596E-01 0.14462211E+03</pdfrwt>
<totfact> 0.27748481E+03</totfact>
</mgrwt>
</event>
<event>
 7    1  0.5400401E-006  0.1221540E+03  0.7546771E-02  0.1256675E+00
         -2   -1    0    0    0  501 -0.00000000000E+00  0.00000000000E+00  0.23324579053E+03  0.23324579053E+03  0.00000000000E+00 0.  1.
          2   -1    0    0  501    0  0.00000000000E+00 -0.00000000000E+00 -0.55183674377E+02  0.55183674377E+02  0.00000000000E+00 0. -1.
         23    2    1    2    0    0  0.17833940429E+02  0.80106031884E+01  0.15745898043E+03  0.19928607505E+03  0.12057939292E+03 0.  0.
          5    1    3    3  502    0 -0.31468991507E+02 -0.30260346149E+02  0.20004356783E+02  0.48251945721E+02  0.47000000000E+01 0. -1.
         -5    1    3    3    0  502  0.49302931936E+02  0.38270949338E+02  0.13745462364E+03  0.15103412933E+03  0.47000000000E+01 0.  1.
        -11    1    1    2    0    0 -0.27221100702E+02 -0.35451058915E+02 -0.11224456914E+02  0.46084209168E+02  0.00000000000E+00 0.  1.
         11    1    1    2    0    0  0.93871602735E+01  0.27440455727E+02  0.31827592646E+02  0.43059180695E+02  0.00000000000E+00 0. -1.
<mgrwt>
<rscale>  0 0.11213029E+03</rscale>
<asrwt>0</asrwt>
<pdfrwt beam="2">  1        2 0.84897962E-02 0.12215404E+03</pdfrwt>
<pdfrwt beam="1">  1       -2 0.35883967E-01 0.12215404E+03</pdfrwt>
<totfact> 0.54366644E+03</totfact>
</mgrwt>
</event>
<event>
 7    1  0.5400401E-006  0.1415712E+03  0.7546771E-02  0.1224486E+00
          2   -1    0    0  501    0  0.00000000000E+00  0.00000000000E+00  0.27160064825E+03  0.27160064825E+03  0.00000000000E+00 0. -1.
         -2   -1    0    0    0  501 -0.00000000000E+00 -0.00000000000E+00 -0.10244472461E+03  0.10244472461E+03  0.00000000000E+00 0.  1.
         23    2    1    2    0    0 -0.65814610817E+02 -0.93034514850E+01 -0.32928231205E+02  0.14535021086E+03  0.12499719268E+03 0.  0.
          5    1    3    3  502    0 -0.36128230234E+01  0.45922380494E+02 -0.40736360143E+02  0.61672186261E+02  0.47000000000E+01 0.  1.
         -5    1    3    3    0  502 -0.62201787794E+02 -0.55225831979E+02  0.78081289387E+01  0.83678024595E+02  0.47000000000E+01 0.  1.
        -11    1    1    2    0    0  0.95693058768E+01 -0.15824551237E+02  0.11487197273E+01  0.18528561569E+02  0.00000000000E+00 0.  1.
         11    1    1    2    0    0  0.56245304941E+02  0.25128002722E+02  0.20093543512E+03  0.21016660043E+03  0.00000000000E+00 0. -1.
<mgrwt>
<rscale>  0 0.13202184E+03</rscale>
<asrwt>0</asrwt>
<pdfrwt beam="1">  1        2 0.41784715E-01 0.14157124E+03</pdfrwt>
<pdfrwt beam="2">  1       -2 0.15760727E-01 0.14157124E+03</pdfrwt>
<totfact> 0.37091865E+03</totfact>
</mgrwt>
</event>
<event>
 7    1  0.5400401E-006  0.2250523E+03  0.7546771E-02  0.1133438E+00
         -2   -1    0    0    0  501 -0.00000000000E+00  0.00000000000E+00  0.67770261267E+02  0.67770261267E+02  0.00000000000E+00 0.  1.
          2   -1    0    0  501    0  0.00000000000E+00 -0.00000000000E+00 -0.69738758806E+03  0.69738758806E+03  0.00000000000E+00 0. -1.
         23    2    1    2    0    0  0.45360515422E+02  0.18155965211E+03 -0.36376077137E+03  0.42775043328E+03  0.12500820272E+03 0.  0.
          5    1    3    3  502    0  0.54548182054E+02  0.73847403711E+02 -0.26774454316E+03  0.28308686581E+03  0.47000000000E+01 0.  1.
         -5    1    3    3    0  502 -0.91876666323E+01  0.10771224840E+03 -0.96016228211E+02  0.14466356747E+03  0.47000000000E+01 0.  1.
        -11    1    1    2    0    0 -0.26505160684E+02 -0.33927732476E+02 -0.12608857153E+03  0.13323641561E+03  0.00000000000E+00 0. -1.
         11    1    1    2    0    0 -0.18855354738E+02 -0.14763191964E+03 -0.13976798388E+03  0.20417100043E+03  0.00000000000E+00 0.  1.
<mgrwt>
<rscale>  0 0.22059866E+03</rscale>
<asrwt>0</asrwt>
<pdfrwt beam="2">  1        2 0.10729039E+00 0.22505229E+03</pdfrwt>
<pdfrwt beam="1">  1       -2 0.10426195E-01 0.22505229E+03</pdfrwt>
<totfact> 0.25994397E+03</totfact>
</mgrwt>
</event>
<event>
 7    1  0.5400401E-006  0.1342198E+03  0.7546771E-02  0.1236144E+00
          3   -1    0    0  501    0  0.00000000000E+00  0.00000000000E+00  0.36601703369E+02  0.36601703369E+02  0.00000000000E+00 0. -1.
         -3   -1    0    0    0  501 -0.00000000000E+00 -0.00000000000E+00 -0.43528991896E+03  0.43528991896E+03  0.00000000000E+00 0.  1.
         23    2    1    2    0    0 -0.46907561355E+02 -0.13704101625E+02 -0.31510333404E+03  0.34249825788E+03  0.12500729505E+03 0.  0.
          5    1    3    3  502    0 -0.52355036221E+02  0.40515020812E+02 -0.24357686719E+03  0.25245652489E+03  0.47000000000E+01 0.  1.
         -5    1    3    3    0  502  0.54474748666E+01 -0.54219122438E+02 -0.71526466845E+02  0.90041732989E+02  0.47000000000E+01 0.  1.
        -11    1    1    2    0    0  0.87938230921E+01  0.12894015282E+02 -0.89468559020E+02  0.90819656506E+02  0.00000000000E+00 0.  1.
         11    1    1    2    0    0  0.38113738262E+02  0.81008634344E+00  0.58836774638E+01  0.38573707946E+02  0.00000000000E+00 0. -1.
<mgrwt>
<rscale>  0 0.12431470E+03</rscale>
<asrwt>0</asrwt>
<pdfrwt beam="1">  1        3 0.56310317E-02 0.13421977E+03</pdfrwt>
<pdfrwt beam="2">  1       -3 0.66967675E-01 0.13421977E+03</pdfrwt>
<totfact> 0.94944596E+02</totfact>
</mgrwt>
</event>
<event>
 7    1  0.5400401E-006  0.1462674E+03  0.7546771E-02  0.1214869E+00
          2   -1    0    0  501    0  0.00000000000E+00  0.00000000000E+00  0.77917674764E+02  0.77917674764E+02  0.00000000000E+00 0. -1.
         -2   -1    0    0    0  501 -0.00000000000E+00 -0.00000000000E+00 -0.25096643276E+03  0.25096643276E+03  0.00000000000E+00 0.  1.
         23    2    1    2    0    0  0.69762514292E+02 -0.30152832195E+02 -0.14673831969E+03  0.20718660535E+03  0.12497261013E+03 0.  0.
          5    1    3    3  502    0  0.25893878118E+02 -0.22301339970E+02 -0.15738946283E+03  0.16112534158E+03  0.47000000000E+01 0. -1.
         -5    1    3    3    0  502  0.43868636173E+02 -0.78514922249E+01  0.10651143148E+02  0.46061263772E+02  0.47000000000E+01 0. -1.
        -11    1    1    2    0    0 -0.59298471933E+02 -0.23687033078E+02 -0.16850963205E+02  0.66040436632E+02  0.00000000000E+00 0. -1.
         11    1    1    2    0    0 -0.10464042359E+02  0.53839865273E+02 -0.94594751055E+01  0.55657065539E+02  0.00000000000E+00 0.  1.
<mgrwt>
<rscale>  0 0.13886170E+03</rscale>
<asrwt>0</asrwt>
<pdfrwt beam="1">  1        2 0.11987335E-01 0.14626741E+03</pdfrwt>
<pdfrwt beam="2">  1       -2 0.38610220E-01 0.14626741E+03</pdfrwt>
<totfact> 0.31454284E+03</totfact>
</mgrwt>
</event>
<event>
 7    1  0.5400401E-006  0.1266844E+03  0.7546771E-02  0.1247810E+00
         -2   -1    0    0    0  501 -0.00000000000E+00  0.00000000000E+00  0.11582773678E+03  0.11582773678E+03  0.00000000000E+00 0.  1.
          2   -1    0    0  501    0  0.00000000000E+00 -0.00000000000E+00 -0.10421256752E+03  0.10421256752E+03  0.00000000000E+00 0. -1.
         23    2    1    2    0    0  0.57907375500E+01  0.19774531283E+02  0.11179065608E+01  0.12668934078E+03  0.12499749846E+03 0.  0.
          5    1    3    3  502    0  0.28712122300E+02  0.63908561204E+02 -0.19145807701E+02  0.72782842172E+02  0.47000000000E+01 0.  1.
         -5    1    3    3    0  502 -0.22921384750E+02 -0.44134029921E+02  0.20263714262E+02  0.53906498603E+02  0.47000000000E+01 0.  1.
        -11    1    1    2    0    0 -0.75085677007E+01  0.94240945881E+01 -0.36253988410E+02  0.38203976539E+02  0.00000000000E+00 0. -1.
         11    1    1    2    0    0  0.17178301507E+01 -0.29198625871E+02  0.46751251108E+02  0.55146986984E+02  0.00000000000E+00 0.  1.
<mgrwt>
<rscale>  0 0.11718749E+03</rscale>
<asrwt>0</asrwt>
<pdfrwt beam="2">  1        2 0.16032703E-01 0.12668441E+03</pdfrwt>
<pdfrwt beam="1">  1       -2 0.17819652E-01 0.12668441E+03</pdfrwt>
<totfact> 0.86416058E+03</totfact>
</mgrwt>
</event>
<event>
 7    1  0.5400401E-006  0.1362983E+03  0.7546771E-02  0.1231019E+00
         -2   -1    0    0    0  501 -0.00000000000E+00  0.00000000000E+00  0.44410381946E+03  0.44410381946E+03  0.00000000000E+00 0.  1.
          2   -1    0    0  501    0  0.00000000000E+00 -0.00000000000E+00 -0.44842401160E+02  0.44842401160E+02  0.00000000000E+00 0. -1.
         23    2    1    2    0    0  0.38679063952E+02  0.38155257182E+02  0.34499267671E+03  0.37094091587E+03  0.12500128979E+03 0.  0.
          5    1    3    3  502    0  0.61362599605E+02 -0.21209648443E+02  0.11354448637E+03  0.13088032015E+03  0.47000000000E+01 0.  1.
         -5    1    3    3    0  502 -0.22683535653E+02  0.59364905625E+02  0.23144819034E+03  0.24006059573E+03  0.47000000000E+01 0.  1.
        -11    1    1    2    0    0  0.17162993732E+02 -0.58064209117E+01 -0.14861423077E+02  0.23433838216E+02  0.00000000000E+00 0. -1.
         11    1    1    2    0    0 -0.55842057684E+02 -0.32348836271E+02  0.69130164673E+02  0.94571466533E+02  0.00000000000E+00 0.  1.
<mgrwt>
<rscale>  0 0.12762736E+03</rscale>
<asrwt>0</asrwt>
<pdfrwt beam="2">  1        2 0.68988313E-02 0.13629826E+03</pdfrwt>
<pdfrwt beam="1">  1       -2 0.68323661E-01 0.13629826E+03</pdfrwt>
<totfact> 0.19935700E+03</totfact>
</mgrwt>
</event>
<event>
 7    1  0.5400401E-006  0.1384264E+03  0.7546771E-02  0.1228168E+00
         -2   -1    0    0    0  501 -0.00000000000E+00  0.00000000000E+00  0.66675540514E+02  0.66675540514E+02  0.00000000000E+00 0.  1.
          2   -1    0    0  501    0  0.00000000000E+00 -0.00000000000E+00 -0.22475143162E+03  0.22475143162E+03  0.00000000000E+00 0. -1.
         23    2    1    2    0    0  0.58929239157E+02 -0.80938178435E+01 -0.82255550373E+02  0.16102123986E+03  0.12499479591E+03 0.  0.
          5    1    3    3  502    0  0.76893807364E+02 -0.55835631895E+01 -0.10575967369E+03  0.13096195008E+03  0.47000000000E+01 0. -1.
         -5    1    3    3    0  502 -0.17964568206E+02 -0.25102546540E+01  0.23504123321E+02  0.30059289784E+02  0.47000000000E+01 0. -1.
        -11    1    1    2    0    0 -0.20650493578E+02 -0.47434091189E+01 -0.86161453442E+02  0.88728455832E+02  0.00000000000E+00 0. -1.
         11    1    1    2    0    0 -0.38278745579E+02  0.12837226962E+02  0.10341112709E+02  0.41677276438E+02  0.00000000000E+00 0.  1.
<mgrwt>
<rscale>  0 0.12952144E+03</rscale>
<asrwt>0</asrwt>
<pdfrwt beam="2">  1        2 0.34577144E-01 0.13842639E+03</pdfrwt>
<pdfrwt beam="1">  1       -2 0.10257775E-01 0.13842639E+03</pdfrwt>
<totfact> 0.90438905E+03</totfact>
</mgrwt>
</event>
<event>
 7    1  0.5400401E-006  0.1292468E+03  0.7546771E-02  0.1242220E+00
          1   -1    0    0  501    0  0.00000000000E+00  0.00000000000E+00  0.47039777678E+02  0.47039777678E+02  0.00000000000E+00 0. -1.
         -1   -1    0    0    0  501 -0.00000000000E+00 -0.00000000000E+00 -0.32937526065E+03  0.32937526065E+03  0.00000000000E+00 0.  1.
         23    2    1    2    0    0  0.28382964981E+02 -0.16505219484E+02 -0.23408065155E+03  0.26739199239E+03  0.12500684459E+03 0.  0.
          5    1    3    3  502    0  0.13771877919E+02 -0.56039943810E+02 -0.21162889609E+03  0.21940606095E+03  0.47000000000E+01 0. -1.
         -5    1    3    3    0  502  0.14611087063E+02  0.39534724326E+02 -0.22451755459E+02  0.47985931437E+02  0.47000000000E+01 0. -1.
        -11    1    1    2    0    0 -0.44181817940E+02  0.46306952582E+02 -0.30332313532E+02  0.70826662622E+02  0.00000000000E+00 0.  1.
         11    1    1    2    0    0  0.15798852959E+02 -0.29801733099E+02 -0.17922517888E+02  0.38196383310E+02  0.00000000000E+00 0. -1.
<mgrwt>
<rscale>  0 0.12053350E+03</rscale>
<asrwt>0</asrwt>
<pdfrwt beam="1">  1        1 0.72368890E-02 0.12924676E+03</pdfrwt>
<pdfrwt beam="2">  1       -1 0.50673116E-01 0.12924676E+03</pdfrwt>
<totfact> 0.38232403E+03</totfact>
</mgrwt>
</event>
<event>
 7    1  0.5400401E-006  0.1308788E+03  0.7546771E-02  0.1238605E+00
         -2   -1    0    0    0  501 -0.00000000000E+00  0.00000000000E+00  0.20364465989E+03  0.20364465989E+03  0.00000000000E+00 0. -1.
          2   -1    0    0  501    0  0.00000000000E+00 -0.00000000000E+00 -0.12935347817E+03  0.12935347817E+03  0.00000000000E+00 0.  1.
         23    2    1    2    0    0 -0.24319147805E+02  0.30233803652E+02  0.15543141375E+03  0.20319496299E+03  0.12499505898E+03 0.  0.
          5    1    3    3  502    0 -0.68135405475E+02  0.32636526409E+02  0.55220028751E+02  0.93695879901E+02  0.47000000000E+01 0. -1.
         -5    1    3    3    0  502  0.43816257670E+02 -0.24027227562E+01  0.10021138500E+03  0.10949908309E+03  0.47000000000E+01 0. -1.
        -11    1    1    2    0    0  0.24104104055E+02 -0.18313335752E+02 -0.10165991351E+03  0.10607131617E+03  0.00000000000E+00 0.  1.
         11    1    1    2    0    0  0.21504374987E+00 -0.11920467900E+02  0.20519681478E+02  0.23731858898E+02  0.00000000000E+00 0. -1.
<mgrwt>
<rscale>  0 0.12276444E+03</rscale>
<asrwt>0</asrwt>
<pdfrwt beam="2">  1        2 0.19900535E-01 0.13087883E+03</pdfrwt>
<pdfrwt beam="1">  1       -2 0.31329948E-01 0.13087883E+03</pdfrwt>
<totfact> 0.25445146E+03</totfact>
</mgrwt>
</event>
<event>
 7    1  0.5400401E-006  0.1868566E+03  0.7546771E-02  0.1166315E+00
          2   -1    0    0  501    0  0.00000000000E+00  0.00000000000E+00  0.12861198573E+04  0.12861198573E+04  0.00000000000E+00 0.  1.
         -2   -1    0    0    0  501 -0.00000000000E+00 -0.00000000000E+00 -0.24501634722E+02  0.24501634722E+02  0.00000000000E+00 0. -1.
         23    2    1    2    0    0 -0.62843321698E+02 -0.12386504897E+03  0.73022797587E+03  0.75375612587E+03  0.12499426831E+03 0.  0.
          5    1    3    3  502    0 -0.15069443974E+01 -0.10690806394E+03  0.29374862437E+03  0.31263708887E+03  0.47000000000E+01 0.  1.
         -5    1    3    3    0  502 -0.61336377301E+02 -0.16956985025E+02  0.43647935150E+03  0.44111903700E+03  0.47000000000E+01 0.  1.
        -11    1    1    2    0    0  0.72490303592E+02  0.46061753398E+02  0.23223713112E+03  0.24760980254E+03  0.00000000000E+00 0.  1.
         11    1    1    2    0    0 -0.96469818939E+01  0.77803295567E+02  0.29915311559E+03  0.30925556362E+03  0.00000000000E+00 0. -1.
<mgrwt>
<rscale>  0 0.18154625E+03</rscale>
<asrwt>0</asrwt>
<pdfrwt beam="1">  1        2 0.19786454E+00 0.18685663E+03</pdfrwt>
<pdfrwt beam="2">  1       -2 0.37694833E-02 0.18685663E+03</pdfrwt>
<totfact> 0.53180820E+03</totfact>
</mgrwt>
</event>
<event>
 7    1  0.5400401E-006  0.1506982E+03  0.7546771E-02  0.1209518E+00
          1   -1    0    0  501    0  0.00000000000E+00  0.00000000000E+00  0.30581281037E+03  0.30581281037E+03  0.00000000000E+00 0. -1.
         -1   -1    0    0    0  501 -0.00000000000E+00 -0.00000000000E+00 -0.66506197537E+02  0.66506197537E+02  0.00000000000E+00 0.  1.
         23    2    1    2    0    0  0.66254808146E+02  0.51901221879E+02  0.76429914488E+02  0.16897180743E+03  0.12500601362E+03 0.  0.
          5    1    3    3  502    0  0.16188092170E+02 -0.40029277722E+02  0.89735562014E+01  0.44351010292E+02  0.47000000000E+01 0. -1.
         -5    1    3    3    0  502  0.50066715977E+02  0.91930499601E+02  0.67456358287E+02  0.12462079714E+03  0.47000000000E+01 0. -1.
        -11    1    1    2    0    0 -0.40033421208E+02 -0.41982408699E+02  0.25897453713E+02  0.63528541323E+02  0.00000000000E+00 0.  1.
         11    1    1    2    0    0 -0.26221386938E+02 -0.99188131802E+01  0.13697924463E+03  0.13981865915E+03  0.00000000000E+00 0. -1.
<mgrwt>
<rscale>  0 0.14287020E+03</rscale>
<asrwt>0</asrwt>
<pdfrwt beam="1">  1        1 0.47048124E-01 0.15069817E+03</pdfrwt>
<pdfrwt beam="2">  1       -1 0.10231723E-01 0.15069817E+03</pdfrwt>
<totfact> 0.48547160E+03</totfact>
</mgrwt>
</event>
<event>
 7    1  0.5400401E-006  0.1277207E+03  0.7546771E-02  0.1245297E+00
          2   -1    0    0  501    0  0.00000000000E+00  0.00000000000E+00  0.15283574351E+03  0.15283574351E+03  0.00000000000E+00 0. -1.
         -2   -1    0    0    0  501 -0.00000000000E+00 -0.00000000000E+00 -0.11603030169E+03  0.11603030169E+03  0.00000000000E+00 0.  1.
         23    2    1    2    0    0 -0.23560717802E+02  0.11442610502E+02 -0.52724008569E+02  0.13817524918E+03  0.12500615044E+03 0.  0.
          5    1    3    3  502    0 -0.61803233547E+02 -0.19321547482E+02 -0.59918886913E+02  0.88347749733E+02  0.47000000000E+01 0.  1.
         -5    1    3    3    0  502  0.38242515745E+02  0.30764157985E+02  0.71948783437E+01  0.49827499449E+02  0.47000000000E+01 0.  1.
        -11    1    1    2    0    0  0.43261865074E+02  0.18031860129E+02  0.81996828841E+02  0.94446899840E+02  0.00000000000E+00 0. -1.
         11    1    1    2    0    0 -0.19701147272E+02 -0.29474470632E+02  0.75326215393E+01  0.36243896177E+02  0.00000000000E+00 0.  1.
<mgrwt>
<rscale>  0 0.11867639E+03</rscale>
<asrwt>0</asrwt>
<pdfrwt beam="1">  1        2 0.23513191E-01 0.12772070E+03</pdfrwt>
<pdfrwt beam="2">  1       -2 0.17850816E-01 0.12772070E+03</pdfrwt>
<totfact> 0.55871507E+03</totfact>
</mgrwt>
</event>
<event>
 7    1  0.5400401E-006  0.1568666E+03  0.7546771E-02  0.1201099E+00
         -2   -1    0    0    0  501 -0.00000000000E+00  0.00000000000E+00  0.24910553825E+03  0.24910553825E+03  0.00000000000E+00 0. -1.
          2   -1    0    0  501    0  0.00000000000E+00 -0.00000000000E+00 -0.91184865430E+02  0.91184865430E+02  0.00000000000E+00 0.  1.
         23    2    1    2    0    0 -0.93231931428E+02  0.17044601076E+02  0.13888564666E+03  0.20951453528E+03  0.12499762471E+03 0.  0.
          5    1    3    3  502    0 -0.11030272185E+03  0.13792156317E+02  0.55740427033E+02  0.12444275483E+03  0.47000000000E+01 0.  1.
         -5    1    3    3    0  502  0.17070790425E+02  0.32524447592E+01  0.83145219625E+02  0.85071780451E+02  0.47000000000E+01 0.  1.
        -11    1    1    2    0    0  0.46204439657E+02  0.19085117668E+02 -0.25964832510E+02  0.56331736061E+02  0.00000000000E+00 0.  1.
         11    1    1    2    0    0  0.47027491771E+02 -0.36129718744E+02  0.44999858668E+02  0.74444132334E+02  0.00000000000E+00 0. -1.
<mgrwt>
<rscale>  0 0.14949174E+03</rscale>
<asrwt>0</asrwt>
<pdfrwt beam="2">  1        2 0.14028441E-01 0.15686656E+03</pdfrwt>
<pdfrwt beam="1">  1       -2 0.38323929E-01 0.15686656E+03</pdfrwt>
<totfact> 0.26535367E+03</totfact>
</mgrwt>
</event>
<event>
 7    1  0.5400401E-006  0.2598566E+03  0.7546771E-02  0.1109509E+00
         -1   -1    0    0    0  501 -0.00000000000E+00  0.00000000000E+00  0.29075532146E+03  0.29075532146E+03  0.00000000000E+00 0.  1.
          1   -1    0    0  501    0  0.00000000000E+00 -0.00000000000E+00 -0.21932400398E+03  0.21932400398E+03  0.00000000000E+00 0. -1.
         23    2    1    2    0    0  0.13523626676E+03 -0.18328674383E+03  0.33402219876E+02  0.26199456290E+03  0.12507023779E+03 0.  0.
          5    1    3    3  502    0  0.11407482397E+03 -0.11076760398E+03 -0.31648694902E+02  0.16219203878E+03  0.47000000000E+01 0. -1.
         -5    1    3    3    0  502  0.21161442795E+02 -0.72519139849E+02  0.65050914777E+02  0.99802524111E+02  0.47000000000E+01 0. -1.
        -11    1    1    2    0    0 -0.85270241178E+02  0.13763210069E+03 -0.14293553393E+02  0.16253588785E+03  0.00000000000E+00 0.  1.
         11    1    1    2    0    0 -0.49966025585E+02  0.45654643147E+02  0.52322651006E+02  0.85548874697E+02  0.00000000000E+00 0. -1.
<mgrwt>
<rscale>  0 0.25609993E+03</rscale>
<asrwt>0</asrwt>
<pdfrwt beam="2">  1        1 0.33742154E-01 0.25985658E+03</pdfrwt>
<pdfrwt beam="1">  1       -1 0.44731588E-01 0.25985658E+03</pdfrwt>
<totfact> 0.65975810E+02</totfact>
</mgrwt>
</event>
<event>
 7    1  0.5400401E-006  0.1345997E+03  0.7546771E-02  0.1232200E+00
          1   -1    0    0  501    0  0.00000000000E+00  0.00000000000E+00  0.67164582961E+03  0.67164582961E+03  0.00000000000E+00 0. -1.
         -1   -1    0    0    0  501 -0.00000000000E+00 -0.00000000000E+00 -0.21581394505E+02  0.21581394505E+02  0.00000000000E+00 0.  1.
         23    2    1    2    0    0 -0.38500499611E+02  0.31777703284E+02  0.36295030034E+03  0.38710463535E+03  0.12499986919E+03 0.  0.
          5    1    3    3  502    0  0.27106354128E+01 -0.56293401708E+00  0.31762845215E+03  0.31767528713E+03  0.47000000000E+01 0.  1.
         -5    1    3    3    0  502 -0.41211135024E+02  0.32340637301E+02  0.45321848189E+02  0.69429348220E+02  0.47000000000E+01 0.  1.
        -11    1    1    2    0    0 -0.96265755494E+01 -0.52580313351E+02  0.13332462589E+03  0.14364127602E+03  0.00000000000E+00 0.  1.
         11    1    1    2    0    0  0.48127075161E+02  0.20802610067E+02  0.15378950888E+03  0.16248131274E+03  0.00000000000E+00 0. -1.
<mgrwt>
<rscale>  0 0.12685422E+03</rscale>
<asrwt>0</asrwt>
<pdfrwt beam="1">  1        1 0.10333011E+00 0.13459970E+03</pdfrwt>
<pdfrwt beam="2">  1       -1 0.33202151E-02 0.13459970E+03</pdfrwt>
<totfact> 0.93092975E+03</totfact>
</mgrwt>
</event>
<event>
 7    1  0.5400401E-006  0.1304344E+03  0.7546771E-02  0.1244540E+00
         -1   -1    0    0    0  501 -0.00000000000E+00  0.00000000000E+00  0.49350550010E+03  0.49350550010E+03  0.00000000000E+00 0.  1.
          1   -1    0    0  501    0  0.00000000000E+00 -0.00000000000E+00 -0.27366490024E+02  0.27366490024E+02  0.00000000000E+00 0. -1.
         23    2    1    2    0    0 -0.34201897701E+02 -0.14830857435E+02  0.34972963855E+03  0.37326122411E+03  0.12499358866E+03 0.  0.
          5    1    3    3  502    0  0.39420658385E+02  0.12621398453E+02  0.60100860431E+02  0.73126543956E+02  0.47000000000E+01 0.  1.
         -5    1    3    3    0  502 -0.73622556086E+02 -0.27452255888E+02  0.28962877812E+03  0.30013468016E+03  0.47000000000E+01 0.  1.
        -11    1    1    2    0    0  0.38077926682E+02 -0.28008783073E+02  0.68475553937E+02  0.83206501648E+02  0.00000000000E+00 0.  1.
         11    1    1    2    0    0 -0.38760289803E+01  0.42839640508E+02  0.47933817588E+02  0.64404264363E+02  0.00000000000E+00 0. -1.
<mgrwt>
<rscale>  0 0.11912979E+03</rscale>
<asrwt>0</asrwt>
<pdfrwt beam="2">  1        1 0.42102296E-02 0.13043436E+03</pdfrwt>
<pdfrwt beam="1">  1       -1 0.75923916E-01 0.13043436E+03</pdfrwt>
<totfact> 0.36838691E+03</totfact>
</mgrwt>
</event>
<event>
 7    1  0.5400401E-006  0.1543181E+03  0.7546771E-02  0.1203240E+00
         -2   -1    0    0    0  501 -0.00000000000E+00  0.00000000000E+00  0.37604971962E+02  0.37604971962E+02  0.00000000000E+00 0. -1.
          2   -1    0    0  501    0  0.00000000000E+00 -0.00000000000E+00 -0.57120731360E+03  0.57120731360E+03  0.00000000000E+00 0.  1.
         23    2    1    2    0    0 -0.44036828984E+01  0.90394631843E+02 -0.21364683497E+03  0.26355086795E+03  0.12499403191E+03 0.  0.
          5    1    3    3  502    0  0.23949686357E+01  0.11963364121E+03 -0.19185282116E+03  0.22615821667E+03  0.47000000000E+01 0. -1.
         -5    1    3    3    0  502 -0.67986515341E+01 -0.29239009363E+02 -0.21794013814E+02  0.37392651274E+02  0.47000000000E+01 0. -1.
        -11    1    1    2    0    0 -0.39479759239E+02 -0.34179594658E+02 -0.18975522911E+03  0.19680940794E+03  0.00000000000E+00 0.  1.
         11    1    1    2    0    0  0.43883442137E+02 -0.56215037185E+02 -0.13020027756E+03  0.14845200967E+03  0.00000000000E+00 0. -1.
<mgrwt>
<rscale>  0 0.14776987E+03</rscale>
<asrwt>0</asrwt>
<pdfrwt beam="2">  1        2 0.87878046E-01 0.15431815E+03</pdfrwt>
<pdfrwt beam="1">  1       -2 0.57853804E-02 0.15431815E+03</pdfrwt>
<totfact> 0.80760443E+03</totfact>
</mgrwt>
</event>
<event>
 7    1  0.5400401E-006  0.1309889E+03  0.7546771E-02  0.1240303E+00
          1   -1    0    0  501    0  0.00000000000E+00  0.00000000000E+00  0.24248977881E+03  0.24248977881E+03  0.00000000000E+00 0. -1.
         -1   -1    0    0    0  501 -0.00000000000E+00 -0.00000000000E+00 -0.63081764818E+02  0.63081764818E+02  0.00000000000E+00 0.  1.
         23    2    1    2    0    0  0.30004114857E+02  0.25146498040E+02  0.43084489973E+02  0.13789254705E+03  0.12500195192E+03 0.  0.
          5    1    3    3  502    0  0.51289367094E+02 -0.38030414983E+02  0.24194796148E+02  0.68442602239E+02  0.47000000000E+01 0. -1.
         -5    1    3    3    0  502 -0.21285252236E+02  0.63176913024E+02  0.18889693825E+02  0.69449944815E+02  0.47000000000E+01 0. -1.
        -11    1    1    2    0    0  0.12149304331E+02 -0.58305838232E+01 -0.82845562665E+01  0.15818823470E+02  0.00000000000E+00 0.  1.
         11    1    1    2    0    0 -0.42153419188E+02 -0.19315914217E+02  0.14460808028E+03  0.15186017310E+03  0.00000000000E+00 0. -1.
<mgrwt>
<rscale>  0 0.12170953E+03</rscale>
<asrwt>0</asrwt>
<pdfrwt beam="1">  1        1 0.37306119E-01 0.13098886E+03</pdfrwt>
<pdfrwt beam="2">  1       -1 0.97048870E-02 0.13098886E+03</pdfrwt>
<totfact> 0.69540607E+03</totfact>
</mgrwt>
</event>
<event>
 7    1  0.5400401E-006  0.1456042E+03  0.7546771E-02  0.1215853E+00
         -1   -1    0    0    0  501 -0.00000000000E+00  0.00000000000E+00  0.66800104966E+02  0.66800104966E+02  0.00000000000E+00 0.  1.
          1   -1    0    0  501    0  0.00000000000E+00 -0.00000000000E+00 -0.27915144804E+03  0.27915144804E+03  0.00000000000E+00 0. -1.
         23    2    1    2    0    0 -0.12964849268E-02 -0.74660322524E+02 -0.71463997811E+02  0.16219646691E+03  0.12500570840E+03 0.  0.
          5    1    3    3  502    0 -0.35191690981E+02  0.11029395037E+02 -0.57392299694E+02  0.68381786560E+02  0.47000000000E+01 0.  1.
         -5    1    3    3    0  502  0.35190394496E+02 -0.85689717561E+02 -0.14071698117E+02  0.93814680346E+02  0.47000000000E+01 0.  1.
        -11    1    1    2    0    0 -0.26777954423E+02  0.13683427565E+02 -0.10264226936E+03  0.10695667577E+03  0.00000000000E+00 0. -1.
         11    1    1    2    0    0  0.26779250908E+02  0.60976894959E+02 -0.38245075904E+02  0.76798410328E+02  0.00000000000E+00 0.  1.
<mgrwt>
<rscale>  0 0.13814096E+03</rscale>
<asrwt>0</asrwt>
<pdfrwt beam="2">  1        1 0.42946378E-01 0.14560423E+03</pdfrwt>
<pdfrwt beam="1">  1       -1 0.10276939E-01 0.14560423E+03</pdfrwt>
<totfact> 0.53892501E+03</totfact>
</mgrwt>
</event>
<event>
 7    1  0.5400401E-006  0.1621024E+03  0.7546771E-02  0.1195536E+00
         -2   -1    0    0    0  501 -0.00000000000E+00  0.00000000000E+00  0.29673111855E+03  0.29673111855E+03  0.00000000000E+00 0.  1.
          2   -1    0    0  501    0  0.00000000000E+00 -0.00000000000E+00 -0.89191407386E+02  0.89191407386E+02  0.00000000000E+00 0. -1.
         23    2    1    2    0    0 -0.71222723139E+02  0.74692079619E+02  0.19410874195E+03  0.25289404041E+03  0.12500243567E+03 0.  0.
          5    1    3    3  502    0 -0.84954591955E+02  0.79594181609E+02  0.20380955548E+03  0.23476145626E+03  0.47000000000E+01 0.  1.
         -5    1    3    3    0  502  0.13731868816E+02 -0.49021019906E+01 -0.97008135226E+01  0.18132584154E+02  0.47000000000E+01 0.  1.
        -11    1    1    2    0    0  0.34707363413E+02 -0.12397828018E+02 -0.31074361744E+02  0.48207086330E+02  0.00000000000E+00 0. -1.
         11    1    1    2    0    0  0.36515359726E+02 -0.62294251601E+02  0.44505330959E+02  0.84821399200E+02  0.00000000000E+00 0.  1.
<mgrwt>
<rscale>  0 0.15408915E+03</rscale>
<asrwt>0</asrwt>
<pdfrwt beam="2">  1        2 0.13721755E-01 0.16210241E+03</pdfrwt>
<pdfrwt beam="1">  1       -2 0.45650941E-01 0.16210241E+03</pdfrwt>
<totfact> 0.19516562E+03</totfact>
</mgrwt>
</event>
<event>
 7    1  0.6517208E-006  0.1447696E+03  0.7546771E-02  0.1217306E+00
          3   -1    0    0  501    0  0.00000000000E+00  0.00000000000E+00  0.37784710854E+03  0.37784710854E+03  0.00000000000E+00 0. -1.
         -3   -1    0    0    0  501 -0.00000000000E+00 -0.00000000000E+00 -0.48133694432E+02  0.48133694432E+02  0.00000000000E+00 0.  1.
         23    2    1    2    0    0  0.58191959007E+02 -0.44114767013E+02  0.12871942469E+03  0.19371868254E+03  0.12500328360E+03 0.  0.
          5    1    3    3  502    0  0.45582762130E+02 -0.68691919268E+02  0.24991700136E+02  0.86273072576E+02  0.47000000000E+01 0.  1.
         -5    1    3    3    0  502  0.12609196877E+02  0.24577152255E+02  0.10372772455E+03  0.10744560996E+03  0.47000000000E+01 0.  1.
        -11    1    1    2    0    0 -0.31848922810E+01  0.58749329627E+02  0.11426274898E+03  0.12852082739E+03  0.00000000000E+00 0.  1.
         11    1    1    2    0    0 -0.55007066726E+02 -0.14634562614E+02  0.86731240440E+02  0.10374129304E+03  0.00000000000E+00 0. -1.
<mgrwt>
<rscale>  0 0.13708466E+03</rscale>
<asrwt>0</asrwt>
<pdfrwt beam="1">  1        3 0.58130323E-01 0.14476960E+03</pdfrwt>
<pdfrwt beam="2">  1       -3 0.74051840E-02 0.14476960E+03</pdfrwt>
<totfact> 0.83046376E+02</totfact>
</mgrwt>
</event>
<event>
 7    1  0.5400401E-006  0.1586203E+03  0.7546771E-02  0.1197916E+00
          1   -1    0    0  501    0  0.00000000000E+00  0.00000000000E+00  0.79204112970E+03  0.79204112970E+03  0.00000000000E+00 0. -1.
         -1   -1    0    0    0  501 -0.00000000000E+00 -0.00000000000E+00 -0.66159383690E+02  0.66159383690E+02  0.00000000000E+00 0.  1.
         23    2    1    2    0    0  0.66284472975E+02  0.71704283194E+02  0.45909506043E+02  0.16513050086E+03  0.12500105592E+03 0.  0.
          5    1    3    3  502    0 -0.26001076934E+02 -0.63905569142E+01 -0.13492779832E+02  0.30348646214E+02  0.47000000000E+01 0.  1.
         -5    1    3    3    0  502  0.92285549909E+02  0.78094840108E+02  0.59402285875E+02  0.13478185464E+03  0.47000000000E+01 0.  1.
        -11    1    1    2    0    0  0.50655337336E+01 -0.61211261604E+02  0.28128563639E+03  0.28791333318E+03  0.00000000000E+00 0.  1.
         11    1    1    2    0    0 -0.71350006709E+02 -0.10493021591E+02  0.39868660357E+03  0.40515667936E+03  0.00000000000E+00 0. -1.
<mgrwt>
<rscale>  0 0.15210001E+03</rscale>
<asrwt>0</asrwt>
<pdfrwt beam="1">  1        1 0.12185247E+00 0.15862030E+03</pdfrwt>
<pdfrwt beam="2">  1       -1 0.10178367E-01 0.15862030E+03</pdfrwt>
<totfact> 0.13838187E+03</totfact>
</mgrwt>
</event>
<event>
 7    1  0.5400401E-006  0.1427909E+03  0.7546771E-02  0.1221191E+00
         -1   -1    0    0    0  501 -0.00000000000E+00  0.00000000000E+00  0.36367693086E+03  0.36367693086E+03  0.00000000000E+00 0.  1.
          1   -1    0    0  501    0  0.00000000000E+00 -0.00000000000E+00 -0.45153909744E+02  0.45153909744E+02  0.00000000000E+00 0. -1.
         23    2    1    2    0    0  0.56566280754E+02  0.39556492506E+02  0.20183944159E+03  0.24724155621E+03  0.12499906687E+03 0.  0.
          5    1    3    3  502    0  0.42505470193E+02 -0.22423859177E+02  0.16857332574E+03  0.17535278899E+03  0.47000000000E+01 0. -1.
         -5    1    3    3    0  502  0.14060810561E+02  0.61980351683E+02  0.33266115851E+02  0.71888767219E+02  0.47000000000E+01 0. -1.
        -11    1    1    2    0    0 -0.44039596362E+02 -0.67268783260E+02  0.93710400452E+02  0.12347556196E+03  0.00000000000E+00 0. -1.
         11    1    1    2    0    0 -0.12526684392E+02  0.27712290754E+02  0.22973179071E+02  0.38113722428E+02  0.00000000000E+00 0.  1.
<mgrwt>
<rscale>  0 0.13431417E+03</rscale>
<asrwt>0</asrwt>
<pdfrwt beam="2">  1        1 0.69467556E-02 0.14279085E+03</pdfrwt>
<pdfrwt beam="1">  1       -1 0.55950295E-01 0.14279085E+03</pdfrwt>
<totfact> 0.33836425E+03</totfact>
</mgrwt>
</event>
<event>
 7    1  0.5400401E-006  0.1572113E+03  0.7546771E-02  0.1199439E+00
          1   -1    0    0  501    0  0.00000000000E+00  0.00000000000E+00  0.11000430554E+03  0.11000430554E+03  0.00000000000E+00 0. -1.
         -1   -1    0    0    0  501 -0.00000000000E+00 -0.00000000000E+00 -0.22487998281E+03  0.22487998281E+03  0.00000000000E+00 0.  1.
         23    2    1    2    0    0 -0.63406811257E+02  0.71203868358E+02 -0.12557358704E+03  0.20120667466E+03  0.12499994234E+03 0.  0.
          5    1    3    3  502    0 -0.94086139636E+02  0.35287992119E+02 -0.50944408367E+02  0.11276021818E+03  0.47000000000E+01 0.  1.
         -5    1    3    3    0  502  0.30679328379E+02  0.35915876239E+02 -0.74629178672E+02  0.88446456487E+02  0.47000000000E+01 0.  1.
        -11    1    1    2    0    0 -0.18713335007E+02 -0.41661249338E+02 -0.61309815042E+00  0.45675206544E+02  0.00000000000E+00 0. -1.
         11    1    1    2    0    0  0.82120146263E+02 -0.29542619020E+02  0.11311007921E+02  0.88002407132E+02  0.00000000000E+00 0.  1.
<mgrwt>
<rscale>  0 0.15084424E+03</rscale>
<asrwt>0</asrwt>
<pdfrwt beam="1">  1        1 0.16923739E-01 0.15721132E+03</pdfrwt>
<pdfrwt beam="2">  1       -1 0.34596920E-01 0.15721132E+03</pdfrwt>
<totfact> 0.24746179E+03</totfact>
</mgrwt>
</event>
<event>
 7    1  0.5400401E-006  0.1929726E+03  0.7546771E-02  0.1160774E+00
          2   -1    0    0  501    0  0.00000000000E+00  0.00000000000E+00  0.15306812202E+03  0.15306812202E+03  0.00000000000E+00 0. -1.
         -2   -1    0    0    0  501 -0.00000000000E+00 -0.00000000000E+00 -0.25382837011E+03  0.25382837011E+03  0.00000000000E+00 0.  1.
         23    2    1    2    0    0 -0.13202685847E+02 -0.14642336812E+03 -0.12986987020E+03  0.23260394358E+03  0.12499719092E+03 0.  0.
          5    1    3    3  502    0 -0.68779438503E+02 -0.88871506390E+02 -0.68868013096E+02  0.13188498412E+03  0.47000000000E+01 0. -1.
         -5    1    3    3    0  502  0.55576752656E+02 -0.57551861728E+02 -0.61001857105E+02  0.10071895946E+03  0.47000000000E+01 0. -1.
        -11    1    1    2    0    0 -0.23169319162E+02  0.72420536528E+02  0.47706478432E+02  0.89763353022E+02  0.00000000000E+00 0. -1.
         11    1    1    2    0    0  0.36372005009E+02  0.74002831590E+02 -0.18596856328E+02  0.84529195531E+02  0.00000000000E+00 0.  1.
<mgrwt>
<rscale>  0 0.18745869E+03</rscale>
<asrwt>0</asrwt>
<pdfrwt beam="1">  1        2 0.23548942E-01 0.19297257E+03</pdfrwt>
<pdfrwt beam="2">  1       -2 0.39050518E-01 0.19297257E+03</pdfrwt>
<totfact> 0.14216354E+03</totfact>
</mgrwt>
</event>
<event>
 7    1  0.5400401E-006  0.2497964E+03  0.7546771E-02  0.1115695E+00
          1   -1    0    0  501    0  0.00000000000E+00  0.00000000000E+00  0.12008607029E+04  0.12008607029E+04  0.00000000000E+00 0. -1.
         -1   -1    0    0    0  501 -0.00000000000E+00 -0.00000000000E+00 -0.72429170541E+02  0.72429170541E+02  0.00000000000E+00 0.  1.
         23    2    1    2    0    0 -0.20005280376E+03  0.82174307363E+02  0.21404736002E+03  0.32895976832E+03  0.12499806303E+03 0.  0.
          5    1    3    3  502    0  0.11418378749E+02 -0.17611199069E+01  0.41610256884E+02  0.43439433635E+02  0.47000000000E+01 0. -1.
         -5    1    3    3    0  502 -0.21147118251E+03  0.83935427270E+02  0.17243710313E+03  0.28552033469E+03  0.47000000000E+01 0. -1.
        -11    1    1    2    0    0  0.10476326992E+03 -0.33732800725E+02  0.27734847893E+03  0.29838804154E+03  0.00000000000E+00 0.  1.
         11    1    1    2    0    0  0.95289533833E+02 -0.48441506638E+02  0.63703569341E+03  0.64594206358E+03  0.00000000000E+00 0. -1.
<mgrwt>
<rscale>  0 0.24625411E+03</rscale>
<asrwt>0</asrwt>
<pdfrwt beam="1">  1        1 0.18474779E+00 0.24979643E+03</pdfrwt>
<pdfrwt beam="2">  1       -1 0.11142950E-01 0.24979643E+03</pdfrwt>
<totfact> 0.59148998E+02</totfact>
</mgrwt>
</event>
<event>
 7    1  0.5400401E-006  0.1814870E+03  0.7546771E-02  0.1171875E+00
         -1   -1    0    0    0  501 -0.00000000000E+00  0.00000000000E+00  0.49396991136E+02  0.49396991136E+02  0.00000000000E+00 0.  1.
          1   -1    0    0  501    0  0.00000000000E+00 -0.00000000000E+00 -0.59086437615E+03  0.59086437615E+03  0.00000000000E+00 0. -1.
         23    2    1    2    0    0  0.61088090340E+02 -0.11659992356E+03 -0.27659028718E+03  0.33081675534E+03  0.12494095284E+03 0.  0.
          5    1    3    3  502    0 -0.37676847989E+02 -0.44063164626E+02 -0.10284392882E+03  0.11815274456E+03  0.47000000000E+01 0.  1.
         -5    1    3    3    0  502  0.98764938329E+02 -0.72536758933E+02 -0.17374635835E+03  0.21266401078E+03  0.47000000000E+01 0.  1.
        -11    1    1    2    0    0  0.22915817480E+02  0.38838655871E+02 -0.65039002551E+02  0.79143210280E+02  0.00000000000E+00 0. -1.
         11    1    1    2    0    0 -0.84003907820E+02  0.77761267688E+02 -0.19983809528E+03  0.23030140166E+03  0.00000000000E+00 0.  1.
<mgrwt>
<rscale>  0 0.17585547E+03</rscale>
<asrwt>0</asrwt>
<pdfrwt beam="2">  1        1 0.90902217E-01 0.18148702E+03</pdfrwt>
<pdfrwt beam="1">  1       -1 0.75995367E-02 0.18148702E+03</pdfrwt>
<totfact> 0.32969390E+03</totfact>
</mgrwt>
</event>
<event>
 7    1  0.5400401E-006  0.1443688E+03  0.7546771E-02  0.1217798E+00
          2   -1    0    0  501    0  0.00000000000E+00  0.00000000000E+00  0.40536032648E+02  0.40536032648E+02  0.00000000000E+00 0. -1.
         -2   -1    0    0    0  501 -0.00000000000E+00 -0.00000000000E+00 -0.58581006089E+03  0.58581006089E+03  0.00000000000E+00 0.  1.
         23    2    1    2    0    0 -0.64092009774E+02  0.34265496017E+02 -0.46035114283E+03  0.48245779239E+03  0.12474147989E+03 0.  0.
          5    1    3    3  502    0 -0.27923841796E+02  0.32968031047E+02 -0.43694645429E+03  0.43910240938E+03  0.47000000000E+01 0. -1.
         -5    1    3    3    0  502 -0.36168167977E+02  0.12974649702E+01 -0.23404688538E+02  0.43355383008E+02  0.47000000000E+01 0. -1.
        -11    1    1    2    0    0  0.20820073309E+01 -0.51572220166E+02 -0.34040236264E+02  0.61828523613E+02  0.00000000000E+00 0. -1.
         11    1    1    2    0    0  0.62010002443E+02  0.17306724148E+02 -0.50882649149E+02  0.82059777529E+02  0.00000000000E+00 0.  1.
<mgrwt>
<rscale>  0 0.13673016E+03</rscale>
<asrwt>0</asrwt>
<pdfrwt beam="1">  1        2 0.62363128E-02 0.14436879E+03</pdfrwt>
<pdfrwt beam="2">  1       -2 0.90124624E-01 0.14436879E+03</pdfrwt>
<totfact> 0.12441649E+03</totfact>
</mgrwt>
</event>
<event>
 7    1  0.5400401E-006  0.2453404E+03  0.7546771E-02  0.1118899E+00
         -1   -1    0    0    0  501 -0.00000000000E+00  0.00000000000E+00  0.20314771300E+03  0.20314771300E+03  0.00000000000E+00 0.  1.
          1   -1    0    0  501    0  0.00000000000E+00 -0.00000000000E+00 -0.29248086568E+03  0.29248086568E+03  0.00000000000E+00 0. -1.
         23    2    1    2    0    0 -0.20961402564E+03 -0.25103926897E+02  0.94920215458E+01  0.24552390332E+03  0.12499456684E+03 0.  0.
          5    1    3    3  502    0 -0.55660651483E+02  0.36225253771E+02 -0.33104499334E+02  0.74353043047E+02  0.47000000000E+01 0.  1.
         -5    1    3    3    0  502 -0.15395337415E+03 -0.61329180667E+02  0.42596520880E+02  0.17117086027E+03  0.47000000000E+01 0.  1.
        -11    1    1    2    0    0  0.89267647913E+02 -0.32158375675E+02 -0.26717276936E+02  0.98573256904E+02  0.00000000000E+00 0.  1.
         11    1    1    2    0    0  0.12034637772E+03  0.57262302572E+02 -0.72107897290E+02  0.15153141845E+03  0.00000000000E+00 0. -1.
<mgrwt>
<rscale>  0 0.24134678E+03</rscale>
<asrwt>0</asrwt>
<pdfrwt beam="2">  1        1 0.44997056E-01 0.24534035E+03</pdfrwt>
<pdfrwt beam="1">  1       -1 0.31253494E-01 0.24534035E+03</pdfrwt>
<totfact> 0.86309742E+02</totfact>
</mgrwt>
</event>
<event>
 7    1  0.5400401E-006  0.1476438E+03  0.7546771E-02  0.1212762E+00
          2   -1    0    0  501    0  0.00000000000E+00  0.00000000000E+00  0.15598446087E+03  0.15598446087E+03  0.00000000000E+00 0. -1.
         -2   -1    0    0    0  501 -0.00000000000E+00 -0.00000000000E+00 -0.12771076433E+03  0.12771076433E+03  0.00000000000E+00 0.  1.
         23    2    1    2    0    0  0.78579611181E+02  0.16260579444E+01 -0.28244249762E+02  0.15032108751E+03  0.12498516851E+03 0.  0.
          5    1    3    3  502    0  0.58585332792E+02  0.56781897275E+02  0.64909889088E+01  0.81979558510E+02  0.47000000000E+01 0.  1.
         -5    1    3    3    0  502  0.19994278389E+02 -0.55155839331E+02 -0.34735238671E+02  0.68341529000E+02  0.47000000000E+01 0.  1.
        -11    1    1    2    0    0  0.49388828467E+00  0.33633678148E+02  0.10012531786E+02  0.35095854801E+02  0.00000000000E+00 0.  1.
         11    1    1    2    0    0 -0.79073499465E+02 -0.35259736093E+02  0.46505414522E+02  0.98278282885E+02  0.00000000000E+00 0. -1.
<mgrwt>
<rscale>  0 0.14042183E+03</rscale>
<asrwt>0</asrwt>
<pdfrwt beam="1">  1        2 0.23997609E-01 0.14764380E+03</pdfrwt>
<pdfrwt beam="2">  1       -2 0.19647810E-01 0.14764380E+03</pdfrwt>
<totfact> 0.46928501E+03</totfact>
</mgrwt>
</event>
<event>
 7    1  0.5400401E-006  0.1287150E+03  0.7546771E-02  0.1243269E+00
         -1   -1    0    0    0  501 -0.00000000000E+00  0.00000000000E+00  0.31294693105E+02  0.31294693105E+02  0.00000000000E+00 0.  1.
          1   -1    0    0  501    0  0.00000000000E+00 -0.00000000000E+00 -0.41718861565E+03  0.41718861565E+03  0.00000000000E+00 0. -1.
         23    2    1    2    0    0 -0.30715422290E+02 -0.43647383017E+00 -0.25478135013E+03  0.28544892312E+03  0.12499569456E+03 0.  0.
          5    1    3    3  502    0  0.26899221632E+02  0.29774734532E+02 -0.27195489930E+02  0.48701002180E+02  0.47000000000E+01 0.  1.
         -5    1    3    3    0  502 -0.57614643922E+02 -0.30211208362E+02 -0.22758586020E+03  0.23674792093E+03  0.47000000000E+01 0.  1.
        -11    1    1    2    0    0 -0.21798092547E+01  0.24005859484E+02 -0.11808731722E+03  0.12052239355E+03  0.00000000000E+00 0. -1.
         11    1    1    2    0    0  0.32895231545E+02 -0.23569385654E+02 -0.13025255193E+02  0.42511992088E+02  0.00000000000E+00 0.  1.
<mgrwt>
<rscale>  0 0.11989563E+03</rscale>
<asrwt>0</asrwt>
<pdfrwt beam="2">  1        1 0.64182866E-01 0.12871500E+03</pdfrwt>
<pdfrwt beam="1">  1       -1 0.48145680E-02 0.12871500E+03</pdfrwt>
<totfact> 0.10107259E+04</totfact>
</mgrwt>
</event>
<event>
 7    1  0.5400401E-006  0.1323420E+03  0.7546771E-02  0.1237675E+00
          2   -1    0    0  501    0  0.00000000000E+00  0.00000000000E+00  0.79593722004E+03  0.79593722004E+03  0.00000000000E+00 0. -1.
         -2   -1    0    0    0  501 -0.00000000000E+00 -0.00000000000E+00 -0.17085261853E+02  0.17085261853E+02  0.00000000000E+00 0.  1.
         23    2    1    2    0    0  0.31134432380E+02 -0.30317755722E+02  0.48099841965E+03  0.49887260188E+03  0.12500349599E+03 0.  0.
          5    1    3    3  502    0  0.70801692160E+02  0.23001944209E+00  0.17615613116E+03  0.18991051858E+03  0.47000000000E+01 0.  1.
         -5    1    3    3    0  502 -0.39667259780E+02 -0.30547775164E+02  0.30484228849E+03  0.30896208330E+03  0.47000000000E+01 0.  1.
        -11    1    1    2    0    0 -0.54017292643E+01  0.56325542471E+02  0.12134414838E+03  0.13388856470E+03  0.00000000000E+00 0. -1.
         11    1    1    2    0    0 -0.25732703115E+02 -0.26007786748E+02  0.17650939016E+03  0.18026131530E+03  0.00000000000E+00 0.  1.
<mgrwt>
<rscale>  0 0.12334702E+03</rscale>
<asrwt>0</asrwt>
<pdfrwt beam="1">  1        2 0.12245185E+00 0.13234196E+03</pdfrwt>
<pdfrwt beam="2">  1       -2 0.26285024E-02 0.13234196E+03</pdfrwt>
<totfact> 0.17478746E+04</totfact>
</mgrwt>
</event>
<event>
 7    1  0.5400401E-006  0.3047655E+03  0.7546771E-02  0.1084373E+00
          2   -1    0    0  501    0  0.00000000000E+00  0.00000000000E+00  0.49221218123E+03  0.49221218123E+03  0.00000000000E+00 0.  1.
         -2   -1    0    0    0  501 -0.00000000000E+00 -0.00000000000E+00 -0.48596117920E+03  0.48596117920E+03  0.00000000000E+00 0. -1.
         23    2    1    2    0    0  0.24425448227E+03  0.13264702622E+03 -0.38401250699E+03  0.49025263196E+03  0.12500620762E+03 0.  0.
          5    1    3    3  502    0  0.81332359471E+02  0.10427518957E+03 -0.22354153820E+03  0.25977139403E+03  0.47000000000E+01 0. -1.
         -5    1    3    3    0  502  0.16292212280E+03  0.28371836651E+02 -0.16047096879E+03  0.23048123793E+03  0.47000000000E+01 0. -1.
        -11    1    1    2    0    0 -0.16340651548E+03 -0.36875449428E+02  0.22358352348E+03  0.27937623386E+03  0.00000000000E+00 0.  1.
         11    1    1    2    0    0 -0.80847966787E+02 -0.95771576792E+02  0.16667998554E+03  0.20854449462E+03  0.00000000000E+00 0. -1.
<mgrwt>
<rscale>  0 0.30174192E+03</rscale>
<asrwt>0</asrwt>
<pdfrwt beam="1">  1        2 0.75724951E-01 0.30476555E+03</pdfrwt>
<pdfrwt beam="2">  1       -2 0.74763258E-01 0.30476555E+03</pdfrwt>
<totfact> 0.10548065E+02</totfact>
</mgrwt>
</event>
<event>
 6    1  0.5400401E-006  0.1653605E+03  0.7546771E-02  0.1193414E+00
          2   -1    0    0  501    0  0.00000000000E+00  0.00000000000E+00  0.60238853023E+02  0.60238853023E+02  0.00000000000E+00 0. -1.
         -2   -1    0    0    0  501 -0.00000000000E+00 -0.00000000000E+00 -0.39560376417E+03  0.39560376417E+03  0.00000000000E+00 0.  1.
          5    1    1    2  502    0  0.14458076277E+02 -0.18636404984E+01  0.19378812796E+02  0.24700961741E+02  0.47000000000E+01 0. -1.
         -5    1    1    2    0  502  0.50102910498E+02  0.23058467583E+02 -0.26959718363E+03  0.27522123099E+03  0.47000000000E+01 0.  1.
        -11    1    1    2    0    0 -0.95361739001E+02 -0.95424283550E+01 -0.51329608879E+02  0.10871820433E+03  0.00000000000E+00 0.  1.
         11    1    1    2    0    0  0.30800752227E+02 -0.11652398730E+02 -0.33816931432E+02  0.47202220132E+02  0.00000000000E+00 0. -1.
<mgrwt>
<rscale>  0 0.15589247E+03</rscale>
<asrwt>0</asrwt>
<pdfrwt beam="1">  1        2 0.92675158E-02 0.16536048E+03</pdfrwt>
<pdfrwt beam="2">  1       -2 0.60862118E-01 0.16536048E+03</pdfrwt>
<totfact> 0.17683364E+03</totfact>
</mgrwt>
</event>
<event>
 7    1  0.5400401E-006  0.1646768E+03  0.7546771E-02  0.1186706E+00
         -2   -1    0    0    0  501 -0.00000000000E+00  0.00000000000E+00  0.51623217179E+02  0.51623217179E+02  0.00000000000E+00 0.  1.
          2   -1    0    0  501    0  0.00000000000E+00 -0.00000000000E+00 -0.49666452372E+03  0.49666452372E+03  0.00000000000E+00 0. -1.
         23    2    1    2    0    0 -0.10050561410E+03  0.37326572250E+02 -0.19832571652E+03  0.25778193800E+03  0.12499514496E+03 0.  0.
          5    1    3    3  502    0  0.11785672129E+01  0.35601646277E+02 -0.13072978169E+03  0.13557740247E+03  0.47000000000E+01 0.  1.
         -5    1    3    3    0  502 -0.10168418131E+03  0.17249259728E+01 -0.67595934832E+02  0.12220453553E+03  0.47000000000E+01 0.  1.
        -11    1    1    2    0    0  0.69631391340E+02  0.26012232540E+02 -0.17419218456E+03  0.18938871155E+03  0.00000000000E+00 0. -1.
         11    1    1    2    0    0  0.30874222762E+02 -0.63338804790E+02 -0.72523405460E+02  0.10111709135E+03  0.00000000000E+00 0.  1.
<mgrwt>
<rscale>  0 0.16177654E+03</rscale>
<asrwt>0</asrwt>
<pdfrwt beam="2">  1        2 0.76409928E-01 0.16467677E+03</pdfrwt>
<pdfrwt beam="1">  1       -2 0.79420332E-02 0.16467677E+03</pdfrwt>
<totfact> 0.58282959E+03</totfact>
</mgrwt>
</event>
<event>
 7    1  0.5400401E-006  0.1676193E+03  0.7546771E-02  0.1189109E+00
          2   -1    0    0  501    0  0.00000000000E+00  0.00000000000E+00  0.35672931645E+02  0.35672931645E+02  0.00000000000E+00 0. -1.
         -2   -1    0    0    0  501 -0.00000000000E+00 -0.00000000000E+00 -0.70645386925E+03  0.70645386925E+03  0.00000000000E+00 0.  1.
         23    2    1    2    0    0 -0.84181215000E+02  0.73384480282E+02 -0.46615211282E+03  0.49537260814E+03  0.12499787880E+03 0.  0.
          5    1    3    3  502    0  0.43162024215E+01  0.84538447514E+01 -0.27266482864E+03  0.27287047454E+03  0.47000000000E+01 0.  1.
         -5    1    3    3    0  502 -0.88497417422E+02  0.64930635530E+02 -0.19348728418E+03  0.22250213361E+03  0.47000000000E+01 0.  1.
        -11    1    1    2    0    0  0.52917023206E+02 -0.30932981582E+01 -0.12626313503E+03  0.13693852309E+03  0.00000000000E+00 0.  1.
         11    1    1    2    0    0  0.31264191794E+02 -0.70291182124E+02 -0.78365689751E+02  0.10981566966E+03  0.00000000000E+00 0. -1.
<mgrwt>
<rscale>  0 0.15963537E+03</rscale>
<asrwt>0</asrwt>
<pdfrwt beam="1">  1        2 0.54881435E-02 0.16761930E+03</pdfrwt>
<pdfrwt beam="2">  1       -2 0.10868521E+00 0.16761930E+03</pdfrwt>
<totfact> 0.96032531E+02</totfact>
</mgrwt>
</event>
<event>
 7    1  0.5400401E-006  0.1276968E+03  0.7546771E-02  0.1274955E+00
         -1   -1    0    0    0  501 -0.00000000000E+00  0.00000000000E+00  0.31134027932E+02  0.31134027932E+02  0.00000000000E+00 0.  1.
          1   -1    0    0  501    0  0.00000000000E+00 -0.00000000000E+00 -0.36371809587E+03  0.36371809587E+03  0.00000000000E+00 0. -1.
         23    2    1    2    0    0 -0.34269523670E+01  0.17377199359E+02 -0.11832005724E+03  0.17408647658E+03  0.12646246210E+03 0.  0.
          5    1    3    3  502    0 -0.72499446329E+01 -0.37763471549E+02 -0.11169196267E+03  0.11821939776E+03  0.47000000000E+01 0. -1.
         -5    1    3    3    0  502  0.38229922659E+01  0.55140670908E+02 -0.66280945666E+01  0.55867078818E+02  0.47000000000E+01 0.  1.
        -11    1    1    2    0    0 -0.15255757950E+02 -0.24079291248E+02 -0.16833305214E+03  0.17072951373E+03  0.00000000000E+00 0. -1.
         11    1    1    2    0    0  0.18682710317E+02  0.67020918891E+01 -0.45930958557E+02  0.50036133488E+02  0.00000000000E+00 0.  1.
<mgrwt>
<rscale>  0 0.10258353E+03</rscale>
<asrwt>0</asrwt>
<pdfrwt beam="2">  1        1 0.55956630E-01 0.12769677E+03</pdfrwt>
<pdfrwt beam="1">  1       -1 0.47898505E-02 0.12769677E+03</pdfrwt>
<totfact> 0.12090279E+04</totfact>
</mgrwt>
</event>
<event>
 7    1  0.5400401E-006  0.2345939E+03  0.7546771E-02  0.1126460E+00
          2   -1    0    0  501    0  0.00000000000E+00  0.00000000000E+00  0.18366903665E+03  0.18366903665E+03  0.00000000000E+00 0. -1.
         -2   -1    0    0    0  501 -0.00000000000E+00 -0.00000000000E+00 -0.42479315761E+03  0.42479315761E+03  0.00000000000E+00 0.  1.
         23    2    1    2    0    0  0.15883589029E+03 -0.11908161879E+03 -0.30198272589E+03  0.38239750309E+03  0.12500004663E+03 0.  0.
          5    1    3    3  502    0  0.55893623023E+02 -0.49638338298E+02 -0.25245282831E+02  0.79040976897E+02  0.47000000000E+01 0. -1.
         -5    1    3    3    0  502  0.10294226726E+03 -0.69443280495E+02 -0.27673744306E+03  0.30335652619E+03  0.47000000000E+01 0. -1.
        -11    1    1    2    0    0 -0.47695930290E+02 -0.32465600284E+01  0.33895745145E+02  0.58603442366E+02  0.00000000000E+00 0. -1.
         11    1    1    2    0    0 -0.11113996000E+03  0.12232817882E+03  0.26962859786E+02  0.16746124880E+03  0.00000000000E+00 0.  1.
<mgrwt>
<rscale>  0 0.23025628E+03</rscale>
<asrwt>0</asrwt>
<pdfrwt beam="1">  1        2 0.28256775E-01 0.23459387E+03</pdfrwt>
<pdfrwt beam="2">  1       -2 0.65352793E-01 0.23459387E+03</pdfrwt>
<totfact> 0.41558491E+02</totfact>
</mgrwt>
</event>
<event>
 7    1  0.5400401E-006  0.1297267E+03  0.7546771E-02  0.1240600E+00
         -2   -1    0    0    0  501 -0.00000000000E+00  0.00000000000E+00  0.40890159170E+03  0.40890159170E+03  0.00000000000E+00 0.  1.
          2   -1    0    0  501    0  0.00000000000E+00 -0.00000000000E+00 -0.35146438721E+02  0.35146438721E+02  0.00000000000E+00 0. -1.
         23    2    1    2    0    0  0.88154909107E+01  0.33548338109E+02  0.27249097074E+03  0.30179519399E+03  0.12500322439E+03 0.  0.
          5    1    3    3  502    0 -0.30563290104E+02  0.59920262479E+01  0.24337521965E+03  0.24540498492E+03  0.47000000000E+01 0.  1.
         -5    1    3    3    0  502  0.39378781014E+02  0.27556311861E+02  0.29115751090E+02  0.56390209071E+02  0.47000000000E+01 0.  1.
        -11    1    1    2    0    0  0.35556867433E+02 -0.20891711832E+02  0.82898472468E+02  0.92590016646E+02  0.00000000000E+00 0.  1.
         11    1    1    2    0    0 -0.44372358344E+02 -0.12656626277E+02  0.18365709764E+02  0.49662819783E+02  0.00000000000E+00 0. -1.
<mgrwt>
<rscale>  0 0.12152653E+03</rscale>
<asrwt>0</asrwt>
<pdfrwt beam="2">  1        2 0.54071447E-02 0.12972667E+03</pdfrwt>
<pdfrwt beam="1">  1       -2 0.62907934E-01 0.12972667E+03</pdfrwt>
<totfact> 0.32305212E+03</totfact>
</mgrwt>
</event>
<event>
 7    1  0.5400401E-006  0.1727260E+03  0.7546771E-02  0.1181477E+00
          3   -1    0    0  501    0  0.00000000000E+00  0.00000000000E+00  0.36716069784E+03  0.36716069784E+03  0.00000000000E+00 0. -1.
         -3   -1    0    0    0  501 -0.00000000000E+00 -0.00000000000E+00 -0.71607289009E+02  0.71607289009E+02  0.00000000000E+00 0.  1.
         23    2    1    2    0    0 -0.29594509248E+02  0.11552558383E+03  0.13293358449E+03  0.21795780324E+03  0.12494907206E+03 0.  0.
          5    1    3    3  502    0  0.42998583350E+02  0.13613494318E+02  0.51381827866E+02  0.68530195042E+02  0.47000000000E+01 0. -1.
         -5    1    3    3    0  502 -0.72593092598E+02  0.10191208951E+03  0.81551756628E+02  0.14942760820E+03  0.47000000000E+01 0. -1.
        -11    1    1    2    0    0  0.43653049187E+02 -0.56456813154E+02  0.13786164171E+03  0.15523785849E+03  0.00000000000E+00 0. -1.
         11    1    1    2    0    0 -0.14058539939E+02 -0.59068770678E+02  0.24758182629E+02  0.65572325120E+02  0.00000000000E+00 0.  1.
<mgrwt>
<rscale>  0 0.16656563E+03</rscale>
<asrwt>0</asrwt>
<pdfrwt beam="1">  1        3 0.56486260E-01 0.17272599E+03</pdfrwt>
<pdfrwt beam="2">  1       -3 0.11016506E-01 0.17272599E+03</pdfrwt>
<totfact> 0.46938958E+02</totfact>
</mgrwt>
</event>
<event>
 7    1  0.5400401E-006  0.1767187E+03  0.7546771E-02  0.1175952E+00
          1   -1    0    0  501    0  0.00000000000E+00  0.00000000000E+00  0.33944334367E+02  0.33944334367E+02  0.00000000000E+00 0. -1.
         -1   -1    0    0    0  501 -0.00000000000E+00 -0.00000000000E+00 -0.14829731121E+04  0.14829731121E+04  0.00000000000E+00 0.  1.
         23    2    1    2    0    0 -0.12176265718E+03 -0.27911349202E+02 -0.12518728434E+04  0.12642844219E+04  0.12499718065E+03 0.  0.
          5    1    3    3  502    0 -0.75213811330E+02 -0.55519869953E+02 -0.10795780658E+04  0.10836283789E+04  0.47000000000E+01 0. -1.
         -5    1    3    3    0  502 -0.46548845851E+02  0.27608520752E+02 -0.17229477764E+03  0.18065604300E+03  0.47000000000E+01 0. -1.
        -11    1    1    2    0    0  0.72364031216E+02  0.63582760779E+02 -0.13218020077E+03  0.16355710305E+03  0.00000000000E+00 0. -1.
         11    1    1    2    0    0  0.49398625965E+02 -0.35671411577E+02 -0.64975733533E+02  0.89075921546E+02  0.00000000000E+00 0.  1.
<mgrwt>
<rscale>  0 0.17183123E+03</rscale>
<asrwt>0</asrwt>
<pdfrwt beam="1">  1        1 0.52222052E-02 0.17671866E+03</pdfrwt>
<pdfrwt beam="2">  1       -1 0.22814971E+00 0.17671866E+03</pdfrwt>
<totfact> 0.17265185E+02</totfact>
</mgrwt>
</event>
<event>
 7    1  0.5400401E-006  0.1582666E+03  0.7546771E-02  0.1198894E+00
         -1   -1    0    0    0  501 -0.00000000000E+00  0.00000000000E+00  0.82572435354E+02  0.82572435354E+02  0.00000000000E+00 0.  1.
          1   -1    0    0  501    0  0.00000000000E+00 -0.00000000000E+00 -0.27030012873E+03  0.27030012873E+03  0.00000000000E+00 0. -1.
         23    2    1    2    0    0  0.65073853452E+02 -0.72041018379E+02 -0.60532720194E+02  0.16944774582E+03  0.12499525437E+03 0.  0.
          5    1    3    3  502    0  0.17496008456E+02 -0.84372869400E+02  0.61050480523E+01  0.86511577343E+02  0.47000000000E+01 0.  1.
         -5    1    3    3    0  502  0.47577844996E+02  0.12331851021E+02 -0.66637768246E+02  0.82936168473E+02  0.47000000000E+01 0.  1.
        -11    1    1    2    0    0 -0.51950573348E+02  0.36174125048E+02 -0.15209488627E+02  0.65105744282E+02  0.00000000000E+00 0.  1.
         11    1    1    2    0    0 -0.13123280103E+02  0.35866893331E+02 -0.11198548456E+03  0.11831907399E+03  0.00000000000E+00 0. -1.
<mgrwt>
<rscale>  0 0.15129220E+03</rscale>
<asrwt>0</asrwt>
<pdfrwt beam="2">  1        1 0.41584635E-01 0.15826664E+03</pdfrwt>
<pdfrwt beam="1">  1       -1 0.12703452E-01 0.15826664E+03</pdfrwt>
<totfact> 0.40629931E+03</totfact>
</mgrwt>
</event>
<event>
 7    1  0.5400401E-006  0.1265972E+03  0.7546771E-02  0.1248819E+00
          4   -1    0    0  501    0  0.00000000000E+00  0.00000000000E+00  0.19465700395E+02  0.19465700395E+02  0.00000000000E+00 0. -1.
         -4   -1    0    0    0  501 -0.00000000000E+00 -0.00000000000E+00 -0.69814609067E+03  0.69814609067E+03  0.00000000000E+00 0.  1.
         23    2    1    2    0    0 -0.10249001955E+02  0.17242309268E+02 -0.51458483091E+03  0.52992868476E+03  0.12499809384E+03 0.  0.
          5    1    3    3  502    0 -0.48849223110E+02 -0.20596084190E+01 -0.85118603878E+02  0.98273879090E+02  0.47000000000E+01 0.  1.
         -5    1    3    3    0  502  0.38600221155E+02  0.19301917687E+02 -0.42946622703E+03  0.43165480567E+03  0.47000000000E+01 0.  1.
        -11    1    1    2    0    0  0.47411006839E+02  0.47549643616E+01 -0.93105095311E+02  0.10458954072E+03  0.00000000000E+00 0.  1.
         11    1    1    2    0    0 -0.37162004885E+02 -0.21997273630E+02 -0.70990464052E+02  0.83093565578E+02  0.00000000000E+00 0. -1.
<mgrwt>
<rscale>  0 0.11659696E+03</rscale>
<asrwt>0</asrwt>
<pdfrwt beam="1">  1        4 0.29947227E-02 0.12659725E+03</pdfrwt>
<pdfrwt beam="2">  1       -4 0.10740711E+00 0.12659725E+03</pdfrwt>
<totfact> 0.64058617E+02</totfact>
</mgrwt>
</event>
<event>
 6    1  0.5400401E-006  0.2033202E+03  0.7546771E-02  0.1177477E+00
          2   -1    0    0  501    0  0.00000000000E+00  0.00000000000E+00  0.28428563920E+03  0.28428563920E+03  0.00000000000E+00 0. -1.
         -2   -1    0    0    0  501 -0.00000000000E+00 -0.00000000000E+00 -0.84149993167E+02  0.84149993167E+02  0.00000000000E+00 0.  1.
          5    1    1    2  502    0 -0.66316682287E+02 -0.44061641806E+02  0.14367904584E+03  0.16433225137E+03  0.47000000000E+01 0. -1.
         -5    1    1    2    0  502  0.41418666799E+02  0.11263586001E+02 -0.44398102079E+02  0.61932671485E+02  0.47000000000E+01 0.  1.
        -11    1    1    2    0    0 -0.20747308344E+02 -0.83995760564E+01 -0.18579630417E+01  0.22460091454E+02  0.00000000000E+00 0. -1.
         11    1    1    2    0    0  0.45645323832E+02  0.41197631862E+02  0.10271266531E+03  0.11971061805E+03  0.00000000000E+00 0.  1.
<mgrwt>
<rscale>  0 0.17035570E+03</rscale>
<asrwt>0</asrwt>
<pdfrwt beam="1">  1        2 0.43736252E-01 0.20332021E+03</pdfrwt>
<pdfrwt beam="2">  1       -2 0.12946153E-01 0.20332021E+03</pdfrwt>
<totfact> 0.49608525E+03</totfact>
</mgrwt>
</event>
<event>
 7    1  0.5400401E-006  0.1330545E+03  0.7546771E-02  0.1236372E+00
         -1   -1    0    0    0  501 -0.00000000000E+00  0.00000000000E+00  0.68995520205E+02  0.68995520205E+02  0.00000000000E+00 0.  1.
          1   -1    0    0  501    0  0.00000000000E+00 -0.00000000000E+00 -0.31976076614E+03  0.31976076614E+03  0.00000000000E+00 0. -1.
         23    2    1    2    0    0  0.34943848684E+02  0.29265969364E+02 -0.16998994872E+02  0.13413604071E+03  0.12500376822E+03 0.  0.
          5    1    3    3  502    0  0.16736188447E+02 -0.46640733718E+02 -0.24681550310E+02  0.55558320449E+02  0.47000000000E+01 0.  1.
         -5    1    3    3    0  502  0.18207660236E+02  0.75906703081E+02  0.76825554373E+01  0.78577720265E+02  0.47000000000E+01 0.  1.
        -11    1    1    2    0    0 -0.24869822237E+02 -0.61886522896E+02 -0.14968853986E+03  0.16387528410E+03  0.00000000000E+00 0.  1.
         11    1    1    2    0    0 -0.10074026447E+02  0.32620553532E+02 -0.84077711205E+02  0.90744961530E+02  0.00000000000E+00 0. -1.
<mgrwt>
<rscale>  0 0.12416992E+03</rscale>
<asrwt>0</asrwt>
<pdfrwt beam="2">  1        1 0.49193963E-01 0.13305454E+03</pdfrwt>
<pdfrwt beam="1">  1       -1 0.10614696E-01 0.13305454E+03</pdfrwt>
<totfact> 0.43131561E+03</totfact>
</mgrwt>
</event>
<event>
 7    1  0.5400401E-006  0.1721824E+03  0.7546771E-02  0.1182217E+00
          1   -1    0    0  501    0  0.00000000000E+00  0.00000000000E+00  0.20201204432E+03  0.20201204432E+03  0.00000000000E+00 0. -1.
         -1   -1    0    0    0  501 -0.00000000000E+00 -0.00000000000E+00 -0.13880940585E+03  0.13880940585E+03  0.00000000000E+00 0.  1.
         23    2    1    2    0    0 -0.31193182127E+02  0.11422939814E+03 -0.15572389185E+02  0.17288517479E+03  0.12500165738E+03 0.  0.
          5    1    3    3  502    0 -0.64284825029E+02  0.15598757556E+02  0.58154500932E+01  0.66571536155E+02  0.47000000000E+01 0. -1.
         -5    1    3    3    0  502  0.33091642902E+02  0.98630640580E+02 -0.21387839278E+02  0.10631363864E+03  0.47000000000E+01 0. -1.
        -11    1    1    2    0    0 -0.19831222829E+02 -0.86933899157E+02  0.58390180868E+02  0.10658420823E+03  0.00000000000E+00 0.  1.
         11    1    1    2    0    0  0.51024404956E+02 -0.27295498978E+02  0.20384846783E+02  0.61352067153E+02  0.00000000000E+00 0. -1.
<mgrwt>
<rscale>  0 0.16587741E+03</rscale>
<asrwt>0</asrwt>
<pdfrwt beam="1">  1        1 0.31078776E-01 0.17218242E+03</pdfrwt>
<pdfrwt beam="2">  1       -1 0.21355293E-01 0.17218242E+03</pdfrwt>
<totfact> 0.25693855E+03</totfact>
</mgrwt>
</event>
<event>
 7    1  0.5400401E-006  0.3960066E+03  0.7546771E-02  0.1045913E+00
         -3   -1    0    0    0  501 -0.00000000000E+00  0.00000000000E+00  0.25872674867E+03  0.25872674867E+03  0.00000000000E+00 0.  1.
          3   -1    0    0  501    0  0.00000000000E+00 -0.00000000000E+00 -0.66514776896E+03  0.66514776896E+03  0.00000000000E+00 0. -1.
         23    2    1    2    0    0 -0.19630719489E+03  0.32040376308E+03 -0.35685413077E+03  0.53307234299E+03  0.12500466415E+03 0.  0.
          5    1    3    3  502    0 -0.26716072620E+01  0.77523248771E+02 -0.11762402376E+03  0.14097692205E+03  0.47000000000E+01 0.  1.
         -5    1    3    3    0  502 -0.19363558762E+03  0.24288051431E+03 -0.23923010701E+03  0.39209542094E+03  0.47000000000E+01 0.  1.
        -11    1    1    2    0    0  0.11584834703E+03 -0.19393776967E+03  0.17521023090E+02  0.22658262128E+03  0.00000000000E+00 0.  1.
         11    1    1    2    0    0  0.80458847853E+02 -0.12646599341E+03 -0.67087912617E+02  0.16421955336E+03  0.00000000000E+00 0. -1.
<mgrwt>
<rscale>  0 0.39389973E+03</rscale>
<asrwt>0</asrwt>
<pdfrwt beam="2">  1        3 0.10233043E+00 0.39600663E+03</pdfrwt>
<pdfrwt beam="1">  1       -3 0.39804115E-01 0.39600663E+03</pdfrwt>
<totfact> 0.13508445E+01</totfact>
</mgrwt>
</event>
<event>
 6    1  0.5400401E-006  0.2534260E+03  0.7546771E-02  0.1147401E+00
         -2   -1    0    0    0  501 -0.00000000000E+00  0.00000000000E+00  0.10664151162E+03  0.10664151162E+03  0.00000000000E+00 0.  1.
          2   -1    0    0  501    0  0.00000000000E+00 -0.00000000000E+00 -0.41770327963E+03  0.41770327963E+03  0.00000000000E+00 0. -1.
          5    1    1    2  502    0  0.24708961172E+02 -0.19521645297E+02 -0.15950736086E+03  0.16265397495E+03  0.47000000000E+01 0. -1.
         -5    1    1    2    0  502 -0.40092524880E+02 -0.28211457810E+02  0.87846047822E+02  0.10070906127E+03  0.47000000000E+01 0.  1.
        -11    1    1    2    0    0 -0.31171882721E+02  0.30115346943E+02 -0.17086669074E+03  0.17627832084E+03  0.00000000000E+00 0. -1.
         11    1    1    2    0    0  0.46555446430E+02  0.17617756164E+02 -0.68533764232E+02  0.84703434194E+02  0.00000000000E+00 0.  1.
<mgrwt>
<rscale>  0 0.20279667E+03</rscale>
<asrwt>0</asrwt>
<pdfrwt beam="2">  1        2 0.64262044E-01 0.25342601E+03</pdfrwt>
<pdfrwt beam="1">  1       -2 0.16406386E-01 0.25342601E+03</pdfrwt>
<totfact> 0.22327874E+03</totfact>
</mgrwt>
</event>
<event>
 7    1  0.5400401E-006  0.1950560E+03  0.7546771E-02  0.1158848E+00
         -3   -1    0    0    0  501 -0.00000000000E+00  0.00000000000E+00  0.31816732837E+03  0.31816732837E+03  0.00000000000E+00 0.  1.
          3   -1    0    0  501    0  0.00000000000E+00 -0.00000000000E+00 -0.13986389498E+03  0.13986389498E+03  0.00000000000E+00 0. -1.
         23    2    1    2    0    0 -0.13935028536E+03 -0.54810162760E+02  0.20384909011E+03  0.28213704153E+03  0.12499681075E+03 0.  0.
          5    1    3    3  502    0 -0.89006384773E+01  0.28629006333E+02  0.74044202493E+02  0.80021717625E+02  0.47000000000E+01 0. -1.
         -5    1    3    3    0  502 -0.13044964688E+03 -0.83439169092E+02  0.12980488761E+03  0.20211532391E+03  0.47000000000E+01 0. -1.
        -11    1    1    2    0    0  0.32021703133E+02 -0.20249581092E+02 -0.24124025885E+02  0.44915516593E+02  0.00000000000E+00 0.  1.
         11    1    1    2    0    0  0.10732858222E+03  0.75059743852E+02 -0.14216308353E+01  0.13097866522E+03  0.00000000000E+00 0. -1.
<mgrwt>
<rscale>  0 0.18957240E+03</rscale>
<asrwt>0</asrwt>
<pdfrwt beam="2">  1        3 0.21517522E-01 0.19505604E+03</pdfrwt>
<pdfrwt beam="1">  1       -3 0.48948820E-01 0.19505604E+03</pdfrwt>
<totfact> 0.20005709E+02</totfact>
</mgrwt>
</event>
<event>
 7    1  0.5400401E-006  0.1235154E+03  0.7546771E-02  0.1244728E+00
          2   -1    0    0  501    0  0.00000000000E+00  0.00000000000E+00  0.11477873894E+03  0.11477873894E+03  0.00000000000E+00 0. -1.
         -2   -1    0    0    0  501 -0.00000000000E+00 -0.00000000000E+00 -0.11545308398E+03  0.11545308398E+03  0.00000000000E+00 0.  1.
         23    2    1    2    0    0 -0.34202787768E+02 -0.40829284558E+02 -0.55517129858E+01  0.12364011709E+03  0.11144144592E+03 0.  0.
          5    1    3    3  502    0  0.19917789998E+01 -0.41582934236E+02  0.44871271524E+02  0.61389157116E+02  0.47000000000E+01 0. -1.
         -5    1    3    3    0  502 -0.36194566768E+02  0.75364967778E+00 -0.50422984510E+02  0.62250959978E+02  0.47000000000E+01 0.  1.
        -11    1    1    2    0    0 -0.31478881824E+02  0.16275027313E+02 -0.49639465214E+01  0.35783198291E+02  0.00000000000E+00 0.  1.
         11    1    1    2    0    0  0.65681669592E+02  0.24554257246E+02  0.98413144690E+01  0.70808507538E+02  0.00000000000E+00 0. -1.
<mgrwt>
<rscale>  0 0.11901671E+03</rscale>
<asrwt>0</asrwt>
<pdfrwt beam="1">  1        2 0.17658268E-01 0.12351541E+03</pdfrwt>
<pdfrwt beam="2">  1       -2 0.17762013E-01 0.12351541E+03</pdfrwt>
<totfact> 0.77578706E+03</totfact>
</mgrwt>
</event>
<event>
 6    1  0.5400401E-006  0.3715565E+03  0.7546771E-02  0.1099350E+00
          2   -1    0    0  501    0  0.00000000000E+00  0.00000000000E+00  0.98050424363E+03  0.98050424363E+03  0.00000000000E+00 0. -1.
         -2   -1    0    0    0  501 -0.00000000000E+00 -0.00000000000E+00 -0.58879143883E+02  0.58879143883E+02  0.00000000000E+00 0.  1.
          5    1    1    2  502    0 -0.29885013990E+02  0.13303187551E+03  0.55052160076E+03  0.56717432670E+03  0.47000000000E+01 0. -1.
         -5    1    1    2    0  502  0.17886536600E+02 -0.16910404915E+03  0.15467685128E+03  0.22991982505E+03  0.47000000000E+01 0.  1.
        -11    1    1    2    0    0 -0.20125457839E+02 -0.29574548155E+02  0.67318792529E+02  0.76233245892E+02  0.00000000000E+00 0.  1.
         11    1    1    2    0    0  0.32123935229E+02  0.65646721791E+02  0.14910785518E+03  0.16605598987E+03  0.00000000000E+00 0. -1.
<mgrwt>
<rscale>  0 0.27339818E+03</rscale>
<asrwt>0</asrwt>
<pdfrwt beam="1">  1        2 0.15084680E+00 0.37155650E+03</pdfrwt>
<pdfrwt beam="2">  1       -2 0.90583305E-02 0.37155650E+03</pdfrwt>
<totfact> 0.20988300E+03</totfact>
</mgrwt>
</event>
<event>
 7    1  0.5400401E-006  0.1929215E+03  0.7546771E-02  0.1160750E+00
         -1   -1    0    0    0  501 -0.00000000000E+00  0.00000000000E+00  0.22700738310E+03  0.22700738310E+03  0.00000000000E+00 0.  1.
          1   -1    0    0  501    0  0.00000000000E+00 -0.00000000000E+00 -0.16163292503E+03  0.16163292503E+03  0.00000000000E+00 0. -1.
         23    2    1    2    0    0 -0.12926950348E+03  0.69882286018E+02  0.93325619858E+02  0.21430909299E+03  0.12499831033E+03 0.  0.
          5    1    3    3  502    0 -0.29684907484E+01  0.66185997607E+02  0.29609088136E+02  0.72719916919E+02  0.47000000000E+01 0. -1.
         -5    1    3    3    0  502 -0.12630101273E+03  0.36962884115E+01  0.63716531721E+02  0.14158917607E+03  0.47000000000E+01 0. -1.
        -11    1    1    2    0    0  0.79862242239E+02  0.39771257735E+01 -0.30113985249E+02  0.85443825830E+02  0.00000000000E+00 0.  1.
         11    1    1    2    0    0  0.49407261240E+02 -0.73859411792E+02  0.21628234597E+01  0.88887389312E+02  0.00000000000E+00 0. -1.
<mgrwt>
<rscale>  0 0.18748456E+03</rscale>
<asrwt>0</asrwt>
<pdfrwt beam="2">  1        1 0.24866604E-01 0.19292153E+03</pdfrwt>
<pdfrwt beam="1">  1       -1 0.34924213E-01 0.19292153E+03</pdfrwt>
<totfact> 0.14988914E+03</totfact>
</mgrwt>
</event>
<event>
 7    1  0.5400401E-006  0.1779947E+03  0.7546771E-02  0.1175555E+00
         -1   -1    0    0    0  501 -0.00000000000E+00  0.00000000000E+00  0.26342540302E+02  0.26342540302E+02  0.00000000000E+00 0.  1.
          1   -1    0    0  501    0  0.00000000000E+00 -0.00000000000E+00 -0.10587825155E+04  0.10587825155E+04  0.00000000000E+00 0. -1.
         23    2    1    2    0    0  0.12296304009E+03 -0.30587820694E+02 -0.55759167455E+03  0.58531237960E+03  0.12500632857E+03 0.  0.
          5    1    3    3  502    0  0.12795798772E+03 -0.13906009885E+02 -0.55139990414E+03  0.56624249930E+03  0.47000000000E+01 0. -1.
         -5    1    3    3    0  502 -0.49949476324E+01 -0.16681810809E+02 -0.61917704120E+01  0.19069880297E+02  0.47000000000E+01 0. -1.
        -11    1    1    2    0    0  0.11914167395E+02  0.16693986068E+01 -0.12599922669E+02  0.17421031189E+02  0.00000000000E+00 0.  1.
         11    1    1    2    0    0 -0.13487720749E+03  0.28918422087E+02 -0.46224837800E+03  0.48239164504E+03  0.00000000000E+00 0. -1.
<mgrwt>
<rscale>  0 0.17221741E+03</rscale>
<asrwt>0</asrwt>
<pdfrwt beam="2">  1        1 0.16288963E+00 0.17799468E+03</pdfrwt>
<pdfrwt beam="1">  1       -1 0.40526981E-02 0.17799468E+03</pdfrwt>
<totfact> 0.34540231E+03</totfact>
</mgrwt>
</event>
<event>
 7    1  0.5400401E-006  0.2772549E+03  0.7546771E-02  0.1099156E+00
          4   -1    0    0  501    0  0.00000000000E+00  0.00000000000E+00  0.18904831838E+03  0.18904831838E+03  0.00000000000E+00 0. -1.
         -4   -1    0    0    0  501 -0.00000000000E+00 -0.00000000000E+00 -0.39057923743E+03  0.39057923743E+03  0.00000000000E+00 0.  1.
         23    2    1    2    0    0  0.24696901537E+03 -0.15832933160E+02 -0.13235314175E+03  0.30722570124E+03  0.12500360414E+03 0.  0.
          5    1    3    3  502    0 -0.12982473429E+02  0.42760670881E+01  0.70321822354E+00  0.14471139622E+02  0.47000000000E+01 0. -1.
         -5    1    3    3    0  502  0.25995148880E+03 -0.20109000248E+02 -0.13305635998E+03  0.29275456162E+03  0.47000000000E+01 0. -1.
        -11    1    1    2    0    0 -0.20202552569E+03  0.32996673348E+02 -0.23473726469E+02  0.20604394996E+03  0.00000000000E+00 0.  1.
         11    1    1    2    0    0 -0.44943489681E+02 -0.17163740188E+02 -0.45704050825E+02  0.66357904607E+02  0.00000000000E+00 0. -1.
<mgrwt>
<rscale>  0 0.27374287E+03</rscale>
<asrwt>0</asrwt>
<pdfrwt beam="1">  1        4 0.29084357E-01 0.27725490E+03</pdfrwt>
<pdfrwt beam="2">  1       -4 0.60089113E-01 0.27725490E+03</pdfrwt>
<totfact> 0.54985356E+01</totfact>
</mgrwt>
</event>
<event>
 7    1  0.5400401E-006  0.1189810E+03  0.7546771E-02  0.1253246E+00
         -1   -1    0    0    0  501 -0.00000000000E+00  0.00000000000E+00  0.38507022284E+02  0.38507022284E+02  0.00000000000E+00 0.  1.
          1   -1    0    0  501    0  0.00000000000E+00 -0.00000000000E+00 -0.40496832708E+03  0.40496832708E+03  0.00000000000E+00 0. -1.
         23    2    1    2    0    0  0.43203837059E+02 -0.43837672770E+01 -0.89576530915E+02  0.14893095673E+03  0.11077312865E+03 0.  0.
          5    1    3    3  502    0 -0.98580426868E+01  0.38523427224E+02 -0.64815160990E+02  0.76186157174E+02  0.47000000000E+01 0. -1.
         -5    1    3    3    0  502  0.53061879746E+02 -0.42907194501E+02 -0.24761369925E+02  0.72744799558E+02  0.47000000000E+01 0.  1.
        -11    1    1    2    0    0  0.21612590528E+02 -0.15373339957E+00 -0.19582751800E+02  0.29165251094E+02  0.00000000000E+00 0.  1.
         11    1    1    2    0    0 -0.64816427587E+02  0.45375006765E+01 -0.25730202208E+03  0.26537914154E+03  0.00000000000E+00 0. -1.
<mgrwt>
<rscale>  0 0.11405154E+03</rscale>
<asrwt>0</asrwt>
<pdfrwt beam="2">  1        1 0.62302822E-01 0.11898099E+03</pdfrwt>
<pdfrwt beam="1">  1       -1 0.59241571E-02 0.11898099E+03</pdfrwt>
<totfact> 0.76773648E+03</totfact>
</mgrwt>
</event>
<event>
 7    1  0.8539587E-006  0.3167788E+03  0.7546771E-02  0.1078578E+00
         -1   -1    0    0    0  501 -0.00000000000E+00  0.00000000000E+00  0.26837267245E+03  0.26837267245E+03  0.00000000000E+00 0.  1.
          1   -1    0    0  501    0  0.00000000000E+00 -0.00000000000E+00 -0.35981582708E+03  0.35981582708E+03  0.00000000000E+00 0. -1.
         23    2    1    2    0    0  0.26326438762E+03  0.12416135353E+03 -0.44875526642E+02  0.31994162819E+03  0.12499861224E+03 0.  0.
          5    1    3    3  502    0  0.20076525232E+03  0.44987229743E+02 -0.67262612253E+02  0.21651070732E+03  0.47000000000E+01 0. -1.
         -5    1    3    3    0  502  0.62499135299E+02  0.79174123785E+02  0.22387085611E+02  0.10343092087E+03  0.47000000000E+01 0. -1.
        -11    1    1    2    0    0 -0.66660474174E+02 -0.37952836642E+02 -0.53399288429E+02  0.93464007141E+02  0.00000000000E+00 0. -1.
         11    1    1    2    0    0 -0.19660391344E+03 -0.86208516887E+02  0.68316604387E+01  0.21478286419E+03  0.00000000000E+00 0.  1.
<mgrwt>
<rscale>  0 0.31371729E+03</rscale>
<asrwt>0</asrwt>
<pdfrwt beam="2">  1        1 0.55356281E-01 0.31677884E+03</pdfrwt>
<pdfrwt beam="1">  1       -1 0.41288103E-01 0.31677884E+03</pdfrwt>
<totfact> 0.40660882E+02</totfact>
</mgrwt>
</event>
<event>
 6    1  0.5400401E-006  0.4180594E+03  0.7546771E-02  0.1085553E+00
          2   -1    0    0  501    0  0.00000000000E+00  0.00000000000E+00  0.76637846618E+03  0.76637846618E+03  0.00000000000E+00 0. -1.
         -2   -1    0    0    0  501 -0.00000000000E+00 -0.00000000000E+00 -0.94553412204E+02  0.94553412204E+02  0.00000000000E+00 0.  1.
          5    1    1    2  502    0  0.20616188534E+03 -0.22207195508E+02  0.25716015117E+03  0.33037753533E+03  0.47000000000E+01 0. -1.
         -5    1    1    2    0  502 -0.19282754482E+03  0.79597552671E+02  0.19829476379E+03  0.28785610256E+03  0.47000000000E+01 0.  1.
        -11    1    1    2    0    0 -0.45927589269E+02 -0.52599485614E+01  0.69400318961E+02  0.83387138018E+02  0.00000000000E+00 0.  1.
         11    1    1    2    0    0  0.32593248751E+02 -0.52130408601E+02  0.14696982005E+03  0.15931110247E+03  0.00000000000E+00 0. -1.
<mgrwt>
<rscale>  0 0.29937505E+03</rscale>
<asrwt>0</asrwt>
<pdfrwt beam="1">  1        2 0.11790437E+00 0.41805939E+03</pdfrwt>
<pdfrwt beam="2">  1       -2 0.14546679E-01 0.41805939E+03</pdfrwt>
<totfact> 0.13509927E+03</totfact>
</mgrwt>
</event>
<event>
 7    1  0.5400401E-006  0.1384209E+03  0.7546771E-02  0.1224254E+00
         -1   -1    0    0    0  501 -0.00000000000E+00  0.00000000000E+00  0.25865694792E+02  0.25865694792E+02  0.00000000000E+00 0.  1.
          1   -1    0    0  501    0  0.00000000000E+00 -0.00000000000E+00 -0.62319550703E+03  0.62319550703E+03  0.00000000000E+00 0. -1.
         23    2    1    2    0    0  0.36080935388E+02 -0.47263728461E+02 -0.34425792093E+03  0.37104426746E+03  0.12499855344E+03 0.  0.
          5    1    3    3  502    0 -0.28417846359E+02 -0.45792895593E+02 -0.25579991720E+03  0.26145793336E+03  0.47000000000E+01 0. -1.
         -5    1    3    3    0  502  0.64498781748E+02 -0.14708328681E+01 -0.88458003736E+02  0.10958633410E+03  0.47000000000E+01 0. -1.
        -11    1    1    2    0    0  0.32913566427E+02  0.90087266000E+01 -0.53945419223E+02  0.63832344975E+02  0.00000000000E+00 0. -1.
         11    1    1    2    0    0 -0.68994501815E+02  0.38255001861E+02 -0.19912647208E+03  0.21418458939E+03  0.00000000000E+00 0.  1.
<mgrwt>
<rscale>  0 0.13218131E+03</rscale>
<asrwt>0</asrwt>
<pdfrwt beam="2">  1        1 0.95876223E-01 0.13842085E+03</pdfrwt>
<pdfrwt beam="1">  1       -1 0.39793380E-02 0.13842085E+03</pdfrwt>
<totfact> 0.79394728E+03</totfact>
</mgrwt>
</event>
<event>
 6    1  0.5400401E-006  0.2390963E+03  0.7546771E-02  0.1150460E+00
          1   -1    0    0  501    0  0.00000000000E+00  0.00000000000E+00  0.74214910097E+03  0.74214910097E+03  0.00000000000E+00 0. -1.
         -1   -1    0    0    0  501 -0.00000000000E+00 -0.00000000000E+00 -0.49818772563E+02  0.49818772563E+02  0.00000000000E+00 0.  1.
          5    1    1    2  502    0  0.46104373477E+00 -0.29217605956E+02  0.31176470344E+03  0.31316641163E+03  0.47000000000E+01 0. -1.
         -5    1    1    2    0  502 -0.64809477424E+02  0.31501462741E+02 -0.88363544582E+01  0.72751506369E+02  0.47000000000E+01 0.  1.
        -11    1    1    2    0    0  0.84808934454E+02  0.17438519889E+02  0.29937758479E+03  0.31164658768E+03  0.00000000000E+00 0. -1.
         11    1    1    2    0    0 -0.20460500765E+02 -0.19722376674E+02  0.90024394634E+02  0.94403367855E+02  0.00000000000E+00 0.  1.
<mgrwt>
<rscale>  0 0.19914830E+03</rscale>
<asrwt>0</asrwt>
<pdfrwt beam="1">  1        1 0.11417678E+00 0.23909633E+03</pdfrwt>
<pdfrwt beam="2">  1       -1 0.76644271E-02 0.23909633E+03</pdfrwt>
<totfact> 0.23676583E+03</totfact>
</mgrwt>
</event>
<event>
 7    1  0.5400401E-006  0.1628370E+03  0.7546771E-02  0.1190840E+00
         -1   -1    0    0    0  501 -0.00000000000E+00  0.00000000000E+00  0.17368953731E+03  0.17368953731E+03  0.00000000000E+00 0.  1.
          1   -1    0    0  501    0  0.00000000000E+00 -0.00000000000E+00 -0.13655677814E+03  0.13655677814E+03  0.00000000000E+00 0. -1.
         23    2    1    2    0    0  0.58765502993E+02 -0.86242253584E+02  0.11571154805E+02  0.16324759912E+03  0.12499910540E+03 0.  0.
          5    1    3    3  502    0 -0.18082354639E+02 -0.76924918804E+02  0.28011259953E+02  0.83971038856E+02  0.47000000000E+01 0. -1.
         -5    1    3    3    0  502  0.76847857632E+02 -0.93173347799E+01 -0.16440105148E+02  0.79276560264E+02  0.47000000000E+01 0. -1.
        -11    1    1    2    0    0 -0.25727324109E+02  0.31356051481E+02  0.61404441450E+02  0.73590777955E+02  0.00000000000E+00 0.  1.
         11    1    1    2    0    0 -0.33038178884E+02  0.54886202103E+02 -0.35842837084E+02  0.73407938369E+02  0.00000000000E+00 0. -1.
<mgrwt>
<rscale>  0 0.15811620E+03</rscale>
<asrwt>0</asrwt>
<pdfrwt beam="2">  1        1 0.21008735E-01 0.16283700E+03</pdfrwt>
<pdfrwt beam="1">  1       -1 0.26721467E-01 0.16283700E+03</pdfrwt>
<totfact> 0.29067008E+03</totfact>
</mgrwt>
</event>
<event>
 7    1  0.5400401E-006  0.1264053E+03  0.7546771E-02  0.1247832E+00
         -1   -1    0    0    0  501 -0.00000000000E+00  0.00000000000E+00  0.17510972914E+03  0.17510972914E+03  0.00000000000E+00 0.  1.
          1   -1    0    0  501    0  0.00000000000E+00 -0.00000000000E+00 -0.78118810942E+02  0.78118810942E+02  0.00000000000E+00 0. -1.
         23    2    1    2    0    0  0.11282830547E+02  0.15071202083E+02  0.97909813336E+02  0.15988946430E+03  0.12499546331E+03 0.  0.
          5    1    3    3  502    0  0.35886091265E+02  0.62210491338E+02  0.66275279441E+02  0.97838946457E+02  0.47000000000E+01 0. -1.
         -5    1    3    3    0  502 -0.24603260718E+02 -0.47139289255E+02  0.31634533895E+02  0.62050517840E+02  0.47000000000E+01 0. -1.
        -11    1    1    2    0    0 -0.12930658515E+02 -0.36254183316E+02  0.34726937063E+02  0.51841372429E+02  0.00000000000E+00 0.  1.
         11    1    1    2    0    0  0.16478279674E+01  0.21182981233E+02 -0.35645832199E+02  0.41497703359E+02  0.00000000000E+00 0. -1.
<mgrwt>
<rscale>  0 0.11717492E+03</rscale>
<asrwt>0</asrwt>
<pdfrwt beam="2">  1        1 0.12018279E-01 0.12640534E+03</pdfrwt>
<pdfrwt beam="1">  1       -1 0.26939958E-01 0.12640534E+03</pdfrwt>
<totfact> 0.58145863E+03</totfact>
</mgrwt>
</event>
<event>
 7    1  0.5400401E-006  0.1263031E+03  0.7546771E-02  0.1249293E+00
          2   -1    0    0  501    0  0.00000000000E+00  0.00000000000E+00  0.15409811566E+03  0.15409811566E+03  0.00000000000E+00 0. -1.
         -2   -1    0    0    0  501 -0.00000000000E+00 -0.00000000000E+00 -0.88976419969E+02  0.88976419969E+02  0.00000000000E+00 0.  1.
         23    2    1    2    0    0  0.78932330177E+01 -0.16297856638E+02 -0.78350783946E+01  0.12654592978E+03  0.12499824252E+03 0.  0.
          5    1    3    3  502    0 -0.18087961546E+02  0.36543462570E+02 -0.41654769640E+02  0.58479131690E+02  0.47000000000E+01 0.  1.
         -5    1    3    3    0  502  0.25981194564E+02 -0.52841319208E+02  0.33819691245E+02  0.68066798092E+02  0.47000000000E+01 0.  1.
        -11    1    1    2    0    0 -0.31666871832E+02 -0.90283663946E+01  0.74816825535E+02  0.81742642204E+02  0.00000000000E+00 0. -1.
         11    1    1    2    0    0  0.23773638814E+02  0.25326223032E+02 -0.18600514450E+01  0.34785963648E+02  0.00000000000E+00 0.  1.
<mgrwt>
<rscale>  0 0.11632105E+03</rscale>
<asrwt>0</asrwt>
<pdfrwt beam="1">  1        2 0.23707402E-01 0.12630314E+03</pdfrwt>
<pdfrwt beam="2">  1       -2 0.13688680E-01 0.12630314E+03</pdfrwt>
<totfact> 0.85481008E+03</totfact>
</mgrwt>
</event>
<event>
 6    1  0.5400401E-006  0.3670879E+03  0.7546771E-02  0.1087931E+00
          2   -1    0    0  501    0  0.00000000000E+00  0.00000000000E+00  0.16023311589E+04  0.16023311589E+04  0.00000000000E+00 0. -1.
         -2   -1    0    0    0  501 -0.00000000000E+00 -0.00000000000E+00 -0.45376583298E+02  0.45376583298E+02  0.00000000000E+00 0.  1.
          5    1    1    2  502    0  0.10790761241E+03 -0.34129054114E+02  0.54635874718E+03  0.55797743303E+03  0.47000000000E+01 0. -1.
         -5    1    1    2    0  502 -0.15147207406E+03  0.14760577709E+03  0.32787879145E+03  0.39020231487E+03  0.47000000000E+01 0.  1.
        -11    1    1    2    0    0 -0.28335534847E+02 -0.20855365880E+02  0.15725139719E+03  0.16113922781E+03  0.00000000000E+00 0. -1.
         11    1    1    2    0    0  0.71899996495E+02 -0.92621357092E+02  0.52546563978E+03  0.53838876648E+03  0.00000000000E+00 0.  1.
<mgrwt>
<rscale>  0 0.29467940E+03</rscale>
<asrwt>0</asrwt>
<pdfrwt beam="1">  1        2 0.24651244E+00 0.36708795E+03</pdfrwt>
<pdfrwt beam="2">  1       -2 0.69810141E-02 0.36708795E+03</pdfrwt>
<totfact> 0.14012384E+03</totfact>
</mgrwt>
</event>
<event>
 7    1  0.5400401E-006  0.1927289E+03  0.7546771E-02  0.1160609E+00
         -2   -1    0    0    0  501 -0.00000000000E+00  0.00000000000E+00  0.75617715965E+02  0.75617715965E+02  0.00000000000E+00 0. -1.
          2   -1    0    0  501    0  0.00000000000E+00 -0.00000000000E+00 -0.52789817072E+03  0.52789817072E+03  0.00000000000E+00 0.  1.
         23    2    1    2    0    0  0.51418715829E+02  0.13738990880E+03 -0.11512960471E+03  0.22449782130E+03  0.12499829803E+03 0.  0.
          5    1    3    3  502    0  0.88077310990E+02  0.67769341759E+02 -0.85483071930E+02  0.14028450371E+03  0.47000000000E+01 0.  1.
         -5    1    3    3    0  502 -0.36658595161E+02  0.69620567037E+02 -0.29646532785E+02  0.84213317592E+02  0.47000000000E+01 0.  1.
        -11    1    1    2    0    0  0.20765219834E+02 -0.49689638777E+01 -0.29817937269E+02  0.36674164473E+02  0.00000000000E+00 0. -1.
         11    1    1    2    0    0 -0.72183935663E+02 -0.13242094492E+03 -0.30733291277E+03  0.34234390091E+03  0.00000000000E+00 0.  1.
<mgrwt>
<rscale>  0 0.18763826E+03</rscale>
<asrwt>0</asrwt>
<pdfrwt beam="2">  1        2 0.81215098E-01 0.19272894E+03</pdfrwt>
<pdfrwt beam="1">  1       -2 0.11633495E-01 0.19272894E+03</pdfrwt>
<totfact> 0.30024516E+03</totfact>
</mgrwt>
</event>
<event>
 7    1  0.5400401E-006  0.1709126E+03  0.7546771E-02  0.1183457E+00
          1   -1    0    0  501    0  0.00000000000E+00  0.00000000000E+00  0.19805889855E+03  0.19805889855E+03  0.00000000000E+00 0. -1.
         -1   -1    0    0    0  501 -0.00000000000E+00 -0.00000000000E+00 -0.13362235378E+03  0.13362235378E+03  0.00000000000E+00 0.  1.
         23    2    1    2    0    0  0.31560595703E+02  0.11219713294E+03  0.46658809017E+00  0.17091327940E+03  0.12500745390E+03 0.  0.
          5    1    3    3  502    0 -0.15946945497E+02  0.11130830183E+03 -0.27126389585E+02  0.11576603188E+03  0.47000000000E+01 0.  1.
         -5    1    3    3    0  502  0.47507541200E+02  0.88883111405E+00  0.27592977675E+02  0.55147247516E+02  0.47000000000E+01 0.  1.
        -11    1    1    2    0    0  0.11582734307E+02 -0.24278237837E+02 -0.18572646156E+02  0.32688465117E+02  0.00000000000E+00 0.  1.
         11    1    1    2    0    0 -0.43143330009E+02 -0.87918895104E+02  0.82542602832E+02  0.12807950782E+03  0.00000000000E+00 0. -1.
<mgrwt>
<rscale>  0 0.16473030E+03</rscale>
<asrwt>0</asrwt>
<pdfrwt beam="1">  1        1 0.30470600E-01 0.17091264E+03</pdfrwt>
<pdfrwt beam="2">  1       -1 0.20557285E-01 0.17091264E+03</pdfrwt>
<totfact> 0.28007474E+03</totfact>
</mgrwt>
</event>
<event>
 7    1  0.5400401E-006  0.3070616E+03  0.7546771E-02  0.1083339E+00
         -2   -1    0    0    0  501 -0.00000000000E+00  0.00000000000E+00  0.29426995322E+03  0.29426995322E+03  0.00000000000E+00 0.  1.
          2   -1    0    0  501    0  0.00000000000E+00 -0.00000000000E+00 -0.30739499903E+03  0.30739499903E+03  0.00000000000E+00 0. -1.
         23    2    1    2    0    0 -0.27430221687E+03 -0.58492463655E+02 -0.11985829174E+01  0.30706398235E+03  0.12499511260E+03 0.  0.
          5    1    3    3  502    0 -0.17565993274E+03  0.16027384201E+02  0.31169421093E+02  0.17918401666E+03  0.47000000000E+01 0.  1.
         -5    1    3    3    0  502 -0.98642284128E+02 -0.74519847856E+02 -0.32368004010E+02  0.12787996569E+03  0.47000000000E+01 0.  1.
        -11    1    1    2    0    0  0.95811815479E+02  0.33339038928E+02 -0.45607923689E+02  0.11122714689E+03  0.00000000000E+00 0. -1.
         11    1    1    2    0    0  0.17849040139E+03  0.25153424728E+02  0.33681460791E+02  0.18337382301E+03  0.00000000000E+00 0.  1.
<mgrwt>
<rscale>  0 0.30383561E+03</rscale>
<asrwt>0</asrwt>
<pdfrwt beam="2">  1        2 0.47291538E-01 0.30706164E+03</pdfrwt>
<pdfrwt beam="1">  1       -2 0.45272301E-01 0.30706164E+03</pdfrwt>
<totfact> 0.50042994E+02</totfact>
</mgrwt>
</event>
<event>
 6    1  0.5400401E-006  0.1691541E+03  0.7546771E-02  0.1203462E+00
         -2   -1    0    0    0  501 -0.00000000000E+00  0.00000000000E+00  0.15282929706E+02  0.15282929706E+02  0.00000000000E+00 0.  1.
          2   -1    0    0  501    0  0.00000000000E+00 -0.00000000000E+00 -0.11726213122E+04  0.11726213122E+04  0.00000000000E+00 0. -1.
          5    1    1    2  502    0  0.23703556570E+02  0.65798853596E+02 -0.62582855217E+03  0.62974186334E+03  0.47000000000E+01 0. -1.
         -5    1    1    2    0  502 -0.36306243776E+02 -0.34807306745E+02 -0.69824115601E+02  0.86181140973E+02  0.47000000000E+01 0.  1.
        -11    1    1    2    0    0 -0.37980564124E+02 -0.20034757521E+02 -0.14991112348E+03  0.15593992338E+03  0.00000000000E+00 0.  1.
         11    1    1    2    0    0  0.50583251330E+02 -0.10956789330E+02 -0.31177459125E+03  0.31604131423E+03  0.00000000000E+00 0. -1.
<mgrwt>
<rscale>  0 0.14759341E+03</rscale>
<asrwt>0</asrwt>
<pdfrwt beam="2">  1        2 0.18040335E+00 0.16915411E+03</pdfrwt>
<pdfrwt beam="1">  1       -2 0.23512190E-02 0.16915411E+03</pdfrwt>
<totfact> 0.12315379E+04</totfact>
</mgrwt>
</event>
<event>
 7    1  0.5400401E-006  0.1892952E+03  0.7546771E-02  0.1164295E+00
          1   -1    0    0  501    0  0.00000000000E+00  0.00000000000E+00  0.30774809429E+03  0.30774809429E+03  0.00000000000E+00 0. -1.
         -1   -1    0    0    0  501 -0.00000000000E+00 -0.00000000000E+00 -0.14484026763E+03  0.14484026763E+03  0.00000000000E+00 0.  1.
         23    2    1    2    0    0  0.72445151072E+02  0.12230903790E+03 -0.35657135308E+02  0.19262424345E+03  0.12499946880E+03 0.  0.
          5    1    3    3  502    0  0.31100561625E+02  0.79468840465E+02  0.41535837823E+02  0.95025561624E+02  0.47000000000E+01 0.  1.
         -5    1    3    3    0  502  0.41344589447E+02  0.42840197434E+02 -0.77192973132E+02  0.97598681823E+02  0.47000000000E+01 0.  1.
        -11    1    1    2    0    0 -0.45360216193E+02 -0.19774704763E+02  0.11416378186E+03  0.12442651346E+03  0.00000000000E+00 0. -1.
         11    1    1    2    0    0 -0.27084934879E+02 -0.10253433314E+03  0.84401180106E+02  0.13553760501E+03  0.00000000000E+00 0.  1.
<mgrwt>
<rscale>  0 0.18367322E+03</rscale>
<asrwt>0</asrwt>
<pdfrwt beam="1">  1        1 0.47345860E-01 0.18929519E+03</pdfrwt>
<pdfrwt beam="2">  1       -1 0.22283118E-01 0.18929519E+03</pdfrwt>
<totfact> 0.14212912E+03</totfact>
</mgrwt>
</event>
<event>
 7    1  0.5400401E-006  0.1892343E+03  0.7546771E-02  0.1163754E+00
          2   -1    0    0  501    0  0.00000000000E+00  0.00000000000E+00  0.44336959743E+02  0.44336959743E+02  0.00000000000E+00 0. -1.
         -2   -1    0    0    0  501 -0.00000000000E+00 -0.00000000000E+00 -0.72798033392E+03  0.72798033392E+03  0.00000000000E+00 0.  1.
         23    2    1    2    0    0  0.92622210484E+02 -0.10774473721E+03 -0.35643405138E+03  0.40355277828E+03  0.12498723778E+03 0.  0.
          5    1    3    3  502    0  0.15852423307E+02 -0.14315069168E+02 -0.22039504312E+03  0.22147750577E+03  0.47000000000E+01 0. -1.
         -5    1    3    3    0  502  0.76769787176E+02 -0.93429668037E+02 -0.13603900825E+03  0.18207527251E+03  0.47000000000E+01 0. -1.
        -11    1    1    2    0    0 -0.61009702136E+02  0.81479352548E+02 -0.30605870987E+03  0.32254147413E+03  0.00000000000E+00 0.  1.
         11    1    1    2    0    0 -0.31612508348E+02  0.26265384658E+02 -0.21150612929E+02  0.46223041252E+02  0.00000000000E+00 0. -1.
<mgrwt>
<rscale>  0 0.18424772E+03</rscale>
<asrwt>0</asrwt>
<pdfrwt beam="1">  1        2 0.68210712E-02 0.18923428E+03</pdfrwt>
<pdfrwt beam="2">  1       -2 0.11199697E+00 0.18923428E+03</pdfrwt>
<totfact> 0.67795889E+02</totfact>
</mgrwt>
</event>
<event>
 7    1  0.5400401E-006  0.1261035E+03  0.7546771E-02  0.1253064E+00
         -2   -1    0    0    0  501 -0.00000000000E+00  0.00000000000E+00  0.16899589622E+03  0.16899589622E+03  0.00000000000E+00 0.  1.
          2   -1    0    0  501    0  0.00000000000E+00 -0.00000000000E+00 -0.65805651365E+02  0.65805651365E+02  0.00000000000E+00 0. -1.
         23    2    1    2    0    0 -0.16690373135E+02  0.33889606938E+00  0.57744147157E+02  0.13869563160E+03  0.12499363299E+03 0.  0.
          5    1    3    3  502    0 -0.50629008905E+02  0.45792376945E+01 -0.19055618790E+02  0.54492867130E+02  0.47000000000E+01 0. -1.
         -5    1    3    3    0  502  0.33938635769E+02 -0.42403416252E+01  0.76799765947E+02  0.84202764470E+02  0.47000000000E+01 0. -1.
        -11    1    1    2    0    0 -0.10273107910E+02 -0.36965742570E+02  0.27535170778E+02  0.47224871622E+02  0.00000000000E+00 0.  1.
         11    1    1    2    0    0  0.26963481046E+02  0.36626846501E+02  0.17910926915E+02  0.48881044359E+02  0.00000000000E+00 0. -1.
<mgrwt>
<rscale>  0 0.11415444E+03</rscale>
<asrwt>0</asrwt>
<pdfrwt beam="2">  1        2 0.10123946E-01 0.12610350E+03</pdfrwt>
<pdfrwt beam="1">  1       -2 0.25999368E-01 0.12610350E+03</pdfrwt>
<totfact> 0.78367966E+03</totfact>
</mgrwt>
</event>
<event>
 7    1  0.5400401E-006  0.2419017E+03  0.7546771E-02  0.1121183E+00
         -2   -1    0    0    0  501 -0.00000000000E+00  0.00000000000E+00  0.10586266009E+03  0.10586266009E+03  0.00000000000E+00 0.  1.
          2   -1    0    0  501    0  0.00000000000E+00 -0.00000000000E+00 -0.52334875337E+03  0.52334875337E+03  0.00000000000E+00 0. -1.
         23    2    1    2    0    0 -0.20625481675E+03 -0.18721533051E+02 -0.24777987011E+03  0.34628211203E+03  0.12499956739E+03 0.  0.
          5    1    3    3  502    0 -0.10324877088E+03 -0.71315638337E+02 -0.14085893122E+03  0.18870494817E+03  0.47000000000E+01 0.  1.
         -5    1    3    3    0  502 -0.10300604587E+03  0.52594105286E+02 -0.10692093889E+03  0.15757716386E+03  0.47000000000E+01 0.  1.
        -11    1    1    2    0    0  0.90837540089E+02 -0.16281401782E+02 -0.27146071823E+02  0.96194864462E+02  0.00000000000E+00 0.  1.
         11    1    1    2    0    0  0.11541727666E+03  0.35002934833E+02 -0.14256015134E+03  0.18673443697E+03  0.00000000000E+00 0. -1.
<mgrwt>
<rscale>  0 0.23792477E+03</rscale>
<asrwt>0</asrwt>
<pdfrwt beam="2">  1        2 0.80515192E-01 0.24190171E+03</pdfrwt>
<pdfrwt beam="1">  1       -2 0.16286563E-01 0.24190171E+03</pdfrwt>
<totfact> 0.17576692E+03</totfact>
</mgrwt>
</event>
<event>
 7    1  0.5400401E-006  0.1258717E+03  0.7546771E-02  0.1248084E+00
          1   -1    0    0  501    0  0.00000000000E+00  0.00000000000E+00  0.80437624600E+02  0.80437624600E+02  0.00000000000E+00 0. -1.
         -1   -1    0    0    0  501 -0.00000000000E+00 -0.00000000000E+00 -0.15141515910E+03  0.15141515910E+03  0.00000000000E+00 0.  1.
         23    2    1    2    0    0 -0.99142672510E+01  0.10932541250E+02 -0.50348971556E+02  0.13556809180E+03  0.12500350164E+03 0.  0.
          5    1    3    3  502    0  0.43874077744E+02  0.11768386269E+02  0.17453993491E+02  0.48889277986E+02  0.47000000000E+01 0. -1.
         -5    1    3    3    0  502 -0.53788344995E+02 -0.83584501931E+00 -0.67802965047E+02  0.86678813809E+02  0.47000000000E+01 0. -1.
        -11    1    1    2    0    0  0.37713240921E+02  0.21279908041E+00 -0.44249563006E+02  0.58140843221E+02  0.00000000000E+00 0.  1.
         11    1    1    2    0    0 -0.27798973670E+02 -0.11145340330E+02  0.23621000064E+02  0.38143848681E+02  0.00000000000E+00 0. -1.
<mgrwt>
<rscale>  0 0.11702660E+03</rscale>
<asrwt>0</asrwt>
<pdfrwt beam="1">  1        1 0.12375019E-01 0.12587171E+03</pdfrwt>
<pdfrwt beam="2">  1       -1 0.23294640E-01 0.12587171E+03</pdfrwt>
<totfact> 0.71010224E+03</totfact>
</mgrwt>
</event>
<event>
 7    1  0.5400401E-006  0.1205149E+03  0.7546771E-02  0.1253779E+00
          1   -1    0    0  501    0  0.00000000000E+00  0.00000000000E+00  0.41434424591E+02  0.41434424591E+02  0.00000000000E+00 0. -1.
         -1   -1    0    0    0  501 -0.00000000000E+00 -0.00000000000E+00 -0.35634541589E+03  0.35634541589E+03  0.00000000000E+00 0.  1.
         23    2    1    2    0    0  0.31450518554E+02 -0.18220334125E+01 -0.26219626858E+03  0.28856666803E+03  0.11632447601E+03 0.  0.
          5    1    3    3  502    0 -0.33323686955E+02  0.14110006696E+02 -0.30960525693E+02  0.47856081666E+02  0.47000000000E+01 0. -1.
         -5    1    3    3    0  502  0.64774205509E+02 -0.15932040108E+02 -0.23123574289E+03  0.24071058637E+03  0.47000000000E+01 0.  1.
        -11    1    1    2    0    0  0.79247609509E+01 -0.38239276545E+02 -0.16603663669E+02  0.42434959103E+02  0.00000000000E+00 0.  1.
         11    1    1    2    0    0 -0.39375279505E+02  0.40061309958E+02 -0.36111059050E+02  0.66778213344E+02  0.00000000000E+00 0. -1.
<mgrwt>
<rscale>  0 0.11374971E+03</rscale>
<asrwt>0</asrwt>
<pdfrwt beam="1">  1        1 0.63745270E-02 0.12051489E+03</pdfrwt>
<pdfrwt beam="2">  1       -1 0.54822371E-01 0.12051489E+03</pdfrwt>
<totfact> 0.39068479E+03</totfact>
</mgrwt>
</event>
<event>
 7    1  0.5400401E-006  0.1509763E+03  0.7546771E-02  0.1208831E+00
         -1   -1    0    0    0  501 -0.00000000000E+00  0.00000000000E+00  0.56054643749E+02  0.56054643749E+02  0.00000000000E+00 0.  1.
          1   -1    0    0  501    0  0.00000000000E+00 -0.00000000000E+00 -0.48570647839E+03  0.48570647839E+03  0.00000000000E+00 0. -1.
         23    2    1    2    0    0  0.69506526261E+02  0.48347446992E+02 -0.79393532540E+02  0.17057895454E+03  0.12500085559E+03 0.  0.
          5    1    3    3  502    0  0.41532165686E+02  0.81597038312E+02 -0.86798907812E+02  0.12625029840E+03  0.47000000000E+01 0.  1.
         -5    1    3    3    0  502  0.27974360575E+02 -0.33249591320E+02  0.74053752724E+01  0.44328656143E+02  0.47000000000E+01 0.  1.
        -11    1    1    2    0    0 -0.27429054219E+02  0.25743870777E+02 -0.11164965098E+03  0.11781657125E+03  0.00000000000E+00 0.  1.
         11    1    1    2    0    0 -0.42077472042E+02 -0.74091317769E+02 -0.23860865112E+03  0.25336559634E+03  0.00000000000E+00 0. -1.
<mgrwt>
<rscale>  0 0.14339596E+03</rscale>
<asrwt>0</asrwt>
<pdfrwt beam="2">  1        1 0.74724072E-01 0.15097631E+03</pdfrwt>
<pdfrwt beam="1">  1       -1 0.86237916E-02 0.15097631E+03</pdfrwt>
<totfact> 0.35102770E+03</totfact>
</mgrwt>
</event>
<event>
 7    1  0.5400401E-006  0.1293493E+03  0.7546771E-02  0.1247597E+00
          1   -1    0    0  501    0  0.00000000000E+00  0.00000000000E+00  0.30973210632E+03  0.30973210632E+03  0.00000000000E+00 0. -1.
         -1   -1    0    0    0  501 -0.00000000000E+00 -0.00000000000E+00 -0.45759181917E+02  0.45759181917E+02  0.00000000000E+00 0.  1.
         23    2    1    2    0    0  0.15829391434E+02  0.29232490134E+02  0.80871226544E+02  0.15254965721E+03  0.12500453800E+03 0.  0.
          5    1    3    3  502    0 -0.45786892850E+02  0.33593097100E+02  0.68975902192E+02  0.89468993584E+02  0.47000000000E+01 0. -1.
         -5    1    3    3    0  502  0.61616284285E+02 -0.43606069661E+01  0.11895324352E+02  0.63080663627E+02  0.47000000000E+01 0. -1.
        -11    1    1    2    0    0 -0.31803714979E+02 -0.37660723929E+02  0.17721851544E+03  0.18394621123E+03  0.00000000000E+00 0. -1.
         11    1    1    2    0    0  0.15974323545E+02  0.84282337952E+01  0.58831824184E+01  0.18995419790E+02  0.00000000000E+00 0.  1.
<mgrwt>
<rscale>  0 0.11731272E+03</rscale>
<asrwt>0</asrwt>
<pdfrwt beam="1">  1        1 0.47651092E-01 0.12934930E+03</pdfrwt>
<pdfrwt beam="2">  1       -1 0.70398743E-02 0.12934930E+03</pdfrwt>
<totfact> 0.83379653E+03</totfact>
</mgrwt>
</event>
<event>
 7    1  0.5400401E-006  0.1568048E+03  0.7546771E-02  0.1200972E+00
          2   -1    0    0  501    0  0.00000000000E+00  0.00000000000E+00  0.83046039242E+03  0.83046039242E+03  0.00000000000E+00 0. -1.
         -2   -1    0    0    0  501 -0.00000000000E+00 -0.00000000000E+00 -0.24902407104E+02  0.24902407104E+02  0.00000000000E+00 0.  1.
         23    2    1    2    0    0  0.63121130885E+02  0.70556594444E+02  0.40638115006E+03  0.43558394613E+03  0.12500089928E+03 0.  0.
          5    1    3    3  502    0  0.60172969710E+02 -0.21429894233E+02  0.14813249177E+03  0.16138572356E+03  0.47000000000E+01 0.  1.
         -5    1    3    3    0  502  0.29481611750E+01  0.91986488677E+02  0.25824865829E+03  0.27419822257E+03  0.47000000000E+01 0.  1.
        -11    1    1    2    0    0 -0.22730999715E+02  0.12638218502E+02  0.32532213701E+02  0.41650544333E+02  0.00000000000E+00 0.  1.
         11    1    1    2    0    0 -0.40390131170E+02 -0.83194812945E+02  0.36664462156E+03  0.37812830906E+03  0.00000000000E+00 0. -1.
<mgrwt>
<rscale>  0 0.14959453E+03</rscale>
<asrwt>0</asrwt>
<pdfrwt beam="1">  1        2 0.12776312E+00 0.15680477E+03</pdfrwt>
<pdfrwt beam="2">  1       -2 0.38311402E-02 0.15680477E+03</pdfrwt>
<totfact> 0.96122079E+03</totfact>
</mgrwt>
</event>
<event>
 7    1  0.5400401E-006  0.1531956E+03  0.7546771E-02  0.1204977E+00
         -1   -1    0    0    0  501 -0.00000000000E+00  0.00000000000E+00  0.58225059160E+02  0.58225059160E+02  0.00000000000E+00 0.  1.
          1   -1    0    0  501    0  0.00000000000E+00 -0.00000000000E+00 -0.40233847393E+03  0.40233847393E+03  0.00000000000E+00 0. -1.
         23    2    1    2    0    0  0.22253829974E+00 -0.88528712469E+02 -0.94053901734E+02  0.17976380925E+03  0.12502603020E+03 0.  0.
          5    1    3    3  502    0  0.14945667675E+02 -0.11750823347E+03 -0.61625630841E+02  0.13360900528E+03  0.47000000000E+01 0.  1.
         -5    1    3    3    0  502 -0.14723129375E+02  0.28979521000E+02 -0.32428270893E+02  0.46154803966E+02  0.47000000000E+01 0.  1.
        -11    1    1    2    0    0  0.34600256209E+02  0.68954830604E+01 -0.10474022227E+03  0.11052257497E+03  0.00000000000E+00 0. -1.
         11    1    1    2    0    0 -0.34822794509E+02  0.81633229408E+02 -0.14531929077E+03  0.17027714888E+03  0.00000000000E+00 0.  1.
<mgrwt>
<rscale>  0 0.14639306E+03</rscale>
<asrwt>0</asrwt>
<pdfrwt beam="2">  1        1 0.61898226E-01 0.15319560E+03</pdfrwt>
<pdfrwt beam="1">  1       -1 0.89577015E-02 0.15319560E+03</pdfrwt>
<totfact> 0.42214056E+03</totfact>
</mgrwt>
</event>
<event>
 7    1  0.5400401E-006  0.1551392E+03  0.7546771E-02  0.1202662E+00
          3   -1    0    0  501    0  0.00000000000E+00  0.00000000000E+00  0.46296113624E+03  0.46296113624E+03  0.00000000000E+00 0. -1.
         -3   -1    0    0    0  501 -0.00000000000E+00 -0.00000000000E+00 -0.43784109296E+02  0.43784109296E+02  0.00000000000E+00 0.  1.
         23    2    1    2    0    0  0.23970814768E+01 -0.91867938526E+02  0.24030053664E+03  0.28602886502E+03  0.12499079801E+03 0.  0.
          5    1    3    3  502    0 -0.60806677410E+02 -0.40416137380E+02  0.10414178277E+03  0.12727339509E+03  0.47000000000E+01 0. -1.
         -5    1    3    3    0  502  0.63203758887E+02 -0.51451801147E+02  0.13615875386E+03  0.15875546993E+03  0.47000000000E+01 0. -1.
        -11    1    1    2    0    0  0.24618238267E+02  0.74968115740E+02  0.64289961178E+02  0.10178150687E+03  0.00000000000E+00 0.  1.
         11    1    1    2    0    0 -0.27015319744E+02  0.16899822786E+02  0.11458652913E+03  0.11893487364E+03  0.00000000000E+00 0. -1.
<mgrwt>
<rscale>  0 0.14823206E+03</rscale>
<asrwt>0</asrwt>
<pdfrwt beam="1">  1        3 0.71224787E-01 0.15513918E+03</pdfrwt>
<pdfrwt beam="2">  1       -3 0.67360171E-02 0.15513918E+03</pdfrwt>
<totfact> 0.63978777E+02</totfact>
</mgrwt>
</event>
<event>
 6    1  0.5400401E-006  0.1368920E+03  0.7546771E-02  0.1232306E+00
          1   -1    0    0  501    0  0.00000000000E+00  0.00000000000E+00  0.50427356821E+02  0.50427356821E+02  0.00000000000E+00 0. -1.
         -1   -1    0    0    0  501 -0.00000000000E+00 -0.00000000000E+00 -0.47587673078E+03  0.47587673078E+03  0.00000000000E+00 0.  1.
          5    1    1    2  502    0 -0.47585430882E+02  0.24906517440E+02 -0.17141234785E+03  0.17969137664E+03  0.47000000000E+01 0. -1.
         -5    1    1    2    0  502  0.82507123119E+02 -0.26021730184E+01 -0.22807149031E+03  0.24259614869E+03  0.47000000000E+01 0.  1.
        -11    1    1    2    0    0 -0.44243394043E+02 -0.41078734991E+02  0.11146883478E+02  0.61393756980E+02  0.00000000000E+00 0. -1.
         11    1    1    2    0    0  0.93217018058E+01  0.18774390569E+02 -0.37112419279E+02  0.42622805287E+02  0.00000000000E+00 0.  1.
<mgrwt>
<rscale>  0 0.12678454E+03</rscale>
<asrwt>0</asrwt>
<pdfrwt beam="1">  1        1 0.77580553E-02 0.13689199E+03</pdfrwt>
<pdfrwt beam="2">  1       -1 0.73211801E-01 0.13689199E+03</pdfrwt>
<totfact> 0.17309658E+03</totfact>
</mgrwt>
</event>
<event>
 7    1  0.5400401E-006  0.1292590E+03  0.7546771E-02  0.1242609E+00
         -4   -1    0    0    0  501 -0.00000000000E+00  0.00000000000E+00  0.11250970744E+03  0.11250970744E+03  0.00000000000E+00 0.  1.
          4   -1    0    0  501    0  0.00000000000E+00 -0.00000000000E+00 -0.11372077018E+03  0.11372077018E+03  0.00000000000E+00 0. -1.
         23    2    1    2    0    0  0.27949901849E+02  0.17372170939E+02 -0.91579537958E+00  0.12926225184E+03  0.12499960693E+03 0.  0.
          5    1    3    3  502    0 -0.35434769853E+02 -0.20446091275E+02  0.28058741351E+02  0.49830196961E+02  0.47000000000E+01 0.  1.
         -5    1    3    3    0  502  0.63384671702E+02  0.37818262214E+02 -0.28974536731E+02  0.79432054879E+02  0.47000000000E+01 0.  1.
        -11    1    1    2    0    0 -0.52251350921E+02 -0.72733471061E+01  0.26820823556E+02  0.59181600413E+02  0.00000000000E+00 0.  1.
         11    1    1    2    0    0  0.24301449073E+02 -0.10098823832E+02 -0.27116090916E+02  0.37786625364E+02  0.00000000000E+00 0. -1.
<mgrwt>
<rscale>  0 0.12029636E+03</rscale>
<asrwt>0</asrwt>
<pdfrwt beam="2">  1        4 0.17495503E-01 0.12925901E+03</pdfrwt>
<pdfrwt beam="1">  1       -4 0.17309186E-01 0.12925901E+03</pdfrwt>
<totfact> 0.13680292E+03</totfact>
</mgrwt>
</event>
<event>
 7    1  0.5400401E-006  0.1264808E+03  0.7546771E-02  0.1249081E+00
          2   -1    0    0  501    0  0.00000000000E+00  0.00000000000E+00  0.73516750905E+02  0.73516750905E+02  0.00000000000E+00 0. -1.
         -2   -1    0    0    0  501 -0.00000000000E+00 -0.00000000000E+00 -0.30740723946E+03  0.30740723946E+03  0.00000000000E+00 0.  1.
         23    2    1    2    0    0 -0.17862193429E+02 -0.72470508533E+01 -0.25763509418E+03  0.28700738166E+03  0.12500327065E+03 0.  0.
          5    1    3    3  502    0  0.46569276527E+01  0.32713268853E+02 -0.23172713040E+03  0.23411834165E+03  0.47000000000E+01 0. -1.
         -5    1    3    3    0  502 -0.22519121082E+02 -0.39960319707E+02 -0.25907963778E+02  0.52889040003E+02  0.47000000000E+01 0. -1.
        -11    1    1    2    0    0 -0.97841704918E+01  0.43412985043E+02  0.18114081831E+02  0.48047239495E+02  0.00000000000E+00 0.  1.
         11    1    1    2    0    0  0.27646363921E+02 -0.36165934190E+02  0.56305237939E+01  0.45869369213E+02  0.00000000000E+00 0. -1.
<mgrwt>
<rscale>  0 0.11644427E+03</rscale>
<asrwt>0</asrwt>
<pdfrwt beam="1">  1        2 0.11310269E-01 0.12648081E+03</pdfrwt>
<pdfrwt beam="2">  1       -2 0.47293422E-01 0.12648081E+03</pdfrwt>
<totfact> 0.22685268E+03</totfact>
</mgrwt>
</event>
<event>
 7    1  0.5400401E-006  0.1256417E+03  0.7546771E-02  0.1248799E+00
         -1   -1    0    0    0  501 -0.00000000000E+00  0.00000000000E+00  0.12725486758E+04  0.12725486758E+04  0.00000000000E+00 0.  1.
          1   -1    0    0  501    0  0.00000000000E+00 -0.00000000000E+00 -0.99499926032E+01  0.99499926032E+01  0.00000000000E+00 0. -1.
         23    2    1    2    0    0  0.12071210322E+02  0.39019548979E+01  0.86748219144E+03  0.87653362139E+03  0.12499959033E+03 0.  0.
          5    1    3    3  502    0  0.51127435630E+02  0.23008295114E+02  0.73219833023E+03  0.73435678053E+03  0.47000000000E+01 0. -1.
         -5    1    3    3    0  502 -0.39056225307E+02 -0.19106340216E+02  0.13528386121E+03  0.14217684086E+03  0.47000000000E+01 0. -1.
        -11    1    1    2    0    0 -0.20882011605E+02  0.41235982836E+02  0.22786558888E+03  0.23250632526E+03  0.00000000000E+00 0. -1.
         11    1    1    2    0    0  0.88108012825E+01 -0.45137937734E+02  0.16725090290E+03  0.17345872178E+03  0.00000000000E+00 0.  1.
<mgrwt>
<rscale>  0 0.11660883E+03</rscale>
<asrwt>0</asrwt>
<pdfrwt beam="2">  1        1 0.15307691E-02 0.12564170E+03</pdfrwt>
<pdfrwt beam="1">  1       -1 0.19577659E+00 0.12564170E+03</pdfrwt>
<totfact> 0.15295017E+03</totfact>
</mgrwt>
</event>
<event>
 7    1  0.5400401E-006  0.1287641E+03  0.7546771E-02  0.1240608E+00
          1   -1    0    0  501    0  0.00000000000E+00  0.00000000000E+00  0.10198233307E+03  0.10198233307E+03  0.00000000000E+00 0. -1.
         -1   -1    0    0    0  501 -0.00000000000E+00 -0.00000000000E+00 -0.14245575012E+03  0.14245575012E+03  0.00000000000E+00 0.  1.
         23    2    1    2    0    0  0.20101779753E+02 -0.23485125413E+02 -0.57258695538E+02  0.14092109861E+03  0.12499826061E+03 0.  0.
          5    1    3    3  502    0 -0.52906399197E+01 -0.72111929805E+02 -0.42154496570E+02  0.83828472920E+02  0.47000000000E+01 0.  1.
         -5    1    3    3    0  502  0.25392419673E+02  0.48626804392E+02 -0.15104198968E+02  0.57092625694E+02  0.47000000000E+01 0.  1.
        -11    1    1    2    0    0 -0.57006515664E+02  0.89851805291E+01  0.25217286597E+02  0.62979265164E+02  0.00000000000E+00 0.  1.
         11    1    1    2    0    0  0.36904735911E+02  0.14499944884E+02 -0.84320081172E+01  0.40537719412E+02  0.00000000000E+00 0. -1.
<mgrwt>
<rscale>  0 0.12152135E+03</rscale>
<asrwt>0</asrwt>
<pdfrwt beam="1">  1        1 0.15689590E-01 0.12876412E+03</pdfrwt>
<pdfrwt beam="2">  1       -1 0.21916269E-01 0.12876412E+03</pdfrwt>
<totfact> 0.57711360E+03</totfact>
</mgrwt>
</event>
<event>
 7    1  0.5400401E-006  0.1345820E+03  0.7546771E-02  0.1234675E+00
          2   -1    0    0  501    0  0.00000000000E+00  0.00000000000E+00  0.10792608051E+04  0.10792608051E+04  0.00000000000E+00 0. -1.
         -2   -1    0    0    0  501 -0.00000000000E+00 -0.00000000000E+00 -0.12862939765E+02  0.12862939765E+02  0.00000000000E+00 0.  1.
         23    2    1    2    0    0 -0.88099789793E+01 -0.49089729625E+02  0.59377404818E+03  0.60883489047E+03  0.12499954514E+03 0.  0.
          5    1    3    3  502    0 -0.43142024327E+00 -0.89802304019E+02  0.34280987826E+03  0.35440844031E+03  0.47000000000E+01 0.  1.
         -5    1    3    3    0  502 -0.83785587361E+01  0.40712574394E+02  0.25096416992E+03  0.25442645017E+03  0.47000000000E+01 0.  1.
        -11    1    1    2    0    0  0.46523421735E+02  0.32586727855E+02  0.32960155547E+03  0.33446002597E+03  0.00000000000E+00 0.  1.
         11    1    1    2    0    0 -0.37713442755E+02  0.16503001770E+02  0.14302226171E+03  0.14882882845E+03  0.00000000000E+00 0. -1.
<mgrwt>
<rscale>  0 0.12525288E+03</rscale>
<asrwt>0</asrwt>
<pdfrwt beam="1">  1        2 0.16604005E+00 0.13458196E+03</pdfrwt>
<pdfrwt beam="2">  1       -2 0.19789147E-02 0.13458196E+03</pdfrwt>
<totfact> 0.17659660E+04</totfact>
</mgrwt>
</event>
<event>
 7    1  0.5400401E-006  0.1462187E+03  0.7546771E-02  0.1214823E+00
         -1   -1    0    0    0  501 -0.00000000000E+00  0.00000000000E+00  0.47108327297E+03  0.47108327297E+03  0.00000000000E+00 0.  1.
          1   -1    0    0  501    0  0.00000000000E+00 -0.00000000000E+00 -0.46034454061E+02  0.46034454061E+02  0.00000000000E+00 0. -1.
         23    2    1    2    0    0  0.75838972992E+02  0.16951956112E+01  0.34203690970E+03  0.37198002958E+03  0.12500188516E+03 0.  0.
          5    1    3    3  502    0  0.18757741949E+02  0.46089829420E+02  0.48553411858E+02  0.69682487485E+02  0.47000000000E+01 0. -1.
         -5    1    3    3    0  502  0.57081231042E+02 -0.44394633809E+02  0.29348349784E+03  0.30229754209E+03  0.47000000000E+01 0. -1.
        -11    1    1    2    0    0 -0.24281225999E+02  0.24762025911E+02  0.79902800069E+02  0.87104496566E+02  0.00000000000E+00 0.  1.
         11    1    1    2    0    0 -0.51557746992E+02 -0.26457221523E+02  0.31091091389E+01  0.58033200888E+02  0.00000000000E+00 0. -1.
<mgrwt>
<rscale>  0 0.13889562E+03</rscale>
<asrwt>0</asrwt>
<pdfrwt beam="2">  1        1 0.70822240E-02 0.14621865E+03</pdfrwt>
<pdfrwt beam="1">  1       -1 0.72474346E-01 0.14621865E+03</pdfrwt>
<totfact> 0.20025185E+03</totfact>
</mgrwt>
</event>
<event>
 7    1  0.5400401E-006  0.1473829E+03  0.7546771E-02  0.1212592E+00
          1   -1    0    0  501    0  0.00000000000E+00  0.00000000000E+00  0.56058550358E+02  0.56058550358E+02  0.00000000000E+00 0. -1.
         -1   -1    0    0    0  501 -0.00000000000E+00 -0.00000000000E+00 -0.44030050767E+03  0.44030050767E+03  0.00000000000E+00 0.  1.
         23    2    1    2    0    0 -0.73877636418E+02  0.25306688295E+02 -0.33296010514E+03  0.36412108198E+03  0.12499358822E+03 0.  0.
          5    1    3    3  502    0 -0.69317458311E+02 -0.34196826059E+02 -0.25068509958E+03  0.26237271598E+03  0.47000000000E+01 0. -1.
         -5    1    3    3    0  502 -0.45601781072E+01  0.59503514354E+02 -0.82275005564E+02  0.10174836601E+03  0.47000000000E+01 0. -1.
        -11    1    1    2    0    0  0.61772994038E+02  0.27299497077E+02 -0.33615295464E+02  0.75439733710E+02  0.00000000000E+00 0.  1.
         11    1    1    2    0    0  0.12104642380E+02 -0.52606185373E+02 -0.17666556712E+02  0.56798242338E+02  0.00000000000E+00 0. -1.
<mgrwt>
<rscale>  0 0.14054875E+03</rscale>
<asrwt>0</asrwt>
<pdfrwt beam="1">  1        1 0.86243928E-02 0.14738294E+03</pdfrwt>
<pdfrwt beam="2">  1       -1 0.67738536E-01 0.14738294E+03</pdfrwt>
<totfact> 0.17564383E+03</totfact>
</mgrwt>
</event>
<event>
 7    1  0.5400401E-006  0.1680524E+03  0.7546771E-02  0.1184832E+00
          2   -1    0    0  501    0  0.00000000000E+00  0.00000000000E+00  0.27280631923E+03  0.27280631923E+03  0.00000000000E+00 0. -1.
         -2   -1    0    0    0  501 -0.00000000000E+00 -0.00000000000E+00 -0.14844108831E+03  0.14844108831E+03  0.00000000000E+00 0.  1.
         23    2    1    2    0    0  0.92020796710E+02  0.64444386289E+02 -0.64296590557E+02  0.17993241438E+03  0.12498286377E+03 0.  0.
          5    1    3    3  502    0  0.47680481519E+02 -0.28793855793E+02 -0.51112207736E+02  0.75743397263E+02  0.47000000000E+01 0. -1.
         -5    1    3    3    0  502  0.44340315192E+02  0.93238242082E+02 -0.13184382821E+02  0.10418901712E+03  0.47000000000E+01 0. -1.
        -11    1    1    2    0    0 -0.70325503005E+02 -0.52507703226E+02  0.51131949248E+02  0.10157367526E+03  0.00000000000E+00 0.  1.
         11    1    1    2    0    0 -0.21695293705E+02 -0.11936683063E+02  0.13752987223E+03  0.13974131790E+03  0.00000000000E+00 0. -1.
<mgrwt>
<rscale>  0 0.16347160E+03</rscale>
<asrwt>0</asrwt>
<pdfrwt beam="1">  1        2 0.41970203E-01 0.16805244E+03</pdfrwt>
<pdfrwt beam="2">  1       -2 0.22837091E-01 0.16805244E+03</pdfrwt>
<totfact> 0.19895937E+03</totfact>
</mgrwt>
</event>
<event>
 7    1  0.5400401E-006  0.1483812E+03  0.7546771E-02  0.1212569E+00
         -3   -1    0    0    0  501 -0.00000000000E+00  0.00000000000E+00  0.51230683797E+02  0.51230683797E+02  0.00000000000E+00 0.  1.
          3   -1    0    0  501    0  0.00000000000E+00 -0.00000000000E+00 -0.35140885183E+03  0.35140885183E+03  0.00000000000E+00 0. -1.
         23    2    1    2    0    0  0.71603756402E+02  0.35553486776E+02 -0.15444425425E+03  0.21417283042E+03  0.12500330101E+03 0.  0.
          5    1    3    3  502    0  0.81114610260E+02  0.17159256621E+02 -0.16908745796E+03  0.18837908197E+03  0.47000000000E+01 0.  1.
         -5    1    3    3    0  502 -0.95108538577E+01  0.18394230155E+02  0.14643203705E+02  0.25793748445E+02  0.47000000000E+01 0.  1.
        -11    1    1    2    0    0 -0.65456836981E+01 -0.38708693174E+02 -0.14305235997E+02  0.41783354092E+02  0.00000000000E+00 0. -1.
         11    1    1    2    0    0 -0.65058072704E+02  0.31552063974E+01 -0.13142867779E+03  0.14668335112E+03  0.00000000000E+00 0.  1.
<mgrwt>
<rscale>  0 0.14056596E+03</rscale>
<asrwt>0</asrwt>
<pdfrwt beam="2">  1        3 0.54062899E-01 0.14838118E+03</pdfrwt>
<pdfrwt beam="1">  1       -3 0.78816438E-02 0.14838118E+03</pdfrwt>
<totfact> 0.87318391E+02</totfact>
</mgrwt>
</event>
<event>
 7    1  0.5400401E-006  0.1482111E+03  0.7546771E-02  0.1209890E+00
          1   -1    0    0  501    0  0.00000000000E+00  0.00000000000E+00  0.35879086479E+02  0.35879086479E+02  0.00000000000E+00 0. -1.
         -1   -1    0    0    0  501 -0.00000000000E+00 -0.00000000000E+00 -0.19140265237E+04  0.19140265237E+04  0.00000000000E+00 0.  1.
         23    2    1    2    0    0  0.84026963387E+02  0.47498397716E+02 -0.17881463366E+04  0.17942780878E+04  0.11247180399E+03 0.  0.
          5    1    3    3  502    0  0.17279176947E+02 -0.26279328076E+02 -0.16243951368E+03  0.16552298524E+03  0.47000000000E+01 0. -1.
         -5    1    3    3    0  502  0.66747786440E+02  0.73777725792E+02 -0.16257068230E+04  0.16287551025E+04  0.47000000000E+01 0.  1.
        -11    1    1    2    0    0 -0.68156697638E+02 -0.54613065069E+01 -0.86917869668E+02  0.11058877596E+03  0.00000000000E+00 0.  1.
         11    1    1    2    0    0 -0.15870265749E+02 -0.42037091209E+02 -0.30832309704E+01  0.45038746491E+02  0.00000000000E+00 0. -1.
<mgrwt>
<rscale>  0 0.14258712E+03</rscale>
<asrwt>0</asrwt>
<pdfrwt beam="1">  1        1 0.55198590E-02 0.14821112E+03</pdfrwt>
<pdfrwt beam="2">  1       -1 0.29446564E+00 0.14821112E+03</pdfrwt>
<totfact> 0.62322051E+01</totfact>
</mgrwt>
</event>
<event>
 7    1  0.5400401E-006  0.1369676E+03  0.7546771E-02  0.1229707E+00
          2   -1    0    0  501    0  0.00000000000E+00  0.00000000000E+00  0.36264214542E+03  0.36264214542E+03  0.00000000000E+00 0. -1.
         -2   -1    0    0    0  501 -0.00000000000E+00 -0.00000000000E+00 -0.46369251306E+02  0.46369251306E+02  0.00000000000E+00 0.  1.
         23    2    1    2    0    0 -0.18704659811E+01 -0.55968088578E+02  0.10495281128E+03  0.17255493827E+03  0.12499675414E+03 0.  0.
          5    1    3    3  502    0 -0.41086460673E+02 -0.52230700507E+02  0.71387802005E+01  0.67001459006E+02  0.47000000000E+01 0. -1.
         -5    1    3    3    0  502  0.39215994692E+02 -0.37373880712E+01  0.97814031081E+02  0.10555347927E+03  0.47000000000E+01 0. -1.
        -11    1    1    2    0    0  0.35037754474E+02  0.37558015280E+02  0.53595554148E+02  0.74234305916E+02  0.00000000000E+00 0.  1.
         11    1    1    2    0    0 -0.33167288493E+02  0.18410073298E+02  0.15772452868E+03  0.16222215253E+03  0.00000000000E+00 0. -1.
<mgrwt>
<rscale>  0 0.12849428E+03</rscale>
<asrwt>0</asrwt>
<pdfrwt beam="1">  1        2 0.55791098E-01 0.13696757E+03</pdfrwt>
<pdfrwt beam="2">  1       -2 0.71337312E-02 0.13696757E+03</pdfrwt>
<totfact> 0.95514365E+03</totfact>
</mgrwt>
</event>
<event>
 7    1  0.5400401E-006  0.1526441E+03  0.7546771E-02  0.1206023E+00
          1   -1    0    0  501    0  0.00000000000E+00  0.00000000000E+00  0.66842974659E+03  0.66842974659E+03  0.00000000000E+00 0. -1.
         -1   -1    0    0    0  501 -0.00000000000E+00 -0.00000000000E+00 -0.32045122853E+02  0.32045122853E+02  0.00000000000E+00 0.  1.
         23    2    1    2    0    0  0.87437045457E+02  0.54018800532E+01  0.23965123679E+03  0.28413539692E+03  0.12500316500E+03 0.  0.
          5    1    3    3  502    0  0.49273369815E+02  0.61981431441E+02  0.92445341223E+02  0.12181048366E+03  0.47000000000E+01 0. -1.
         -5    1    3    3    0  502  0.38163675642E+02 -0.56579551387E+02  0.14720589557E+03  0.16232491326E+03  0.47000000000E+01 0. -1.
        -11    1    1    2    0    0 -0.15311712762E+02  0.32010807914E+02  0.57967419236E+02  0.67965888973E+02  0.00000000000E+00 0.  1.
         11    1    1    2    0    0 -0.72125332695E+02 -0.37412687967E+02  0.33876596770E+03  0.34837358354E+03  0.00000000000E+00 0. -1.
<mgrwt>
<rscale>  0 0.14557104E+03</rscale>
<asrwt>0</asrwt>
<pdfrwt beam="1">  1        1 0.10283533E+00 0.15264406E+03</pdfrwt>
<pdfrwt beam="2">  1       -1 0.49300194E-02 0.15264406E+03</pdfrwt>
<totfact> 0.52760316E+03</totfact>
</mgrwt>
</event>
<event>
 7    1  0.5400401E-006  0.1556380E+03  0.7546771E-02  0.1201975E+00
          1   -1    0    0  501    0  0.00000000000E+00  0.00000000000E+00  0.30115269631E+03  0.30115269631E+03  0.00000000000E+00 0. -1.
         -1   -1    0    0    0  501 -0.00000000000E+00 -0.00000000000E+00 -0.10838054923E+03  0.10838054923E+03  0.00000000000E+00 0.  1.
         23    2    1    2    0    0 -0.81028788530E+02  0.45103950208E+02 -0.23305125173E+02  0.15737318494E+03  0.12499263812E+03 0.  0.
          5    1    3    3  502    0 -0.10603067431E+03  0.46119803088E+02  0.91961105570E+01  0.11608703020E+03  0.47000000000E+01 0. -1.
         -5    1    3    3    0  502  0.25001885777E+02 -0.10158528803E+01 -0.32501235730E+02  0.41286154743E+02  0.47000000000E+01 0. -1.
        -11    1    1    2    0    0  0.13243476073E+02  0.27390050494E+02  0.43588222494E+02  0.53155786748E+02  0.00000000000E+00 0. -1.
         11    1    1    2    0    0  0.67785312457E+02 -0.72494000702E+02  0.17248904976E+03  0.19900427384E+03  0.00000000000E+00 0.  1.
<mgrwt>
<rscale>  0 0.14878444E+03</rscale>
<asrwt>0</asrwt>
<pdfrwt beam="1">  1        1 0.46331184E-01 0.15563801E+03</pdfrwt>
<pdfrwt beam="2">  1       -1 0.16673931E-01 0.15563801E+03</pdfrwt>
<totfact> 0.23165092E+03</totfact>
</mgrwt>
</event>
<event>
 7    1  0.5400401E-006  0.1809827E+03  0.7546771E-02  0.1172118E+00
          2   -1    0    0  501    0  0.00000000000E+00  0.00000000000E+00  0.18228898882E+03  0.18228898882E+03  0.00000000000E+00 0. -1.
         -2   -1    0    0    0  501 -0.00000000000E+00 -0.00000000000E+00 -0.29330429591E+03  0.29330429591E+03  0.00000000000E+00 0.  1.
         23    2    1    2    0    0 -0.13493210820E+02  0.13016008691E+03 -0.21756109900E+03  0.28299750332E+03  0.12502415817E+03 0.  0.
          5    1    3    3  502    0  0.31065628485E+02  0.10706959420E+03 -0.82306703687E+02  0.13865588609E+03  0.47000000000E+01 0. -1.
         -5    1    3    3    0  502 -0.44558839305E+02  0.23090492709E+02 -0.13525439532E+03  0.14434161723E+03  0.47000000000E+01 0. -1.
        -11    1    1    2    0    0 -0.16960092971E+02  0.54080415980E+01  0.50607067284E+00  0.17808643268E+02  0.00000000000E+00 0.  1.
         11    1    1    2    0    0  0.30453303791E+02 -0.13556812850E+03  0.10603972125E+03  0.17478713814E+03  0.00000000000E+00 0. -1.
<mgrwt>
<rscale>  0 0.17561287E+03</rscale>
<asrwt>0</asrwt>
<pdfrwt beam="1">  1        2 0.28044460E-01 0.18098275E+03</pdfrwt>
<pdfrwt beam="2">  1       -2 0.45123737E-01 0.18098275E+03</pdfrwt>
<totfact> 0.88547233E+02</totfact>
</mgrwt>
</event>
<event>
 7    1  0.5400401E-006  0.1660587E+03  0.7546771E-02  0.1189017E+00
          1   -1    0    0  501    0  0.00000000000E+00  0.00000000000E+00  0.33249809044E+03  0.33249809044E+03  0.00000000000E+00 0. -1.
         -1   -1    0    0    0  501 -0.00000000000E+00 -0.00000000000E+00 -0.86634279088E+02  0.86634279088E+02  0.00000000000E+00 0.  1.
         23    2    1    2    0    0 -0.25110076409E+02  0.10639675464E+03  0.43158055983E+02  0.17157535192E+03  0.12499879301E+03 0.  0.
          5    1    3    3  502    0  0.23809299343E+02  0.69471329375E+02 -0.26919606223E+02  0.78357536584E+02  0.47000000000E+01 0. -1.
         -5    1    3    3    0  502 -0.48919375752E+02  0.36925425268E+02  0.70077662206E+02  0.93217815332E+02  0.47000000000E+01 0. -1.
        -11    1    1    2    0    0  0.14601954296E+02 -0.95374372525E+02  0.20967478540E+03  0.23080945309E+03  0.00000000000E+00 0.  1.
         11    1    1    2    0    0  0.10508122113E+02 -0.11022382118E+02 -0.69690300291E+01  0.16747564522E+02  0.00000000000E+00 0. -1.
<mgrwt>
<rscale>  0 0.15971704E+03</rscale>
<asrwt>0</asrwt>
<pdfrwt beam="1">  1        1 0.51153552E-01 0.16605868E+03</pdfrwt>
<pdfrwt beam="2">  1       -1 0.13328351E-01 0.16605868E+03</pdfrwt>
<totfact> 0.29191123E+03</totfact>
</mgrwt>
</event>
<event>
 7    1  0.5400401E-006  0.1364140E+03  0.7546771E-02  0.1231598E+00
         -2   -1    0    0    0  501 -0.00000000000E+00  0.00000000000E+00  0.14955941563E+03  0.14955941563E+03  0.00000000000E+00 0.  1.
          2   -1    0    0  501    0  0.00000000000E+00 -0.00000000000E+00 -0.96196042374E+02  0.96196042374E+02  0.00000000000E+00 0. -1.
         23    2    1    2    0    0 -0.45903144278E+02 -0.29583793031E+02  0.35283405429E+02  0.14090317759E+03  0.12500594902E+03 0.  0.
          5    1    3    3  502    0  0.39047381484E+02 -0.19803570829E+02  0.33355215547E+02  0.55240744225E+02  0.47000000000E+01 0.  1.
         -5    1    3    3    0  502 -0.84950525762E+02 -0.97802222017E+01  0.19281898820E+01  0.85662433363E+02  0.47000000000E+01 0.  1.
        -11    1    1    2    0    0  0.42477869778E+02  0.45147800074E+02  0.42878782722E+02  0.75374287925E+02  0.00000000000E+00 0.  1.
         11    1    1    2    0    0  0.34252744996E+01 -0.15564007043E+02 -0.24798814899E+02  0.29477992487E+02  0.00000000000E+00 0. -1.
<mgrwt>
<rscale>  0 0.12724776E+03</rscale>
<asrwt>0</asrwt>
<pdfrwt beam="2">  1        2 0.14799391E-01 0.13641403E+03</pdfrwt>
<pdfrwt beam="1">  1       -2 0.23009141E-01 0.13641403E+03</pdfrwt>
<totfact> 0.61876410E+03</totfact>
</mgrwt>
</event>
<event>
 7    1  0.5400401E-006  0.1394449E+03  0.7546771E-02  0.1225506E+00
         -2   -1    0    0    0  501 -0.00000000000E+00  0.00000000000E+00  0.64164504956E+02  0.64164504956E+02  0.00000000000E+00 0.  1.
          2   -1    0    0  501    0  0.00000000000E+00 -0.00000000000E+00 -0.24577818935E+03  0.24577818935E+03  0.00000000000E+00 0. -1.
         23    2    1    2    0    0  0.51559131317E+02 -0.34086217741E+02 -0.81963906105E+02  0.16174971005E+03  0.12499869013E+03 0.  0.
          5    1    3    3  502    0  0.87118940763E+02 -0.13286360214E+02 -0.81733003198E+02  0.12028553953E+03  0.47000000000E+01 0. -1.
         -5    1    3    3    0  502 -0.35559809446E+02 -0.20799857527E+02 -0.23090290709E+00  0.41464170523E+02  0.47000000000E+01 0. -1.
        -11    1    1    2    0    0  0.88156377826E+01 -0.16113861461E+02  0.33575665238E+01  0.18672044711E+02  0.00000000000E+00 0.  1.
         11    1    1    2    0    0 -0.60374769099E+02  0.50200079202E+02 -0.10300734482E+03  0.12952093955E+03  0.00000000000E+00 0. -1.
<mgrwt>
<rscale>  0 0.13132280E+03</rscale>
<asrwt>0</asrwt>
<pdfrwt beam="2">  1        2 0.37812029E-01 0.13944492E+03</pdfrwt>
<pdfrwt beam="1">  1       -2 0.98714624E-02 0.13944492E+03</pdfrwt>
<totfact> 0.87347469E+03</totfact>
</mgrwt>
</event>
<event>
 7    1  0.5400401E-006  0.2101712E+03  0.7546771E-02  0.1144884E+00
          1   -1    0    0  501    0  0.00000000000E+00  0.00000000000E+00  0.41698037506E+03  0.41698037506E+03  0.00000000000E+00 0. -1.
         -1   -1    0    0    0  501 -0.00000000000E+00 -0.00000000000E+00 -0.99294068611E+02  0.99294068611E+02  0.00000000000E+00 0.  1.
         23    2    1    2    0    0 -0.11345131433E+03 -0.12518078475E+03  0.13241529098E+03  0.24840642206E+03  0.12502204462E+03 0.  0.
          5    1    3    3  502    0 -0.25332054564E+02 -0.52359505403E+02  0.11985647661E+03  0.13330752334E+03  0.47000000000E+01 0. -1.
         -5    1    3    3    0  502 -0.88119259765E+02 -0.72821279348E+02  0.12558814374E+02  0.11509889872E+03  0.47000000000E+01 0. -1.
        -11    1    1    2    0    0  0.11390726592E+03  0.86628415245E+02  0.17840106041E+03  0.22870567529E+03  0.00000000000E+00 0. -1.
         11    1    1    2    0    0 -0.45595159387E+00  0.38552369506E+02  0.68699550578E+01  0.39162346315E+02  0.00000000000E+00 0.  1.
<mgrwt>
<rscale>  0 0.20586353E+03</rscale>
<asrwt>0</asrwt>
<pdfrwt beam="1">  1        1 0.64150826E-01 0.21017122E+03</pdfrwt>
<pdfrwt beam="2">  1       -1 0.15276011E-01 0.21017122E+03</pdfrwt>
<totfact> 0.17803811E+03</totfact>
</mgrwt>
</event>
<event>
 7    1  0.5400401E-006  0.1372560E+03  0.7546771E-02  0.1228547E+00
         -4   -1    0    0    0  501 -0.00000000000E+00  0.00000000000E+00  0.15361109151E+03  0.15361109151E+03  0.00000000000E+00 0.  1.
          4   -1    0    0  501    0  0.00000000000E+00 -0.00000000000E+00 -0.11971365068E+03  0.11971365068E+03  0.00000000000E+00 0. -1.
         23    2    1    2    0    0 -0.22646230890E+02 -0.51973157449E+02  0.76622847300E+02  0.15719498065E+03  0.12500056138E+03 0.  0.
          5    1    3    3  502    0  0.88456628052E+01 -0.66880694152E+02 -0.55129335683E+01  0.67850979634E+02  0.47000000000E+01 0. -1.
         -5    1    3    3    0  502 -0.31491893696E+02  0.14907536703E+02  0.82135780868E+02  0.89344001018E+02  0.47000000000E+01 0. -1.
        -11    1    1    2    0    0 -0.24659670763E+02 -0.15541382048E+01  0.10700186223E+02  0.26925985458E+02  0.00000000000E+00 0. -1.
         11    1    1    2    0    0  0.47305901653E+02  0.53527295654E+02 -0.53425592696E+02  0.89203776075E+02  0.00000000000E+00 0.  1.
<mgrwt>
<rscale>  0 0.12926734E+03</rscale>
<asrwt>0</asrwt>
<pdfrwt beam="2">  1        4 0.18417485E-01 0.13725597E+03</pdfrwt>
<pdfrwt beam="1">  1       -4 0.23632476E-01 0.13725597E+03</pdfrwt>
<totfact> 0.72178791E+02</totfact>
</mgrwt>
</event>
<event>
 7    1  0.5400401E-006  0.1251096E+03  0.7546771E-02  0.1250401E+00
         -1   -1    0    0    0  501 -0.00000000000E+00  0.00000000000E+00  0.75126634527E+03  0.75126634527E+03  0.00000000000E+00 0.  1.
          1   -1    0    0  501    0  0.00000000000E+00 -0.00000000000E+00 -0.18567764897E+02  0.18567764897E+02  0.00000000000E+00 0. -1.
         23    2    1    2    0    0 -0.10242879253E+01 -0.52426212431E+01  0.56640132037E+03  0.58005420162E+03  0.12499554734E+03 0.  0.
          5    1    3    3  502    0  0.54938569455E+02 -0.24842371465E+02  0.36772039577E+03  0.37266039406E+03  0.47000000000E+01 0.  1.
         -5    1    3    3    0  502 -0.55962857381E+02  0.19599750222E+02  0.19868092460E+03  0.20739380756E+03  0.47000000000E+01 0.  1.
        -11    1    1    2    0    0 -0.44435897824E+02  0.84143521297E+01  0.71580153979E+02  0.84670353613E+02  0.00000000000E+00 0. -1.
         11    1    1    2    0    0  0.45460185750E+02 -0.31717308866E+01  0.94717106021E+02  0.10510955493E+03  0.00000000000E+00 0.  1.
<mgrwt>
<rscale>  0 0.11567899E+03</rscale>
<asrwt>0</asrwt>
<pdfrwt beam="2">  1        1 0.28565798E-02 0.12510964E+03</pdfrwt>
<pdfrwt beam="1">  1       -1 0.11557941E+00 0.12510964E+03</pdfrwt>
<totfact> 0.25388102E+03</totfact>
</mgrwt>
</event>
<event>
 7    1  0.5400401E-006  0.1823335E+03  0.7546771E-02  0.1170889E+00
          1   -1    0    0  501    0  0.00000000000E+00  0.00000000000E+00  0.59960326144E+03  0.59960326144E+03  0.00000000000E+00 0. -1.
         -1   -1    0    0    0  501 -0.00000000000E+00 -0.00000000000E+00 -0.12522280201E+03  0.12522280201E+03  0.00000000000E+00 0.  1.
         23    2    1    2    0    0 -0.12095933626E+03  0.54681636811E+02 -0.39194055459E+02  0.18649846053E+03  0.12499703741E+03 0.  0.
          5    1    3    3  502    0 -0.97867997981E+02  0.21637309639E+02  0.31339324596E+02  0.10512165078E+03  0.47000000000E+01 0. -1.
         -5    1    3    3    0  502 -0.23091338281E+02  0.33044327172E+02 -0.70533380055E+02  0.81376809742E+02  0.47000000000E+01 0. -1.
        -11    1    1    2    0    0  0.76232293622E+02 -0.79348795661E+02  0.36439812415E+03  0.38064890234E+03  0.00000000000E+00 0.  1.
         11    1    1    2    0    0  0.44727042641E+02  0.24667158850E+02  0.14917639073E+03  0.15767870060E+03  0.00000000000E+00 0. -1.
<mgrwt>
<rscale>  0 0.17684811E+03</rscale>
<asrwt>0</asrwt>
<pdfrwt beam="1">  1        1 0.92246654E-01 0.18233349E+03</pdfrwt>
<pdfrwt beam="2">  1       -1 0.19265047E-01 0.18233349E+03</pdfrwt>
<totfact> 0.75860978E+02</totfact>
</mgrwt>
</event>
<event>
 6    1  0.5400401E-006  0.2327855E+03  0.7546771E-02  0.1151947E+00
         -2   -1    0    0    0  501 -0.00000000000E+00  0.00000000000E+00  0.96215147824E+02  0.96215147824E+02  0.00000000000E+00 0.  1.
          2   -1    0    0  501    0  0.00000000000E+00 -0.00000000000E+00 -0.35063732037E+03  0.35063732037E+03  0.00000000000E+00 0. -1.
          5    1    1    2  502    0  0.47413466206E+02 -0.58007381314E+02 -0.13094902126E+03  0.15093915739E+03  0.47000000000E+01 0. -1.
         -5    1    1    2    0  502 -0.10179120203E+03  0.74651953962E-01  0.24848746427E+02  0.10488567387E+03  0.47000000000E+01 0.  1.
        -11    1    1    2    0    0  0.79756397754E+02  0.44044456329E+02 -0.10618398695E+03  0.13991438883E+03  0.00000000000E+00 0. -1.
         11    1    1    2    0    0 -0.25378661930E+02  0.13888273031E+02 -0.42137910761E+02  0.51113248111E+02  0.00000000000E+00 0.  1.
<mgrwt>
<rscale>  0 0.19740520E+03</rscale>
<asrwt>0</asrwt>
<pdfrwt beam="2">  1        2 0.53944202E-01 0.23278547E+03</pdfrwt>
<pdfrwt beam="1">  1       -2 0.14802331E-01 0.23278547E+03</pdfrwt>
<totfact> 0.31967635E+03</totfact>
</mgrwt>
</event>
<event>
 7    1  0.5400401E-006  0.1435125E+03  0.7546771E-02  0.1218658E+00
          3   -1    0    0  501    0  0.00000000000E+00  0.00000000000E+00  0.94552804561E+02  0.94552804561E+02  0.00000000000E+00 0. -1.
         -3   -1    0    0    0  501 -0.00000000000E+00 -0.00000000000E+00 -0.33161083575E+03  0.33161083575E+03  0.00000000000E+00 0.  1.
         23    2    1    2    0    0  0.16856116583E+02 -0.68465937643E+02 -0.26972959241E+03  0.30553215891E+03  0.12499653525E+03 0.  0.
          5    1    3    3  502    0  0.66481102504E+02 -0.12673170965E+02 -0.14497392930E+03  0.16006210179E+03  0.47000000000E+01 0. -1.
         -5    1    3    3    0  502 -0.49624985921E+02 -0.55792766678E+02 -0.12475566310E+03  0.14547005712E+03  0.47000000000E+01 0. -1.
        -11    1    1    2    0    0  0.25703633410E+02  0.65532379347E+02  0.67569870131E+01  0.70716521315E+02  0.00000000000E+00 0.  1.
         11    1    1    2    0    0 -0.42559749993E+02  0.29335582961E+01  0.25914574208E+02  0.49914960084E+02  0.00000000000E+00 0. -1.
<mgrwt>
<rscale>  0 0.13611213E+03</rscale>
<asrwt>0</asrwt>
<pdfrwt beam="1">  1        3 0.14546585E-01 0.14351253E+03</pdfrwt>
<pdfrwt beam="2">  1       -3 0.51017052E-01 0.14351253E+03</pdfrwt>
<totfact> 0.35184547E+02</totfact>
</mgrwt>
</event>
<event>
 7    1  0.5400401E-006  0.4538581E+03  0.7546771E-02  0.1027191E+00
          2   -1    0    0  501    0  0.00000000000E+00  0.00000000000E+00  0.76858394818E+03  0.76858394818E+03  0.00000000000E+00 0. -1.
         -2   -1    0    0    0  501 -0.00000000000E+00 -0.00000000000E+00 -0.29840845271E+03  0.29840845271E+03  0.00000000000E+00 0.  1.
         23    2    1    2    0    0  0.29636527034E+03  0.32020537191E+03  0.53660896434E+02  0.45701933387E+03  0.12499330406E+03 0.  0.
          5    1    3    3  502    0  0.52225911136E+02  0.12932073875E+03  0.46175099084E+02  0.14698853370E+03  0.47000000000E+01 0.  1.
         -5    1    3    3    0  502  0.24413935920E+03  0.19088463316E+03  0.74857973492E+01  0.31003080017E+03  0.47000000000E+01 0.  1.
        -11    1    1    2    0    0 -0.74109208779E+02 -0.36988252709E+02  0.52867207639E+02  0.98261117986E+02  0.00000000000E+00 0.  1.
         11    1    1    2    0    0 -0.22225606156E+03 -0.28321711920E+03  0.36364739141E+03  0.51171194904E+03  0.00000000000E+00 0. -1.
<mgrwt>
<rscale>  0 0.45178599E+03</rscale>
<asrwt>0</asrwt>
<pdfrwt beam="1">  1        2 0.11824368E+00 0.45385811E+03</pdfrwt>
<pdfrwt beam="2">  1       -2 0.45908993E-01 0.45385811E+03</pdfrwt>
<totfact> 0.16846857E+02</totfact>
</mgrwt>
</event>
<event>
 7    1  0.5400401E-006  0.2093954E+03  0.7546771E-02  0.1145928E+00
         -4   -1    0    0    0  501 -0.00000000000E+00  0.00000000000E+00  0.11131356760E+04  0.11131356760E+04  0.00000000000E+00 0.  1.
          4   -1    0    0  501    0  0.00000000000E+00 -0.00000000000E+00 -0.44089382631E+02  0.44089382631E+02  0.00000000000E+00 0. -1.
         23    2    1    2    0    0  0.14042879520E+03  0.92208500597E+02  0.80286046385E+03  0.82971763318E+03  0.12499508913E+03 0.  0.
          5    1    3    3  502    0  0.93978832010E+02 -0.10014355471E+02  0.43003602645E+03  0.44032417856E+03  0.47000000000E+01 0. -1.
         -5    1    3    3    0  502  0.46449963188E+02  0.10222285607E+03  0.37282443740E+03  0.38939345462E+03  0.47000000000E+01 0. -1.
        -11    1    1    2    0    0 -0.29546954347E+01 -0.40039128278E+02  0.33661786635E+02  0.52392536662E+02  0.00000000000E+00 0. -1.
         11    1    1    2    0    0 -0.13747409976E+03 -0.52169372318E+02  0.23252404293E+03  0.27511488883E+03  0.00000000000E+00 0.  1.
<mgrwt>
<rscale>  0 0.20458429E+03</rscale>
<asrwt>0</asrwt>
<pdfrwt beam="2">  1        4 0.67829828E-02 0.20939538E+03</pdfrwt>
<pdfrwt beam="1">  1       -4 0.17125162E+00 0.20939538E+03</pdfrwt>
<totfact> 0.58090205E+01</totfact>
</mgrwt>
</event>
<event>
 7    1  0.5400401E-006  0.1428776E+03  0.7546771E-02  0.1220080E+00
          2   -1    0    0  501    0  0.00000000000E+00  0.00000000000E+00  0.72083486955E+02  0.72083486955E+02  0.00000000000E+00 0. -1.
         -2   -1    0    0    0  501 -0.00000000000E+00 -0.00000000000E+00 -0.23080656396E+03  0.23080656396E+03  0.00000000000E+00 0.  1.
         23    2    1    2    0    0 -0.66153426310E+02 -0.20311667126E+02 -0.10057969898E+03  0.17472919202E+03  0.12500070025E+03 0.  0.
          5    1    3    3  502    0 -0.59793051707E+02 -0.85919375038E+01  0.11576136413E+02  0.61685714366E+02  0.47000000000E+01 0.  1.
         -5    1    3    3    0  502 -0.63603746032E+01 -0.11719729622E+02 -0.11215583539E+03  0.11304347765E+03  0.47000000000E+01 0.  1.
        -11    1    1    2    0    0  0.54683599376E+02 -0.15927260503E+02 -0.68187530697E+02  0.88845444511E+02  0.00000000000E+00 0.  1.
         11    1    1    2    0    0  0.11469826935E+02  0.36238927629E+02  0.10044152669E+02  0.39315414387E+02  0.00000000000E+00 0. -1.
<mgrwt>
<rscale>  0 0.13509890E+03</rscale>
<asrwt>0</asrwt>
<pdfrwt beam="1">  1        2 0.11089767E-01 0.14287762E+03</pdfrwt>
<pdfrwt beam="2">  1       -2 0.35508702E-01 0.14287762E+03</pdfrwt>
<totfact> 0.40353514E+03</totfact>
</mgrwt>
</event>
<event>
 7    1  0.5400401E-006  0.1121515E+03  0.7546771E-02  0.1281831E+00
         -2   -1    0    0    0  501 -0.00000000000E+00  0.00000000000E+00  0.23846406676E+02  0.23846406676E+02  0.00000000000E+00 0. -1.
          2   -1    0    0  501    0  0.00000000000E+00 -0.00000000000E+00 -0.34506830114E+03  0.34506830114E+03  0.00000000000E+00 0.  1.
         23    2    1    2    0    0  0.19624264968E+02 -0.27384973949E+01 -0.21103699227E+03  0.23898654267E+03  0.11038724712E+03 0.  0.
          5    1    3    3  502    0  0.21312427030E+02 -0.51237083897E+02 -0.68153663789E+02  0.88014034109E+02  0.47000000000E+01 0. -1.
         -5    1    3    3    0  502 -0.16881620624E+01  0.48498586502E+02 -0.14288332848E+03  0.15097250856E+03  0.47000000000E+01 0.  1.
        -11    1    1    2    0    0 -0.37125127306E+02  0.21549919152E+02 -0.73998010030E+02  0.85547528201E+02  0.00000000000E+00 0.  1.
         11    1    1    2    0    0  0.17500862338E+02 -0.18811421757E+02 -0.36186892166E+02  0.44380636946E+02  0.00000000000E+00 0. -1.
<mgrwt>
<rscale>  0 0.99273449E+02</rscale>
<asrwt>0</asrwt>
<pdfrwt beam="2">  1        2 0.53087429E-01 0.11215148E+03</pdfrwt>
<pdfrwt beam="1">  1       -2 0.36686781E-02 0.11215148E+03</pdfrwt>
<totfact> 0.26839147E+04</totfact>
</mgrwt>
</event>
<event>
 7    1  0.5400401E-006  0.1357025E+03  0.7546771E-02  0.1231477E+00
          1   -1    0    0  501    0  0.00000000000E+00  0.00000000000E+00  0.79111347646E+02  0.79111347646E+02  0.00000000000E+00 0. -1.
         -1   -1    0    0    0  501 -0.00000000000E+00 -0.00000000000E+00 -0.20197541395E+03  0.20197541395E+03  0.00000000000E+00 0.  1.
         23    2    1    2    0    0  0.36772654378E+02  0.37925380698E+02 -0.11085926851E+03  0.17522823517E+03  0.12499837749E+03 0.  0.
          5    1    3    3  502    0  0.29820651561E+02 -0.43907424455E+02 -0.47711832579E+02  0.71523717394E+02  0.47000000000E+01 0.  1.
         -5    1    3    3    0  502  0.69520028179E+01  0.81832805153E+02 -0.63147435930E+02  0.10370451778E+03  0.47000000000E+01 0.  1.
        -11    1    1    2    0    0 -0.67188071084E+02 -0.27252142859E+02 -0.38371115572E+01  0.72606057677E+02  0.00000000000E+00 0.  1.
         11    1    1    2    0    0  0.30415416705E+02 -0.10673237839E+02 -0.81676862349E+01  0.33252468747E+02  0.00000000000E+00 0. -1.
<mgrwt>
<rscale>  0 0.12732672E+03</rscale>
<asrwt>0</asrwt>
<pdfrwt beam="1">  1        1 0.12170976E-01 0.13570246E+03</pdfrwt>
<pdfrwt beam="2">  1       -1 0.31073141E-01 0.13570246E+03</pdfrwt>
<totfact> 0.45272743E+03</totfact>
</mgrwt>
</event>
<event>
 7    1  0.5400401E-006  0.1412050E+03  0.7546771E-02  0.1222782E+00
         -1   -1    0    0    0  501 -0.00000000000E+00  0.00000000000E+00  0.43799337207E+02  0.43799337207E+02  0.00000000000E+00 0.  1.
          1   -1    0    0  501    0  0.00000000000E+00 -0.00000000000E+00 -0.39699148013E+03  0.39699148013E+03  0.00000000000E+00 0. -1.
         23    2    1    2    0    0  0.47373839868E+02  0.45499803544E+02 -0.13369083228E+03  0.19445331301E+03  0.12499735788E+03 0.  0.
          5    1    3    3  502    0  0.16940124158E+02  0.81230381120E+02 -0.11880635630E+03  0.14499097531E+03  0.47000000000E+01 0.  1.
         -5    1    3    3    0  502  0.30433715710E+02 -0.35730577576E+02 -0.14884475987E+02  0.49462337705E+02  0.47000000000E+01 0.  1.
        -11    1    1    2    0    0 -0.30548838697E+02 -0.72914291051E+02 -0.14407788755E+03  0.16434160480E+03  0.00000000000E+00 0.  1.
         11    1    1    2    0    0 -0.16825001171E+02  0.27414487508E+02 -0.75423423081E+02  0.81995899526E+02  0.00000000000E+00 0. -1.
<mgrwt>
<rscale>  0 0.13320089E+03</rscale>
<asrwt>0</asrwt>
<pdfrwt beam="2">  1        1 0.61075613E-01 0.14120500E+03</pdfrwt>
<pdfrwt beam="1">  1       -1 0.67383595E-02 0.14120500E+03</pdfrwt>
<totfact> 0.65695471E+03</totfact>
</mgrwt>
</event>
<event>
 7    1  0.5400401E-006  0.1336635E+03  0.7546771E-02  0.1232465E+00
         -1   -1    0    0    0  501 -0.00000000000E+00  0.00000000000E+00  0.13737184042E+03  0.13737184042E+03  0.00000000000E+00 0.  1.
          1   -1    0    0  501    0  0.00000000000E+00 -0.00000000000E+00 -0.11511519891E+03  0.11511519891E+03  0.00000000000E+00 0. -1.
         23    2    1    2    0    0 -0.13777125399E+02 -0.45327924091E+02  0.47270852830E+02  0.14177606800E+03  0.12498595938E+03 0.  0.
          5    1    3    3  502    0  0.48086007169E+02 -0.52314120727E+02  0.24022324819E+02  0.75154463624E+02  0.47000000000E+01 0.  1.
         -5    1    3    3    0  502 -0.61863132568E+02  0.69861966362E+01  0.23248528012E+02  0.66621604374E+02  0.47000000000E+01 0.  1.
        -11    1    1    2    0    0  0.31309841789E+02  0.92485274255E+01  0.28838387628E+02  0.43560234772E+02  0.00000000000E+00 0.  1.
         11    1    1    2    0    0 -0.17532716390E+02  0.36079396665E+02 -0.53852598941E+02  0.67150736559E+02  0.00000000000E+00 0. -1.
<mgrwt>
<rscale>  0 0.12668133E+03</rscale>
<asrwt>0</asrwt>
<pdfrwt beam="2">  1        1 0.17710031E-01 0.13366346E+03</pdfrwt>
<pdfrwt beam="1">  1       -1 0.21134129E-01 0.13366346E+03</pdfrwt>
<totfact> 0.52513987E+03</totfact>
</mgrwt>
</event>
<event>
 7    1  0.5400401E-006  0.1650806E+03  0.7546771E-02  0.1189052E+00
          2   -1    0    0  501    0  0.00000000000E+00  0.00000000000E+00  0.18075827385E+03  0.18075827385E+03  0.00000000000E+00 0. -1.
         -2   -1    0    0    0  501 -0.00000000000E+00 -0.00000000000E+00 -0.20405569541E+03  0.20405569541E+03  0.00000000000E+00 0.  1.
         23    2    1    2    0    0  0.12660683180E+01 -0.10783414298E+03 -0.12585992759E+03  0.20758690725E+03  0.12498718882E+03 0.  0.
          5    1    3    3  502    0 -0.58818177440E+02 -0.50105061182E+02 -0.37392795443E+02  0.85967472363E+02  0.47000000000E+01 0.  1.
         -5    1    3    3    0  502  0.60084245758E+02 -0.57729081799E+02 -0.88467132143E+02  0.12161943489E+03  0.47000000000E+01 0.  1.
        -11    1    1    2    0    0 -0.47288711598E+02  0.53478197077E+02  0.36923955753E+02  0.80371128620E+02  0.00000000000E+00 0. -1.
         11    1    1    2    0    0  0.46022643280E+02  0.54355945904E+02  0.65638550269E+02  0.96855933381E+02  0.00000000000E+00 0.  1.
<mgrwt>
<rscale>  0 0.15968542E+03</rscale>
<asrwt>0</asrwt>
<pdfrwt beam="1">  1        2 0.27808965E-01 0.16508059E+03</pdfrwt>
<pdfrwt beam="2">  1       -2 0.31393184E-01 0.16508059E+03</pdfrwt>
<totfact> 0.17641244E+03</totfact>
</mgrwt>
</event>
<event>
 7    1  0.5400401E-006  0.1649527E+03  0.7546771E-02  0.1190295E+00
         -1   -1    0    0    0  501 -0.00000000000E+00  0.00000000000E+00  0.10502177673E+04  0.10502177673E+04  0.00000000000E+00 0.  1.
          1   -1    0    0  501    0  0.00000000000E+00 -0.00000000000E+00 -0.23208888550E+02  0.23208888550E+02  0.00000000000E+00 0. -1.
         23    2    1    2    0    0  0.59082286706E+02 -0.89986202976E+02  0.65952752819E+03  0.67984258801E+03  0.12498460184E+03 0.  0.
          5    1    3    3  502    0  0.78399992495E+02 -0.10475463397E+03  0.61601903426E+03  0.62977903485E+03  0.47000000000E+01 0. -1.
         -5    1    3    3    0  502 -0.19317705789E+02  0.14768430993E+02  0.43508493930E+02  0.50063553160E+02  0.47000000000E+01 0. -1.
        -11    1    1    2    0    0 -0.43409154270E+01  0.51906227485E+02  0.62316849639E+02  0.81218777062E+02  0.00000000000E+00 0. -1.
         11    1    1    2    0    0 -0.54741371279E+02  0.38079975491E+02  0.30516450093E+03  0.31236529079E+03  0.00000000000E+00 0.  1.
<mgrwt>
<rscale>  0 0.15859262E+03</rscale>
<asrwt>0</asrwt>
<pdfrwt beam="2">  1        1 0.35705991E-02 0.16495267E+03</pdfrwt>
<pdfrwt beam="1">  1       -1 0.16157193E+00 0.16495267E+03</pdfrwt>
<totfact> 0.81808338E+02</totfact>
</mgrwt>
</event>
<event>
 7    1  0.5400401E-006  0.1300612E+03  0.7546771E-02  0.1240268E+00
          1   -1    0    0  501    0  0.00000000000E+00  0.00000000000E+00  0.20641007779E+02  0.20641007779E+02  0.00000000000E+00 0. -1.
         -1   -1    0    0    0  501 -0.00000000000E+00 -0.00000000000E+00 -0.78166267584E+03  0.78166267584E+03  0.00000000000E+00 0.  1.
         23    2    1    2    0    0 -0.35244120583E+02 -0.89084336781E+01 -0.59107922080E+03  0.60521943125E+03  0.12487756597E+03 0.  0.
          5    1    3    3  502    0  0.10671462585E+02 -0.11662524740E+02 -0.52100045270E+03  0.52126140881E+03  0.47000000000E+01 0. -1.
         -5    1    3    3    0  502 -0.45915583169E+02  0.27540910617E+01 -0.70078768093E+02  0.83958022444E+02  0.47000000000E+01 0.  1.
        -11    1    1    2    0    0  0.37159284639E+02 -0.30411128007E+02 -0.13885588015E+03  0.14692380541E+03  0.00000000000E+00 0.  1.
         11    1    1    2    0    0 -0.19151640561E+01  0.39319561685E+02 -0.31086567110E+02  0.50160446959E+02  0.00000000000E+00 0. -1.
<mgrwt>
<rscale>  0 0.12173147E+03</rscale>
<asrwt>0</asrwt>
<pdfrwt beam="1">  1        1 0.31755395E-02 0.13006120E+03</pdfrwt>
<pdfrwt beam="2">  1       -1 0.12025580E+00 0.13006120E+03</pdfrwt>
<totfact> 0.20038180E+03</totfact>
</mgrwt>
</event>
<event>
 6    1  0.5400401E-006  0.1305000E+03  0.7546771E-02  0.1244948E+00
         -2   -1    0    0    0  501 -0.00000000000E+00  0.00000000000E+00  0.26512557321E+03  0.26512557321E+03  0.00000000000E+00 0.  1.
          2   -1    0    0  501    0  0.00000000000E+00 -0.00000000000E+00 -0.86583034257E+02  0.86583034257E+02  0.00000000000E+00 0. -1.
          5    1    1    2  502    0  0.56324270473E+02  0.26744612327E+02  0.18325650346E+03  0.19363040514E+03  0.47000000000E+01 0. -1.
         -5    1    1    2    0  502 -0.45829168375E+02 -0.17596130158E+02  0.34322636530E+02  0.60083856807E+02  0.47000000000E+01 0.  1.
        -11    1    1    2    0    0 -0.39608946677E+02  0.51186085052E+01  0.81318244916E+01  0.40757764653E+02  0.00000000000E+00 0.  1.
         11    1    1    2    0    0  0.29113844579E+02 -0.14267090674E+02 -0.47168425531E+02  0.57236580869E+02  0.00000000000E+00 0. -1.
<mgrwt>
<rscale>  0 0.11888519E+03</rscale>
<asrwt>0</asrwt>
<pdfrwt beam="2">  1        2 0.13320467E-01 0.13049998E+03</pdfrwt>
<pdfrwt beam="1">  1       -2 0.40788549E-01 0.13049998E+03</pdfrwt>
<totfact> 0.24840156E+03</totfact>
</mgrwt>
</event>
<event>
 7    1  0.5400401E-006  0.1791597E+03  0.7546771E-02  0.1174877E+00
         -1   -1    0    0    0  501 -0.00000000000E+00  0.00000000000E+00  0.44235117089E+02  0.44235117089E+02  0.00000000000E+00 0.  1.
          1   -1    0    0  501    0  0.00000000000E+00 -0.00000000000E+00 -0.73326629896E+03  0.73326629896E+03  0.00000000000E+00 0. -1.
         23    2    1    2    0    0 -0.12454247040E+03  0.31003411893E+02 -0.22176123372E+03  0.28508990686E+03  0.12500468684E+03 0.  0.
          5    1    3    3  502    0 -0.13263123984E+03 -0.11979005951E+02 -0.14750362744E+03  0.19878116730E+03  0.47000000000E+01 0. -1.
         -5    1    3    3    0  502  0.80887694415E+01  0.42982417843E+02 -0.74257606284E+02  0.86308739567E+02  0.47000000000E+01 0. -1.
        -11    1    1    2    0    0  0.71501966464E+02  0.26937538694E+02 -0.21340175360E+03  0.22666819503E+03  0.00000000000E+00 0.  1.
         11    1    1    2    0    0  0.53040503934E+02 -0.57940950586E+02 -0.25386819455E+03  0.26574331416E+03  0.00000000000E+00 0. -1.
<mgrwt>
<rscale>  0 0.17288019E+03</rscale>
<asrwt>0</asrwt>
<pdfrwt beam="2">  1        1 0.11281021E+00 0.17915973E+03</pdfrwt>
<pdfrwt beam="1">  1       -1 0.68054023E-02 0.17915973E+03</pdfrwt>
<totfact> 0.28682222E+03</totfact>
</mgrwt>
</event>
<event>
 7    1  0.5400401E-006  0.1796445E+03  0.7546771E-02  0.1173809E+00
         -2   -1    0    0    0  501 -0.00000000000E+00  0.00000000000E+00  0.28811478926E+03  0.28811478926E+03  0.00000000000E+00 0.  1.
          2   -1    0    0  501    0  0.00000000000E+00 -0.00000000000E+00 -0.10762605303E+03  0.10762605303E+03  0.00000000000E+00 0. -1.
         23    2    1    2    0    0 -0.16387026907E+02 -0.12797690554E+03  0.15201940542E+03  0.23533392574E+03  0.12500213589E+03 0.  0.
          5    1    3    3  502    0  0.17169952582E+01 -0.15036097567E+03  0.12572031279E+03  0.19605881292E+03  0.47000000000E+01 0. -1.
         -5    1    3    3    0  502 -0.18104022165E+02  0.22384070123E+02  0.26299092623E+02  0.39275112815E+02  0.47000000000E+01 0. -1.
        -11    1    1    2    0    0 -0.17755386671E+02  0.83720261045E+02  0.51577323235E+02  0.99922750850E+02  0.00000000000E+00 0. -1.
         11    1    1    2    0    0  0.34142413578E+02  0.44256644499E+02 -0.23107992415E+02  0.60484165702E+02  0.00000000000E+00 0.  1.
<mgrwt>
<rscale>  0 0.17393170E+03</rscale>
<asrwt>0</asrwt>
<pdfrwt beam="2">  1        2 0.16557854E-01 0.17964453E+03</pdfrwt>
<pdfrwt beam="1">  1       -2 0.44325352E-01 0.17964453E+03</pdfrwt>
<totfact> 0.16633970E+03</totfact>
</mgrwt>
</event>
<event>
 7    1  0.5400401E-006  0.1281723E+03  0.7546771E-02  0.1245883E+00
         -1   -1    0    0    0  501 -0.00000000000E+00  0.00000000000E+00  0.26172613802E+03  0.26172613802E+03  0.00000000000E+00 0.  1.
          1   -1    0    0  501    0  0.00000000000E+00 -0.00000000000E+00 -0.54099516463E+02  0.54099516463E+02  0.00000000000E+00 0. -1.
         23    2    1    2    0    0  0.20441334733E+02 -0.19627258246E+02  0.17553580256E+03  0.21734982077E+03  0.12500019671E+03 0.  0.
          5    1    3    3  502    0 -0.18849345024E+02 -0.10804768592E+02 -0.12151559082E+02  0.25333598644E+02  0.47000000000E+01 0.  1.
         -5    1    3    3    0  502  0.39290679757E+02 -0.88224896543E+01  0.18768736165E+03  0.19201622213E+03  0.47000000000E+01 0.  1.
        -11    1    1    2    0    0 -0.47700649333E+02 -0.47077519776E+01  0.38370679742E+02  0.61398892004E+02  0.00000000000E+00 0.  1.
         11    1    1    2    0    0  0.27259314601E+02  0.24335010224E+02 -0.62798607505E+01  0.37076941704E+02  0.00000000000E+00 0. -1.
<mgrwt>
<rscale>  0 0.11832685E+03</rscale>
<asrwt>0</asrwt>
<pdfrwt beam="2">  1        1 0.83230027E-02 0.12817225E+03</pdfrwt>
<pdfrwt beam="1">  1       -1 0.40265559E-01 0.12817225E+03</pdfrwt>
<totfact> 0.47793718E+03</totfact>
</mgrwt>
</event>
<event>
 7    1  0.5400401E-006  0.1269204E+03  0.7546771E-02  0.1246041E+00
          1   -1    0    0  501    0  0.00000000000E+00  0.00000000000E+00  0.36067308501E+03  0.36067308501E+03  0.00000000000E+00 0. -1.
         -1   -1    0    0    0  501 -0.00000000000E+00 -0.00000000000E+00 -0.41784119804E+02  0.41784119804E+02  0.00000000000E+00 0.  1.
         23    2    1    2    0    0  0.21722259779E+02  0.35668092885E+01  0.93506630636E+02  0.15764605609E+03  0.12499684128E+03 0.  0.
          5    1    3    3  502    0 -0.18868671860E+02 -0.38370301692E+02  0.89084504443E+02  0.98926466436E+02  0.47000000000E+01 0. -1.
         -5    1    3    3    0  502  0.40590931640E+02  0.41937110981E+02  0.44221261930E+01  0.58719589652E+02  0.47000000000E+01 0. -1.
        -11    1    1    2    0    0  0.29343551480E+02  0.38140660246E+01  0.27792537058E+02  0.40595766149E+02  0.00000000000E+00 0.  1.
         11    1    1    2    0    0 -0.51065811260E+02 -0.73808753130E+01  0.19758979751E+03  0.20421538258E+03  0.00000000000E+00 0. -1.
<mgrwt>
<rscale>  0 0.11823306E+03</rscale>
<asrwt>0</asrwt>
<pdfrwt beam="1">  1        1 0.55488165E-01 0.12692040E+03</pdfrwt>
<pdfrwt beam="2">  1       -1 0.64283264E-02 0.12692040E+03</pdfrwt>
<totfact> 0.78948662E+03</totfact>
</mgrwt>
</event>
<event>
 7    1  0.5400401E-006  0.1512241E+03  0.7546771E-02  0.1209920E+00
          2   -1    0    0  501    0  0.00000000000E+00  0.00000000000E+00  0.22194610047E+03  0.22194610047E+03  0.00000000000E+00 0.  1.
         -2   -1    0    0    0  501 -0.00000000000E+00 -0.00000000000E+00 -0.90624558342E+02  0.90624558342E+02  0.00000000000E+00 0. -1.
         23    2    1    2    0    0  0.67084155930E+02 -0.52379368395E+02  0.26246540845E+02  0.15348488150E+03  0.12499938293E+03 0.  0.
          5    1    3    3  502    0 -0.28833855987E+02 -0.44072779653E+02 -0.23876400062E+01  0.52930066902E+02  0.47000000000E+01 0.  1.
         -5    1    3    3    0  502  0.95918011917E+02 -0.83065887421E+01  0.28634180851E+02  0.10055481460E+03  0.47000000000E+01 0.  1.
        -11    1    1    2    0    0 -0.23067870339E+02  0.51194572881E+02  0.13917453130E+02  0.57850725459E+02  0.00000000000E+00 0. -1.
         11    1    1    2    0    0 -0.44016285591E+02  0.11847955141E+01  0.91157548155E+02  0.10123505185E+03  0.00000000000E+00 0.  1.
<mgrwt>
<rscale>  0 0.14256383E+03</rscale>
<asrwt>0</asrwt>
<pdfrwt beam="1">  1        2 0.34145554E-01 0.15122410E+03</pdfrwt>
<pdfrwt beam="2">  1       -2 0.13942240E-01 0.15122410E+03</pdfrwt>
<totfact> 0.56448061E+03</totfact>
</mgrwt>
</event>
<event>
 7    1  0.5400401E-006  0.1257498E+03  0.7546771E-02  0.1249423E+00
         -1   -1    0    0    0  501 -0.00000000000E+00  0.00000000000E+00  0.14400191448E+03  0.14400191448E+03  0.00000000000E+00 0.  1.
          1   -1    0    0  501    0  0.00000000000E+00 -0.00000000000E+00 -0.83613530312E+02  0.83613530312E+02  0.00000000000E+00 0. -1.
         23    2    1    2    0    0  0.11610365011E+02 -0.73011638515E+01  0.49503502511E+02  0.13514289855E+03  0.12499959480E+03 0.  0.
          5    1    3    3  502    0 -0.25330197724E+02  0.28871311832E+02 -0.23717730198E+02  0.45384934608E+02  0.47000000000E+01 0.  1.
         -5    1    3    3    0  502  0.36940562735E+02 -0.36172475683E+02  0.73221232709E+02  0.89757963945E+02  0.47000000000E+01 0.  1.
        -11    1    1    2    0    0 -0.29959648874E+02  0.24767129566E+02 -0.26692286506E+02  0.47153678823E+02  0.00000000000E+00 0. -1.
         11    1    1    2    0    0  0.18349283863E+02 -0.17465965714E+02  0.37577168159E+02  0.45318867412E+02  0.00000000000E+00 0.  1.
<mgrwt>
<rscale>  0 0.11624551E+03</rscale>
<asrwt>0</asrwt>
<pdfrwt beam="2">  1        1 0.12863620E-01 0.12574978E+03</pdfrwt>
<pdfrwt beam="1">  1       -1 0.22154141E-01 0.12574978E+03</pdfrwt>
<totfact> 0.73233909E+03</totfact>
</mgrwt>
</event>
<event>
 7    1  0.5400401E-006  0.2083768E+03  0.7546771E-02  0.1147525E+00
          1   -1    0    0  501    0  0.00000000000E+00  0.00000000000E+00  0.18701496991E+03  0.18701496991E+03  0.00000000000E+00 0. -1.
         -1   -1    0    0    0  501 -0.00000000000E+00 -0.00000000000E+00 -0.21169326182E+03  0.21169326182E+03  0.00000000000E+00 0.  1.
         23    2    1    2    0    0  0.11988849195E+02  0.16628860209E+03 -0.38146302466E+02  0.21183962742E+03  0.12500102264E+03 0.  0.
          5    1    3    3  502    0 -0.72647723252E+01  0.53650710076E+02 -0.74155621240E+02  0.91936509452E+02  0.47000000000E+01 0.  1.
         -5    1    3    3    0  502  0.19253621521E+02  0.11263789201E+03  0.36009318775E+02  0.11990311796E+03  0.47000000000E+01 0.  1.
        -11    1    1    2    0    0 -0.62506543635E+01  0.89846387801E+01 -0.41381272150E+00  0.10952883408E+02  0.00000000000E+00 0.  1.
         11    1    1    2    0    0 -0.57381948319E+01 -0.17527324087E+03  0.13881823269E+02  0.17591572091E+03  0.00000000000E+00 0. -1.
<mgrwt>
<rscale>  0 0.20264616E+03</rscale>
<asrwt>0</asrwt>
<pdfrwt beam="1">  1        1 0.28771534E-01 0.20837679E+03</pdfrwt>
<pdfrwt beam="2">  1       -1 0.32568194E-01 0.20837679E+03</pdfrwt>
<totfact> 0.14082156E+03</totfact>
</mgrwt>
</event>
<event>
 7    1  0.5400401E-006  0.1386966E+03  0.7546771E-02  0.1226154E+00
          2   -1    0    0  501    0  0.00000000000E+00  0.00000000000E+00  0.83606822451E+02  0.83606822451E+02  0.00000000000E+00 0. -1.
         -2   -1    0    0    0  501 -0.00000000000E+00 -0.00000000000E+00 -0.18512416861E+03  0.18512416861E+03  0.00000000000E+00 0.  1.
         23    2    1    2    0    0 -0.53274946201E+02 -0.27575531611E+02 -0.61111529385E+02  0.15156309856E+03  0.12505248492E+03 0.  0.
          5    1    3    3  502    0 -0.61679191720E+02  0.12856191778E+02 -0.83220426295E+02  0.10448604553E+03  0.47000000000E+01 0. -1.
         -5    1    3    3    0  502  0.84042455197E+01 -0.40431723389E+02  0.22108896911E+02  0.47077053026E+02  0.47000000000E+01 0. -1.
        -11    1    1    2    0    0 -0.35669781666E+01  0.37637061795E+02  0.11522466788E+02  0.39522639015E+02  0.00000000000E+00 0. -1.
         11    1    1    2    0    0  0.56841924367E+02 -0.10061530185E+02 -0.51928283564E+02  0.77645253489E+02  0.00000000000E+00 0.  1.
<mgrwt>
<rscale>  0 0.13088149E+03</rscale>
<asrwt>0</asrwt>
<pdfrwt beam="1">  1        2 0.12862588E-01 0.13869663E+03</pdfrwt>
<pdfrwt beam="2">  1       -2 0.28480641E-01 0.13869663E+03</pdfrwt>
<totfact> 0.50303933E+03</totfact>
</mgrwt>
</event>
<event>
 7    1  0.5400401E-006  0.1405432E+03  0.7546771E-02  0.1223143E+00
          2   -1    0    0  501    0  0.00000000000E+00  0.00000000000E+00  0.52776080778E+03  0.52776080778E+03  0.00000000000E+00 0. -1.
         -2   -1    0    0    0  501 -0.00000000000E+00 -0.00000000000E+00 -0.41814164898E+02  0.41814164898E+02  0.00000000000E+00 0.  1.
         23    2    1    2    0    0  0.27290071416E+02 -0.58158451613E+02  0.11397184597E+03  0.18094740268E+03  0.12500090948E+03 0.  0.
          5    1    3    3  502    0  0.70877639632E+02 -0.16238468450E+02  0.33558203429E+02  0.80222008669E+02  0.47000000000E+01 0.  1.
         -5    1    3    3    0  502 -0.43587568217E+02 -0.41919983163E+02  0.80413642542E+02  0.10072539401E+03  0.47000000000E+01 0.  1.
        -11    1    1    2    0    0 -0.52794250744E+02  0.13078875959E+02  0.12565748250E+03  0.13692367514E+03  0.00000000000E+00 0.  1.
         11    1    1    2    0    0  0.25504179328E+02  0.45079575654E+02  0.24631731442E+03  0.25170389486E+03  0.00000000000E+00 0. -1.
<mgrwt>
<rscale>  0 0.13294984E+03</rscale>
<asrwt>0</asrwt>
<pdfrwt beam="1">  1        2 0.81193966E-01 0.14054316E+03</pdfrwt>
<pdfrwt beam="2">  1       -2 0.64329488E-02 0.14054316E+03</pdfrwt>
<totfact> 0.74676939E+03</totfact>
</mgrwt>
</event>
<event>
 6    1  0.5400401E-006  0.2062336E+03  0.7546771E-02  0.1221946E+00
          2   -1    0    0  501    0  0.00000000000E+00  0.00000000000E+00  0.14894750993E+03  0.14894750993E+03  0.00000000000E+00 0. -1.
         -2   -1    0    0    0  501 -0.00000000000E+00 -0.00000000000E+00 -0.11404797192E+03  0.11404797192E+03  0.00000000000E+00 0.  1.
          5    1    1    2  502    0  0.41704023708E+01  0.59182896641E+02  0.72783669315E+02  0.94018934421E+02  0.47000000000E+01 0. -1.
         -5    1    1    2    0  502  0.64824547565E+01 -0.77368576146E+02 -0.81116659224E+02  0.11238292218E+03  0.47000000000E+01 0.  1.
        -11    1    1    2    0    0 -0.17016764939E+02  0.60378891271E+01  0.99947889581E+01  0.20637882654E+02  0.00000000000E+00 0. -1.
         11    1    1    2    0    0  0.63639078121E+01  0.12147790378E+02  0.33237738962E+02  0.35955742588E+02  0.00000000000E+00 0.  1.
<mgrwt>
<rscale>  0 0.13378436E+03</rscale>
<asrwt>0</asrwt>
<pdfrwt beam="1">  1        2 0.22915002E-01 0.20623358E+03</pdfrwt>
<pdfrwt beam="2">  1       -2 0.17545842E-01 0.20623358E+03</pdfrwt>
<totfact> 0.60984729E+03</totfact>
</mgrwt>
</event>
<event>
 6    1  0.5400401E-006  0.1558099E+03  0.7546771E-02  0.1218860E+00
         -1   -1    0    0    0  501 -0.00000000000E+00  0.00000000000E+00  0.10591298379E+03  0.10591298379E+03  0.00000000000E+00 0.  1.
          1   -1    0    0  501    0  0.00000000000E+00 -0.00000000000E+00 -0.14333450174E+03  0.14333450174E+03  0.00000000000E+00 0. -1.
          5    1    1    2  502    0  0.24218666292E+02 -0.70359034994E+02 -0.27460745748E+02  0.79455145581E+02  0.47000000000E+01 0. -1.
         -5    1    1    2    0  502 -0.28018612467E+02  0.71414089715E+02  0.92628995702E+01  0.77413862860E+02  0.47000000000E+01 0.  1.
        -11    1    1    2    0    0  0.40421182557E+01  0.97906835524E+01 -0.54475197595E+02  0.55495435465E+02  0.00000000000E+00 0. -1.
         11    1    1    2    0    0 -0.24217208087E+00 -0.10845738274E+02  0.35251525832E+02  0.36883041625E+02  0.00000000000E+00 0.  1.
<mgrwt>
<rscale>  0 0.13596769E+03</rscale>
<asrwt>0</asrwt>
<pdfrwt beam="2">  1        1 0.22051462E-01 0.15580990E+03</pdfrwt>
<pdfrwt beam="1">  1       -1 0.16294305E-01 0.15580990E+03</pdfrwt>
<totfact> 0.60758513E+03</totfact>
</mgrwt>
</event>
<event>
 7    1  0.5400401E-006  0.1939498E+03  0.7546771E-02  0.1158670E+00
          3   -1    0    0  501    0  0.00000000000E+00  0.00000000000E+00  0.11225406638E+03  0.11225406638E+03  0.00000000000E+00 0. -1.
         -3   -1    0    0    0  501 -0.00000000000E+00 -0.00000000000E+00 -0.31342938705E+03  0.31342938705E+03  0.00000000000E+00 0.  1.
         23    2    1    2    0    0 -0.14628809509E+03 -0.24494662439E+02 -0.13360298017E+03  0.23551284116E+03  0.12496538236E+03 0.  0.
          5    1    3    3  502    0 -0.12168379575E+03 -0.41892575621E+02 -0.15252659973E+03  0.19962060932E+03  0.47000000000E+01 0.  1.
         -5    1    3    3    0  502 -0.24604299341E+02  0.17397913183E+02  0.18923619560E+02  0.35892231840E+02  0.47000000000E+01 0.  1.
        -11    1    1    2    0    0  0.55762501424E+02 -0.24402103542E+02 -0.62374565131E+02  0.87152197893E+02  0.00000000000E+00 0.  1.
         11    1    1    2    0    0  0.90525593665E+02  0.48896765980E+02 -0.51977753743E+01  0.10301841438E+03  0.00000000000E+00 0. -1.
<mgrwt>
<rscale>  0 0.18976931E+03</rscale>
<asrwt>0</asrwt>
<pdfrwt beam="1">  1        3 0.17269857E-01 0.19394984E+03</pdfrwt>
<pdfrwt beam="2">  1       -3 0.48219905E-01 0.19394984E+03</pdfrwt>
<totfact> 0.30390525E+02</totfact>
</mgrwt>
</event>
<event>
 7    1  0.5400401E-006  0.1304026E+03  0.7546771E-02  0.1240905E+00
         -3   -1    0    0    0  501 -0.00000000000E+00  0.00000000000E+00  0.23030499699E+02  0.23030499699E+02  0.00000000000E+00 0.  1.
          3   -1    0    0  501    0  0.00000000000E+00 -0.00000000000E+00 -0.57910833598E+03  0.57910833598E+03  0.00000000000E+00 0. -1.
         23    2    1    2    0    0 -0.22613523323E+02  0.29467231139E+02 -0.27045480966E+03  0.30025095543E+03  0.12500057209E+03 0.  0.
          5    1    3    3  502    0  0.23767668338E+02  0.35473700454E+02 -0.24096002905E+03  0.24475929212E+03  0.47000000000E+01 0. -1.
         -5    1    3    3    0  502 -0.46381191661E+02 -0.60064693153E+01 -0.29494780612E+02  0.55491663310E+02  0.47000000000E+01 0. -1.
        -11    1    1    2    0    0  0.27684532510E+02  0.26185734821E+02 -0.77052981876E+02  0.85960968261E+02  0.00000000000E+00 0.  1.
         11    1    1    2    0    0 -0.50710091870E+01 -0.55652965960E+02 -0.20857004475E+03  0.21592691199E+03  0.00000000000E+00 0. -1.
<mgrwt>
<rscale>  0 0.12133830E+03</rscale>
<asrwt>0</asrwt>
<pdfrwt beam="2">  1        3 0.89093597E-01 0.13040258E+03</pdfrwt>
<pdfrwt beam="1">  1       -3 0.35431535E-02 0.13040258E+03</pdfrwt>
<totfact> 0.10599627E+03</totfact>
</mgrwt>
</event>
<event>
 7    1  0.5400401E-006  0.1501809E+03  0.7546771E-02  0.1227308E+00
          2   -1    0    0  501    0  0.00000000000E+00  0.00000000000E+00  0.66366064040E+03  0.66366064040E+03  0.00000000000E+00 0. -1.
         -2   -1    0    0    0  501 -0.00000000000E+00 -0.00000000000E+00 -0.20800507473E+02  0.20800507473E+02  0.00000000000E+00 0.  1.
         23    2    1    2    0    0 -0.12915630453E+02 -0.82226280534E+02  0.42545246447E+03  0.45118077633E+03  0.12500527462E+03 0.  0.
          5    1    3    3  502    0  0.36931892660E+02 -0.29366661220E+01  0.41008297739E+02  0.55464936553E+02  0.47000000000E+01 0.  1.
         -5    1    3    3    0  502 -0.49847523113E+02 -0.79289614412E+02  0.38444416673E+03  0.39571583978E+03  0.47000000000E+01 0.  1.
        -11    1    1    2    0    0  0.39375745344E+01  0.62335126453E+02  0.16930325944E+03  0.18045710333E+03  0.00000000000E+00 0. -1.
         11    1    1    2    0    0  0.89780559182E+01  0.19891154081E+02  0.48104409011E+02  0.52823268216E+02  0.00000000000E+00 0.  1.
<mgrwt>
<rscale>  0 0.13009986E+03</rscale>
<asrwt>0</asrwt>
<pdfrwt beam="1">  1        2 0.10210162E+00 0.15018087E+03</pdfrwt>
<pdfrwt beam="2">  1       -2 0.32000786E-02 0.15018087E+03</pdfrwt>
<totfact> 0.16447963E+04</totfact>
</mgrwt>
</event>
<event>
 7    1  0.5400401E-006  0.1449616E+03  0.7546771E-02  0.1216725E+00
         -1   -1    0    0    0  501 -0.00000000000E+00  0.00000000000E+00  0.21469101017E+03  0.21469101017E+03  0.00000000000E+00 0.  1.
          1   -1    0    0  501    0  0.00000000000E+00 -0.00000000000E+00 -0.97975393579E+02  0.97975393579E+02  0.00000000000E+00 0. -1.
         23    2    1    2    0    0 -0.31688194701E+02  0.66210116600E+02  0.12979561168E+03  0.19457841737E+03  0.12500375383E+03 0.  0.
          5    1    3    3  502    0 -0.70956536890E+02  0.22367346480E+02  0.33740080061E+02  0.81826715188E+02  0.47000000000E+01 0.  1.
         -5    1    3    3    0  502  0.39268342189E+02  0.43842770120E+02  0.96055531622E+02  0.11275170218E+03  0.47000000000E+01 0.  1.
        -11    1    1    2    0    0  0.56796413822E+02 -0.65722227207E+02  0.52116919257E+01  0.87019569666E+02  0.00000000000E+00 0.  1.
         11    1    1    2    0    0 -0.25108219121E+02 -0.48788939259E+00 -0.18291687013E+02  0.31068416716E+02  0.00000000000E+00 0. -1.
<mgrwt>
<rscale>  0 0.13750578E+03</rscale>
<asrwt>0</asrwt>
<pdfrwt beam="2">  1        1 0.15073138E-01 0.14496158E+03</pdfrwt>
<pdfrwt beam="1">  1       -1 0.33029386E-01 0.14496158E+03</pdfrwt>
<totfact> 0.31000538E+03</totfact>
</mgrwt>
</event>
<event>
 7    1  0.5400401E-006  0.1283313E+03  0.7546771E-02  0.1246807E+00
         -2   -1    0    0    0  501 -0.00000000000E+00  0.00000000000E+00  0.17892877429E+02  0.17892877429E+02  0.00000000000E+00 0.  1.
          2   -1    0    0  501    0  0.00000000000E+00 -0.00000000000E+00 -0.67376081937E+03  0.67376081937E+03  0.00000000000E+00 0. -1.
         23    2    1    2    0    0  0.27735311005E+02  0.85961005616E+01 -0.36846575018E+03  0.39017424224E+03  0.12500315928E+03 0.  0.
          5    1    3    3  502    0 -0.26349339820E+02  0.34618118649E+01 -0.11955576679E+02  0.29517751677E+02  0.47000000000E+01 0.  1.
         -5    1    3    3    0  502  0.54084650824E+02  0.51342886968E+01 -0.35651017350E+03  0.36065649057E+03  0.47000000000E+01 0.  1.
        -11    1    1    2    0    0  0.24808518587E+01 -0.44232801255E+02 -0.14332477881E+03  0.15001562436E+03  0.00000000000E+00 0.  1.
         11    1    1    2    0    0 -0.30216162863E+02  0.35636700694E+02 -0.14407741295E+03  0.15146383020E+03  0.00000000000E+00 0. -1.
<mgrwt>
<rscale>  0 0.11777898E+03</rscale>
<asrwt>0</asrwt>
<pdfrwt beam="2">  1        2 0.10365550E+00 0.12833133E+03</pdfrwt>
<pdfrwt beam="1">  1       -2 0.27527506E-02 0.12833133E+03</pdfrwt>
<totfact> 0.19915700E+04</totfact>
</mgrwt>
</event>
<event>
 7    1  0.5400401E-006  0.2346779E+03  0.7546771E-02  0.1126262E+00
          1   -1    0    0  501    0  0.00000000000E+00  0.00000000000E+00  0.23369271169E+03  0.23369271169E+03  0.00000000000E+00 0. -1.
         -1   -1    0    0    0  501 -0.00000000000E+00 -0.00000000000E+00 -0.21980378209E+03  0.21980378209E+03  0.00000000000E+00 0.  1.
         23    2    1    2    0    0 -0.13435527391E+03 -0.14628083182E+03  0.36982312215E+01  0.23470708728E+03  0.12499727403E+03 0.  0.
          5    1    3    3  502    0 -0.15002927541E+03 -0.89395332100E+02 -0.55605348518E+01  0.17479507553E+03  0.47000000000E+01 0.  1.
         -5    1    3    3    0  502  0.15674001501E+02 -0.56885499723E+02  0.92587660733E+01  0.59912011742E+02  0.47000000000E+01 0.  1.
        -11    1    1    2    0    0  0.63032929891E+02  0.59417879572E+02 -0.40345218000E+02  0.95558208852E+02  0.00000000000E+00 0.  1.
         11    1    1    2    0    0  0.71322344022E+02  0.86862952252E+02  0.50535916378E+02  0.12323119765E+03  0.00000000000E+00 0. -1.
<mgrwt>
<rscale>  0 0.23053819E+03</rscale>
<asrwt>0</asrwt>
<pdfrwt beam="1">  1        1 0.35952725E-01 0.23467795E+03</pdfrwt>
<pdfrwt beam="2">  1       -1 0.33815966E-01 0.23467795E+03</pdfrwt>
<totfact> 0.99897137E+02</totfact>
</mgrwt>
</event>
<event>
 6    1  0.5400401E-006  0.1334563E+03  0.7546771E-02  0.1237647E+00
          3   -1    0    0  501    0  0.00000000000E+00  0.00000000000E+00  0.12891919846E+03  0.12891919846E+03  0.00000000000E+00 0. -1.
         -3   -1    0    0    0  501 -0.00000000000E+00 -0.00000000000E+00 -0.21449268685E+03  0.21449268685E+03  0.00000000000E+00 0.  1.
          5    1    1    2  502    0  0.37972827407E+02 -0.32705277204E+02 -0.50019709489E+02  0.70962187928E+02  0.47000000000E+01 0. -1.
         -5    1    1    2    0  502 -0.41319625241E+02  0.70434696595E+02 -0.11883699432E+03  0.14426600130E+03  0.47000000000E+01 0.  1.
        -11    1    1    2    0    0  0.62648273255E+01 -0.65235710528E+02  0.74363357642E+02  0.99120406321E+02  0.00000000000E+00 0. -1.
         11    1    1    2    0    0 -0.29180294911E+01  0.27506291137E+02  0.89198577726E+01  0.29063289747E+02  0.00000000000E+00 0.  1.
<mgrwt>
<rscale>  0 0.12336473E+03</rscale>
<asrwt>0</asrwt>
<pdfrwt beam="1">  1        3 0.19833723E-01 0.13345631E+03</pdfrwt>
<pdfrwt beam="2">  1       -3 0.32998875E-01 0.13345631E+03</pdfrwt>
<totfact> 0.47340564E+02</totfact>
</mgrwt>
</event>
<event>
 7    1  0.5400401E-006  0.1440371E+03  0.7546771E-02  0.1217795E+00
          2   -1    0    0  501    0  0.00000000000E+00  0.00000000000E+00  0.93931075681E+03  0.93931075681E+03  0.00000000000E+00 0. -1.
         -2   -1    0    0    0  501 -0.00000000000E+00 -0.00000000000E+00 -0.19706748629E+02  0.19706748629E+02  0.00000000000E+00 0.  1.
         23    2    1    2    0    0  0.66677221025E+02  0.26000669157E+02  0.36876185378E+03  0.39589392775E+03  0.12499924251E+03 0.  0.
          5    1    3    3  502    0  0.91774568671E+02  0.38525552242E+02  0.18672226641E+03  0.21164613014E+03  0.47000000000E+01 0.  1.
         -5    1    3    3    0  502 -0.25097347646E+02 -0.12524883085E+02  0.18203958737E+03  0.18424779762E+03  0.47000000000E+01 0.  1.
        -11    1    1    2    0    0  0.36840421637E+01 -0.42200603921E+02  0.15169757055E+03  0.15750116205E+03  0.00000000000E+00 0.  1.
         11    1    1    2    0    0 -0.70361263188E+02  0.16199934764E+02  0.39914458385E+03  0.40562241563E+03  0.00000000000E+00 0. -1.
<mgrwt>
<rscale>  0 0.13673224E+03</rscale>
<asrwt>0</asrwt>
<pdfrwt beam="1">  1        2 0.14450931E+00 0.14403714E+03</pdfrwt>
<pdfrwt beam="2">  1       -2 0.30318082E-02 0.14403714E+03</pdfrwt>
<totfact> 0.11521560E+04</totfact>
</mgrwt>
</event>
<event>
 7    1  0.5400401E-006  0.1195044E+03  0.7546771E-02  0.1255595E+00
         -2   -1    0    0    0  501 -0.00000000000E+00  0.00000000000E+00  0.10482696978E+03  0.10482696978E+03  0.00000000000E+00 0.  1.
          2   -1    0    0  501    0  0.00000000000E+00 -0.00000000000E+00 -0.15559451714E+03  0.15559451714E+03  0.00000000000E+00 0. -1.
         23    2    1    2    0    0 -0.69223029636E+00  0.24306516824E+02  0.43191551554E+02  0.12707011283E+03  0.11700434824E+03 0.  0.
          5    1    3    3  502    0  0.16192180145E+02  0.48309719456E+02 -0.21790302339E+02  0.55614053690E+02  0.47000000000E+01 0. -1.
         -5    1    3    3    0  502 -0.16884410441E+02 -0.24003202633E+02  0.64981853893E+02  0.71456059141E+02  0.47000000000E+01 0.  1.
        -11    1    1    2    0    0  0.33283890845E+02 -0.32691440686E+02 -0.87389745204E+02  0.99063188171E+02  0.00000000000E+00 0. -1.
         11    1    1    2    0    0 -0.32591660549E+02  0.83849238628E+01 -0.65693537124E+01  0.34288185920E+02  0.00000000000E+00 0.  1.
<mgrwt>
<rscale>  0 0.11273058E+03</rscale>
<asrwt>0</asrwt>
<pdfrwt beam="2">  1        2 0.23937618E-01 0.11950441E+03</pdfrwt>
<pdfrwt beam="1">  1       -2 0.16127226E-01 0.11950441E+03</pdfrwt>
<totfact> 0.64488127E+03</totfact>
</mgrwt>
</event>
<event>
 7    1  0.5400401E-006  0.2450608E+03  0.7546771E-02  0.1119101E+00
          1   -1    0    0  501    0  0.00000000000E+00  0.00000000000E+00  0.17187198023E+04  0.17187198023E+04  0.00000000000E+00 0. -1.
         -1   -1    0    0    0  501 -0.00000000000E+00 -0.00000000000E+00 -0.34994863025E+02  0.34994863025E+02  0.00000000000E+00 0.  1.
         23    2    1    2    0    0  0.21068716809E+03  0.63212402297E+01  0.64547819751E+03  0.69043239128E+03  0.12500297031E+03 0.  0.
          5    1    3    3  502    0  0.17044612039E+01 -0.17507457486E+02  0.16383175843E+03  0.16484038135E+03  0.47000000000E+01 0.  1.
         -5    1    3    3    0  502  0.20898270689E+03  0.23828697716E+02  0.48164643908E+03  0.52559200992E+03  0.47000000000E+01 0.  1.
        -11    1    1    2    0    0 -0.43590440433E+02  0.35326843833E+02  0.21358463868E+03  0.22083140690E+03  0.00000000000E+00 0.  1.
         11    1    1    2    0    0 -0.16709672766E+03 -0.41648084063E+02  0.82466210313E+03  0.84245086719E+03  0.00000000000E+00 0. -1.
<mgrwt>
<rscale>  0 0.24104153E+03</rscale>
<asrwt>0</asrwt>
<pdfrwt beam="1">  1        1 0.26441837E+00 0.24506078E+03</pdfrwt>
<pdfrwt beam="2">  1       -1 0.53838264E-02 0.24506078E+03</pdfrwt>
<totfact> 0.81130598E+02</totfact>
</mgrwt>
</event>
<event>
 7    1  0.5400401E-006  0.1258199E+03  0.7546771E-02  0.1248906E+00
         -2   -1    0    0    0  501 -0.00000000000E+00  0.00000000000E+00  0.65849073165E+02  0.65849073165E+02  0.00000000000E+00 0.  1.
          2   -1    0    0  501    0  0.00000000000E+00 -0.00000000000E+00 -0.19013316278E+03  0.19013316278E+03  0.00000000000E+00 0. -1.
         23    2    1    2    0    0  0.69726128601E+01  0.12525473362E+02 -0.43657585331E+02  0.13317895459E+03  0.12500057750E+03 0.  0.
          5    1    3    3  502    0 -0.32130236163E+01  0.14386444676E+02  0.43041230812E+02  0.45737630689E+02  0.47000000000E+01 0.  1.
         -5    1    3    3    0  502  0.10185636476E+02 -0.18609713146E+01 -0.86698816144E+02  0.87441323900E+02  0.47000000000E+01 0.  1.
        -11    1    1    2    0    0  0.25662460796E+02 -0.29916176459E+02 -0.75898635249E+02  0.85522759197E+02  0.00000000000E+00 0. -1.
         11    1    1    2    0    0 -0.32635073657E+02  0.17390703097E+02 -0.47278690338E+01  0.37280522158E+02  0.00000000000E+00 0.  1.
<mgrwt>
<rscale>  0 0.11654617E+03</rscale>
<asrwt>0</asrwt>
<pdfrwt beam="2">  1        2 0.29251256E-01 0.12581991E+03</pdfrwt>
<pdfrwt beam="1">  1       -2 0.10130627E-01 0.12581991E+03</pdfrwt>
<totfact> 0.10962017E+04</totfact>
</mgrwt>
</event>
<event>
 7    1  0.5400401E-006  0.2016108E+03  0.7546771E-02  0.1152650E+00
          2   -1    0    0  501    0  0.00000000000E+00  0.00000000000E+00  0.80622407459E+03  0.80622407459E+03  0.00000000000E+00 0. -1.
         -2   -1    0    0    0  501 -0.00000000000E+00 -0.00000000000E+00 -0.49276269012E+02  0.49276269012E+02  0.00000000000E+00 0.  1.
         23    2    1    2    0    0 -0.86305036721E+02 -0.13256687719E+03  0.28095166679E+03  0.34580448283E+03  0.12499745990E+03 0.  0.
          5    1    3    3  502    0 -0.10086796891E+03 -0.14832485421E+03  0.24514311783E+03  0.30379573359E+03  0.47000000000E+01 0.  1.
         -5    1    3    3    0  502  0.14562932192E+02  0.15757977023E+02  0.35808548962E+02  0.42008749239E+02  0.47000000000E+01 0.  1.
        -11    1    1    2    0    0  0.22822722891E+02  0.91764874933E+02  0.35254681505E+03  0.36500811738E+03  0.00000000000E+00 0. -1.
         11    1    1    2    0    0  0.63482313831E+02  0.40802002253E+02  0.12344932374E+03  0.14468774340E+03  0.00000000000E+00 0.  1.
<mgrwt>
<rscale>  0 0.19658765E+03</rscale>
<asrwt>0</asrwt>
<pdfrwt beam="1">  1        2 0.12403446E+00 0.20161077E+03</pdfrwt>
<pdfrwt beam="2">  1       -2 0.75809651E-02 0.20161077E+03</pdfrwt>
<totfact> 0.35772073E+03</totfact>
</mgrwt>
</event>
<event>
 7    1  0.5400401E-006  0.1640155E+03  0.7546771E-02  0.1191493E+00
         -1   -1    0    0    0  501 -0.00000000000E+00  0.00000000000E+00  0.80583539015E+03  0.80583539015E+03  0.00000000000E+00 0.  1.
          1   -1    0    0  501    0  0.00000000000E+00 -0.00000000000E+00 -0.30653987225E+02  0.30653987225E+02  0.00000000000E+00 0. -1.
         23    2    1    2    0    0 -0.10268747477E+03  0.27025481439E+02  0.52442077391E+03  0.54947086981E+03  0.12500397809E+03 0.  0.
          5    1    3    3  502    0 -0.10333306925E+03  0.56512732309E+02  0.48963447451E+03  0.50362229969E+03  0.47000000000E+01 0. -1.
         -5    1    3    3    0  502  0.64559448604E+00 -0.29487250870E+02  0.34786299396E+02  0.45848570117E+02  0.47000000000E+01 0. -1.
        -11    1    1    2    0    0  0.52101729190E+02 -0.59828240762E+02  0.14056767594E+03  0.16141028498E+03  0.00000000000E+00 0.  1.
         11    1    1    2    0    0  0.50585745576E+02  0.32802759322E+02  0.11019295308E+03  0.12560822259E+03  0.00000000000E+00 0. -1.
<mgrwt>
<rscale>  0 0.15754858E+03</rscale>
<asrwt>0</asrwt>
<pdfrwt beam="2">  1        1 0.47159987E-02 0.16401551E+03</pdfrwt>
<pdfrwt beam="1">  1       -1 0.12397466E+00 0.16401551E+03</pdfrwt>
<totfact> 0.10899845E+03</totfact>
</mgrwt>
</event>
<event>
 7    1  0.5400401E-006  0.1280932E+03  0.7546771E-02  0.1245044E+00
          1   -1    0    0  501    0  0.00000000000E+00  0.00000000000E+00  0.53607313978E+03  0.53607313978E+03  0.00000000000E+00 0. -1.
         -1   -1    0    0    0  501 -0.00000000000E+00 -0.00000000000E+00 -0.24162856497E+02  0.24162856497E+02  0.00000000000E+00 0.  1.
         23    2    1    2    0    0 -0.76633600412E+01 -0.26681224899E+02  0.23672356166E+03  0.26915776134E+03  0.12504895440E+03 0.  0.
          5    1    3    3  502    0 -0.15115643019E+02 -0.45515393688E+02  0.21222105839E+02  0.52655498314E+02  0.47000000000E+01 0. -1.
         -5    1    3    3    0  502  0.74522829780E+01  0.18834168788E+02  0.21550145582E+03  0.21650226303E+03  0.47000000000E+01 0. -1.
        -11    1    1    2    0    0  0.35248189748E+02  0.45778487948E+02  0.20947942254E+03  0.21730102003E+03  0.00000000000E+00 0. -1.
         11    1    1    2    0    0 -0.27584829707E+02 -0.19097263049E+02  0.65707299088E+02  0.73777214907E+02  0.00000000000E+00 0.  1.
<mgrwt>
<rscale>  0 0.11882766E+03</rscale>
<asrwt>0</asrwt>
<pdfrwt beam="1">  1        1 0.82472782E-01 0.12809315E+03</pdfrwt>
<pdfrwt beam="2">  1       -1 0.37173629E-02 0.12809315E+03</pdfrwt>
<totfact> 0.10691249E+04</totfact>
</mgrwt>
</event>
<event>
 7    1  0.5400401E-006  0.1448008E+03  0.7546771E-02  0.1215811E+00
          1   -1    0    0  501    0  0.00000000000E+00  0.00000000000E+00  0.22179330405E+02  0.22179330405E+02  0.00000000000E+00 0. -1.
         -1   -1    0    0    0  501 -0.00000000000E+00 -0.00000000000E+00 -0.86855777177E+03  0.86855777177E+03  0.00000000000E+00 0.  1.
         23    2    1    2    0    0  0.67802799553E+02 -0.27239477018E+02 -0.59203658682E+03  0.60948715433E+03  0.12501224907E+03 0.  0.
          5    1    3    3  502    0 -0.53086002159E+01  0.28060337499E+02 -0.34046624316E+03  0.34169418565E+03  0.47000000000E+01 0.  1.
         -5    1    3    3    0  502  0.73111399769E+02 -0.55299814517E+02 -0.25157034366E+03  0.26779296868E+03  0.47000000000E+01 0.  1.
        -11    1    1    2    0    0 -0.44416800636E+02  0.46652223509E+02 -0.23836062815E+03  0.24691105927E+03  0.00000000000E+00 0.  1.
         11    1    1    2    0    0 -0.23385998917E+02 -0.19412746491E+02 -0.15981226386E+02  0.34338888573E+02  0.00000000000E+00 0. -1.
<mgrwt>
<rscale>  0 0.13817129E+03</rscale>
<asrwt>0</asrwt>
<pdfrwt beam="1">  1        1 0.34122041E-02 0.14480080E+03</pdfrwt>
<pdfrwt beam="2">  1       -1 0.13362429E+00 0.14480080E+03</pdfrwt>
<totfact> 0.14147113E+03</totfact>
</mgrwt>
</event>
<event>
 7    1  0.5400401E-006  0.1666180E+03  0.7546771E-02  0.1188599E+00
         -1   -1    0    0    0  501 -0.00000000000E+00  0.00000000000E+00  0.31486202002E+03  0.31486202002E+03  0.00000000000E+00 0.  1.
          1   -1    0    0  501    0  0.00000000000E+00 -0.00000000000E+00 -0.75647242643E+02  0.75647242643E+02  0.00000000000E+00 0. -1.
         23    2    1    2    0    0 -0.84315124225E+02  0.70910476970E+02  0.13292488059E+03  0.21314449668E+03  0.12499686664E+03 0.  0.
          5    1    3    3  502    0 -0.92026486210E+02  0.99896159274E+02  0.10310987581E+03  0.17059265310E+03  0.47000000000E+01 0. -1.
         -5    1    3    3    0  502  0.77113619845E+01 -0.28985682304E+02  0.29815004783E+02  0.42551843585E+02  0.47000000000E+01 0. -1.
        -11    1    1    2    0    0  0.66752665003E+02 -0.74583656166E+02  0.11890950628E+03  0.15542879635E+03  0.00000000000E+00 0.  1.
         11    1    1    2    0    0  0.17562459222E+02  0.36731791959E+01 -0.12619609499E+02  0.21935969622E+02  0.00000000000E+00 0. -1.
<mgrwt>
<rscale>  0 0.16008648E+03</rscale>
<asrwt>0</asrwt>
<pdfrwt beam="2">  1        1 0.11638037E-01 0.16661798E+03</pdfrwt>
<pdfrwt beam="1">  1       -1 0.48440310E-01 0.16661798E+03</pdfrwt>
<totfact> 0.22306652E+03</totfact>
</mgrwt>
</event>
<event>
 7    1  0.5400401E-006  0.2485406E+03  0.7546771E-02  0.1116700E+00
          1   -1    0    0  501    0  0.00000000000E+00  0.00000000000E+00  0.82298754470E+03  0.82298754470E+03  0.00000000000E+00 0. -1.
         -1   -1    0    0    0  501 -0.00000000000E+00 -0.00000000000E+00 -0.17164538778E+03  0.17164538778E+03  0.00000000000E+00 0.  1.
         23    2    1    2    0    0  0.94572478607E+02 -0.19323831754E+03 -0.51662332489E+02  0.25385314445E+03  0.12444846835E+03 0.  0.
          5    1    3    3  502    0  0.58584261225E+02 -0.22501577702E+02 -0.48194819709E+02  0.79267063205E+02  0.47000000000E+01 0. -1.
         -5    1    3    3    0  502  0.35988217382E+02 -0.17073673984E+03 -0.34675127795E+01  0.17458608125E+03  0.47000000000E+01 0. -1.
        -11    1    1    2    0    0 -0.40696802135E+02  0.79812153987E+02  0.44390333675E+03  0.45285359886E+03  0.00000000000E+00 0.  1.
         11    1    1    2    0    0 -0.53875676472E+02  0.11342616355E+03  0.25910115266E+03  0.28792618916E+03  0.00000000000E+00 0. -1.
<mgrwt>
<rscale>  0 0.24470157E+03</rscale>
<asrwt>0</asrwt>
<pdfrwt beam="1">  1        1 0.12661347E+00 0.24854058E+03</pdfrwt>
<pdfrwt beam="2">  1       -1 0.26406983E-01 0.24854058E+03</pdfrwt>
<totfact> 0.28306774E+02</totfact>
</mgrwt>
</event>
<event>
 7    1  0.5400401E-006  0.1443133E+03  0.7546771E-02  0.1220924E+00
          1   -1    0    0  501    0  0.00000000000E+00  0.00000000000E+00  0.53521701806E+03  0.53521701806E+03  0.00000000000E+00 0. -1.
         -1   -1    0    0    0  501 -0.00000000000E+00 -0.00000000000E+00 -0.30933043989E+02  0.30933043989E+02  0.00000000000E+00 0.  1.
         23    2    1    2    0    0 -0.68207629211E+02  0.23435102236E+02  0.23623685970E+03  0.27682878010E+03  0.12499933964E+03 0.  0.
          5    1    3    3  502    0 -0.76503625863E+02 -0.23568764644E+02  0.79502466442E+02  0.11292043043E+03  0.47000000000E+01 0.  1.
         -5    1    3    3    0  502  0.82959966527E+01  0.47003866880E+02  0.15673439326E+03  0.16390834967E+03  0.47000000000E+01 0.  1.
        -11    1    1    2    0    0  0.20045006043E+02 -0.92237008089E+01  0.65079538494E+01  0.23005051340E+02  0.00000000000E+00 0.  1.
         11    1    1    2    0    0  0.48162623168E+02 -0.14211401427E+02  0.26153916052E+03  0.26631623061E+03  0.00000000000E+00 0. -1.
<mgrwt>
<rscale>  0 0.13450210E+03</rscale>
<asrwt>0</asrwt>
<pdfrwt beam="1">  1        1 0.82341073E-01 0.14431327E+03</pdfrwt>
<pdfrwt beam="2">  1       -1 0.47589302E-02 0.14431327E+03</pdfrwt>
<totfact> 0.75091888E+03</totfact>
</mgrwt>
</event>
<event>
 7    1  0.5400401E-006  0.1447013E+03  0.7546771E-02  0.1217221E+00
         -1   -1    0    0    0  501 -0.00000000000E+00  0.00000000000E+00  0.38067786142E+03  0.38067786142E+03  0.00000000000E+00 0.  1.
          1   -1    0    0  501    0  0.00000000000E+00 -0.00000000000E+00 -0.44898660938E+02  0.44898660938E+02  0.00000000000E+00 0. -1.
         23    2    1    2    0    0 -0.11516435587E+02  0.71974383645E+02  0.18489656521E+03  0.23478759870E+03  0.12500214593E+03 0.  0.
          5    1    3    3  502    0  0.56563317772E+02  0.38536134850E+02  0.92160839475E+02  0.11489191851E+03  0.47000000000E+01 0.  1.
         -5    1    3    3    0  502 -0.68079753360E+02  0.33438248795E+02  0.92735725740E+02  0.11989568019E+03  0.47000000000E+01 0.  1.
        -11    1    1    2    0    0  0.28988327125E+01  0.21074490155E+02  0.43613576892E+02  0.48525060079E+02  0.00000000000E+00 0.  1.
         11    1    1    2    0    0  0.86176028750E+01 -0.93048873800E+02  0.10726905838E+03  0.14226386358E+03  0.00000000000E+00 0. -1.
<mgrwt>
<rscale>  0 0.13714680E+03</rscale>
<asrwt>0</asrwt>
<pdfrwt beam="2">  1        1 0.69074866E-02 0.14470134E+03</pdfrwt>
<pdfrwt beam="1">  1       -1 0.58565823E-01 0.14470134E+03</pdfrwt>
<totfact> 0.31311313E+03</totfact>
</mgrwt>
</event>
<event>
 7    1  0.5400401E-006  0.1282680E+03  0.7546771E-02  0.1245322E+00
         -1   -1    0    0    0  501 -0.00000000000E+00  0.00000000000E+00  0.77053607943E+02  0.77053607943E+02  0.00000000000E+00 0.  1.
          1   -1    0    0  501    0  0.00000000000E+00 -0.00000000000E+00 -0.17066631797E+03  0.17066631797E+03  0.00000000000E+00 0. -1.
         23    2    1    2    0    0 -0.28424528709E+02 -0.48859028054E+01 -0.23282305814E+02  0.13036393532E+03  0.12498345487E+03 0.  0.
          5    1    3    3  502    0 -0.32641839655E+02 -0.38410040690E+01  0.48236957423E+02  0.58558834259E+02  0.47000000000E+01 0. -1.
         -5    1    3    3    0  502  0.42173109462E+01 -0.10448987364E+01 -0.71519263237E+02  0.71805101065E+02  0.47000000000E+01 0. -1.
        -11    1    1    2    0    0  0.42498773964E+02 -0.12499619311E+02 -0.78918579566E+00  0.44305858366E+02  0.00000000000E+00 0.  1.
         11    1    1    2    0    0 -0.14074245255E+02  0.17385522116E+02 -0.69541218419E+02  0.73050132224E+02  0.00000000000E+00 0. -1.
<mgrwt>
<rscale>  0 0.11866147E+03</rscale>
<asrwt>0</asrwt>
<pdfrwt beam="2">  1        1 0.26256357E-01 0.12826804E+03</pdfrwt>
<pdfrwt beam="1">  1       -1 0.11854401E-01 0.12826804E+03</pdfrwt>
<totfact> 0.79048140E+03</totfact>
</mgrwt>
</event>
<event>
 7    1  0.5400401E-006  0.1407029E+03  0.7546771E-02  0.1222875E+00
         -2   -1    0    0    0  501 -0.00000000000E+00  0.00000000000E+00  0.29047808568E+02  0.29047808568E+02  0.00000000000E+00 0.  1.
          2   -1    0    0  501    0  0.00000000000E+00 -0.00000000000E+00 -0.64730861368E+03  0.64730861368E+03  0.00000000000E+00 0. -1.
         23    2    1    2    0    0  0.43732861884E+01  0.64445937500E+02 -0.20983237863E+03  0.25263994936E+03  0.12499964958E+03 0.  0.
          5    1    3    3  502    0 -0.46691872119E+02 -0.11788645533E+02 -0.63097880778E+02  0.79514373821E+02  0.47000000000E+01 0. -1.
         -5    1    3    3    0  502  0.51065158307E+02  0.76234583033E+02 -0.14673449786E+03  0.17312557554E+03  0.47000000000E+01 0. -1.
        -11    1    1    2    0    0 -0.18334900158E+02 -0.65850450394E+02 -0.40286314815E+03  0.40862105491E+03  0.00000000000E+00 0. -1.
         11    1    1    2    0    0  0.13961613970E+02  0.14045128940E+01 -0.55652783285E+01  0.15095417980E+02  0.00000000000E+00 0.  1.
<mgrwt>
<rscale>  0 0.13313623E+03</rscale>
<asrwt>0</asrwt>
<pdfrwt beam="2">  1        2 0.99585939E-01 0.14070294E+03</pdfrwt>
<pdfrwt beam="1">  1       -2 0.44688937E-02 0.14070294E+03</pdfrwt>
<totfact> 0.10265178E+04</totfact>
</mgrwt>
</event>
<event>
 7    1  0.5400401E-006  0.1261584E+03  0.7546771E-02  0.1243606E+00
         -1   -1    0    0    0  501 -0.00000000000E+00  0.00000000000E+00  0.95798869965E+02  0.95798869965E+02  0.00000000000E+00 0.  1.
          1   -1    0    0  501    0  0.00000000000E+00 -0.00000000000E+00 -0.13799474738E+03  0.13799474738E+03  0.00000000000E+00 0. -1.
         23    2    1    2    0    0  0.46162477389E+01  0.16452854337E+02 -0.96693218330E+01  0.12652844745E+03  0.12499578421E+03 0.  0.
          5    1    3    3  502    0 -0.39229507567E+01  0.38970622357E+02  0.49016835415E+02  0.62919306287E+02  0.47000000000E+01 0. -1.
         -5    1    3    3    0  502  0.85391984956E+01 -0.22517768020E+02 -0.58686157248E+02  0.63609141167E+02  0.47000000000E+01 0. -1.
        -11    1    1    2    0    0 -0.40091096136E+02  0.18742837108E+02  0.53260429174E+01  0.44575292095E+02  0.00000000000E+00 0.  1.
         11    1    1    2    0    0  0.35474848397E+02 -0.35195691445E+02 -0.37852598503E+02  0.62689877800E+02  0.00000000000E+00 0. -1.
<mgrwt>
<rscale>  0 0.11969212E+03</rscale>
<asrwt>0</asrwt>
<pdfrwt beam="2">  1        1 0.21229961E-01 0.12615844E+03</pdfrwt>
<pdfrwt beam="1">  1       -1 0.14738288E-01 0.12615844E+03</pdfrwt>
<totfact> 0.73569781E+03</totfact>
</mgrwt>
</event>
<event>
 7    1  0.5400401E-006  0.2305899E+03  0.7546771E-02  0.1129765E+00
         -2   -1    0    0    0  501 -0.00000000000E+00  0.00000000000E+00  0.37542756143E+02  0.37542756143E+02  0.00000000000E+00 0.  1.
          2   -1    0    0  501    0  0.00000000000E+00 -0.00000000000E+00 -0.13703020483E+04  0.13703020483E+04  0.00000000000E+00 0. -1.
         23    2    1    2    0    0 -0.18423924958E+03 -0.60016261343E+02 -0.53514809151E+03  0.58271364351E+03  0.12500263108E+03 0.  0.
          5    1    3    3  502    0 -0.48882560674E+01 -0.39098524578E+02 -0.43230422607E+02  0.58681761309E+02  0.47000000000E+01 0.  1.
         -5    1    3    3    0  502 -0.17935099351E+03 -0.20917736765E+02 -0.49191766891E+03  0.52403188220E+03  0.47000000000E+01 0.  1.
        -11    1    1    2    0    0  0.11822224474E+03  0.75669672973E+02 -0.46739374048E+03  0.48801568335E+03  0.00000000000E+00 0.  1.
         11    1    1    2    0    0  0.66017004841E+02 -0.15653411631E+02 -0.33021746021E+03  0.33711547762E+03  0.00000000000E+00 0. -1.
<mgrwt>
<rscale>  0 0.22561471E+03</rscale>
<asrwt>0</asrwt>
<pdfrwt beam="2">  1        2 0.21081571E+00 0.23058992E+03</pdfrwt>
<pdfrwt beam="1">  1       -2 0.57758082E-02 0.23058992E+03</pdfrwt>
<totfact> 0.25166953E+03</totfact>
</mgrwt>
</event>
<event>
 7    1  0.5400401E-006  0.1362889E+03  0.7546771E-02  0.1229090E+00
          2   -1    0    0  501    0  0.00000000000E+00  0.00000000000E+00  0.19562419719E+03  0.19562419719E+03  0.00000000000E+00 0. -1.
         -2   -1    0    0    0  501 -0.00000000000E+00 -0.00000000000E+00 -0.77320248639E+02  0.77320248639E+02  0.00000000000E+00 0.  1.
         23    2    1    2    0    0 -0.32778981820E+02 -0.44931396110E+02  0.75287295445E+02  0.15570117070E+03  0.12442421669E+03 0.  0.
          5    1    3    3  502    0  0.30500173323E+02 -0.42471532262E+02 -0.56766234731E+01  0.52805356541E+02  0.47000000000E+01 0. -1.
         -5    1    3    3    0  502 -0.63279155143E+02 -0.24598638477E+01  0.80963918918E+02  0.10289581416E+03  0.47000000000E+01 0.  1.
        -11    1    1    2    0    0  0.42869874051E+02  0.69185707919E+02  0.40334488336E+02  0.90836992634E+02  0.00000000000E+00 0.  1.
         11    1    1    2    0    0 -0.10090892231E+02 -0.24254311809E+02  0.26821647742E+01  0.26406282496E+02  0.00000000000E+00 0. -1.
<mgrwt>
<rscale>  0 0.12890464E+03</rscale>
<asrwt>0</asrwt>
<pdfrwt beam="1">  1        2 0.30096030E-01 0.13628895E+03</pdfrwt>
<pdfrwt beam="2">  1       -2 0.11895423E-01 0.13628895E+03</pdfrwt>
<totfact> 0.82955354E+03</totfact>
</mgrwt>
</event>
<event>
 7    1  0.5400401E-006  0.1278878E+03  0.7546771E-02  0.1248042E+00
          1   -1    0    0  501    0  0.00000000000E+00  0.00000000000E+00  0.26460629306E+03  0.26460629306E+03  0.00000000000E+00 0. -1.
         -1   -1    0    0    0  501 -0.00000000000E+00 -0.00000000000E+00 -0.64302164555E+02  0.64302164555E+02  0.00000000000E+00 0.  1.
         23    2    1    2    0    0  0.11779668823E+02  0.24375787070E+02  0.22658487936E+02  0.12987953080E+03  0.12498938296E+03 0.  0.
          5    1    3    3  502    0 -0.44953709167E+02  0.38560453631E+02 -0.13549149021E+02  0.60937787877E+02  0.47000000000E+01 0. -1.
         -5    1    3    3    0  502  0.56733377990E+02 -0.14184666560E+02  0.36207636958E+02  0.68941742926E+02  0.47000000000E+01 0. -1.
        -11    1    1    2    0    0 -0.46019114264E+02 -0.67693909450E+01  0.64576721026E+02  0.79584775114E+02  0.00000000000E+00 0.  1.
         11    1    1    2    0    0  0.34239445442E+02 -0.17606396125E+02  0.11306891954E+03  0.11944415170E+03  0.00000000000E+00 0. -1.
<mgrwt>
<rscale>  0 0.11705148E+03</rscale>
<asrwt>0</asrwt>
<pdfrwt beam="1">  1        1 0.40708660E-01 0.12788778E+03</pdfrwt>
<pdfrwt beam="2">  1       -1 0.98926408E-02 0.12788778E+03</pdfrwt>
<totfact> 0.60543458E+03</totfact>
</mgrwt>
</event>
<event>
 7    1  0.5400401E-006  0.1472298E+03  0.7546771E-02  0.1213532E+00
          2   -1    0    0  501    0  0.00000000000E+00  0.00000000000E+00  0.11089623541E+03  0.11089623541E+03  0.00000000000E+00 0. -1.
         -2   -1    0    0    0  501 -0.00000000000E+00 -0.00000000000E+00 -0.16346022547E+03  0.16346022547E+03  0.00000000000E+00 0.  1.
         23    2    1    2    0    0 -0.64975022325E+02 -0.42780020154E+02 -0.46300984584E+02  0.15433856505E+03  0.12499891134E+03 0.  0.
          5    1    3    3  502    0 -0.83795069114E+01 -0.64003213099E+02  0.16766404120E+02  0.66856785222E+02  0.47000000000E+01 0. -1.
         -5    1    3    3    0  502 -0.56595515413E+02  0.21223192945E+02 -0.63067388704E+02  0.87481779826E+02  0.47000000000E+01 0. -1.
        -11    1    1    2    0    0  0.51877350715E+02 -0.15866133713E+02  0.14985022734E+02  0.56280943690E+02  0.00000000000E+00 0. -1.
         11    1    1    2    0    0  0.13097671610E+02  0.58646153867E+02 -0.21248028216E+02  0.63736952140E+02  0.00000000000E+00 0.  1.
<mgrwt>
<rscale>  0 0.13984928E+03</rscale>
<asrwt>0</asrwt>
<pdfrwt beam="1">  1        2 0.17060959E-01 0.14722979E+03</pdfrwt>
<pdfrwt beam="2">  1       -2 0.25147727E-01 0.14722979E+03</pdfrwt>
<totfact> 0.45157200E+03</totfact>
</mgrwt>
</event>
<event>
 7    1  0.5400401E-006  0.1323514E+03  0.7546771E-02  0.1237495E+00
         -2   -1    0    0    0  501 -0.00000000000E+00  0.00000000000E+00  0.78528498863E+02  0.78528498863E+02  0.00000000000E+00 0.  1.
          2   -1    0    0  501    0  0.00000000000E+00 -0.00000000000E+00 -0.23957703742E+03  0.23957703742E+03  0.00000000000E+00 0. -1.
         23    2    1    2    0    0 -0.40438347978E+02 -0.16055844420E+02 -0.47464123248E+01  0.13243651267E+03  0.12499540524E+03 0.  0.
          5    1    3    3  502    0 -0.24297892532E+02 -0.52948877001E+02 -0.46163444364E+02  0.74479022233E+02  0.47000000000E+01 0.  1.
         -5    1    3    3    0  502 -0.16140455446E+02  0.36893032581E+02  0.41417032040E+02  0.57957490439E+02  0.47000000000E+01 0.  1.
        -11    1    1    2    0    0  0.37583087806E+02 -0.25785955175E+02 -0.35435005582E+02  0.57732517648E+02  0.00000000000E+00 0.  1.
         11    1    1    2    0    0  0.28552601717E+01  0.41841799595E+02 -0.12086712065E+03  0.12793650596E+03  0.00000000000E+00 0. -1.
<mgrwt>
<rscale>  0 0.12346033E+03</rscale>
<asrwt>0</asrwt>
<pdfrwt beam="2">  1        2 0.36858005E-01 0.13235143E+03</pdfrwt>
<pdfrwt beam="1">  1       -2 0.12081308E-01 0.13235143E+03</pdfrwt>
<totfact> 0.64960440E+03</totfact>
</mgrwt>
</event>
<event>
 7    1  0.5400401E-006  0.1401869E+03  0.7546771E-02  0.1224658E+00
         -2   -1    0    0    0  501 -0.00000000000E+00  0.00000000000E+00  0.59579084116E+02  0.59579084116E+02  0.00000000000E+00 0.  1.
          2   -1    0    0  501    0  0.00000000000E+00 -0.00000000000E+00 -0.35097131445E+03  0.35097131445E+03  0.00000000000E+00 0. -1.
         23    2    1    2    0    0 -0.38984695737E+02  0.48457602333E+02 -0.56339828698E+02  0.15108451945E+03  0.12563602189E+03 0.  0.
          5    1    3    3  502    0 -0.50256966737E+02 -0.22685005168E+02  0.60579667208E+01  0.55670109806E+02  0.47000000000E+01 0. -1.
         -5    1    3    3    0  502  0.11272271000E+02  0.71142607501E+02 -0.62397795418E+02  0.95414409649E+02  0.47000000000E+01 0. -1.
        -11    1    1    2    0    0  0.25614391305E+02 -0.48400693559E+02 -0.23926184168E+03  0.24544847333E+03  0.00000000000E+00 0. -1.
         11    1    1    2    0    0  0.13370304432E+02 -0.56908774129E-01  0.42094400434E+01  0.14017405776E+02  0.00000000000E+00 0.  1.
<mgrwt>
<rscale>  0 0.13190370E+03</rscale>
<asrwt>0</asrwt>
<pdfrwt beam="2">  1        2 0.53995586E-01 0.14018686E+03</pdfrwt>
<pdfrwt beam="1">  1       -2 0.91660131E-02 0.14018686E+03</pdfrwt>
<totfact> 0.67219263E+03</totfact>
</mgrwt>
</event>
<event>
 7    1  0.5400401E-006  0.1449146E+03  0.7546771E-02  0.1213367E+00
          2   -1    0    0  501    0  0.00000000000E+00  0.00000000000E+00  0.10562777731E+04  0.10562777731E+04  0.00000000000E+00 0. -1.
         -2   -1    0    0    0  501 -0.00000000000E+00 -0.00000000000E+00 -0.17403588954E+02  0.17403588954E+02  0.00000000000E+00 0.  1.
         23    2    1    2    0    0 -0.15677467574E+02  0.71638822366E+02  0.53944481921E+03  0.55857045022E+03  0.12498932367E+03 0.  0.
          5    1    3    3  502    0  0.37916660305E+02 -0.83880629671E+01  0.26067560501E+03  0.26359418388E+03  0.47000000000E+01 0.  1.
         -5    1    3    3    0  502 -0.53594127880E+02  0.80026885333E+02  0.27876921420E+03  0.29497626634E+03  0.47000000000E+01 0.  1.
        -11    1    1    2    0    0  0.39701844253E+02 -0.75608721015E+02  0.46595939212E+03  0.47372045579E+03  0.00000000000E+00 0. -1.
         11    1    1    2    0    0 -0.24024376678E+02  0.39698986493E+01  0.33469972773E+02  0.41390455995E+02  0.00000000000E+00 0.  1.
<mgrwt>
<rscale>  0 0.13997205E+03</rscale>
<asrwt>0</asrwt>
<pdfrwt beam="1">  1        2 0.16250422E+00 0.14491458E+03</pdfrwt>
<pdfrwt beam="2">  1       -2 0.26774760E-02 0.14491458E+03</pdfrwt>
<totfact> 0.11770313E+04</totfact>
</mgrwt>
</event>
<event>
 7    1  0.5400401E-006  0.1957327E+03  0.7546771E-02  0.1157968E+00
          2   -1    0    0  501    0  0.00000000000E+00  0.00000000000E+00  0.12370514170E+03  0.12370514170E+03  0.00000000000E+00 0. -1.
         -2   -1    0    0    0  501 -0.00000000000E+00 -0.00000000000E+00 -0.27982132898E+03  0.27982132898E+03  0.00000000000E+00 0.  1.
         23    2    1    2    0    0 -0.30668558507E+02 -0.14746521322E+03 -0.71097153369E+02  0.20824527243E+03  0.12499895473E+03 0.  0.
          5    1    3    3  502    0 -0.24957610752E+02 -0.91155223776E+02 -0.10559864951E+03  0.14179323656E+03  0.47000000000E+01 0.  1.
         -5    1    3    3    0  502 -0.57109477545E+01 -0.56309989442E+02  0.34501496144E+02  0.66452035871E+02  0.47000000000E+01 0.  1.
        -11    1    1    2    0    0  0.57239238508E+02  0.11077067086E+03 -0.83286428373E+02  0.14994365975E+03  0.00000000000E+00 0. -1.
         11    1    1    2    0    0 -0.26570680001E+02  0.36694542361E+02 -0.17326055327E+01  0.45337538494E+02  0.00000000000E+00 0.  1.
<mgrwt>
<rscale>  0 0.19054773E+03</rscale>
<asrwt>0</asrwt>
<pdfrwt beam="1">  1        2 0.19031560E-01 0.19573270E+03</pdfrwt>
<pdfrwt beam="2">  1       -2 0.43049435E-01 0.19573270E+03</pdfrwt>
<totfact> 0.15026915E+03</totfact>
</mgrwt>
</event>
<event>
 7    1  0.5400401E-006  0.1632496E+03  0.7546771E-02  0.1192158E+00
         -1   -1    0    0    0  501 -0.00000000000E+00  0.00000000000E+00  0.45533713962E+02  0.45533713962E+02  0.00000000000E+00 0.  1.
          1   -1    0    0  501    0  0.00000000000E+00 -0.00000000000E+00 -0.50341398894E+03  0.50341398894E+03  0.00000000000E+00 0. -1.
         23    2    1    2    0    0  0.33386184727E+02  0.99548820094E+02 -0.24695002244E+03  0.29603164515E+03  0.12500326570E+03 0.  0.
          5    1    3    3  502    0  0.66363564372E+01  0.85925508701E+02 -0.25095663572E+03  0.26538379243E+03  0.47000000000E+01 0.  1.
         -5    1    3    3    0  502  0.26749828290E+02  0.13623311392E+02  0.40066132747E+01  0.30647852727E+02  0.47000000000E+01 0.  1.
        -11    1    1    2    0    0  0.32230251518E+01  0.10338213153E+02  0.15286684076E+01  0.10936332540E+02  0.00000000000E+00 0.  1.
         11    1    1    2    0    0 -0.36609209879E+02 -0.10988703325E+03 -0.21245892095E+03  0.24197972521E+03  0.00000000000E+00 0. -1.
<mgrwt>
<rscale>  0 0.15697251E+03</rscale>
<asrwt>0</asrwt>
<pdfrwt beam="2">  1        1 0.77448305E-01 0.16324957E+03</pdfrwt>
<pdfrwt beam="1">  1       -1 0.70051869E-02 0.16324957E+03</pdfrwt>
<totfact> 0.46025825E+03</totfact>
</mgrwt>
</event>
<event>
 7    1  0.5400401E-006  0.1289689E+03  0.7546771E-02  0.1237630E+00
         -3   -1    0    0    0  501 -0.00000000000E+00  0.00000000000E+00  0.39704051291E+02  0.39704051291E+02  0.00000000000E+00 0.  1.
          3   -1    0    0  501    0  0.00000000000E+00 -0.00000000000E+00 -0.36173530288E+03  0.36173530288E+03  0.00000000000E+00 0. -1.
         23    2    1    2    0    0 -0.38535661571E+02 -0.43406817932E+02 -0.14496535971E+03  0.19403077735E+03  0.11516873703E+03 0.  0.
          5    1    3    3  502    0 -0.29638131677E+02 -0.81539719090E+02 -0.11677676731E+03  0.14555427861E+03  0.47000000000E+01 0. -1.
         -5    1    3    3    0  502 -0.88975298942E+01  0.38132901158E+02 -0.28188592403E+02  0.48476498746E+02  0.47000000000E+01 0.  1.
        -11    1    1    2    0    0  0.17367959978E+02  0.70765036842E+02 -0.12954462506E+03  0.14863090646E+03  0.00000000000E+00 0.  1.
         11    1    1    2    0    0  0.21167701593E+02 -0.27358218910E+02 -0.47521266820E+02  0.58777670359E+02  0.00000000000E+00 0. -1.
<mgrwt>
<rscale>  0 0.12337553E+03</rscale>
<asrwt>0</asrwt>
<pdfrwt beam="2">  1        3 0.55651587E-01 0.12896894E+03</pdfrwt>
<pdfrwt beam="1">  1       -3 0.61083154E-02 0.12896894E+03</pdfrwt>
<totfact> 0.12148751E+03</totfact>
</mgrwt>
</event>
<event>
 7    1  0.5400401E-006  0.4290330E+03  0.7546771E-02  0.1034725E+00
         -2   -1    0    0    0  501 -0.00000000000E+00  0.00000000000E+00  0.85096589190E+03  0.85096589190E+03  0.00000000000E+00 0.  1.
          2   -1    0    0  501    0  0.00000000000E+00 -0.00000000000E+00 -0.22305298625E+03  0.22305298625E+03  0.00000000000E+00 0. -1.
         23    2    1    2    0    0  0.17914188942E+03  0.36925596963E+03  0.43159636507E+03  0.60855954122E+03  0.12501002045E+03 0.  0.
          5    1    3    3  502    0  0.65580467691E+02  0.22452534651E+03  0.17210606604E+03  0.29043935157E+03  0.47000000000E+01 0. -1.
         -5    1    3    3    0  502  0.11356142173E+03  0.14473062311E+03  0.25949029903E+03  0.31812018965E+03  0.47000000000E+01 0. -1.
        -11    1    1    2    0    0 -0.86310588127E+02 -0.20510883658E+03  0.15829215563E+03  0.27308525958E+03  0.00000000000E+00 0.  1.
         11    1    1    2    0    0 -0.92831301298E+02 -0.16414713305E+03  0.38024384953E+02  0.19237407736E+03  0.00000000000E+00 0. -1.
<mgrwt>
<rscale>  0 0.42727228E+03</rscale>
<asrwt>0</asrwt>
<pdfrwt beam="2">  1        2 0.34315844E-01 0.42903297E+03</pdfrwt>
<pdfrwt beam="1">  1       -2 0.13091783E+00 0.42903297E+03</pdfrwt>
<totfact> 0.67217085E+01</totfact>
</mgrwt>
</event>
<event>
 7    1  0.5400401E-006  0.1335861E+03  0.7546771E-02  0.1233692E+00
         -1   -1    0    0    0  501 -0.00000000000E+00  0.00000000000E+00  0.10016792738E+03  0.10016792738E+03  0.00000000000E+00 0.  1.
          1   -1    0    0  501    0  0.00000000000E+00 -0.00000000000E+00 -0.16817934815E+03  0.16817934815E+03  0.00000000000E+00 0. -1.
         23    2    1    2    0    0  0.37446215244E+02  0.32243267944E+02  0.14724203787E+02  0.13439507874E+03  0.12411038494E+03 0.  0.
          5    1    3    3  502    0  0.69001043106E+02  0.87151612798E+01  0.46327617944E+02  0.83698483680E+02  0.47000000000E+01 0. -1.
         -5    1    3    3    0  502 -0.31554827863E+02  0.23528106664E+02 -0.31603414157E+02  0.50696595063E+02  0.47000000000E+01 0.  1.
        -11    1    1    2    0    0  0.79358477948E+01 -0.51035960238E+02 -0.22793011821E+02  0.56455011341E+02  0.00000000000E+00 0.  1.
         11    1    1    2    0    0 -0.45382063038E+02  0.18792692294E+02 -0.59942612742E+02  0.77497185443E+02  0.00000000000E+00 0. -1.
<mgrwt>
<rscale>  0 0.12588572E+03</rscale>
<asrwt>0</asrwt>
<pdfrwt beam="2">  1        1 0.25873745E-01 0.13358606E+03</pdfrwt>
<pdfrwt beam="1">  1       -1 0.15410451E-01 0.13358606E+03</pdfrwt>
<totfact> 0.53708362E+03</totfact>
</mgrwt>
</event>
<event>
 7    1  0.5400401E-006  0.1366779E+03  0.7546771E-02  0.1229482E+00
         -4   -1    0    0    0  501 -0.00000000000E+00  0.00000000000E+00  0.38272265880E+03  0.38272265880E+03  0.00000000000E+00 0.  1.
          4   -1    0    0  501    0  0.00000000000E+00 -0.00000000000E+00 -0.42628775965E+02  0.42628775965E+02  0.00000000000E+00 0. -1.
         23    2    1    2    0    0  0.54022198182E+02  0.11769135053E+02  0.25146182976E+03  0.28620605044E+03  0.12499576412E+03 0.  0.
          5    1    3    3  502    0 -0.91089347372E+01 -0.33425711740E+02  0.17005842314E+03  0.17361511506E+03  0.47000000000E+01 0.  1.
         -5    1    3    3    0  502  0.63131132919E+02  0.45194846793E+02  0.81403406618E+02  0.11259093538E+03  0.47000000000E+01 0.  1.
        -11    1    1    2    0    0 -0.35361266956E+02  0.39012103320E+02  0.50498986127E+02  0.72955541298E+02  0.00000000000E+00 0.  1.
         11    1    1    2    0    0 -0.18660931226E+02 -0.50781238373E+02  0.38133066953E+02  0.66189843029E+02  0.00000000000E+00 0. -1.
<mgrwt>
<rscale>  0 0.12864365E+03</rscale>
<asrwt>0</asrwt>
<pdfrwt beam="2">  1        4 0.65582735E-02 0.13667791E+03</pdfrwt>
<pdfrwt beam="1">  1       -4 0.58880407E-01 0.13667791E+03</pdfrwt>
<totfact> 0.70269257E+02</totfact>
</mgrwt>
</event>
<event>
 7    1  0.5400401E-006  0.1275913E+03  0.7546771E-02  0.1245491E+00
          2   -1    0    0  501    0  0.00000000000E+00  0.00000000000E+00  0.61101210505E+03  0.61101210505E+03  0.00000000000E+00 0.  1.
         -2   -1    0    0    0  501 -0.00000000000E+00 -0.00000000000E+00 -0.20342719933E+02  0.20342719933E+02  0.00000000000E+00 0. -1.
         23    2    1    2    0    0 -0.22209057567E+01 -0.25474742330E+02  0.35336388447E+03  0.37569346618E+03  0.12500260302E+03 0.  0.
          5    1    3    3  502    0  0.48138503480E+02  0.20073140862E+02  0.21773370836E+03  0.22394263608E+03  0.47000000000E+01 0. -1.
         -5    1    3    3    0  502 -0.50359409236E+02 -0.45547883193E+02  0.13563017611E+03  0.15175083009E+03  0.47000000000E+01 0. -1.
        -11    1    1    2    0    0  0.88679419054E+01 -0.33650070812E+02  0.71851300102E+02  0.79834685354E+02  0.00000000000E+00 0.  1.
         11    1    1    2    0    0 -0.66470361488E+01  0.59124813142E+02  0.16545420054E+03  0.17582667345E+03  0.00000000000E+00 0. -1.
<mgrwt>
<rscale>  0 0.11856047E+03</rscale>
<asrwt>0</asrwt>
<pdfrwt beam="1">  1        2 0.94001848E-01 0.12759132E+03</pdfrwt>
<pdfrwt beam="2">  1       -2 0.31296497E-02 0.12759132E+03</pdfrwt>
<totfact> 0.18462884E+04</totfact>
</mgrwt>
</event>
<event>
 6    1  0.5400401E-006  0.1612220E+03  0.7546771E-02  0.1197855E+00
          1   -1    0    0  501    0  0.00000000000E+00  0.00000000000E+00  0.57636977867E+03  0.57636977867E+03  0.00000000000E+00 0. -1.
         -1   -1    0    0    0  501 -0.00000000000E+00 -0.00000000000E+00 -0.49107941455E+02  0.49107941455E+02  0.00000000000E+00 0.  1.
          5    1    1    2  502    0  0.11738616247E+02 -0.25138045625E+02 -0.11454894623E+02  0.30381261661E+02  0.47000000000E+01 0. -1.
         -5    1    1    2    0  502  0.44428893793E+02  0.97039268922E+02  0.13831503779E+03  0.17476751985E+03  0.47000000000E+01 0.  1.
        -11    1    1    2    0    0  0.16973407183E+02 -0.29464680089E+02  0.54473093151E+02  0.64215121284E+02  0.00000000000E+00 0.  1.
         11    1    1    2    0    0 -0.73140917223E+02 -0.42436543208E+02  0.34592860090E+03  0.35611381733E+03  0.00000000000E+00 0. -1.
<mgrwt>
<rscale>  0 0.15215078E+03</rscale>
<asrwt>0</asrwt>
<pdfrwt beam="1">  1        1 0.88672269E-01 0.16122198E+03</pdfrwt>
<pdfrwt beam="2">  1       -1 0.75550683E-02 0.16122198E+03</pdfrwt>
<totfact> 0.34266713E+03</totfact>
</mgrwt>
</event>
<event>
 7    1  0.5400401E-006  0.1252267E+03  0.7546771E-02  0.1251758E+00
          1   -1    0    0  501    0  0.00000000000E+00  0.00000000000E+00  0.10581627701E+03  0.10581627701E+03  0.00000000000E+00 0. -1.
         -1   -1    0    0    0  501 -0.00000000000E+00 -0.00000000000E+00 -0.11503846064E+03  0.11503846064E+03  0.00000000000E+00 0.  1.
         23    2    1    2    0    0 -0.58590565363E+01  0.45794040372E+01 -0.31953645745E+02  0.12923912167E+03  0.12500566231E+03 0.  0.
          5    1    3    3  502    0  0.14097499837E+02 -0.39225728606E+02  0.29319496314E+02  0.51177340205E+02  0.47000000000E+01 0.  1.
         -5    1    3    3    0  502 -0.19956556373E+02  0.43805132643E+02 -0.61273142059E+02  0.78061781468E+02  0.47000000000E+01 0.  1.
        -11    1    1    2    0    0  0.43508165029E+02  0.15224022312E+02  0.14162016478E+02  0.48221302245E+02  0.00000000000E+00 0.  1.
         11    1    1    2    0    0 -0.37649108493E+02 -0.19803426349E+02  0.85694456408E+01  0.43394313729E+02  0.00000000000E+00 0. -1.
<mgrwt>
<rscale>  0 0.11489884E+03</rscale>
<asrwt>0</asrwt>
<pdfrwt beam="1">  1        1 0.16279427E-01 0.12522665E+03</pdfrwt>
<pdfrwt beam="2">  1       -1 0.17698225E-01 0.12522665E+03</pdfrwt>
<totfact> 0.77330219E+03</totfact>
</mgrwt>
</event>
<event>
 7    1  0.5400401E-006  0.2124489E+03  0.7546771E-02  0.1143280E+00
          2   -1    0    0  501    0  0.00000000000E+00  0.00000000000E+00  0.42994551632E+03  0.42994551632E+03  0.00000000000E+00 0. -1.
         -2   -1    0    0    0  501 -0.00000000000E+00 -0.00000000000E+00 -0.10777967009E+03  0.10777967009E+03  0.00000000000E+00 0.  1.
         23    2    1    2    0    0  0.24912616838E+02 -0.16997714554E+03  0.79951713299E+02  0.22699515700E+03  0.12498662471E+03 0.  0.
          5    1    3    3  502    0  0.61549394669E+02 -0.11208119985E+03  0.90320064015E+01  0.12827388855E+03  0.47000000000E+01 0. -1.
         -5    1    3    3    0  502 -0.36636777831E+02 -0.57895945695E+02  0.70919706897E+02  0.98721268448E+02  0.47000000000E+01 0. -1.
        -11    1    1    2    0    0 -0.20039529376E+01  0.71352561138E+02  0.17554161352E+03  0.18949950365E+03  0.00000000000E+00 0. -1.
         11    1    1    2    0    0 -0.22908663901E+02  0.98624584407E+02  0.66672519414E+02  0.12123052576E+03  0.00000000000E+00 0.  1.
<mgrwt>
<rscale>  0 0.20784994E+03</rscale>
<asrwt>0</asrwt>
<pdfrwt beam="1">  1        2 0.66145463E-01 0.21244888E+03</pdfrwt>
<pdfrwt beam="2">  1       -2 0.16581488E-01 0.21244888E+03</pdfrwt>
<totfact> 0.21159505E+03</totfact>
</mgrwt>
</event>
<event>
 7    1  0.5400401E-006  0.3644624E+03  0.7546771E-02  0.1057849E+00
          3   -1    0    0  501    0  0.00000000000E+00  0.00000000000E+00  0.54687360681E+03  0.54687360681E+03  0.00000000000E+00 0. -1.
         -3   -1    0    0    0  501 -0.00000000000E+00 -0.00000000000E+00 -0.37001721156E+03  0.37001721156E+03  0.00000000000E+00 0.  1.
         23    2    1    2    0    0 -0.19921920552E+03 -0.27842425021E+03 -0.18655886536E+03  0.40943499881E+03  0.12499781219E+03 0.  0.
          5    1    3    3  502    0 -0.72875094688E+02 -0.18867770265E+03 -0.65273075878E+02  0.21258579289E+03  0.47000000000E+01 0. -1.
         -5    1    3    3    0  502 -0.12634411084E+03 -0.89746547554E+02 -0.12128578948E+03  0.19684920592E+03  0.47000000000E+01 0. -1.
        -11    1    1    2    0    0  0.77590980660E+02  0.64561933122E+02  0.15524374516E+03  0.18517349675E+03  0.00000000000E+00 0. -1.
         11    1    1    2    0    0  0.12162822486E+03  0.21386231709E+03  0.20817151545E+03  0.32228232281E+03  0.00000000000E+00 0.  1.
<mgrwt>
<rscale>  0 0.36186313E+03</rscale>
<asrwt>0</asrwt>
<pdfrwt beam="1">  1        3 0.84134401E-01 0.36446235E+03</pdfrwt>
<pdfrwt beam="2">  1       -3 0.56925725E-01 0.36446235E+03</pdfrwt>
<totfact> 0.10220373E+01</totfact>
</mgrwt>
</event>
<event>
 7    1  0.5400401E-006  0.1761088E+03  0.7546771E-02  0.1177592E+00
         -2   -1    0    0    0  501 -0.00000000000E+00  0.00000000000E+00  0.15025338628E+03  0.15025338628E+03  0.00000000000E+00 0.  1.
          2   -1    0    0  501    0  0.00000000000E+00 -0.00000000000E+00 -0.24039597417E+03  0.24039597417E+03  0.00000000000E+00 0. -1.
         23    2    1    2    0    0  0.83136352440E+02 -0.92256332087E+02  0.49477596522E+02  0.18292711284E+03  0.12486557632E+03 0.  0.
          5    1    3    3  502    0  0.50811626515E+02 -0.36715002606E+02 -0.38620718366E+02  0.73779825783E+02  0.47000000000E+01 0. -1.
         -5    1    3    3    0  502  0.32324725925E+02 -0.55541329481E+02  0.88098314888E+02  0.10914728706E+03  0.47000000000E+01 0. -1.
        -11    1    1    2    0    0 -0.19294259235E+02  0.12954021382E+02  0.11167756430E+02  0.25783597365E+02  0.00000000000E+00 0.  1.
         11    1    1    2    0    0 -0.63842093205E+02  0.79302310705E+02 -0.15078794084E+03  0.18193865024E+03  0.00000000000E+00 0. -1.
<mgrwt>
<rscale>  0 0.17024544E+03</rscale>
<asrwt>0</asrwt>
<pdfrwt beam="2">  1        2 0.36983996E-01 0.17610876E+03</pdfrwt>
<pdfrwt beam="1">  1       -2 0.23115906E-01 0.17610876E+03</pdfrwt>
<totfact> 0.22346105E+03</totfact>
</mgrwt>
</event>
<event>
 7    1  0.5400401E-006  0.1717318E+03  0.7546771E-02  0.1182545E+00
         -1   -1    0    0    0  501 -0.00000000000E+00  0.00000000000E+00  0.25533077434E+03  0.25533077434E+03  0.00000000000E+00 0.  1.
          1   -1    0    0  501    0  0.00000000000E+00 -0.00000000000E+00 -0.11979385317E+03  0.11979385317E+03  0.00000000000E+00 0. -1.
         23    2    1    2    0    0 -0.82198791630E+02 -0.84324729620E+02  0.14732615940E+03  0.22626714778E+03  0.12499809418E+03 0.  0.
          5    1    3    3  502    0 -0.92440363215E+02 -0.78382199354E+02  0.16481272455E+03  0.20463214337E+03  0.47000000000E+01 0. -1.
         -5    1    3    3    0  502  0.10241571586E+02 -0.59425302652E+01 -0.17486565157E+02  0.21635004402E+02  0.47000000000E+01 0. -1.
        -11    1    1    2    0    0  0.19203649521E+02  0.18832891561E+02  0.36979408900E+02  0.45726738809E+02  0.00000000000E+00 0.  1.
         11    1    1    2    0    0  0.62995142109E+02  0.65491838059E+02 -0.48768647125E+02  0.10313074093E+03  0.00000000000E+00 0. -1.
<mgrwt>
<rscale>  0 0.16557288E+03</rscale>
<asrwt>0</asrwt>
<pdfrwt beam="2">  1        1 0.18429824E-01 0.17173184E+03</pdfrwt>
<pdfrwt beam="1">  1       -1 0.39281658E-01 0.17173184E+03</pdfrwt>
<totfact> 0.17839398E+03</totfact>
</mgrwt>
</event>
<event>
 7    1  0.5400401E-006  0.1720208E+03  0.7546771E-02  0.1182010E+00
          1   -1    0    0  501    0  0.00000000000E+00  0.00000000000E+00  0.12026300953E+03  0.12026300953E+03  0.00000000000E+00 0. -1.
         -1   -1    0    0    0  501 -0.00000000000E+00 -0.00000000000E+00 -0.29086940542E+03  0.29086940542E+03  0.00000000000E+00 0.  1.
         23    2    1    2    0    0 -0.15261765188E+02  0.11718690001E+03 -0.19467218056E+03  0.25978533991E+03  0.12500189574E+03 0.  0.
          5    1    3    3  502    0 -0.62142187288E+02  0.73987329455E+02 -0.69104438856E+02  0.11888351370E+03  0.47000000000E+01 0.  1.
         -5    1    3    3    0  502  0.46880422099E+02  0.43199570555E+02 -0.12556774170E+03  0.14090182621E+03  0.47000000000E+01 0.  1.
        -11    1    1    2    0    0 -0.26415586162E+02 -0.17511011094E+02  0.29328291267E+02  0.43180636522E+02  0.00000000000E+00 0. -1.
         11    1    1    2    0    0  0.41677351351E+02 -0.99675888916E+02 -0.52625065952E+01  0.10816643852E+03  0.00000000000E+00 0.  1.
<mgrwt>
<rscale>  0 0.16606917E+03</rscale>
<asrwt>0</asrwt>
<pdfrwt beam="1">  1        1 0.18502002E-01 0.17202083E+03</pdfrwt>
<pdfrwt beam="2">  1       -1 0.44749139E-01 0.17202083E+03</pdfrwt>
<totfact> 0.14080363E+03</totfact>
</mgrwt>
</event>
<event>
 7    1  0.5400401E-006  0.1256161E+03  0.7546771E-02  0.1247209E+00
          1   -1    0    0  501    0  0.00000000000E+00  0.00000000000E+00  0.44567765039E+03  0.44567765039E+03  0.00000000000E+00 0. -1.
         -1   -1    0    0    0  501 -0.00000000000E+00 -0.00000000000E+00 -0.28465698755E+02  0.28465698755E+02  0.00000000000E+00 0.  1.
         23    2    1    2    0    0  0.15360065737E+01  0.12378432223E+02  0.19494484001E+03  0.23191139813E+03  0.12499528405E+03 0.  0.
          5    1    3    3  502    0 -0.60805100700E+02  0.14970911795E+02  0.10491836513E+03  0.12227567956E+03  0.47000000000E+01 0.  1.
         -5    1    3    3    0  502  0.62341107274E+02 -0.25924795716E+01  0.90026474882E+02  0.10963571857E+03  0.47000000000E+01 0.  1.
        -11    1    1    2    0    0 -0.44473621704E+02  0.71782331967E+01  0.73950589179E+02  0.86591683776E+02  0.00000000000E+00 0.  1.
         11    1    1    2    0    0  0.42937615131E+02 -0.19556665420E+02  0.14831652245E+03  0.15564026724E+03  0.00000000000E+00 0. -1.
<mgrwt>
<rscale>  0 0.11754126E+03</rscale>
<asrwt>0</asrwt>
<pdfrwt beam="1">  1        1 0.68565787E-01 0.12561611E+03</pdfrwt>
<pdfrwt beam="2">  1       -1 0.43793386E-02 0.12561611E+03</pdfrwt>
<totfact> 0.10666018E+04</totfact>
</mgrwt>
</event>
<event>
 7    1  0.5400401E-006  0.1520353E+03  0.7546771E-02  0.1206723E+00
          2   -1    0    0  501    0  0.00000000000E+00  0.00000000000E+00  0.18983617543E+03  0.18983617543E+03  0.00000000000E+00 0.  1.
         -2   -1    0    0    0  501 -0.00000000000E+00 -0.00000000000E+00 -0.10299740803E+03  0.10299740803E+03  0.00000000000E+00 0. -1.
         23    2    1    2    0    0  0.55867202892E+02 -0.66101250316E+02  0.31165049969E+02  0.15519658265E+03  0.12499679706E+03 0.  0.
          5    1    3    3  502    0  0.49064722134E+02 -0.43275691000E+02 -0.42149783185E+02  0.77966830204E+02  0.47000000000E+01 0.  1.
         -5    1    3    3    0  502  0.68024807580E+01 -0.22825559316E+02  0.73314833154E+02  0.77229752446E+02  0.47000000000E+01 0.  1.
        -11    1    1    2    0    0 -0.40215552803E+01  0.47529354838E+02 -0.13162504168E+02  0.49481956248E+02  0.00000000000E+00 0. -1.
         11    1    1    2    0    0 -0.51845647612E+02  0.18571895478E+02  0.68836221596E+02  0.88155044561E+02  0.00000000000E+00 0.  1.
<mgrwt>
<rscale>  0 0.14502492E+03</rscale>
<asrwt>0</asrwt>
<pdfrwt beam="1">  1        2 0.29205565E-01 0.15203526E+03</pdfrwt>
<pdfrwt beam="2">  1       -2 0.15845755E-01 0.15203526E+03</pdfrwt>
<totfact> 0.54236590E+03</totfact>
</mgrwt>
</event>
<event>
 7    1  0.5400401E-006  0.1357195E+03  0.7546771E-02  0.1230227E+00
         -1   -1    0    0    0  501 -0.00000000000E+00  0.00000000000E+00  0.39074630533E+02  0.39074630533E+02  0.00000000000E+00 0.  1.
          1   -1    0    0  501    0  0.00000000000E+00 -0.00000000000E+00 -0.55317020837E+03  0.55317020837E+03  0.00000000000E+00 0. -1.
         23    2    1    2    0    0 -0.50597440846E+02  0.15307752970E+02 -0.11211131043E+03  0.17603612664E+03  0.12500137453E+03 0.  0.
          5    1    3    3  502    0  0.53019946724E+01 -0.41789420808E+02 -0.55299098891E+01  0.42745020088E+02  0.47000000000E+01 0.  1.
         -5    1    3    3    0  502 -0.55899435518E+02  0.57097173778E+02 -0.10658140055E+03  0.13329110656E+03  0.47000000000E+01 0.  1.
        -11    1    1    2    0    0 -0.24281208655E+02  0.87590753829E+00 -0.45447695981E+02  0.51534817141E+02  0.00000000000E+00 0.  1.
         11    1    1    2    0    0  0.74878649502E+02 -0.16183660508E+02 -0.35653657143E+03  0.36467389512E+03  0.00000000000E+00 0. -1.
<mgrwt>
<rscale>  0 0.12814981E+03</rscale>
<asrwt>0</asrwt>
<pdfrwt beam="2">  1        1 0.85103105E-01 0.13571946E+03</pdfrwt>
<pdfrwt beam="1">  1       -1 0.60114819E-02 0.13571946E+03</pdfrwt>
<totfact> 0.50637763E+03</totfact>
</mgrwt>
</event>
<event>
 7    1  0.5400401E-006  0.1312787E+03  0.7546771E-02  0.1238088E+00
         -1   -1    0    0    0  501 -0.00000000000E+00  0.00000000000E+00  0.10442416353E+04  0.10442416353E+04  0.00000000000E+00 0.  1.
          1   -1    0    0  501    0  0.00000000000E+00 -0.00000000000E+00 -0.14888313316E+02  0.14888313316E+02  0.00000000000E+00 0. -1.
         23    2    1    2    0    0  0.30753774605E+02  0.25719606120E+02  0.76094770205E+03  0.77218876702E+03  0.12500717524E+03 0.  0.
          5    1    3    3  502    0 -0.14925657575E+02  0.94149100815E+01  0.65838836520E+03  0.65864159086E+03  0.47000000000E+01 0.  1.
         -5    1    3    3    0  502  0.45679432180E+02  0.16304696038E+02  0.10255933686E+03  0.11354717616E+03  0.47000000000E+01 0.  1.
        -11    1    1    2    0    0 -0.18500985339E+02 -0.54197298325E+02  0.96107631616E+02  0.11187631769E+03  0.00000000000E+00 0. -1.
         11    1    1    2    0    0 -0.12252789267E+02  0.28477692205E+02  0.17229798828E+03  0.17506486387E+03  0.00000000000E+00 0.  1.
<mgrwt>
<rscale>  0 0.12308832E+03</rscale>
<asrwt>0</asrwt>
<pdfrwt beam="2">  1        1 0.22905106E-02 0.13127866E+03</pdfrwt>
<pdfrwt beam="1">  1       -1 0.16065250E+00 0.13127866E+03</pdfrwt>
<totfact> 0.15275128E+03</totfact>
</mgrwt>
</event>
<event>
 7    1  0.5400401E-006  0.1314836E+03  0.7546771E-02  0.1239865E+00
         -1   -1    0    0    0  501 -0.00000000000E+00  0.00000000000E+00  0.22606686892E+03  0.22606686892E+03  0.00000000000E+00 0.  1.
          1   -1    0    0  501    0  0.00000000000E+00 -0.00000000000E+00 -0.57938167524E+02  0.57938167524E+02  0.00000000000E+00 0. -1.
         23    2    1    2    0    0 -0.20610366643E+02 -0.35192397169E+02  0.97999998413E+02  0.16398758603E+03  0.12499854660E+03 0.  0.
          5    1    3    3  502    0  0.12401481289E+02  0.32406600332E+02  0.78763304107E+02  0.86195896406E+02  0.47000000000E+01 0.  1.
         -5    1    3    3    0  502 -0.33011847932E+02 -0.67598997501E+02  0.19236694306E+02  0.77791689626E+02  0.47000000000E+01 0.  1.
        -11    1    1    2    0    0  0.99644949424E+01 -0.29538159373E+02  0.16409876444E+02  0.35228937870E+02  0.00000000000E+00 0. -1.
         11    1    1    2    0    0  0.10645871700E+02  0.64730556542E+02  0.53718826541E+02  0.84788512544E+02  0.00000000000E+00 0.  1.
<mgrwt>
<rscale>  0 0.12198035E+03</rscale>
<asrwt>0</asrwt>
<pdfrwt beam="2">  1        1 0.89135644E-02 0.13148357E+03</pdfrwt>
<pdfrwt beam="1">  1       -1 0.34779518E-01 0.13148357E+03</pdfrwt>
<totfact> 0.56309636E+03</totfact>
</mgrwt>
</event>
<event>
 7    1  0.5400401E-006  0.1368194E+03  0.7546771E-02  0.1229948E+00
          1   -1    0    0  501    0  0.00000000000E+00  0.00000000000E+00  0.14688251863E+04  0.14688251863E+04  0.00000000000E+00 0. -1.
         -1   -1    0    0    0  501 -0.00000000000E+00 -0.00000000000E+00 -0.10164729628E+02  0.10164729628E+02  0.00000000000E+00 0.  1.
         23    2    1    2    0    0 -0.38344024508E+02  0.40293954803E+02  0.90604599158E+03  0.91631811617E+03  0.12500273652E+03 0.  0.
          5    1    3    3  502    0  0.46157343198E+01  0.45612587520E+02  0.80464603941E+03  0.80596473364E+03  0.47000000000E+01 0.  1.
         -5    1    3    3    0  502 -0.42959758828E+02 -0.53186327170E+01  0.10139995218E+03  0.11035338252E+03  0.47000000000E+01 0.  1.
        -11    1    1    2    0    0 -0.29545073632E+02 -0.11964642198E+02  0.19239511458E+03  0.19501780471E+03  0.00000000000E+00 0. -1.
         11    1    1    2    0    0  0.67889098140E+02 -0.28329312605E+02  0.36021935047E+03  0.36765399502E+03  0.00000000000E+00 0.  1.
<mgrwt>
<rscale>  0 0.12833480E+03</rscale>
<asrwt>0</asrwt>
<pdfrwt beam="1">  1        1 0.22597294E+00 0.13681941E+03</pdfrwt>
<pdfrwt beam="2">  1       -1 0.15638057E-02 0.13681941E+03</pdfrwt>
<totfact> 0.72092030E+03</totfact>
</mgrwt>
</event>
<event>
 7    1  0.5400401E-006  0.2407946E+03  0.7546771E-02  0.1119704E+00
          2   -1    0    0  501    0  0.00000000000E+00  0.00000000000E+00  0.15171555580E+03  0.15171555580E+03  0.00000000000E+00 0.  1.
         -2   -1    0    0    0  501 -0.00000000000E+00 -0.00000000000E+00 -0.45275679288E+03  0.45275679288E+03  0.00000000000E+00 0. -1.
         23    2    1    2    0    0 -0.21110911182E+02  0.20160994667E+03 -0.27263354833E+03  0.36200788274E+03  0.12501365653E+03 0.  0.
          5    1    3    3  502    0  0.27836291999E+02  0.18300450164E+03 -0.20317981282E+03  0.27489931450E+03  0.47000000000E+01 0.  1.
         -5    1    3    3    0  502 -0.48947203181E+02  0.18605445025E+02 -0.69453735511E+02  0.87108568237E+02  0.47000000000E+01 0.  1.
        -11    1    1    2    0    0  0.14833494001E+02 -0.71017317609E+02  0.51740662994E+02  0.89109977846E+02  0.00000000000E+00 0.  1.
         11    1    1    2    0    0  0.62774171815E+01 -0.13059262906E+03 -0.80148351741E+02  0.15335448809E+03  0.00000000000E+00 0. -1.
<mgrwt>
<rscale>  0 0.24013345E+03</rscale>
<asrwt>0</asrwt>
<pdfrwt beam="1">  1        2 0.23340855E-01 0.24079456E+03</pdfrwt>
<pdfrwt beam="2">  1       -2 0.69654891E-01 0.24079456E+03</pdfrwt>
<totfact> 0.44933258E+02</totfact>
</mgrwt>
</event>
<event>
 7    1  0.5400401E-006  0.1434119E+03  0.7546771E-02  0.1219582E+00
          2   -1    0    0  501    0  0.00000000000E+00  0.00000000000E+00  0.49168948163E+03  0.49168948163E+03  0.00000000000E+00 0. -1.
         -2   -1    0    0    0  501 -0.00000000000E+00 -0.00000000000E+00 -0.33918702799E+02  0.33918702799E+02  0.00000000000E+00 0.  1.
         23    2    1    2    0    0  0.66753870852E+02  0.22168839191E+02  0.23498108524E+03  0.27528726604E+03  0.12497772487E+03 0.  0.
          5    1    3    3  502    0 -0.28427629174E+02  0.22517904247E+02  0.23887627131E+02  0.43679455607E+02  0.47000000000E+01 0.  1.
         -5    1    3    3    0  502  0.95181500026E+02 -0.34906505596E+00  0.21109345811E+03  0.23160781043E+03  0.47000000000E+01 0.  1.
        -11    1    1    2    0    0 -0.69959571842E+02  0.94369013647E+01  0.93332390011E+02  0.11702278336E+03  0.00000000000E+00 0.  1.
         11    1    1    2    0    0  0.32057009895E+01 -0.31605740556E+02  0.12945730358E+03  0.13329813504E+03  0.00000000000E+00 0. -1.
<mgrwt>
<rscale>  0 0.13545261E+03</rscale>
<asrwt>0</asrwt>
<pdfrwt beam="1">  1        2 0.75644531E-01 0.14341188E+03</pdfrwt>
<pdfrwt beam="2">  1       -2 0.52182623E-02 0.14341188E+03</pdfrwt>
<totfact> 0.11101220E+04</totfact>
</mgrwt>
</event>
<event>
 7    1  0.5400401E-006  0.1287809E+03  0.7546771E-02  0.1242351E+00
          1   -1    0    0  501    0  0.00000000000E+00  0.00000000000E+00  0.32499611067E+03  0.32499611067E+03  0.00000000000E+00 0. -1.
         -1   -1    0    0    0  501 -0.00000000000E+00 -0.00000000000E+00 -0.39783011425E+02  0.39783011425E+02  0.00000000000E+00 0.  1.
         23    2    1    2    0    0 -0.12513056160E+02 -0.33769209905E+02  0.16600443978E+03  0.21009994212E+03  0.12364293566E+03 0.  0.
          5    1    3    3  502    0 -0.52634534880E+02 -0.56622529627E+02  0.13014924719E+03  0.15145105370E+03  0.47000000000E+01 0. -1.
         -5    1    3    3    0  502  0.40121478720E+02  0.22853319722E+02  0.35855192593E+02  0.58648888420E+02  0.47000000000E+01 0.  1.
        -11    1    1    2    0    0 -0.11132745587E+02 -0.17060367502E+02  0.88387803402E+02  0.90705005120E+02  0.00000000000E+00 0. -1.
         11    1    1    2    0    0  0.23645801746E+02  0.50829577407E+02  0.30820856059E+02  0.63974174851E+02  0.00000000000E+00 0.  1.
<mgrwt>
<rscale>  0 0.12045326E+03</rscale>
<asrwt>0</asrwt>
<pdfrwt beam="1">  1        1 0.49999400E-01 0.12878087E+03</pdfrwt>
<pdfrwt beam="2">  1       -1 0.61204635E-02 0.12878087E+03</pdfrwt>
<totfact> 0.96784219E+03</totfact>
</mgrwt>
</event>
<event>
 7    1  0.5400401E-006  0.1462363E+03  0.7546771E-02  0.1214971E+00
          2   -1    0    0  501    0  0.00000000000E+00  0.00000000000E+00  0.10402118552E+03  0.10402118552E+03  0.00000000000E+00 0. -1.
         -2   -1    0    0    0  501 -0.00000000000E+00 -0.00000000000E+00 -0.17101369995E+03  0.17101369995E+03  0.00000000000E+00 0.  1.
         23    2    1    2    0    0 -0.15556203279E+02  0.74288596793E+02 -0.53134292560E+02  0.15559022733E+03  0.12499709885E+03 0.  0.
          5    1    3    3  502    0  0.87854441859E+01  0.62695085065E+02  0.28429666239E+02  0.69557125036E+02  0.47000000000E+01 0. -1.
         -5    1    3    3    0  502 -0.24341647465E+02  0.11593511728E+02 -0.81563958799E+02  0.86033102294E+02  0.47000000000E+01 0. -1.
        -11    1    1    2    0    0 -0.12503384963E+02 -0.84673546187E+02 -0.22122742006E+02  0.88404523488E+02  0.00000000000E+00 0.  1.
         11    1    1    2    0    0  0.28059588242E+02  0.10384949394E+02  0.82645201275E+01  0.31040134651E+02  0.00000000000E+00 0. -1.
<mgrwt>
<rscale>  0 0.13878657E+03</rscale>
<asrwt>0</asrwt>
<pdfrwt beam="1">  1        2 0.16003259E-01 0.14623634E+03</pdfrwt>
<pdfrwt beam="2">  1       -2 0.26309800E-01 0.14623634E+03</pdfrwt>
<totfact> 0.44907331E+03</totfact>
</mgrwt>
</event>
<event>
 7    1  0.5400401E-006  0.1272837E+03  0.7546771E-02  0.1246522E+00
         -1   -1    0    0    0  501 -0.00000000000E+00  0.00000000000E+00  0.20656735037E+03  0.20656735037E+03  0.00000000000E+00 0.  1.
          1   -1    0    0  501    0  0.00000000000E+00 -0.00000000000E+00 -0.88527264539E+02  0.88527264539E+02  0.00000000000E+00 0. -1.
         23    2    1    2    0    0  0.55768927451E+01 -0.23342019042E+02  0.14928405924E+03  0.19618070245E+03  0.12500074433E+03 0.  0.
          5    1    3    3  502    0  0.29214904689E+02  0.40740597128E+02  0.99545834619E+02  0.11155612982E+03  0.47000000000E+01 0. -1.
         -5    1    3    3    0  502 -0.23638011944E+02 -0.64082616171E+02  0.49738224625E+02  0.84624572630E+02  0.47000000000E+01 0. -1.
        -11    1    1    2    0    0 -0.24555154647E+02 -0.21510993867E+02  0.10994489309E+02  0.34446440630E+02  0.00000000000E+00 0.  1.
         11    1    1    2    0    0  0.18978261901E+02  0.44853012910E+02 -0.42238462718E+02  0.64467471834E+02  0.00000000000E+00 0. -1.
<mgrwt>
<rscale>  0 0.11794726E+03</rscale>
<asrwt>0</asrwt>
<pdfrwt beam="2">  1        1 0.13619579E-01 0.12728369E+03</pdfrwt>
<pdfrwt beam="1">  1       -1 0.31779592E-01 0.12728369E+03</pdfrwt>
<totfact> 0.37489316E+03</totfact>
</mgrwt>
</event>
<event>
 6    1  0.5400401E-006  0.1543793E+03  0.7546771E-02  0.1205487E+00
         -1   -1    0    0    0  501 -0.00000000000E+00  0.00000000000E+00  0.76876710194E+02  0.76876710194E+02  0.00000000000E+00 0.  1.
          1   -1    0    0  501    0  0.00000000000E+00 -0.00000000000E+00 -0.38576115940E+03  0.38576115940E+03  0.00000000000E+00 0. -1.
          5    1    1    2  502    0  0.16429404805E+01  0.23889808909E+02 -0.59025052638E+02  0.63870721478E+02  0.47000000000E+01 0. -1.
         -5    1    1    2    0  502 -0.83703251546E+02 -0.28338794644E+02  0.29547310405E+02  0.93297669603E+02  0.47000000000E+01 0.  1.
        -11    1    1    2    0    0  0.72250235287E+02  0.15950621038E+02 -0.28070893494E+03  0.29029644325E+03  0.00000000000E+00 0. -1.
         11    1    1    2    0    0  0.98100757780E+01 -0.11501635304E+02  0.13022279631E+01  0.15173035263E+02  0.00000000000E+00 0.  1.
<mgrwt>
<rscale>  0 0.14599143E+03</rscale>
<asrwt>0</asrwt>
<pdfrwt beam="2">  1        1 0.59347872E-01 0.15437929E+03</pdfrwt>
<pdfrwt beam="1">  1       -1 0.11827186E-01 0.15437929E+03</pdfrwt>
<totfact> 0.29080391E+03</totfact>
</mgrwt>
</event>
<event>
 7    1  0.5400401E-006  0.1785901E+03  0.7546771E-02  0.1174865E+00
          2   -1    0    0  501    0  0.00000000000E+00  0.00000000000E+00  0.21862026451E+03  0.21862026451E+03  0.00000000000E+00 0. -1.
         -2   -1    0    0    0  501 -0.00000000000E+00 -0.00000000000E+00 -0.14119729264E+03  0.14119729264E+03  0.00000000000E+00 0.  1.
         23    2    1    2    0    0  0.83563161096E+02  0.96369308702E+02 -0.12461907702E+02  0.17902439275E+03  0.12499835400E+03 0.  0.
          5    1    3    3  502    0 -0.22526667312E+02  0.41708346621E+02  0.25070603385E+02  0.53829936579E+02  0.47000000000E+01 0. -1.
         -5    1    3    3    0  502  0.10608982841E+03  0.54660962080E+02 -0.37532511087E+02  0.12519445617E+03  0.47000000000E+01 0. -1.
        -11    1    1    2    0    0 -0.66925100802E+02 -0.27971959459E+02  0.82542626880E+01  0.73003647072E+02  0.00000000000E+00 0.  1.
         11    1    1    2    0    0 -0.16638060294E+02 -0.68397349243E+02  0.81630616885E+02  0.10778951733E+03  0.00000000000E+00 0. -1.
<mgrwt>
<rscale>  0 0.17289210E+03</rscale>
<asrwt>0</asrwt>
<pdfrwt beam="1">  1        2 0.33633887E-01 0.17859013E+03</pdfrwt>
<pdfrwt beam="2">  1       -2 0.21722660E-01 0.17859013E+03</pdfrwt>
<totfact> 0.27582046E+03</totfact>
</mgrwt>
</event>
<event>
 7    1  0.5400401E-006  0.1474057E+03  0.7546771E-02  0.1213018E+00
         -2   -1    0    0    0  501 -0.00000000000E+00  0.00000000000E+00  0.19182113160E+02  0.19182113160E+02  0.00000000000E+00 0.  1.
          2   -1    0    0  501    0  0.00000000000E+00 -0.00000000000E+00 -0.99438373175E+03  0.99438373175E+03  0.00000000000E+00 0. -1.
         23    2    1    2    0    0 -0.71833332114E+02 -0.30720153104E+02 -0.41220162434E+03  0.43776547121E+03  0.12499869305E+03 0.  0.
          5    1    3    3  502    0 -0.82265307332E+02  0.56562362535E+01 -0.37675465310E+03  0.38570161062E+03  0.47000000000E+01 0.  1.
         -5    1    3    3    0  502  0.10431975219E+02 -0.36376389358E+02 -0.35446971241E+02  0.52063860593E+02  0.47000000000E+01 0.  1.
        -11    1    1    2    0    0  0.89616858244E+02  0.55043891617E+01 -0.42869827231E+03  0.43799964414E+03  0.00000000000E+00 0. -1.
         11    1    1    2    0    0 -0.17783526130E+02  0.25215763943E+02 -0.13430172193E+03  0.13780072956E+03  0.00000000000E+00 0.  1.
<mgrwt>
<rscale>  0 0.14023113E+03</rscale>
<asrwt>0</asrwt>
<pdfrwt beam="2">  1        2 0.15298214E+00 0.14740566E+03</pdfrwt>
<pdfrwt beam="1">  1       -2 0.29510939E-02 0.14740566E+03</pdfrwt>
<totfact> 0.11111817E+04</totfact>
</mgrwt>
</event>
<event>
 7    1  0.5400401E-006  0.1878549E+03  0.7546771E-02  0.1165817E+00
          1   -1    0    0  501    0  0.00000000000E+00  0.00000000000E+00  0.24715881940E+03  0.24715881940E+03  0.00000000000E+00 0. -1.
         -1   -1    0    0    0  501 -0.00000000000E+00 -0.00000000000E+00 -0.12648183772E+03  0.12648183772E+03  0.00000000000E+00 0.  1.
         23    2    1    2    0    0  0.93790849321E+02 -0.10425975402E+03  0.62919486490E+02  0.19811190761E+03  0.12499058537E+03 0.  0.
          5    1    3    3  502    0  0.26315611219E+02 -0.14527339289E-01  0.68693642425E+02  0.73711723047E+02  0.47000000000E+01 0. -1.
         -5    1    3    3    0  502  0.67475238102E+02 -0.10424522668E+03 -0.57741559352E+01  0.12440018456E+03  0.47000000000E+01 0. -1.
        -11    1    1    2    0    0 -0.49726126553E+02  0.25177735996E+02 -0.16838319869E+02  0.58224866405E+02  0.00000000000E+00 0.  1.
         11    1    1    2    0    0 -0.44064722768E+02  0.79082018020E+02  0.74595815057E+02  0.11730388310E+03  0.00000000000E+00 0. -1.
<mgrwt>
<rscale>  0 0.18206772E+03</rscale>
<asrwt>0</asrwt>
<pdfrwt beam="1">  1        1 0.38024434E-01 0.18785491E+03</pdfrwt>
<pdfrwt beam="2">  1       -1 0.19458744E-01 0.18785491E+03</pdfrwt>
<totfact> 0.23290257E+03</totfact>
</mgrwt>
</event>
<event>
 7    1  0.5400401E-006  0.3088380E+03  0.7546771E-02  0.1082467E+00
         -4   -1    0    0    0  501 -0.00000000000E+00  0.00000000000E+00  0.75315128854E+02  0.75315128854E+02  0.00000000000E+00 0.  1.
          4   -1    0    0  501    0  0.00000000000E+00 -0.00000000000E+00 -0.12152338917E+04  0.12152338917E+04  0.00000000000E+00 0. -1.
         23    2    1    2    0    0 -0.26767091164E+03 -0.90046837700E+02 -0.59218972607E+03  0.66788439453E+03  0.12499897149E+03 0.  0.
          5    1    3    3  502    0 -0.23156094732E+03 -0.11716567023E+03 -0.46083087569E+03  0.52890022933E+03  0.47000000000E+01 0.  1.
         -5    1    3    3    0  502 -0.36109964317E+02  0.27118832526E+02 -0.13135885039E+03  0.13898416520E+03  0.47000000000E+01 0.  1.
        -11    1    1    2    0    0  0.16191656350E+03  0.64359044834E+02 -0.42092704784E+03  0.45556408966E+03  0.00000000000E+00 0.  1.
         11    1    1    2    0    0  0.10575434814E+03  0.25687792866E+02 -0.12680198891E+03  0.16710053633E+03  0.00000000000E+00 0. -1.
<mgrwt>
<rscale>  0 0.30561561E+03</rscale>
<asrwt>0</asrwt>
<pdfrwt beam="2">  1        4 0.18695905E+00 0.30883797E+03</pdfrwt>
<pdfrwt beam="1">  1       -4 0.11586944E-01 0.30883797E+03</pdfrwt>
<totfact> 0.19051793E+01</totfact>
</mgrwt>
</event>
<event>
 7    1  0.5400401E-006  0.1654048E+03  0.7546771E-02  0.1189511E+00
         -4   -1    0    0    0  501 -0.00000000000E+00  0.00000000000E+00  0.14642834616E+03  0.14642834616E+03  0.00000000000E+00 0.  1.
          4   -1    0    0  501    0  0.00000000000E+00 -0.00000000000E+00 -0.16160097180E+03  0.16160097180E+03  0.00000000000E+00 0. -1.
         23    2    1    2    0    0 -0.79482120077E+02  0.73575753791E+02 -0.67389236516E+01  0.16554204498E+03  0.12501182586E+03 0.  0.
          5    1    3    3  502    0 -0.10736876317E+03  0.58831420606E+02 -0.29912520637E+02  0.12611913513E+03  0.47000000000E+01 0. -1.
         -5    1    3    3    0  502  0.27886643090E+02  0.14744333184E+02  0.23173596985E+02  0.39422909851E+02  0.47000000000E+01 0. -1.
        -11    1    1    2    0    0  0.23788380714E+02 -0.18981258353E+02 -0.46601921604E+02  0.55658910543E+02  0.00000000000E+00 0. -1.
         11    1    1    2    0    0  0.55693739363E+02 -0.54594495438E+02  0.38168219613E+02  0.86828362445E+02  0.00000000000E+00 0.  1.
<mgrwt>
<rscale>  0 0.15928124E+03</rscale>
<asrwt>0</asrwt>
<pdfrwt beam="2">  1        4 0.24861688E-01 0.16540482E+03</pdfrwt>
<pdfrwt beam="1">  1       -4 0.22527438E-01 0.16540482E+03</pdfrwt>
<totfact> 0.47331685E+02</totfact>
</mgrwt>
</event>
<event>
 6    1  0.5400401E-006  0.1776796E+03  0.7546771E-02  0.1190522E+00
         -1   -1    0    0    0  501 -0.00000000000E+00  0.00000000000E+00  0.18201746013E+03  0.18201746013E+03  0.00000000000E+00 0.  1.
          1   -1    0    0  501    0  0.00000000000E+00 -0.00000000000E+00 -0.15484108702E+03  0.15484108702E+03  0.00000000000E+00 0. -1.
          5    1    1    2  502    0 -0.19336456891E+02 -0.47854921803E+02  0.71684967858E+02  0.88457994114E+02  0.47000000000E+01 0. -1.
         -5    1    1    2    0  502  0.64811272040E+02  0.90859704390E+02  0.27539295604E+02  0.11504994423E+03  0.47000000000E+01 0.  1.
        -11    1    1    2    0    0 -0.51660209189E+02  0.13038799079E+02 -0.20928587317E+02  0.57243281369E+02  0.00000000000E+00 0.  1.
         11    1    1    2    0    0  0.61853940390E+01 -0.56043581666E+02 -0.51119303040E+02  0.76107327431E+02  0.00000000000E+00 0. -1.
<mgrwt>
<rscale>  0 0.15839364E+03</rscale>
<asrwt>0</asrwt>
<pdfrwt beam="2">  1        1 0.23821706E-01 0.17767956E+03</pdfrwt>
<pdfrwt beam="1">  1       -1 0.28002686E-01 0.17767956E+03</pdfrwt>
<totfact> 0.22993135E+03</totfact>
</mgrwt>
</event>
<event>
 7    1  0.5400401E-006  0.1280434E+03  0.7546771E-02  0.1245094E+00
          3   -1    0    0  501    0  0.00000000000E+00  0.00000000000E+00  0.77786406120E+02  0.77786406120E+02  0.00000000000E+00 0. -1.
         -3   -1    0    0    0  501 -0.00000000000E+00 -0.00000000000E+00 -0.16650935940E+03  0.16650935940E+03  0.00000000000E+00 0.  1.
         23    2    1    2    0    0  0.10590636464E+02 -0.25656127006E+02 -0.75112964214E+02  0.14844892067E+03  0.12499890489E+03 0.  0.
          5    1    3    3  502    0 -0.24760438903E+02 -0.56439687656E+01  0.27657530187E+02  0.37841282934E+02  0.47000000000E+01 0.  1.
         -5    1    3    3    0  502  0.35351075367E+02 -0.20012158241E+02 -0.10277049440E+03  0.11060763774E+03  0.47000000000E+01 0.  1.
        -11    1    1    2    0    0  0.15495798215E+02  0.45508174085E+02 -0.32484421394E+02  0.58020266323E+02  0.00000000000E+00 0.  1.
         11    1    1    2    0    0 -0.26086434680E+02 -0.19852047079E+02  0.18874432323E+02  0.37826578527E+02  0.00000000000E+00 0. -1.
<mgrwt>
<rscale>  0 0.11879733E+03</rscale>
<asrwt>0</asrwt>
<pdfrwt beam="1">  1        3 0.11967140E-01 0.12804345E+03</pdfrwt>
<pdfrwt beam="2">  1       -3 0.25616824E-01 0.12804345E+03</pdfrwt>
<totfact> 0.17816781E+03</totfact>
</mgrwt>
</event>
<event>
 7    1  0.5400401E-006  0.1268142E+03  0.7546771E-02  0.1246278E+00
          2   -1    0    0  501    0  0.00000000000E+00  0.00000000000E+00  0.45261012023E+02  0.45261012023E+02  0.00000000000E+00 0. -1.
         -2   -1    0    0    0  501 -0.00000000000E+00 -0.00000000000E+00 -0.27851090403E+03  0.27851090403E+03  0.00000000000E+00 0.  1.
         23    2    1    2    0    0  0.26819364404E+02 -0.15264935847E+02 -0.10955080155E+03  0.16758049139E+03  0.12300222112E+03 0.  0.
          5    1    3    3  502    0  0.34103703353E+02 -0.73748700391E+01  0.17965915850E+02  0.39526135946E+02  0.47000000000E+01 0. -1.
         -5    1    3    3    0  502 -0.72843389491E+01 -0.78900658079E+01 -0.12751671740E+03  0.12805435544E+03  0.47000000000E+01 0.  1.
        -11    1    1    2    0    0  0.22104444485E+01  0.49229603393E+02 -0.78126704853E+02  0.92370027206E+02  0.00000000000E+00 0.  1.
         11    1    1    2    0    0 -0.29029808852E+02 -0.33964667546E+02 -0.45572385608E+02  0.63821397458E+02  0.00000000000E+00 0. -1.
<mgrwt>
<rscale>  0 0.11809243E+03</rscale>
<asrwt>0</asrwt>
<pdfrwt beam="1">  1        2 0.69632327E-02 0.12681421E+03</pdfrwt>
<pdfrwt beam="2">  1       -2 0.42847831E-01 0.12681421E+03</pdfrwt>
<totfact> 0.50094539E+03</totfact>
</mgrwt>
</event>
<event>
 7    1  0.5400401E-006  0.1677128E+03  0.7546771E-02  0.1186166E+00
          1   -1    0    0  501    0  0.00000000000E+00  0.00000000000E+00  0.12379061240E+04  0.12379061240E+04  0.00000000000E+00 0. -1.
         -1   -1    0    0    0  501 -0.00000000000E+00 -0.00000000000E+00 -0.20135356500E+02  0.20135356500E+02  0.00000000000E+00 0.  1.
         23    2    1    2    0    0 -0.71379429097E+02  0.86074591650E+02  0.59658145209E+03  0.61970721031E+03  0.12499495715E+03 0.  0.
          5    1    3    3  502    0 -0.77169804785E+02  0.86576964677E+02  0.28089521828E+03  0.30393249783E+03  0.47000000000E+01 0. -1.
         -5    1    3    3    0  502  0.57903756879E+01 -0.50237302723E+00  0.31568623381E+03  0.31577471248E+03  0.47000000000E+01 0. -1.
        -11    1    1    2    0    0 -0.16616720670E+02 -0.47733956682E+02  0.19186341703E+03  0.19840921557E+03  0.00000000000E+00 0. -1.
         11    1    1    2    0    0  0.87996149767E+02 -0.38340634968E+02  0.42932589834E+03  0.43992505459E+03  0.00000000000E+00 0.  1.
<mgrwt>
<rscale>  0 0.16226228E+03</rscale>
<asrwt>0</asrwt>
<pdfrwt beam="1">  1        1 0.19044704E+00 0.16771284E+03</pdfrwt>
<pdfrwt beam="2">  1       -1 0.30977481E-02 0.16771284E+03</pdfrwt>
<totfact> 0.38362393E+03</totfact>
</mgrwt>
</event>
<event>
 7    1  0.5400401E-006  0.1314606E+03  0.7546771E-02  0.1237755E+00
          2   -1    0    0  501    0  0.00000000000E+00  0.00000000000E+00  0.62936887263E+03  0.62936887263E+03  0.00000000000E+00 0. -1.
         -2   -1    0    0    0  501 -0.00000000000E+00 -0.00000000000E+00 -0.24029079917E+02  0.24029079917E+02  0.00000000000E+00 0.  1.
         23    2    1    2    0    0  0.31239640135E+02  0.26106045951E+02  0.23423062811E+03  0.26859985949E+03  0.12499782647E+03 0.  0.
          5    1    3    3  502    0 -0.32170228666E+02  0.52670594499E+02  0.12425881897E+03  0.13882168141E+03  0.47000000000E+01 0.  1.
         -5    1    3    3    0  502  0.63409868801E+02 -0.26564548548E+02  0.10997180914E+03  0.12977817808E+03  0.47000000000E+01 0.  1.
        -11    1    1    2    0    0  0.29076212842E+02  0.75460942402E+01  0.15621762726E+03  0.15907959253E+03  0.00000000000E+00 0. -1.
         11    1    1    2    0    0 -0.60315852977E+02 -0.33652140191E+02  0.21489153734E+03  0.22571850053E+03  0.00000000000E+00 0.  1.
<mgrwt>
<rscale>  0 0.12329672E+03</rscale>
<asrwt>0</asrwt>
<pdfrwt beam="1">  1        2 0.96825968E-01 0.13146063E+03</pdfrwt>
<pdfrwt beam="2">  1       -2 0.36967820E-02 0.13146063E+03</pdfrwt>
<totfact> 0.13994387E+04</totfact>
</mgrwt>
</event>
<event>
 7    1  0.5400401E-006  0.1375063E+03  0.7546771E-02  0.1228314E+00
          2   -1    0    0  501    0  0.00000000000E+00  0.00000000000E+00  0.99853143903E+03  0.99853143903E+03  0.00000000000E+00 0. -1.
         -2   -1    0    0    0  501 -0.00000000000E+00 -0.00000000000E+00 -0.15242232857E+02  0.15242232857E+02  0.00000000000E+00 0.  1.
         23    2    1    2    0    0  0.57029658810E+02  0.55176847336E+01  0.49838541435E+03  0.51700678216E+03  0.12500065896E+03 0.  0.
          5    1    3    3  502    0 -0.29721287553E+02 -0.29843987059E+02  0.12368534501E+03  0.13074468658E+03  0.47000000000E+01 0.  1.
         -5    1    3    3    0  502  0.86750946363E+02  0.35361671793E+02  0.37470006934E+03  0.38626209559E+03  0.47000000000E+01 0.  1.
        -11    1    1    2    0    0 -0.65271957164E+02 -0.30037332221E+02  0.43134434875E+03  0.43728779644E+03  0.00000000000E+00 0. -1.
         11    1    1    2    0    0  0.82422983535E+01  0.24519647487E+02  0.53559443077E+02  0.59479093283E+02  0.00000000000E+00 0.  1.
<mgrwt>
<rscale>  0 0.12942331E+03</rscale>
<asrwt>0</asrwt>
<pdfrwt beam="1">  1        2 0.15362017E+00 0.13750633E+03</pdfrwt>
<pdfrwt beam="2">  1       -2 0.23449597E-02 0.13750633E+03</pdfrwt>
<totfact> 0.15408308E+04</totfact>
</mgrwt>
</event>
<event>
 7    1  0.5400401E-006  0.1427856E+03  0.7546771E-02  0.1220040E+00
          4   -1    0    0  501    0  0.00000000000E+00  0.00000000000E+00  0.21647404450E+03  0.21647404450E+03  0.00000000000E+00 0. -1.
         -4   -1    0    0    0  501 -0.00000000000E+00 -0.00000000000E+00 -0.79555791650E+02  0.79555791650E+02  0.00000000000E+00 0.  1.
         23    2    1    2    0    0 -0.20505239715E+02  0.65895170332E+02  0.46681155919E+02  0.15022271178E+03  0.12500037796E+03 0.  0.
          5    1    3    3  502    0 -0.26132460213E+02 -0.22359818560E+02 -0.19363794541E+02  0.39748125765E+02  0.47000000000E+01 0.  1.
         -5    1    3    3    0  502  0.56272204976E+01  0.88254988893E+02  0.66044950460E+02  0.11047458602E+03  0.47000000000E+01 0.  1.
        -11    1    1    2    0    0  0.44141588435E+02 -0.56443499356E+01  0.59112833760E+02  0.73990983444E+02  0.00000000000E+00 0. -1.
         11    1    1    2    0    0 -0.23636348720E+02 -0.60250820397E+02  0.31124263174E+02  0.71816140926E+02  0.00000000000E+00 0.  1.
<mgrwt>
<rscale>  0 0.13512714E+03</rscale>
<asrwt>0</asrwt>
<pdfrwt beam="1">  1        4 0.33303699E-01 0.14278562E+03</pdfrwt>
<pdfrwt beam="2">  1       -4 0.12239353E-01 0.14278562E+03</pdfrwt>
<totfact> 0.78101715E+02</totfact>
</mgrwt>
</event>
<event>
 6    1  0.5400401E-006  0.1744703E+03  0.7546771E-02  0.1197674E+00
          1   -1    0    0  501    0  0.00000000000E+00  0.00000000000E+00  0.59522467404E+02  0.59522467404E+02  0.00000000000E+00 0. -1.
         -1   -1    0    0    0  501 -0.00000000000E+00 -0.00000000000E+00 -0.35841020876E+03  0.35841020876E+03  0.00000000000E+00 0.  1.
          5    1    1    2  502    0  0.47694706690E+02 -0.32172075968E+02 -0.14891148383E+03  0.15970769404E+03  0.47000000000E+01 0. -1.
         -5    1    1    2    0  502 -0.65127752020E+02  0.81485557069E+02 -0.10258086373E+03  0.14637774318E+03  0.47000000000E+01 0.  1.
        -11    1    1    2    0    0  0.28871244362E+02 -0.67053176120E+02 -0.17196000642E+02  0.75002530736E+02  0.00000000000E+00 0. -1.
         11    1    1    2    0    0 -0.11438199031E+02  0.17739695019E+02 -0.30199393155E+02  0.36844708214E+02  0.00000000000E+00 0.  1.
<mgrwt>
<rscale>  0 0.15230109E+03</rscale>
<asrwt>0</asrwt>
<pdfrwt beam="1">  1        1 0.91573029E-02 0.17447032E+03</pdfrwt>
<pdfrwt beam="2">  1       -1 0.55140031E-01 0.17447032E+03</pdfrwt>
<totfact> 0.24207793E+03</totfact>
</mgrwt>
</event>
<event>
 7    1  0.5400401E-006  0.1741815E+03  0.7546771E-02  0.1179898E+00
         -1   -1    0    0    0  501 -0.00000000000E+00  0.00000000000E+00  0.40869972280E+02  0.40869972280E+02  0.00000000000E+00 0.  1.
          1   -1    0    0  501    0  0.00000000000E+00 -0.00000000000E+00 -0.81345246929E+03  0.81345246929E+03  0.00000000000E+00 0. -1.
         23    2    1    2    0    0 -0.11079792358E+03 -0.49368575280E+02 -0.21513150360E+03  0.27680452118E+03  0.12500297199E+03 0.  0.
          5    1    3    3  502    0 -0.34742017808E+02 -0.82579542716E+02 -0.12875387749E+03  0.15692686082E+03  0.47000000000E+01 0. -1.
         -5    1    3    3    0  502 -0.76055905777E+02  0.33210967436E+02 -0.86377626111E+02  0.11987766036E+03  0.47000000000E+01 0. -1.
        -11    1    1    2    0    0  0.18588453219E+02  0.53971169376E+02 -0.25388353149E+03  0.26022156959E+03  0.00000000000E+00 0. -1.
         11    1    1    2    0    0  0.92209470365E+02 -0.46025940968E+01 -0.30356746192E+03  0.31729635081E+03  0.00000000000E+00 0.  1.
<mgrwt>
<rscale>  0 0.16804846E+03</rscale>
<asrwt>0</asrwt>
<pdfrwt beam="2">  1        1 0.12514653E+00 0.17418145E+03</pdfrwt>
<pdfrwt beam="1">  1       -1 0.62876880E-02 0.17418145E+03</pdfrwt>
<totfact> 0.27633060E+03</totfact>
</mgrwt>
</event>
<event>
 7    1  0.5400401E-006  0.1621075E+03  0.7546771E-02  0.1193097E+00
          2   -1    0    0  501    0  0.00000000000E+00  0.00000000000E+00  0.92856417048E+02  0.92856417048E+02  0.00000000000E+00 0. -1.
         -2   -1    0    0    0  501 -0.00000000000E+00 -0.00000000000E+00 -0.24513952501E+03  0.24513952501E+03  0.00000000000E+00 0.  1.
         23    2    1    2    0    0 -0.10321620207E+03 -0.25925760794E+00 -0.79441798097E+02  0.18052660275E+03  0.12500081373E+03 0.  0.
          5    1    3    3  502    0  0.23351134869E+01 -0.33366607448E+02  0.13095766501E+02  0.36226680056E+02  0.47000000000E+01 0.  1.
         -5    1    3    3    0  502 -0.10555131555E+03  0.33107349840E+02 -0.92537564598E+02  0.14429992270E+03  0.47000000000E+01 0.  1.
        -11    1    1    2    0    0  0.36462516678E+02  0.44054009544E+02 -0.15738472539E+02  0.59312480957E+02  0.00000000000E+00 0.  1.
         11    1    1    2    0    0  0.66753685389E+02 -0.43794751936E+02 -0.57102837325E+02  0.98156858348E+02  0.00000000000E+00 0. -1.
<mgrwt>
<rscale>  0 0.15616401E+03</rscale>
<asrwt>0</asrwt>
<pdfrwt beam="1">  1        2 0.14285603E-01 0.16210754E+03</pdfrwt>
<pdfrwt beam="2">  1       -2 0.37713773E-01 0.16210754E+03</pdfrwt>
<totfact> 0.26810850E+03</totfact>
</mgrwt>
</event>
<event>
 7    1  0.5400401E-006  0.1656131E+03  0.7546771E-02  0.1189631E+00
         -3   -1    0    0    0  501 -0.00000000000E+00  0.00000000000E+00  0.52275216227E+02  0.52275216227E+02  0.00000000000E+00 0.  1.
          3   -1    0    0  501    0  0.00000000000E+00 -0.00000000000E+00 -0.45747935728E+03  0.45747935728E+03  0.00000000000E+00 0. -1.
         23    2    1    2    0    0  0.10862230966E+03 -0.18354192776E+01 -0.18713150418E+03  0.24989174795E+03  0.12500204365E+03 0.  0.
          5    1    3    3  502    0  0.88958199861E+02  0.51584064651E+02 -0.87746171505E+02  0.13526255085E+03  0.47000000000E+01 0. -1.
         -5    1    3    3    0  502  0.19664109798E+02 -0.53419483929E+02 -0.99385332673E+02  0.11462919710E+03  0.47000000000E+01 0. -1.
        -11    1    1    2    0    0 -0.11998385039E+03 -0.53152260594E+01 -0.15887633634E+03  0.19916341590E+03  0.00000000000E+00 0.  1.
         11    1    1    2    0    0  0.11361540730E+02  0.71506453371E+01 -0.59196300534E+02  0.60699409662E+02  0.00000000000E+00 0. -1.
<mgrwt>
<rscale>  0 0.15917556E+03</rscale>
<asrwt>0</asrwt>
<pdfrwt beam="2">  1        3 0.70381441E-01 0.16561306E+03</pdfrwt>
<pdfrwt beam="1">  1       -3 0.80423408E-02 0.16561306E+03</pdfrwt>
<totfact> 0.49650613E+02</totfact>
</mgrwt>
</event>
<event>
 7    1  0.5400401E-006  0.1288888E+03  0.7546771E-02  0.1241355E+00
          1   -1    0    0  501    0  0.00000000000E+00  0.00000000000E+00  0.18932833473E+03  0.18932833473E+03  0.00000000000E+00 0. -1.
         -1   -1    0    0    0  501 -0.00000000000E+00 -0.00000000000E+00 -0.28251293302E+03  0.28251293302E+03  0.00000000000E+00 0.  1.
         23    2    1    2    0    0 -0.16481010388E+02 -0.26741378461E+02 -0.25254459159E+03  0.28353321534E+03  0.12500235372E+03 0.  0.
          5    1    3    3  502    0 -0.20400085815E+02 -0.28728446851E+02 -0.49903957827E+01  0.35895420457E+02  0.47000000000E+01 0. -1.
         -5    1    3    3    0  502  0.39190754263E+01  0.19870683901E+01 -0.24755419581E+03  0.24763779489E+03  0.47000000000E+01 0. -1.
        -11    1    1    2    0    0  0.21531687946E+02 -0.19497317510E+02  0.82428476578E+01  0.30194428516E+02  0.00000000000E+00 0.  1.
         11    1    1    2    0    0 -0.50506775577E+01  0.46238695971E+02  0.15111714565E+03  0.15811362388E+03  0.00000000000E+00 0. -1.
<mgrwt>
<rscale>  0 0.12106241E+03</rscale>
<asrwt>0</asrwt>
<pdfrwt beam="1">  1        1 0.29127436E-01 0.12888876E+03</pdfrwt>
<pdfrwt beam="2">  1       -1 0.43463528E-01 0.12888876E+03</pdfrwt>
<totfact> 0.83080983E+02</totfact>
</mgrwt>
</event>
<event>
 7    1  0.5400401E-006  0.1649640E+03  0.7546771E-02  0.1189740E+00
          2   -1    0    0  501    0  0.00000000000E+00  0.00000000000E+00  0.52399191280E+02  0.52399191280E+02  0.00000000000E+00 0. -1.
         -2   -1    0    0    0  501 -0.00000000000E+00 -0.00000000000E+00 -0.45402457864E+03  0.45402457864E+03  0.00000000000E+00 0.  1.
         23    2    1    2    0    0 -0.59859876668E+02 -0.89469257266E+02 -0.19641781795E+03  0.25650158732E+03  0.12500060903E+03 0.  0.
          5    1    3    3  502    0 -0.51718837933E+02  0.20931215018E+01 -0.16711558768E+02  0.54594739227E+02  0.47000000000E+01 0. -1.
         -5    1    3    3    0  502 -0.81410387347E+01 -0.91562378768E+02 -0.17970625919E+03  0.20190684810E+03  0.47000000000E+01 0. -1.
        -11    1    1    2    0    0  0.33281526984E+02  0.69040978322E+01 -0.86441777147E+01  0.35072046043E+02  0.00000000000E+00 0. -1.
         11    1    1    2    0    0  0.26578349684E+02  0.82565159434E+02 -0.19656339169E+03  0.21485013656E+03  0.00000000000E+00 0.  1.
<mgrwt>
<rscale>  0 0.15907974E+03</rscale>
<asrwt>0</asrwt>
<pdfrwt beam="1">  1        2 0.80614138E-02 0.16496395E+03</pdfrwt>
<pdfrwt beam="2">  1       -2 0.69849938E-01 0.16496395E+03</pdfrwt>
<totfact> 0.15770146E+03</totfact>
</mgrwt>
</event>
<event>
 6    1  0.5400401E-006  0.1832187E+03  0.7546771E-02  0.1179309E+00
          1   -1    0    0  501    0  0.00000000000E+00  0.00000000000E+00  0.47086385704E+02  0.47086385704E+02  0.00000000000E+00 0. -1.
         -1   -1    0    0    0  501 -0.00000000000E+00 -0.00000000000E+00 -0.77880154359E+03  0.77880154359E+03  0.00000000000E+00 0.  1.
          5    1    1    2  502    0 -0.17269675595E+02 -0.52043353686E+02 -0.59773783155E+02  0.81251138520E+02  0.47000000000E+01 0. -1.
         -5    1    1    2    0  502 -0.69053087037E+02  0.12021459849E+02 -0.58006680064E+03  0.58430508087E+03  0.47000000000E+01 0.  1.
        -11    1    1    2    0    0 -0.89673911083E+01  0.31708433372E+02 -0.10033661097E+02  0.34445800981E+02  0.00000000000E+00 0.  1.
         11    1    1    2    0    0  0.95290153741E+02  0.83134604650E+01 -0.81840912986E+02  0.12588590891E+03  0.00000000000E+00 0. -1.
<mgrwt>
<rscale>  0 0.16860648E+03</rscale>
<asrwt>0</asrwt>
<pdfrwt beam="1">  1        1 0.72440594E-02 0.18321874E+03</pdfrwt>
<pdfrwt beam="2">  1       -1 0.11981562E+00 0.18321874E+03</pdfrwt>
<totfact> 0.65866640E+02</totfact>
</mgrwt>
</event>
<event>
 7    1  0.5400401E-006  0.1328590E+03  0.7546771E-02  0.1236147E+00
          1   -1    0    0  501    0  0.00000000000E+00  0.00000000000E+00  0.54542706533E+03  0.54542706533E+03  0.00000000000E+00 0. -1.
         -1   -1    0    0    0  501 -0.00000000000E+00 -0.00000000000E+00 -0.27654615969E+02  0.27654615969E+02  0.00000000000E+00 0.  1.
         23    2    1    2    0    0  0.24816233924E+02  0.37539716118E+02  0.20625312654E+03  0.24534031435E+03  0.12500576742E+03 0.  0.
          5    1    3    3  502    0  0.74518640708E+02  0.30986948734E+02  0.10765024557E+03  0.13462497605E+03  0.47000000000E+01 0.  1.
         -5    1    3    3    0  502 -0.49702406784E+02  0.65527673836E+01  0.98602880969E+02  0.11071533830E+03  0.47000000000E+01 0.  1.
        -11    1    1    2    0    0 -0.42379847424E+02 -0.41141534068E+02  0.30144222187E+03  0.30717436485E+03  0.00000000000E+00 0. -1.
         11    1    1    2    0    0  0.17563613501E+02  0.36018179506E+01  0.10077100954E+02  0.20567002100E+02  0.00000000000E+00 0.  1.
<mgrwt>
<rscale>  0 0.12431291E+03</rscale>
<asrwt>0</asrwt>
<pdfrwt beam="1">  1        1 0.83911848E-01 0.13285901E+03</pdfrwt>
<pdfrwt beam="2">  1       -1 0.42545567E-02 0.13285901E+03</pdfrwt>
<totfact> 0.85946903E+03</totfact>
</mgrwt>
</event>
<event>
 7    1  0.5400401E-006  0.1401252E+03  0.7546771E-02  0.1224762E+00
         -2   -1    0    0    0  501 -0.00000000000E+00  0.00000000000E+00  0.25794206669E+03  0.25794206669E+03  0.00000000000E+00 0.  1.
          2   -1    0    0  501    0  0.00000000000E+00 -0.00000000000E+00 -0.68334742987E+02  0.68334742987E+02  0.00000000000E+00 0. -1.
         23    2    1    2    0    0 -0.22222198803E+02  0.59293607539E+02  0.15976627810E+03  0.21250958569E+03  0.12500200949E+03 0.  0.
          5    1    3    3  502    0 -0.19228725020E+02 -0.59770696405E+01 -0.15212366884E+02  0.25670514868E+02  0.47000000000E+01 0. -1.
         -5    1    3    3    0  502 -0.29934737823E+01  0.65270677179E+02  0.17497864498E+03  0.18683907082E+03  0.47000000000E+01 0. -1.
        -11    1    1    2    0    0 -0.60159689739E+01  0.22199606409E+02  0.17754539663E+01  0.23068737378E+02  0.00000000000E+00 0.  1.
         11    1    1    2    0    0  0.28238167777E+02 -0.81493213948E+02  0.28065591633E+02  0.90698486606E+02  0.00000000000E+00 0. -1.
<mgrwt>
<rscale>  0 0.13183226E+03</rscale>
<asrwt>0</asrwt>
<pdfrwt beam="2">  1        2 0.10513038E-01 0.14012516E+03</pdfrwt>
<pdfrwt beam="1">  1       -2 0.39683394E-01 0.14012516E+03</pdfrwt>
<totfact> 0.34934889E+03</totfact>
</mgrwt>
</event>
<event>
 7    1  0.5400401E-006  0.1270072E+03  0.7546771E-02  0.1247402E+00
         -1   -1    0    0    0  501 -0.00000000000E+00  0.00000000000E+00  0.56005177139E+02  0.56005177139E+02  0.00000000000E+00 0.  1.
          1   -1    0    0  501    0  0.00000000000E+00 -0.00000000000E+00 -0.23079038177E+03  0.23079038177E+03  0.00000000000E+00 0. -1.
         23    2    1    2    0    0 -0.19745595333E+02 -0.10764149257E+02 -0.63840937198E+02  0.14214958555E+03  0.12500033586E+03 0.  0.
          5    1    3    3  502    0 -0.92013393140E+01  0.17879737858E+02  0.33873058978E+02  0.39671448115E+02  0.47000000000E+01 0. -1.
         -5    1    3    3    0  502 -0.10544256019E+02 -0.28643887115E+02 -0.97713996176E+02  0.10247813744E+03  0.47000000000E+01 0. -1.
        -11    1    1    2    0    0 -0.22462588126E+02  0.10016459750E+02 -0.97179910048E+02  0.10024386389E+03  0.00000000000E+00 0. -1.
         11    1    1    2    0    0  0.42208183459E+02  0.74768950734E+00 -0.13764357384E+02  0.44402109462E+02  0.00000000000E+00 0.  1.
<mgrwt>
<rscale>  0 0.11742779E+03</rscale>
<asrwt>0</asrwt>
<pdfrwt beam="2">  1        1 0.35506213E-01 0.12700724E+03</pdfrwt>
<pdfrwt beam="1">  1       -1 0.86161810E-02 0.12700724E+03</pdfrwt>
<totfact> 0.88342862E+03</totfact>
</mgrwt>
</event>
<event>
 7    1  0.5400401E-006  0.1642554E+03  0.7546771E-02  0.1191351E+00
         -4   -1    0    0    0  501 -0.00000000000E+00  0.00000000000E+00  0.58366233303E+02  0.58366233303E+02  0.00000000000E+00 0.  1.
          4   -1    0    0  501    0  0.00000000000E+00 -0.00000000000E+00 -0.39515426007E+03  0.39515426007E+03  0.00000000000E+00 0. -1.
         23    2    1    2    0    0  0.38959671278E+02  0.99198275747E+02 -0.18462669528E+03  0.24711709313E+03  0.12498674814E+03 0.  0.
          5    1    3    3  502    0  0.83900954463E+02  0.51564082156E+02 -0.10971420236E+03  0.14750430817E+03  0.47000000000E+01 0. -1.
         -5    1    3    3    0  502 -0.44941283185E+02  0.47634193591E+02 -0.74912492917E+02  0.99612784965E+02  0.47000000000E+01 0. -1.
        -11    1    1    2    0    0 -0.59304511216E+02 -0.28994091723E+02 -0.64875668052E+02  0.92555576334E+02  0.00000000000E+00 0.  1.
         11    1    1    2    0    0  0.20344839938E+02 -0.70204184024E+02 -0.87285663439E+02  0.11384782391E+03  0.00000000000E+00 0. -1.
<mgrwt>
<rscale>  0 0.15767134E+03</rscale>
<asrwt>0</asrwt>
<pdfrwt beam="2">  1        4 0.60792964E-01 0.16425541E+03</pdfrwt>
<pdfrwt beam="1">  1       -4 0.89794204E-02 0.16425541E+03</pdfrwt>
<totfact> 0.40430351E+02</totfact>
</mgrwt>
</event>
<event>
 7    1  0.5400401E-006  0.1496143E+03  0.7546771E-02  0.1210695E+00
         -2   -1    0    0    0  501 -0.00000000000E+00  0.00000000000E+00  0.31981572577E+02  0.31981572577E+02  0.00000000000E+00 0.  1.
          2   -1    0    0  501    0  0.00000000000E+00 -0.00000000000E+00 -0.63004170811E+03  0.63004170811E+03  0.00000000000E+00 0. -1.
         23    2    1    2    0    0 -0.74939172413E+02 -0.33825746334E+02 -0.22907731872E+03  0.27360714288E+03  0.12499756001E+03 0.  0.
          5    1    3    3  502    0 -0.48660400167E+02 -0.81443864539E+02 -0.14265217544E+03  0.17138456982E+03  0.47000000000E+01 0. -1.
         -5    1    3    3    0  502 -0.26278772245E+02  0.47618118205E+02 -0.86425143277E+02  0.10222257306E+03  0.47000000000E+01 0. -1.
        -11    1    1    2    0    0  0.14480891575E+02 -0.28694997096E+02 -0.69731211684E+02  0.76782426128E+02  0.00000000000E+00 0.  1.
         11    1    1    2    0    0  0.60458280837E+02  0.62520743430E+02 -0.29925160513E+03  0.31163371168E+03  0.00000000000E+00 0. -1.
<mgrwt>
<rscale>  0 0.14197566E+03</rscale>
<asrwt>0</asrwt>
<pdfrwt beam="2">  1        2 0.96929480E-01 0.14961434E+03</pdfrwt>
<pdfrwt beam="1">  1       -2 0.49202426E-02 0.14961434E+03</pdfrwt>
<totfact> 0.92043389E+03</totfact>
</mgrwt>
</event>
<event>
 7    1  0.5400401E-006  0.1582651E+03  0.7546771E-02  0.1198658E+00
         -2   -1    0    0    0  501 -0.00000000000E+00  0.00000000000E+00  0.83735368333E+02  0.83735368333E+02  0.00000000000E+00 0.  1.
          2   -1    0    0  501    0  0.00000000000E+00 -0.00000000000E+00 -0.32067917329E+03  0.32067917329E+03  0.00000000000E+00 0. -1.
         23    2    1    2    0    0 -0.82305744725E+02 -0.51474343599E+02 -0.34027786927E+02  0.16188185101E+03  0.12499599890E+03 0.  0.
          5    1    3    3  502    0 -0.72851258139E+02 -0.10716113646E+02 -0.73516276109E+02  0.10415792700E+03  0.47000000000E+01 0. -1.
         -5    1    3    3    0  502 -0.94544865856E+01 -0.40758229953E+02  0.39488489182E+02  0.57723924013E+02  0.47000000000E+01 0. -1.
        -11    1    1    2    0    0  0.87751467444E+02  0.13093011073E+02 -0.16965387118E+03  0.19145282182E+03  0.00000000000E+00 0. -1.
         11    1    1    2    0    0 -0.54457227192E+01  0.38381332526E+02 -0.33262146858E+02  0.51079868794E+02  0.00000000000E+00 0.  1.
<mgrwt>
<rscale>  0 0.15148629E+03</rscale>
<asrwt>0</asrwt>
<pdfrwt beam="2">  1        2 0.49335258E-01 0.15826510E+03</pdfrwt>
<pdfrwt beam="1">  1       -2 0.12882364E-01 0.15826510E+03</pdfrwt>
<totfact> 0.43421218E+03</totfact>
</mgrwt>
</event>
<event>
 7    1  0.6067181E-006  0.2234100E+03  0.7546771E-02  0.1134642E+00
         -1   -1    0    0    0  501 -0.00000000000E+00  0.00000000000E+00  0.44652570783E+02  0.44652570783E+02  0.00000000000E+00 0.  1.
          1   -1    0    0  501    0  0.00000000000E+00 -0.00000000000E+00 -0.10358415604E+04  0.10358415604E+04  0.00000000000E+00 0. -1.
         23    2    1    2    0    0 -0.13697510235E+03 -0.12460127122E+03 -0.54115373663E+03  0.58545655775E+03  0.12499743556E+03 0.  0.
          5    1    3    3  502    0 -0.93141217875E+02 -0.96445860480E+02 -0.50333527041E+03  0.52090841317E+03  0.47000000000E+01 0. -1.
         -5    1    3    3    0  502 -0.43833884475E+02 -0.28155410742E+02 -0.37818466215E+02  0.64548144583E+02  0.47000000000E+01 0. -1.
        -11    1    1    2    0    0  0.44863813719E+02  0.81549656479E+02 -0.29750888438E+03  0.31172847887E+03  0.00000000000E+00 0.  1.
         11    1    1    2    0    0  0.92111288631E+02  0.43051614743E+02 -0.15252636858E+03  0.18330909453E+03  0.00000000000E+00 0. -1.
<mgrwt>
<rscale>  0 0.21898503E+03</rscale>
<asrwt>0</asrwt>
<pdfrwt beam="2">  1        1 0.15936024E+00 0.22340997E+03</pdfrwt>
<pdfrwt beam="1">  1       -1 0.68696264E-02 0.22340997E+03</pdfrwt>
<totfact> 0.16341917E+03</totfact>
</mgrwt>
</event>
<event>
 7    1  0.5400401E-006  0.1524360E+03  0.7546771E-02  0.1206164E+00
          4   -1    0    0  501    0  0.00000000000E+00  0.00000000000E+00  0.15380346623E+03  0.15380346623E+03  0.00000000000E+00 0. -1.
         -4   -1    0    0    0  501 -0.00000000000E+00 -0.00000000000E+00 -0.18328049190E+03  0.18328049190E+03  0.00000000000E+00 0.  1.
         23    2    1    2    0    0 -0.28440740070E+02  0.82511742929E+02 -0.10931954841E+03  0.18758331188E+03  0.12497868544E+03 0.  0.
          5    1    3    3  502    0  0.28673229788E+02  0.52348525236E+01 -0.82625089274E+02  0.87741399379E+02  0.47000000000E+01 0. -1.
         -5    1    3    3    0  502 -0.57113969859E+02  0.77276890405E+02 -0.26694459134E+02  0.99841912503E+02  0.47000000000E+01 0. -1.
        -11    1    1    2    0    0  0.13754590188E+02 -0.94510756251E+02  0.36594472881E+02  0.10227720784E+03  0.00000000000E+00 0.  1.
         11    1    1    2    0    0  0.14686149882E+02  0.11999013322E+02  0.43248049858E+02  0.47223438414E+02  0.00000000000E+00 0. -1.
<mgrwt>
<rscale>  0 0.14546143E+03</rscale>
<asrwt>0</asrwt>
<pdfrwt beam="1">  1        4 0.23662072E-01 0.15243600E+03</pdfrwt>
<pdfrwt beam="2">  1       -4 0.28196999E-01 0.15243600E+03</pdfrwt>
<totfact> 0.33703025E+02</totfact>
</mgrwt>
</event>
<event>
 7    1  0.5400401E-006  0.1305505E+03  0.7546771E-02  0.1239473E+00
          3   -1    0    0  501    0  0.00000000000E+00  0.00000000000E+00  0.19706184332E+03  0.19706184332E+03  0.00000000000E+00 0. -1.
         -3   -1    0    0    0  501 -0.00000000000E+00 -0.00000000000E+00 -0.10170404401E+03  0.10170404401E+03  0.00000000000E+00 0.  1.
         23    2    1    2    0    0  0.34051911699E+02 -0.15841320453E+02 -0.34167591794E+02  0.13494758679E+03  0.12503178287E+03 0.  0.
          5    1    3    3  502    0  0.48248003964E+02 -0.31267457293E+02 -0.71503488258E+02  0.91871446081E+02  0.47000000000E+01 0. -1.
         -5    1    3    3    0  502 -0.14196092265E+02  0.15426136840E+02  0.37335896464E+02  0.43076140706E+02  0.47000000000E+01 0. -1.
        -11    1    1    2    0    0  0.11234235747E+02 -0.75091168405E+01 -0.89893095048E+01  0.16229681880E+02  0.00000000000E+00 0.  1.
         11    1    1    2    0    0 -0.45286147446E+02  0.23350437294E+02  0.13851470062E+03  0.14758861866E+03  0.00000000000E+00 0. -1.
<mgrwt>
<rscale>  0 0.12222400E+03</rscale>
<asrwt>0</asrwt>
<pdfrwt beam="1">  1        3 0.30317206E-01 0.13055048E+03</pdfrwt>
<pdfrwt beam="2">  1       -3 0.15646776E-01 0.13055048E+03</pdfrwt>
<totfact> 0.83402219E+02</totfact>
</mgrwt>
</event>
<event>
 7    1  0.5400401E-006  0.1277259E+03  0.7546771E-02  0.1244043E+00
          1   -1    0    0  501    0  0.00000000000E+00  0.00000000000E+00  0.51527553841E+03  0.51527553841E+03  0.00000000000E+00 0. -1.
         -1   -1    0    0    0  501 -0.00000000000E+00 -0.00000000000E+00 -0.24640591478E+02  0.24640591478E+02  0.00000000000E+00 0.  1.
         23    2    1    2    0    0  0.16551549926E+02 -0.20343738742E+02  0.27825740215E+03  0.30617165753E+03  0.12500432199E+03 0.  0.
          5    1    3    3  502    0  0.29864365464E+02  0.22952538067E+02  0.18088904523E+02  0.42047565864E+02  0.47000000000E+01 0.  1.
         -5    1    3    3    0  502 -0.13312815538E+02 -0.43296276809E+02  0.26016849763E+03  0.26412409167E+03  0.47000000000E+01 0.  1.
        -11    1    1    2    0    0 -0.46833091395E+02  0.11116219127E+02  0.18722121986E+03  0.19330983923E+03  0.00000000000E+00 0. -1.
         11    1    1    2    0    0  0.30281541469E+02  0.92275196158E+01  0.25156324917E+02  0.40434633117E+02  0.00000000000E+00 0.  1.
<mgrwt>
<rscale>  0 0.11942869E+03</rscale>
<asrwt>0</asrwt>
<pdfrwt beam="1">  1        1 0.79273151E-01 0.12772589E+03</pdfrwt>
<pdfrwt beam="2">  1       -1 0.37908606E-02 0.12772589E+03</pdfrwt>
<totfact> 0.10941791E+04</totfact>
</mgrwt>
</event>
<event>
 7    1  0.5400401E-006  0.1142584E+03  0.7546771E-02  0.1304509E+00
         -2   -1    0    0    0  501 -0.00000000000E+00  0.00000000000E+00  0.33438678831E+03  0.33438678831E+03  0.00000000000E+00 0.  1.
          2   -1    0    0  501    0  0.00000000000E+00 -0.00000000000E+00 -0.19809468500E+02  0.19809468500E+02  0.00000000000E+00 0. -1.
         23    2    1    2    0    0 -0.84999232987E+01 -0.16693216402E+02  0.26623055649E+03  0.28971312837E+03  0.11271235679E+03 0.  0.
          5    1    3    3  502    0 -0.26785410412E+02  0.26426096079E+02  0.28680492998E+02  0.47544268251E+02  0.47000000000E+01 0. -1.
         -5    1    3    3    0  502  0.18285487113E+02 -0.43119312482E+02  0.23755006349E+03  0.24216886012E+03  0.47000000000E+01 0.  1.
        -11    1    1    2    0    0  0.11006256520E+02 -0.10186172671E+02  0.11994537177E+02  0.19203247599E+02  0.00000000000E+00 0. -1.
         11    1    1    2    0    0 -0.25063332208E+01  0.26879389073E+02  0.36352226140E+02  0.45279880835E+02  0.00000000000E+00 0.  1.
<mgrwt>
<rscale>  0 0.89319217E+02</rscale>
<asrwt>0</asrwt>
<pdfrwt beam="2">  1        2 0.30476108E-02 0.11425842E+03</pdfrwt>
<pdfrwt beam="1">  1       -2 0.51444117E-01 0.11425842E+03</pdfrwt>
<totfact> 0.10227532E+04</totfact>
</mgrwt>
</event>
<event>
 7    1  0.5400401E-006  0.1470086E+03  0.7546771E-02  0.1213820E+00
          2   -1    0    0  501    0  0.00000000000E+00  0.00000000000E+00  0.41695640604E+02  0.41695640604E+02  0.00000000000E+00 0. -1.
         -2   -1    0    0    0  501 -0.00000000000E+00 -0.00000000000E+00 -0.42672041316E+03  0.42672041316E+03  0.00000000000E+00 0.  1.
         23    2    1    2    0    0 -0.47087196057E+02  0.61114551549E+02 -0.21879475277E+03  0.26359568092E+03  0.12513731143E+03 0.  0.
          5    1    3    3  502    0 -0.17526582146E+01 -0.26350161506E+02 -0.12375565125E+03  0.12662919899E+03  0.47000000000E+01 0. -1.
         -5    1    3    3    0  502 -0.45334537842E+02  0.87464713055E+02 -0.95039101527E+02  0.13696648192E+03  0.47000000000E+01 0. -1.
        -11    1    1    2    0    0  0.26589197901E+01 -0.63669924011E+02 -0.13831210076E+03  0.15228646130E+03  0.00000000000E+00 0.  1.
         11    1    1    2    0    0  0.44428276267E+02  0.25553724613E+01 -0.27917919026E+02  0.52533911554E+02  0.00000000000E+00 0. -1.
<mgrwt>
<rscale>  0 0.13963558E+03</rscale>
<asrwt>0</asrwt>
<pdfrwt beam="1">  1        2 0.64147140E-02 0.14700864E+03</pdfrwt>
<pdfrwt beam="2">  1       -2 0.65649294E-01 0.14700864E+03</pdfrwt>
<totfact> 0.23900658E+03</totfact>
</mgrwt>
</event>
<event>
 7    1  0.5400401E-006  0.2581932E+03  0.7546771E-02  0.1110556E+00
          3   -1    0    0  501    0  0.00000000000E+00  0.00000000000E+00  0.15081036848E+03  0.15081036848E+03  0.00000000000E+00 0. -1.
         -3   -1    0    0    0  501 -0.00000000000E+00 -0.00000000000E+00 -0.42523893454E+03  0.42523893454E+03  0.00000000000E+00 0.  1.
         23    2    1    2    0    0  0.17013500403E+03 -0.14868498562E+03 -0.18132066514E+03  0.31550102956E+03  0.12494227269E+03 0.  0.
          5    1    3    3  502    0  0.10883655990E+03 -0.56901556442E+02 -0.27199278451E+02  0.12587722051E+03  0.47000000000E+01 0. -1.
         -5    1    3    3    0  502  0.61298444130E+02 -0.91783429181E+02 -0.15412138668E+03  0.18962380905E+03  0.47000000000E+01 0. -1.
        -11    1    1    2    0    0 -0.66580400351E+02  0.11388021034E+03 -0.33522277306E+02  0.13610802729E+03  0.00000000000E+00 0. -1.
         11    1    1    2    0    0 -0.10355460368E+03  0.34804775287E+02 -0.59585623622E+02  0.12444024617E+03  0.00000000000E+00 0.  1.
<mgrwt>
<rscale>  0 0.25439803E+03</rscale>
<asrwt>0</asrwt>
<pdfrwt beam="1">  1        3 0.23201595E-01 0.25819318E+03</pdfrwt>
<pdfrwt beam="2">  1       -3 0.65421376E-01 0.25819318E+03</pdfrwt>
<totfact> 0.98567196E+01</totfact>
</mgrwt>
</event>
<event>
 7    1  0.5400401E-006  0.2558101E+03  0.7546771E-02  0.1111557E+00
          1   -1    0    0  501    0  0.00000000000E+00  0.00000000000E+00  0.16426969914E+04  0.16426969914E+04  0.00000000000E+00 0. -1.
         -1   -1    0    0    0  501 -0.00000000000E+00 -0.00000000000E+00 -0.47395525352E+02  0.47395525352E+02  0.00000000000E+00 0.  1.
         23    2    1    2    0    0 -0.15202487745E+03  0.16340822006E+03  0.43684116338E+03  0.50623019170E+03  0.12499998090E+03 0.  0.
          5    1    3    3  502    0 -0.94454291556E+02  0.35973152255E+02  0.10362183477E+03  0.14482836572E+03  0.47000000000E+01 0.  1.
         -5    1    3    3    0  502 -0.57570585898E+02  0.12743506780E+03  0.33321932861E+03  0.36140182599E+03  0.47000000000E+01 0.  1.
        -11    1    1    2    0    0  0.11105213569E+03 -0.47672879651E+02  0.60399298291E+03  0.61596493707E+03  0.00000000000E+00 0.  1.
         11    1    1    2    0    0  0.40972741761E+02 -0.11573534041E+03  0.55446731981E+03  0.56789738802E+03  0.00000000000E+00 0. -1.
<mgrwt>
<rscale>  0 0.25278578E+03</rscale>
<asrwt>0</asrwt>
<pdfrwt beam="1">  1        1 0.25272257E+00 0.25581010E+03</pdfrwt>
<pdfrwt beam="2">  1       -1 0.72916206E-02 0.25581010E+03</pdfrwt>
<totfact> 0.57371653E+02</totfact>
</mgrwt>
</event>
<event>
 7    1  0.5400401E-006  0.1415411E+03  0.7546771E-02  0.1222123E+00
          2   -1    0    0  501    0  0.00000000000E+00  0.00000000000E+00  0.42962516727E+03  0.42962516727E+03  0.00000000000E+00 0. -1.
         -2   -1    0    0    0  501 -0.00000000000E+00 -0.00000000000E+00 -0.38268508562E+02  0.38268508562E+02  0.00000000000E+00 0.  1.
         23    2    1    2    0    0  0.41628689814E+02 -0.51712544308E+02  0.18619861712E+03  0.23388842604E+03  0.12500694285E+03 0.  0.
          5    1    3    3  502    0  0.21984496760E+02  0.38768714396E+02  0.36459409729E+02  0.57772916419E+02  0.47000000000E+01 0.  1.
         -5    1    3    3    0  502  0.19644193054E+02 -0.90481258704E+02  0.14973920739E+03  0.17611550962E+03  0.47000000000E+01 0.  1.
        -11    1    1    2    0    0 -0.66392664564E+02  0.26342759338E+02  0.98954525729E+02  0.12204066961E+03  0.00000000000E+00 0.  1.
         11    1    1    2    0    0  0.24763974750E+02  0.25369784971E+02  0.10620351585E+03  0.11196458018E+03  0.00000000000E+00 0. -1.
<mgrwt>
<rscale>  0 0.13366049E+03</rscale>
<asrwt>0</asrwt>
<pdfrwt beam="1">  1        2 0.66096176E-01 0.14154106E+03</pdfrwt>
<pdfrwt beam="2">  1       -2 0.58874632E-02 0.14154106E+03</pdfrwt>
<totfact> 0.10701988E+04</totfact>
</mgrwt>
</event>
<event>
 7    1  0.5400401E-006  0.1496868E+03  0.7546771E-02  0.1210273E+00
         -1   -1    0    0    0  501 -0.00000000000E+00  0.00000000000E+00  0.79077438122E+02  0.79077438122E+02  0.00000000000E+00 0.  1.
          1   -1    0    0  501    0  0.00000000000E+00 -0.00000000000E+00 -0.33601387252E+03  0.33601387252E+03  0.00000000000E+00 0. -1.
         23    2    1    2    0    0 -0.72980382446E+02 -0.39829556165E+02 -0.23410278902E+02  0.15150637954E+03  0.12447333898E+03 0.  0.
          5    1    3    3  502    0 -0.79314805253E+02 -0.29807959019E+02 -0.65708826172E+02  0.10732703569E+03  0.47000000000E+01 0. -1.
         -5    1    3    3    0  502  0.63344228064E+01 -0.10021597146E+02  0.42298547270E+02  0.44179343848E+02  0.47000000000E+01 0. -1.
        -11    1    1    2    0    0  0.39355264924E+02 -0.24803530489E+02 -0.11988926127E+03  0.12859816084E+03  0.00000000000E+00 0. -1.
         11    1    1    2    0    0  0.33625117522E+02  0.64633086654E+02 -0.11363689423E+03  0.13498677027E+03  0.00000000000E+00 0.  1.
<mgrwt>
<rscale>  0 0.14229536E+03</rscale>
<asrwt>0</asrwt>
<pdfrwt beam="2">  1        1 0.51694443E-01 0.14968681E+03</pdfrwt>
<pdfrwt beam="1">  1       -1 0.12165759E-01 0.14968681E+03</pdfrwt>
<totfact> 0.33059636E+03</totfact>
</mgrwt>
</event>
<event>
 7    1  0.5400401E-006  0.1555470E+03  0.7546771E-02  0.1201922E+00
          4   -1    0    0  501    0  0.00000000000E+00  0.00000000000E+00  0.17868915603E+03  0.17868915603E+03  0.00000000000E+00 0. -1.
         -4   -1    0    0    0  501 -0.00000000000E+00 -0.00000000000E+00 -0.12913014511E+03  0.12913014511E+03  0.00000000000E+00 0.  1.
         23    2    1    2    0    0  0.58400766223E+02  0.71818515984E+02 -0.25154848688E+02  0.15756785403E+03  0.12500525380E+03 0.  0.
          5    1    3    3  502    0  0.94912321468E+02  0.31985005408E+02 -0.24965179323E+02  0.10332830936E+03  0.47000000000E+01 0.  1.
         -5    1    3    3    0  502 -0.36511555245E+02  0.39833510576E+02 -0.18966936527E+00  0.54239544667E+02  0.47000000000E+01 0.  1.
        -11    1    1    2    0    0  0.70846363608E+01 -0.44771362857E+02 -0.25753234849E+01  0.45401534065E+02  0.00000000000E+00 0.  1.
         11    1    1    2    0    0 -0.65485402584E+02 -0.27047153127E+02  0.77289183090E+02  0.10484991305E+03  0.00000000000E+00 0. -1.
<mgrwt>
<rscale>  0 0.14882676E+03</rscale>
<asrwt>0</asrwt>
<pdfrwt beam="1">  1        4 0.27490640E-01 0.15554698E+03</pdfrwt>
<pdfrwt beam="2">  1       -4 0.19866176E-01 0.15554698E+03</pdfrwt>
<totfact> 0.48774237E+02</totfact>
</mgrwt>
</event>
<event>
 7    1  0.5400401E-006  0.1309927E+03  0.7546771E-02  0.1242554E+00
         -2   -1    0    0    0  501 -0.00000000000E+00  0.00000000000E+00  0.26691278305E+03  0.26691278305E+03  0.00000000000E+00 0.  1.
          2   -1    0    0  501    0  0.00000000000E+00 -0.00000000000E+00 -0.95143356219E+02  0.95143356219E+02  0.00000000000E+00 0. -1.
         23    2    1    2    0    0  0.56385017171E+02 -0.28391152316E+02  0.22076160625E+03  0.25669975516E+03  0.11477695681E+03 0.  0.
          5    1    3    3  502    0  0.44507418720E+02  0.37684008015E+02  0.67586331823E+02  0.89392376803E+02  0.47000000000E+01 0. -1.
         -5    1    3    3    0  502  0.11877598451E+02 -0.66075160331E+02  0.15317527443E+03  0.16730737836E+03  0.47000000000E+01 0.  1.
        -11    1    1    2    0    0 -0.52966297867E+02 -0.80238731203E+01 -0.15511480900E+02  0.55771115188E+02  0.00000000000E+00 0. -1.
         11    1    1    2    0    0 -0.34187193034E+01  0.36415025436E+02 -0.33480698526E+02  0.49585268911E+02  0.00000000000E+00 0.  1.
<mgrwt>
<rscale>  0 0.12032988E+03</rscale>
<asrwt>0</asrwt>
<pdfrwt beam="2">  1        2 0.14637440E-01 0.13099266E+03</pdfrwt>
<pdfrwt beam="1">  1       -2 0.41063505E-01 0.13099266E+03</pdfrwt>
<totfact> 0.21948835E+03</totfact>
</mgrwt>
</event>
<event>
 7    1  0.5400401E-006  0.1363614E+03  0.7546771E-02  0.1232808E+00
          1   -1    0    0  501    0  0.00000000000E+00  0.00000000000E+00  0.33272113621E+02  0.33272113621E+02  0.00000000000E+00 0. -1.
         -1   -1    0    0    0  501 -0.00000000000E+00 -0.00000000000E+00 -0.44181187499E+03  0.44181187499E+03  0.00000000000E+00 0.  1.
         23    2    1    2    0    0 -0.52283009595E+02 -0.15309493977E+02 -0.28224142293E+03  0.31345599904E+03  0.12500619513E+03 0.  0.
          5    1    3    3  502    0 -0.32834003604E+02 -0.66545126078E+02 -0.20919910304E+03  0.22201954939E+03  0.47000000000E+01 0.  1.
         -5    1    3    3    0  502 -0.19449005991E+02  0.51235632100E+02 -0.73042319888E+02  0.91436449654E+02  0.47000000000E+01 0.  1.
        -11    1    1    2    0    0  0.20739073366E+02  0.10464642399E+02  0.72379037871E+01  0.24331156073E+02  0.00000000000E+00 0. -1.
         11    1    1    2    0    0  0.31543936229E+02  0.48448515781E+01 -0.13353624222E+03  0.13729683349E+03  0.00000000000E+00 0.  1.
<mgrwt>
<rscale>  0 0.12645799E+03</rscale>
<asrwt>0</asrwt>
<pdfrwt beam="1">  1        1 0.51187868E-02 0.13636144E+03</pdfrwt>
<pdfrwt beam="2">  1       -1 0.67971057E-01 0.13636144E+03</pdfrwt>
<totfact> 0.35213644E+03</totfact>
</mgrwt>
</event>
<event>
 7    1  0.5400401E-006  0.1540916E+03  0.7546771E-02  0.1203703E+00
         -1   -1    0    0    0  501 -0.00000000000E+00  0.00000000000E+00  0.71723009880E+02  0.71723009880E+02  0.00000000000E+00 0.  1.
          1   -1    0    0  501    0  0.00000000000E+00 -0.00000000000E+00 -0.28596476160E+03  0.28596476160E+03  0.00000000000E+00 0. -1.
         23    2    1    2    0    0  0.89658328529E+02  0.89899932108E+01 -0.89373148880E+02  0.17813415082E+03  0.12499912038E+03 0.  0.
          5    1    3    3  502    0  0.65964613093E+02 -0.16668727536E+02 -0.11559123892E+03  0.13421103223E+03  0.47000000000E+01 0. -1.
         -5    1    3    3    0  502  0.23693715435E+02  0.25658720747E+02  0.26218090037E+02  0.43923118590E+02  0.47000000000E+01 0. -1.
        -11    1    1    2    0    0 -0.15974541014E+02 -0.31935030149E+02 -0.86055017758E+02  0.93169191220E+02  0.00000000000E+00 0. -1.
         11    1    1    2    0    0 -0.73683787514E+02  0.22945036938E+02 -0.38813585081E+02  0.86384429438E+02  0.00000000000E+00 0.  1.
<mgrwt>
<rscale>  0 0.14740163E+03</rscale>
<asrwt>0</asrwt>
<pdfrwt beam="2">  1        1 0.43994579E-01 0.15409158E+03</pdfrwt>
<pdfrwt beam="1">  1       -1 0.11034309E-01 0.15409158E+03</pdfrwt>
<totfact> 0.47044587E+03</totfact>
</mgrwt>
</event>
<event>
 7    1  0.5400401E-006  0.1280368E+03  0.7546771E-02  0.1250992E+00
          2   -1    0    0  501    0  0.00000000000E+00  0.00000000000E+00  0.14523825838E+02  0.14523825838E+02  0.00000000000E+00 0. -1.
         -2   -1    0    0    0  501 -0.00000000000E+00 -0.00000000000E+00 -0.77933805962E+03  0.77933805962E+03  0.00000000000E+00 0.  1.
         23    2    1    2    0    0 -0.85134925622E+00 -0.27694764981E+02 -0.48561366465E+03  0.50220917001E+03  0.12500277735E+03 0.  0.
          5    1    3    3  502    0  0.31734483713E+02 -0.64725941945E+02 -0.20748787240E+03  0.21970396494E+03  0.47000000000E+01 0. -1.
         -5    1    3    3    0  502 -0.32585832969E+02  0.37031176964E+02 -0.27812579225E+03  0.28250520507E+03  0.47000000000E+01 0. -1.
        -11    1    1    2    0    0 -0.34596714136E+02  0.29770051402E+02 -0.11648473099E+03  0.12510747837E+03  0.00000000000E+00 0. -1.
         11    1    1    2    0    0  0.35448063392E+02 -0.20752864208E+01 -0.16271583814E+03  0.16654523708E+03  0.00000000000E+00 0.  1.
<mgrwt>
<rscale>  0 0.11533793E+03</rscale>
<asrwt>0</asrwt>
<pdfrwt beam="1">  1        2 0.22344352E-02 0.12803679E+03</pdfrwt>
<pdfrwt beam="2">  1       -2 0.11989814E+00 0.12803679E+03</pdfrwt>
<totfact> 0.24838820E+03</totfact>
</mgrwt>
</event>
<event>
 7    1  0.5400401E-006  0.2371622E+03  0.7546771E-02  0.1127289E+00
          1   -1    0    0  501    0  0.00000000000E+00  0.00000000000E+00  0.68590209942E+03  0.68590209942E+03  0.00000000000E+00 0. -1.
         -1   -1    0    0    0  501 -0.00000000000E+00 -0.00000000000E+00 -0.71988948583E+02  0.71988948583E+02  0.00000000000E+00 0.  1.
         23    2    1    2    0    0  0.48180502886E+01 -0.20148421577E+03  0.30531049099E+03  0.38660108474E+03  0.12500719977E+03 0.  0.
          5    1    3    3  502    0 -0.37727667979E+02 -0.14599666032E+02  0.86958775166E+02  0.96023152196E+02  0.47000000000E+01 0.  1.
         -5    1    3    3    0  502  0.42545718268E+02 -0.18688454974E+03  0.21835171583E+03  0.29057793254E+03  0.47000000000E+01 0.  1.
        -11    1    1    2    0    0 -0.24279964970E+02  0.12575364672E+03  0.19907803697E+03  0.23671831607E+03  0.00000000000E+00 0. -1.
         11    1    1    2    0    0  0.19461914682E+02  0.75730569055E+02  0.10952462287E+03  0.13457164719E+03  0.00000000000E+00 0.  1.
<mgrwt>
<rscale>  0 0.22907968E+03</rscale>
<asrwt>0</asrwt>
<pdfrwt beam="1">  1        1 0.10552340E+00 0.23716219E+03</pdfrwt>
<pdfrwt beam="2">  1       -1 0.11075223E-01 0.23716219E+03</pdfrwt>
<totfact> 0.15074730E+03</totfact>
</mgrwt>
</event>
<event>
 7    1  0.5400401E-006  0.1833304E+03  0.7546771E-02  0.1170212E+00
          1   -1    0    0  501    0  0.00000000000E+00  0.00000000000E+00  0.40679538538E+03  0.40679538538E+03  0.00000000000E+00 0.  1.
         -1   -1    0    0    0  501 -0.00000000000E+00 -0.00000000000E+00 -0.74026617460E+02  0.74026617460E+02  0.00000000000E+00 0. -1.
         23    2    1    2    0    0 -0.91748412610E+02 -0.97814812960E+02  0.14806724408E+03  0.23565644864E+03  0.12499817664E+03 0.  0.
          5    1    3    3  502    0 -0.74544961021E+02  0.56325120937E+01  0.84569686961E+02  0.11297255578E+03  0.47000000000E+01 0.  1.
         -5    1    3    3    0  502 -0.17203451590E+02 -0.10344732505E+03  0.63497557123E+02  0.12268389286E+03  0.47000000000E+01 0.  1.
        -11    1    1    2    0    0  0.23358147890E+02  0.73900329490E+02  0.50049839313E+02  0.92259678011E+02  0.00000000000E+00 0.  1.
         11    1    1    2    0    0  0.68390264720E+02  0.23914483470E+02  0.13465168453E+03  0.15290587619E+03  0.00000000000E+00 0. -1.
<mgrwt>
<rscale>  0 0.17753331E+03</rscale>
<asrwt>0</asrwt>
<pdfrwt beam="1">  1        1 0.62583904E-01 0.18333045E+03</pdfrwt>
<pdfrwt beam="2">  1       -1 0.11388711E-01 0.18333045E+03</pdfrwt>
<totfact> 0.29005975E+03</totfact>
</mgrwt>
</event>
<event>
 7    1  0.5400401E-006  0.1364750E+03  0.7546771E-02  0.1234016E+00
         -2   -1    0    0    0  501 -0.00000000000E+00  0.00000000000E+00  0.34050718272E+03  0.34050718272E+03  0.00000000000E+00 0.  1.
          2   -1    0    0  501    0  0.00000000000E+00 -0.00000000000E+00 -0.44044428043E+02  0.44044428043E+02  0.00000000000E+00 0. -1.
         23    2    1    2    0    0 -0.34649318404E+02 -0.42398890774E+02  0.22497409906E+03  0.26313262213E+03  0.12500876119E+03 0.  0.
          5    1    3    3  502    0  0.29917674392E+01 -0.75949521956E+02  0.84215468104E+02  0.11354125077E+03  0.47000000000E+01 0. -1.
         -5    1    3    3    0  502 -0.37641085843E+02  0.33550631182E+02  0.14075863096E+03  0.14959137136E+03  0.47000000000E+01 0. -1.
        -11    1    1    2    0    0  0.44884975102E+02  0.12222587557E+02  0.76129868972E+02  0.89217764969E+02  0.00000000000E+00 0.  1.
         11    1    1    2    0    0 -0.10235656698E+02  0.30176303217E+02 -0.46412133620E+01  0.32201223662E+02  0.00000000000E+00 0. -1.
<mgrwt>
<rscale>  0 0.12567651E+03</rscale>
<asrwt>0</asrwt>
<pdfrwt beam="2">  1        2 0.67760661E-02 0.13647502E+03</pdfrwt>
<pdfrwt beam="1">  1       -2 0.52385719E-01 0.13647502E+03</pdfrwt>
<totfact> 0.35195104E+03</totfact>
</mgrwt>
</event>
<event>
 7    1  0.5400401E-006  0.1362211E+03  0.7546771E-02  0.1230167E+00
         -1   -1    0    0    0  501 -0.00000000000E+00  0.00000000000E+00  0.91522410096E+02  0.91522410096E+02  0.00000000000E+00 0.  1.
          1   -1    0    0  501    0  0.00000000000E+00 -0.00000000000E+00 -0.21353592596E+03  0.21353592596E+03  0.00000000000E+00 0. -1.
         23    2    1    2    0    0  0.29920686627E+02  0.45116457804E+02  0.83973390673E+01  0.13647966481E+03  0.12500176539E+03 0.  0.
          5    1    3    3  502    0 -0.47796950801E+01 -0.36528187126E+02  0.26746776784E+02  0.45767171729E+02  0.47000000000E+01 0. -1.
         -5    1    3    3    0  502  0.34700381707E+02  0.81644644930E+02 -0.18349437717E+02  0.90712493080E+02  0.47000000000E+01 0. -1.
        -11    1    1    2    0    0  0.14017191576E+02 -0.10916978339E+02 -0.10651841262E+03  0.10798997316E+03  0.00000000000E+00 0. -1.
         11    1    1    2    0    0 -0.43937878203E+02 -0.34199479465E+02 -0.23892442314E+02  0.60588698091E+02  0.00000000000E+00 0.  1.
<mgrwt>
<rscale>  0 0.12818949E+03</rscale>
<asrwt>0</asrwt>
<pdfrwt beam="2">  1        1 0.32851680E-01 0.13622108E+03</pdfrwt>
<pdfrwt beam="1">  1       -1 0.14080371E-01 0.13622108E+03</pdfrwt>
<totfact> 0.45997146E+03</totfact>
</mgrwt>
</event>
<event>
 7    1  0.5400401E-006  0.1349727E+03  0.7546771E-02  0.1232887E+00
          2   -1    0    0  501    0  0.00000000000E+00  0.00000000000E+00  0.62539955603E+03  0.62539955603E+03  0.00000000000E+00 0. -1.
         -2   -1    0    0    0  501 -0.00000000000E+00 -0.00000000000E+00 -0.23483089487E+02  0.23483089487E+02  0.00000000000E+00 0.  1.
         23    2    1    2    0    0  0.38301264016E+02  0.33559844831E+02  0.28406507351E+03  0.31450055796E+03  0.12499753982E+03 0.  0.
          5    1    3    3  502    0 -0.22138812047E+02 -0.36110768860E+02  0.88769716746E+02  0.98469625965E+02  0.47000000000E+01 0.  1.
         -5    1    3    3    0  502  0.60440076063E+02  0.69670613691E+02  0.19529535676E+03  0.21603093200E+03  0.47000000000E+01 0.  1.
        -11    1    1    2    0    0  0.27599167702E+01  0.17326748525E+02  0.11150662917E+02  0.20788714211E+02  0.00000000000E+00 0.  1.
         11    1    1    2    0    0 -0.41061180786E+02 -0.50886593356E+02  0.30670073011E+03  0.31359337334E+03  0.00000000000E+00 0. -1.
<mgrwt>
<rscale>  0 0.12640704E+03</rscale>
<asrwt>0</asrwt>
<pdfrwt beam="1">  1        2 0.96215304E-01 0.13497272E+03</pdfrwt>
<pdfrwt beam="2">  1       -2 0.36127835E-02 0.13497272E+03</pdfrwt>
<totfact> 0.14612902E+04</totfact>
</mgrwt>
</event>
<event>
 7    1  0.5400401E-006  0.1332625E+03  0.7546771E-02  0.1236590E+00
          3   -1    0    0  501    0  0.00000000000E+00  0.00000000000E+00  0.71438714315E+02  0.71438714315E+02  0.00000000000E+00 0. -1.
         -3   -1    0    0    0  501 -0.00000000000E+00 -0.00000000000E+00 -0.20727678998E+03  0.20727678998E+03  0.00000000000E+00 0.  1.
         23    2    1    2    0    0 -0.46183167358E+02  0.35025557841E+00 -0.11618788747E+03  0.17680080038E+03  0.12500356073E+03 0.  0.
          5    1    3    3  502    0 -0.38662092834E+02  0.38148701876E+02 -0.12553891621E+03  0.13686559232E+03  0.47000000000E+01 0.  1.
         -5    1    3    3    0  502 -0.75210745247E+01 -0.37798446297E+02  0.93510287422E+01  0.39935208063E+02  0.47000000000E+01 0.  1.
        -11    1    1    2    0    0  0.17477473312E+02 -0.42178291387E+02  0.42164674180E+01  0.45850288278E+02  0.00000000000E+00 0.  1.
         11    1    1    2    0    0  0.28705694046E+02  0.41828035808E+02 -0.23866655610E+02  0.56064415633E+02  0.00000000000E+00 0. -1.
<mgrwt>
<rscale>  0 0.12403196E+03</rscale>
<asrwt>0</asrwt>
<pdfrwt beam="1">  1        3 0.10990571E-01 0.13326251E+03</pdfrwt>
<pdfrwt beam="2">  1       -3 0.31888737E-01 0.13326251E+03</pdfrwt>
<totfact> 0.13831896E+03</totfact>
</mgrwt>
</event>
<event>
 7    1  0.5400401E-006  0.2409858E+03  0.7546771E-02  0.1121648E+00
         -2   -1    0    0    0  501 -0.00000000000E+00  0.00000000000E+00  0.21477178439E+03  0.21477178439E+03  0.00000000000E+00 0. -1.
          2   -1    0    0  501    0  0.00000000000E+00 -0.00000000000E+00 -0.25736715359E+03  0.25736715359E+03  0.00000000000E+00 0.  1.
         23    2    1    2    0    0  0.53434786534E+02 -0.19898145040E+03  0.41850743163E+01  0.24102217317E+03  0.12500111639E+03 0.  0.
          5    1    3    3  502    0 -0.28354971865E+01  0.58863498453E+01 -0.25235772674E+02  0.26488174366E+02  0.47000000000E+01 0. -1.
         -5    1    3    3    0  502  0.56270283720E+02 -0.20486780024E+03  0.29420846990E+02  0.21453399881E+03  0.47000000000E+01 0. -1.
        -11    1    1    2    0    0  0.14354975114E+02  0.49776940585E+02 -0.42779531698E+02  0.67185544999E+02  0.00000000000E+00 0. -1.
         11    1    1    2    0    0 -0.67789761647E+02  0.14920450981E+03 -0.40009118208E+01  0.16393121981E+03  0.00000000000E+00 0.  1.
<mgrwt>
<rscale>  0 0.23723596E+03</rscale>
<asrwt>0</asrwt>
<pdfrwt beam="2">  1        2 0.39594947E-01 0.24098584E+03</pdfrwt>
<pdfrwt beam="1">  1       -2 0.33041813E-01 0.24098584E+03</pdfrwt>
<totfact> 0.11039959E+03</totfact>
</mgrwt>
</event>
<event>
 7    1  0.5400401E-006  0.1372151E+03  0.7546771E-02  0.1229192E+00
         -3   -1    0    0    0  501 -0.00000000000E+00  0.00000000000E+00  0.21990959652E+03  0.21990959652E+03  0.00000000000E+00 0.  1.
          3   -1    0    0  501    0  0.00000000000E+00 -0.00000000000E+00 -0.70668376635E+02  0.70668376635E+02  0.00000000000E+00 0. -1.
         23    2    1    2    0    0 -0.19029180374E+02 -0.53282446598E+02  0.11358325623E+03  0.17812676402E+03  0.12500743636E+03 0.  0.
          5    1    3    3  502    0 -0.50183458334E+02 -0.80406116986E+02  0.87273548192E+02  0.12892744220E+03  0.47000000000E+01 0.  1.
         -5    1    3    3    0  502  0.31154277961E+02  0.27123670388E+02  0.26309708036E+02  0.49199321819E+02  0.47000000000E+01 0.  1.
        -11    1    1    2    0    0  0.11797983804E+02  0.43279868337E+02 -0.24449689148E+02  0.51089399336E+02  0.00000000000E+00 0. -1.
         11    1    1    2    0    0  0.72311965697E+01  0.10002578261E+02  0.60107652804E+02  0.61361809795E+02  0.00000000000E+00 0.  1.
<mgrwt>
<rscale>  0 0.12883670E+03</rscale>
<asrwt>0</asrwt>
<pdfrwt beam="2">  1        3 0.10872058E-01 0.13721512E+03</pdfrwt>
<pdfrwt beam="1">  1       -3 0.33832245E-01 0.13721512E+03</pdfrwt>
<totfact> 0.12666647E+03</totfact>
</mgrwt>
</event>
<event>
 7    1  0.5400401E-006  0.1319492E+03  0.7546771E-02  0.1237606E+00
         -2   -1    0    0    0  501 -0.00000000000E+00  0.00000000000E+00  0.34741890191E+02  0.34741890191E+02  0.00000000000E+00 0. -1.
          2   -1    0    0  501    0  0.00000000000E+00 -0.00000000000E+00 -0.44724685396E+03  0.44724685396E+03  0.00000000000E+00 0.  1.
         23    2    1    2    0    0 -0.24268113955E+02 -0.34569757840E+02 -0.14481660364E+03  0.19591439323E+03  0.12500636492E+03 0.  0.
          5    1    3    3  502    0 -0.69654632382E+01  0.36200446649E+02 -0.10786920415E+03  0.11409138977E+03  0.47000000000E+01 0. -1.
         -5    1    3    3    0  502 -0.17302650717E+02 -0.70770204489E+02 -0.36947399487E+02  0.81823003453E+02  0.47000000000E+01 0. -1.
        -11    1    1    2    0    0  0.39310131964E+02  0.37518452288E+02 -0.26499739469E+03  0.27051162624E+03  0.00000000000E+00 0.  1.
         11    1    1    2    0    0 -0.15042018010E+02 -0.29486944487E+01 -0.26909654403E+01  0.15562724689E+02  0.00000000000E+00 0. -1.
<mgrwt>
<rscale>  0 0.12339044E+03</rscale>
<asrwt>0</asrwt>
<pdfrwt beam="2">  1        2 0.68807208E-01 0.13194924E+03</pdfrwt>
<pdfrwt beam="1">  1       -2 0.53449062E-02 0.13194924E+03</pdfrwt>
<totfact> 0.11799344E+04</totfact>
</mgrwt>
</event>
<event>
 7    1  0.5400401E-006  0.1285143E+03  0.7546771E-02  0.1242844E+00
          2   -1    0    0  501    0  0.00000000000E+00  0.00000000000E+00  0.62145883094E+03  0.62145883094E+03  0.00000000000E+00 0. -1.
         -2   -1    0    0    0  501 -0.00000000000E+00 -0.00000000000E+00 -0.21150375012E+02  0.21150375012E+02  0.00000000000E+00 0.  1.
         23    2    1    2    0    0 -0.29725623660E+02 -0.27499117189E+01  0.38708797964E+03  0.40786396878E+03  0.12499895333E+03 0.  0.
          5    1    3    3  502    0 -0.42606337649E+01 -0.62708267206E+02  0.17948332286E+03  0.19022837055E+03  0.47000000000E+01 0. -1.
         -5    1    3    3    0  502 -0.25464989895E+02  0.59958355487E+02  0.20760465678E+03  0.21763559823E+03  0.47000000000E+01 0. -1.
        -11    1    1    2    0    0  0.34997766829E+02 -0.38925264694E+02  0.85060878348E+02  0.99876788794E+02  0.00000000000E+00 0.  1.
         11    1    1    2    0    0 -0.52721431694E+01  0.41675176413E+02  0.12815959795E+03  0.13486844838E+03  0.00000000000E+00 0. -1.
<mgrwt>
<rscale>  0 0.12015348E+03</rscale>
<asrwt>0</asrwt>
<pdfrwt beam="1">  1        2 0.95609037E-01 0.12851425E+03</pdfrwt>
<pdfrwt beam="2">  1       -2 0.32539043E-02 0.12851425E+03</pdfrwt>
<totfact> 0.17111024E+04</totfact>
</mgrwt>
</event>
<event>
 7    1  0.5400401E-006  0.1383204E+03  0.7546771E-02  0.1227256E+00
          1   -1    0    0  501    0  0.00000000000E+00  0.00000000000E+00  0.35352139267E+03  0.35352139267E+03  0.00000000000E+00 0. -1.
         -1   -1    0    0    0  501 -0.00000000000E+00 -0.00000000000E+00 -0.47985759264E+02  0.47985759264E+02  0.00000000000E+00 0.  1.
         23    2    1    2    0    0  0.48140617093E+02 -0.34494252200E+02  0.10535376829E+03  0.17387334762E+03  0.12500060828E+03 0.  0.
          5    1    3    3  502    0  0.19365317717E+02 -0.20808399501E+02 -0.25890184106E+02  0.38734953893E+02  0.47000000000E+01 0. -1.
         -5    1    3    3    0  502  0.28775299376E+02 -0.13685852700E+02  0.13124395239E+03  0.13513839372E+03  0.47000000000E+01 0. -1.
        -11    1    1    2    0    0  0.18454369734E+02  0.11103220874E+02  0.11504248537E+03  0.11704109841E+03  0.00000000000E+00 0. -1.
         11    1    1    2    0    0 -0.66594986827E+02  0.23391031326E+02  0.85139379748E+02  0.11059270591E+03  0.00000000000E+00 0.  1.
<mgrwt>
<rscale>  0 0.13013476E+03</rscale>
<asrwt>0</asrwt>
<pdfrwt beam="1">  1        1 0.54387905E-01 0.13832037E+03</pdfrwt>
<pdfrwt beam="2">  1       -1 0.73824247E-02 0.13832037E+03</pdfrwt>
<totfact> 0.66172115E+03</totfact>
</mgrwt>
</event>
<event>
 7    1  0.5400401E-006  0.2543654E+03  0.7546771E-02  0.1112738E+00
         -1   -1    0    0    0  501 -0.00000000000E+00  0.00000000000E+00  0.11316848612E+03  0.11316848612E+03  0.00000000000E+00 0.  1.
          1   -1    0    0  501    0  0.00000000000E+00 -0.00000000000E+00 -0.64006169793E+03  0.64006169793E+03  0.00000000000E+00 0. -1.
         23    2    1    2    0    0 -0.23582360717E+02  0.22027292529E+03 -0.12189557581E+03  0.28206431025E+03  0.12500181744E+03 0.  0.
          5    1    3    3  502    0 -0.33209004395E+01  0.18981259541E+03 -0.14465837643E+03  0.23872156506E+03  0.47000000000E+01 0.  1.
         -5    1    3    3    0  502 -0.20261460277E+02  0.30460329881E+02  0.22762800614E+02  0.43342745193E+02  0.47000000000E+01 0.  1.
        -11    1    1    2    0    0  0.53721905119E+02 -0.11935710243E+03 -0.26900819886E+03  0.29916144812E+03  0.00000000000E+00 0.  1.
         11    1    1    2    0    0 -0.30139544402E+02 -0.10091582285E+03 -0.13598943714E+03  0.17200442568E+03  0.00000000000E+00 0. -1.
<mgrwt>
<rscale>  0 0.25089837E+03</rscale>
<asrwt>0</asrwt>
<pdfrwt beam="2">  1        1 0.98471029E-01 0.25436537E+03</pdfrwt>
<pdfrwt beam="1">  1       -1 0.17410536E-01 0.25436537E+03</pdfrwt>
<totfact> 0.81405136E+02</totfact>
</mgrwt>
</event>
<event>
 7    1  0.5400401E-006  0.1845859E+03  0.7546771E-02  0.1168812E+00
         -2   -1    0    0    0  501 -0.00000000000E+00  0.00000000000E+00  0.16307438024E+03  0.16307438024E+03  0.00000000000E+00 0.  1.
          2   -1    0    0  501    0  0.00000000000E+00 -0.00000000000E+00 -0.18623697383E+03  0.18623697383E+03  0.00000000000E+00 0. -1.
         23    2    1    2    0    0  0.11845217890E+03  0.66456256632E+02 -0.24540276520E+02  0.18621008992E+03  0.12499847873E+03 0.  0.
          5    1    3    3  502    0  0.10305453174E+03  0.10901844125E+02 -0.58543392657E+02  0.11911551343E+03  0.47000000000E+01 0.  1.
         -5    1    3    3    0  502  0.15397647160E+02  0.55554412506E+02  0.34003116137E+02  0.67094576488E+02  0.47000000000E+01 0.  1.
        -11    1    1    2    0    0 -0.96515814451E+02 -0.49840074171E+02  0.39932988029E+02  0.11573235920E+03  0.00000000000E+00 0.  1.
         11    1    1    2    0    0 -0.21936364446E+02 -0.16616182461E+02 -0.38555305100E+02  0.47368904948E+02  0.00000000000E+00 0. -1.
<mgrwt>
<rscale>  0 0.17896143E+03</rscale>
<asrwt>0</asrwt>
<pdfrwt beam="2">  1        2 0.28651842E-01 0.18458595E+03</pdfrwt>
<pdfrwt beam="1">  1       -2 0.25088366E-01 0.18458595E+03</pdfrwt>
<totfact> 0.25600044E+03</totfact>
</mgrwt>
</event>
<event>
 6    1  0.5400401E-006  0.1900919E+03  0.7546771E-02  0.1188507E+00
         -1   -1    0    0    0  501 -0.00000000000E+00  0.00000000000E+00  0.52484220028E+03  0.52484220028E+03  0.00000000000E+00 0.  1.
          1   -1    0    0  501    0  0.00000000000E+00 -0.00000000000E+00 -0.53775876962E+02  0.53775876962E+02  0.00000000000E+00 0. -1.
          5    1    1    2  502    0 -0.77442837880E+02 -0.77697653949E+01  0.24437548449E+03  0.25651360552E+03  0.47000000000E+01 0. -1.
         -5    1    1    2    0  502  0.10515380401E+03  0.15684422196E+02  0.19326795759E+03  0.22063072548E+03  0.47000000000E+01 0.  1.
        -11    1    1    2    0    0  0.33166181957E+01 -0.40815268594E+02 -0.61148590898E+01  0.41403835672E+02  0.00000000000E+00 0. -1.
         11    1    1    2    0    0 -0.31027584329E+02  0.32900611793E+02  0.39537740331E+02  0.60069910572E+02  0.00000000000E+00 0.  1.
<mgrwt>
<rscale>  0 0.16016848E+03</rscale>
<asrwt>0</asrwt>
<pdfrwt beam="2">  1        1 0.82732122E-02 0.19009190E+03</pdfrwt>
<pdfrwt beam="1">  1       -1 0.80744950E-01 0.19009190E+03</pdfrwt>
<totfact> 0.13153408E+03</totfact>
</mgrwt>
</event>
<event>
 7    1  0.5400401E-006  0.1395663E+03  0.7546771E-02  0.1226620E+00
          1   -1    0    0  501    0  0.00000000000E+00  0.00000000000E+00  0.98241629028E+03  0.98241629028E+03  0.00000000000E+00 0. -1.
         -1   -1    0    0    0  501 -0.00000000000E+00 -0.00000000000E+00 -0.15650108271E+02  0.15650108271E+02  0.00000000000E+00 0.  1.
         23    2    1    2    0    0 -0.40972021457E+02 -0.46435172327E+02  0.49181489394E+03  0.51123443069E+03  0.12507526315E+03 0.  0.
          5    1    3    3  502    0 -0.35462156439E+02 -0.17028592750E+02  0.33395946486E+02  0.51816182338E+02  0.47000000000E+01 0.  1.
         -5    1    3    3    0  502 -0.55098650178E+01 -0.29406579577E+02  0.45841894745E+03  0.45941824835E+03  0.47000000000E+01 0.  1.
        -11    1    1    2    0    0 -0.26633991092E+02  0.38779394839E+01  0.11098389308E+03  0.11420084246E+03  0.00000000000E+00 0.  1.
         11    1    1    2    0    0  0.67606012550E+02  0.42557232843E+02  0.36396739499E+03  0.37263112540E+03  0.00000000000E+00 0. -1.
<mgrwt>
<rscale>  0 0.13056454E+03</rscale>
<asrwt>0</asrwt>
<pdfrwt beam="1">  1        1 0.15114092E+00 0.13956630E+03</pdfrwt>
<pdfrwt beam="2">  1       -1 0.24077097E-02 0.13956630E+03</pdfrwt>
<totfact> 0.83369900E+03</totfact>
</mgrwt>
</event>
<event>
 7    1  0.5400401E-006  0.3549892E+03  0.7546771E-02  0.1061414E+00
         -2   -1    0    0    0  501 -0.00000000000E+00  0.00000000000E+00  0.25912245082E+03  0.25912245082E+03  0.00000000000E+00 0.  1.
          2   -1    0    0  501    0  0.00000000000E+00 -0.00000000000E+00 -0.61028438074E+03  0.61028438074E+03  0.00000000000E+00 0. -1.
         23    2    1    2    0    0  0.32006487422E+03 -0.89166688533E+02  0.27298487207E+02  0.35603727932E+03  0.12500045923E+03 0.  0.
          5    1    3    3  502    0  0.25107990864E+03 -0.12183566159E+02  0.23045737244E+02  0.25247327742E+03  0.47000000000E+01 0.  1.
         -5    1    3    3    0  502  0.68984965579E+02 -0.76983122374E+02  0.42527499634E+01  0.10356400190E+03  0.47000000000E+01 0.  1.
        -11    1    1    2    0    0 -0.23744738669E+02 -0.18980255032E+02 -0.22930883282E+02  0.38077396229E+02  0.00000000000E+00 0.  1.
         11    1    1    2    0    0 -0.29632013555E+03  0.10814694356E+03 -0.35552953384E+03  0.47529215601E+03  0.00000000000E+00 0. -1.
<mgrwt>
<rscale>  0 0.35294074E+03</rscale>
<asrwt>0</asrwt>
<pdfrwt beam="2">  1        2 0.93889904E-01 0.35498921E+03</pdfrwt>
<pdfrwt beam="1">  1       -2 0.39864993E-01 0.35498921E+03</pdfrwt>
<totfact> 0.29714215E+02</totfact>
</mgrwt>
</event>
<event>
 7    1  0.5400401E-006  0.1202220E+03  0.7546771E-02  0.1256912E+00
          2   -1    0    0  501    0  0.00000000000E+00  0.00000000000E+00  0.26880693744E+03  0.26880693744E+03  0.00000000000E+00 0.  1.
         -2   -1    0    0    0  501 -0.00000000000E+00 -0.00000000000E+00 -0.43725477739E+02  0.43725477739E+02  0.00000000000E+00 0. -1.
         23    2    1    2    0    0 -0.24853186387E+02 -0.29834733972E+02  0.91190400105E+02  0.15089407377E+03  0.11377846985E+03 0.  0.
          5    1    3    3  502    0 -0.18688227272E+01  0.42979654519E+02  0.39277091026E+02  0.58442476680E+02  0.47000000000E+01 0.  1.
         -5    1    3    3    0  502 -0.22984363659E+02 -0.72814388491E+02  0.51913309079E+02  0.92451597086E+02  0.47000000000E+01 0. -1.
        -11    1    1    2    0    0  0.42653940233E+02  0.44855350634E+02  0.11858598729E+03  0.13376844725E+03  0.00000000000E+00 0.  1.
         11    1    1    2    0    0 -0.17800753846E+02 -0.15020616662E+02  0.15305072307E+02  0.27869894165E+02  0.00000000000E+00 0. -1.
<mgrwt>
<rscale>  0 0.11199939E+03</rscale>
<asrwt>0</asrwt>
<pdfrwt beam="1">  1        2 0.41354912E-01 0.12022201E+03</pdfrwt>
<pdfrwt beam="2">  1       -2 0.67269968E-02 0.12022201E+03</pdfrwt>
<totfact> 0.14195133E+04</totfact>
</mgrwt>
</event>
<event>
 7    1  0.5400401E-006  0.1572817E+03  0.7546771E-02  0.1200181E+00
          1   -1    0    0  501    0  0.00000000000E+00  0.00000000000E+00  0.16406914733E+03  0.16406914733E+03  0.00000000000E+00 0. -1.
         -1   -1    0    0    0  501 -0.00000000000E+00 -0.00000000000E+00 -0.12694649381E+03  0.12694649381E+03  0.00000000000E+00 0.  1.
         23    2    1    2    0    0  0.10290274245E+02  0.94983663579E+02  0.28000330692E+02  0.15975464618E+03  0.12493895456E+03 0.  0.
          5    1    3    3  502    0  0.61405293540E+02  0.50286845842E+02 -0.12602773911E+02  0.80500290992E+02  0.47000000000E+01 0.  1.
         -5    1    3    3    0  502 -0.51115019295E+02  0.44696817737E+02  0.40603104603E+02  0.79254355191E+02  0.47000000000E+01 0.  1.
        -11    1    1    2    0    0  0.27166068933E+02 -0.22473017850E+02  0.30802480608E+02  0.46816926898E+02  0.00000000000E+00 0. -1.
         11    1    1    2    0    0 -0.37456343179E+02 -0.72510645730E+02 -0.21680157777E+02  0.84444068055E+02  0.00000000000E+00 0.  1.
<mgrwt>
<rscale>  0 0.15023797E+03</rscale>
<asrwt>0</asrwt>
<pdfrwt beam="1">  1        1 0.25241407E-01 0.15728169E+03</pdfrwt>
<pdfrwt beam="2">  1       -1 0.19530230E-01 0.15728169E+03</pdfrwt>
<totfact> 0.38387685E+03</totfact>
</mgrwt>
</event>
<event>
 7    1  0.5400401E-006  0.1496343E+03  0.7546771E-02  0.1210368E+00
         -2   -1    0    0    0  501 -0.00000000000E+00  0.00000000000E+00  0.16467063006E+02  0.16467063006E+02  0.00000000000E+00 0.  1.
          2   -1    0    0  501    0  0.00000000000E+00 -0.00000000000E+00 -0.11230977563E+04  0.11230977563E+04  0.00000000000E+00 0. -1.
         23    2    1    2    0    0  0.57290584365E+02  0.59014387432E+02 -0.58593597202E+03  0.60474076313E+03  0.12500207318E+03 0.  0.
          5    1    3    3  502    0  0.11167709770E+02 -0.30019418796E+02 -0.29910822995E+03  0.30085495919E+03  0.47000000000E+01 0. -1.
         -5    1    3    3    0  502  0.46122874595E+02  0.89033806228E+02 -0.28682774207E+03  0.30388580393E+03  0.47000000000E+01 0. -1.
        -11    1    1    2    0    0 -0.64469067151E+02 -0.78048157718E+02 -0.45097923438E+03  0.46220130396E+03  0.00000000000E+00 0.  1.
         11    1    1    2    0    0  0.71784827862E+01  0.19033770286E+02 -0.69715486849E+02  0.72622752172E+02  0.00000000000E+00 0. -1.
<mgrwt>
<rscale>  0 0.14222366E+03</rscale>
<asrwt>0</asrwt>
<pdfrwt beam="2">  1        2 0.17278429E+00 0.14963431E+03</pdfrwt>
<pdfrwt beam="1">  1       -2 0.25333941E-02 0.14963431E+03</pdfrwt>
<totfact> 0.11701009E+04</totfact>
</mgrwt>
</event>
<event>
 7    1  0.5400401E-006  0.1326620E+03  0.7546771E-02  0.1235696E+00
          1   -1    0    0  501    0  0.00000000000E+00  0.00000000000E+00  0.86329294317E+02  0.86329294317E+02  0.00000000000E+00 0. -1.
         -1   -1    0    0    0  501 -0.00000000000E+00 -0.00000000000E+00 -0.17321897526E+03  0.17321897526E+03  0.00000000000E+00 0.  1.
         23    2    1    2    0    0 -0.21896113441E+02 -0.38661337179E+02 -0.82493484525E+02  0.15621903828E+03  0.12500029662E+03 0.  0.
          5    1    3    3  502    0 -0.56397041441E+02 -0.54261187748E+02 -0.16698084994E+02  0.80161205215E+02  0.47000000000E+01 0.  1.
         -5    1    3    3    0  502  0.34500928000E+02  0.15599850569E+02 -0.65795399531E+02  0.76057833062E+02  0.47000000000E+01 0.  1.
        -11    1    1    2    0    0 -0.34357488149E+02 -0.28528459965E+00  0.31075125102E+01  0.34498913217E+02  0.00000000000E+00 0. -1.
         11    1    1    2    0    0  0.56253601589E+02  0.38946621778E+02 -0.75037089287E+01  0.68830318083E+02  0.00000000000E+00 0.  1.
<mgrwt>
<rscale>  0 0.12459982E+03</rscale>
<asrwt>0</asrwt>
<pdfrwt beam="1">  1        1 0.13281430E-01 0.13266203E+03</pdfrwt>
<pdfrwt beam="2">  1       -1 0.26649073E-01 0.13266203E+03</pdfrwt>
<totfact> 0.52129607E+03</totfact>
</mgrwt>
</event>
<event>
 7    1  0.5400401E-006  0.1377114E+03  0.7546771E-02  0.1227542E+00
         -1   -1    0    0    0  501 -0.00000000000E+00  0.00000000000E+00  0.74661980529E+03  0.74661980529E+03  0.00000000000E+00 0.  1.
          1   -1    0    0  501    0  0.00000000000E+00 -0.00000000000E+00 -0.22597279956E+02  0.22597279956E+02  0.00000000000E+00 0. -1.
         23    2    1    2    0    0 -0.57046382842E+02 -0.92409950025E+01  0.51880389927E+03  0.53676989333E+03  0.12499898682E+03 0.  0.
          5    1    3    3  502    0 -0.97208757936E+01  0.49548707937E+02  0.11128581271E+03  0.12229551094E+03  0.47000000000E+01 0.  1.
         -5    1    3    3    0  502 -0.47325507048E+02 -0.58789702939E+02  0.40751808656E+03  0.41447438240E+03  0.47000000000E+01 0.  1.
        -11    1    1    2    0    0  0.62525131616E+02  0.40447543352E+02  0.16666481756E+03  0.18254467195E+03  0.00000000000E+00 0.  1.
         11    1    1    2    0    0 -0.54787487742E+01 -0.31206548350E+02  0.38553808497E+02  0.49902519953E+02  0.00000000000E+00 0. -1.
<mgrwt>
<rscale>  0 0.12994165E+03</rscale>
<asrwt>0</asrwt>
<pdfrwt beam="2">  1        1 0.34765052E-02 0.13771141E+03</pdfrwt>
<pdfrwt beam="1">  1       -1 0.11486457E+00 0.13771141E+03</pdfrwt>
<totfact> 0.19729661E+03</totfact>
</mgrwt>
</event>
<event>
 7    1  0.5400401E-006  0.1465620E+03  0.7546771E-02  0.1215298E+00
         -1   -1    0    0    0  501 -0.00000000000E+00  0.00000000000E+00  0.32323397565E+02  0.32323397565E+02  0.00000000000E+00 0.  1.
          1   -1    0    0  501    0  0.00000000000E+00 -0.00000000000E+00 -0.53742931908E+03  0.53742931908E+03  0.00000000000E+00 0. -1.
         23    2    1    2    0    0  0.71855464628E+02 -0.26314513776E+02 -0.28243187551E+03  0.31819522053E+03  0.12499909052E+03 0.  0.
          5    1    3    3  502    0  0.21153985195E+02 -0.11044157538E+02 -0.25893455196E+03  0.26007432919E+03  0.47000000000E+01 0. -1.
         -5    1    3    3    0  502  0.50701479433E+02 -0.15270356237E+02 -0.23497323554E+02  0.58120891343E+02  0.47000000000E+01 0. -1.
        -11    1    1    2    0    0 -0.49685094612E+02  0.49209650121E+02 -0.84147380848E+02  0.10941197373E+03  0.00000000000E+00 0.  1.
         11    1    1    2    0    0 -0.22170370015E+02 -0.22895136345E+02 -0.13852666515E+03  0.14214552238E+03  0.00000000000E+00 0. -1.
<mgrwt>
<rscale>  0 0.13854667E+03</rscale>
<asrwt>0</asrwt>
<pdfrwt beam="2">  1        1 0.82681431E-01 0.14656205E+03</pdfrwt>
<pdfrwt beam="1">  1       -1 0.49728306E-02 0.14656205E+03</pdfrwt>
<totfact> 0.70039497E+03</totfact>
</mgrwt>
</event>
<event>
 7    1  0.5831828E-006  0.1905695E+03  0.7546771E-02  0.1162691E+00
         -1   -1    0    0    0  501 -0.00000000000E+00  0.00000000000E+00  0.13795303437E+03  0.13795303437E+03  0.00000000000E+00 0.  1.
          1   -1    0    0  501    0  0.00000000000E+00 -0.00000000000E+00 -0.25549426805E+03  0.25549426805E+03  0.00000000000E+00 0. -1.
         23    2    1    2    0    0  0.80293762922E+02 -0.11934943877E+03 -0.81630147075E+01  0.19074420195E+03  0.12500135547E+03 0.  0.
          5    1    3    3  502    0  0.40905032184E+01 -0.10453871641E+03 -0.31824559212E+02  0.10945304022E+03  0.47000000000E+01 0. -1.
         -5    1    3    3    0  502  0.76203259703E+02 -0.14810722364E+02  0.23661544504E+02  0.81291161726E+02  0.47000000000E+01 0. -1.
        -11    1    1    2    0    0  0.16234607647E+01  0.60106411897E+02 -0.10022683098E+02  0.60957940848E+02  0.00000000000E+00 0.  1.
         11    1    1    2    0    0 -0.81917223687E+02  0.59243026876E+02 -0.99355535872E+02  0.14174515963E+03  0.00000000000E+00 0. -1.
<mgrwt>
<rscale>  0 0.18538437E+03</rscale>
<asrwt>0</asrwt>
<pdfrwt beam="2">  1        1 0.39306810E-01 0.19056945E+03</pdfrwt>
<pdfrwt beam="1">  1       -1 0.21223544E-01 0.19056945E+03</pdfrwt>
<totfact> 0.19419899E+03</totfact>
</mgrwt>
</event>
<event>
 7    1  0.5400401E-006  0.1735747E+03  0.7546771E-02  0.1180680E+00
         -2   -1    0    0    0  501 -0.00000000000E+00  0.00000000000E+00  0.15022130719E+03  0.15022130719E+03  0.00000000000E+00 0.  1.
          2   -1    0    0  501    0  0.00000000000E+00 -0.00000000000E+00 -0.21953922562E+03  0.21953922562E+03  0.00000000000E+00 0. -1.
         23    2    1    2    0    0 -0.74470475437E+02 -0.94643190912E+02  0.47272154294E+02  0.17989671378E+03  0.12499994303E+03 0.  0.
          5    1    3    3  502    0 -0.36313460489E-01 -0.86041269985E+02  0.58265199076E+02  0.10401934860E+03  0.47000000000E+01 0.  1.
         -5    1    3    3    0  502 -0.74434161977E+02 -0.86019209276E+01 -0.10993044781E+02  0.75877365178E+02  0.47000000000E+01 0.  1.
        -11    1    1    2    0    0  0.40681281202E+02 -0.54777913412E+01 -0.16259811573E+02  0.44151492733E+02  0.00000000000E+00 0.  1.
         11    1    1    2    0    0  0.33789194235E+02  0.10012098225E+03 -0.10033026114E+03  0.14571232630E+03  0.00000000000E+00 0. -1.
<mgrwt>
<rscale>  0 0.16731273E+03</rscale>
<asrwt>0</asrwt>
<pdfrwt beam="2">  1        2 0.33775266E-01 0.17357468E+03</pdfrwt>
<pdfrwt beam="1">  1       -2 0.23110970E-01 0.17357468E+03</pdfrwt>
<totfact> 0.24640544E+03</totfact>
</mgrwt>
</event>
<event>
 7    1  0.5400401E-006  0.2601069E+03  0.7546771E-02  0.1109434E+00
          3   -1    0    0  501    0  0.00000000000E+00  0.00000000000E+00  0.73483888938E+03  0.73483888938E+03  0.00000000000E+00 0. -1.
         -3   -1    0    0    0  501 -0.00000000000E+00 -0.00000000000E+00 -0.11241169429E+03  0.11241169429E+03  0.00000000000E+00 0.  1.
         23    2    1    2    0    0 -0.97303493911E+02 -0.20630316011E+03  0.11618677303E+03  0.28487713202E+03  0.12500660111E+03 0.  0.
          5    1    3    3  502    0 -0.11906032660E+03 -0.11637919192E+03  0.85965533107E+02  0.18743436334E+03  0.47000000000E+01 0. -1.
         -5    1    3    3    0  502  0.21756832686E+02 -0.89923968192E+02  0.30221239925E+02  0.97442768673E+02  0.47000000000E+01 0. -1.
        -11    1    1    2    0    0  0.72383968674E+02  0.18866925364E+03  0.35867565943E+03  0.41168404737E+03  0.00000000000E+00 0.  1.
         11    1    1    2    0    0  0.24919525236E+02  0.17633906473E+02  0.14756476263E+03  0.15068940429E+03  0.00000000000E+00 0. -1.
<mgrwt>
<rscale>  0 0.25622344E+03</rscale>
<asrwt>0</asrwt>
<pdfrwt beam="1">  1        3 0.11305213E+00 0.26010693E+03</pdfrwt>
<pdfrwt beam="2">  1       -3 0.17294107E-01 0.26010693E+03</pdfrwt>
<totfact> 0.49196250E+01</totfact>
</mgrwt>
</event>
<event>
 7    1  0.5400401E-006  0.1581665E+03  0.7546771E-02  0.1198831E+00
          1   -1    0    0  501    0  0.00000000000E+00  0.00000000000E+00  0.19754349616E+03  0.19754349616E+03  0.00000000000E+00 0. -1.
         -1   -1    0    0    0  501 -0.00000000000E+00 -0.00000000000E+00 -0.10708758123E+03  0.10708758123E+03  0.00000000000E+00 0.  1.
         23    2    1    2    0    0  0.92527694953E+02  0.28828431673E+02  0.44621551922E+02  0.16434026829E+03  0.12499675228E+03 0.  0.
          5    1    3    3  502    0  0.11218131704E+03  0.36667935159E+02  0.64802815438E+02  0.13472446047E+03  0.47000000000E+01 0.  1.
         -5    1    3    3    0  502 -0.19653622082E+02 -0.78395034860E+01 -0.20181263516E+02  0.29615807822E+02  0.47000000000E+01 0.  1.
        -11    1    1    2    0    0  0.95926116544E+01 -0.20202551931E+02 -0.89431026805E+01  0.24086103637E+02  0.00000000000E+00 0.  1.
         11    1    1    2    0    0 -0.10212030661E+03 -0.86258797426E+01  0.54777465684E+02  0.11620470545E+03  0.00000000000E+00 0. -1.
<mgrwt>
<rscale>  0 0.15134409E+03</rscale>
<asrwt>0</asrwt>
<pdfrwt beam="1">  1        1 0.30391307E-01 0.15816650E+03</pdfrwt>
<pdfrwt beam="2">  1       -1 0.16475013E-01 0.15816650E+03</pdfrwt>
<totfact> 0.39912483E+03</totfact>
</mgrwt>
</event>
<event>
 7    1  0.5400401E-006  0.1529714E+03  0.7546771E-02  0.1204953E+00
          1   -1    0    0  501    0  0.00000000000E+00  0.00000000000E+00  0.16234122576E+03  0.16234122576E+03  0.00000000000E+00 0. -1.
         -1   -1    0    0    0  501 -0.00000000000E+00 -0.00000000000E+00 -0.17407651964E+03  0.17407651964E+03  0.00000000000E+00 0.  1.
         23    2    1    2    0    0  0.76446842796E+02 -0.43937678829E+02 -0.98076082518E+02  0.18171176098E+03  0.12500242686E+03 0.  0.
          5    1    3    3  502    0 -0.36427142039E+01 -0.11208096790E+02 -0.94123643373E+02  0.94974949551E+02  0.47000000000E+01 0.  1.
         -5    1    3    3    0  502  0.80089557000E+02 -0.32729582039E+02 -0.39524391450E+01  0.86736811424E+02  0.47000000000E+01 0.  1.
        -11    1    1    2    0    0 -0.68723065340E+01  0.44238493233E+02  0.12430981582E+01  0.44786361469E+02  0.00000000000E+00 0.  1.
         11    1    1    2    0    0 -0.69574536262E+02 -0.30081440454E+00  0.85097690476E+02  0.10991962295E+03  0.00000000000E+00 0. -1.
<mgrwt>
<rscale>  0 0.14641134E+03</rscale>
<asrwt>0</asrwt>
<pdfrwt beam="1">  1        1 0.24975573E-01 0.15297139E+03</pdfrwt>
<pdfrwt beam="2">  1       -1 0.26781003E-01 0.15297139E+03</pdfrwt>
<totfact> 0.23200266E+03</totfact>
</mgrwt>
</event>
<event>
 7    1  0.5400401E-006  0.1701033E+03  0.7546771E-02  0.1184270E+00
          2   -1    0    0  501    0  0.00000000000E+00  0.00000000000E+00  0.20935964626E+03  0.20935964626E+03  0.00000000000E+00 0. -1.
         -2   -1    0    0    0  501 -0.00000000000E+00 -0.00000000000E+00 -0.12081507650E+03  0.12081507650E+03  0.00000000000E+00 0.  1.
         23    2    1    2    0    0 -0.92237534261E+02  0.69297043892E+02  0.60906726496E+02  0.18067861377E+03  0.12500115648E+03 0.  0.
          5    1    3    3  502    0 -0.64655447082E+02  0.32862457426E+02 -0.30153699024E+02  0.78686742913E+02  0.47000000000E+01 0.  1.
         -5    1    3    3    0  502 -0.27582087179E+02  0.36434586466E+02  0.91060425520E+02  0.10199187085E+03  0.47000000000E+01 0.  1.
        -11    1    1    2    0    0  0.24682907111E+02 -0.72874452019E+02  0.14496061225E+01  0.76954746562E+02  0.00000000000E+00 0.  1.
         11    1    1    2    0    0  0.67554627150E+02  0.35774081271E+01  0.26188237143E+02  0.72541362429E+02  0.00000000000E+00 0. -1.
<mgrwt>
<rscale>  0 0.16398501E+03</rscale>
<asrwt>0</asrwt>
<pdfrwt beam="1">  1        2 0.32209176E-01 0.17010330E+03</pdfrwt>
<pdfrwt beam="2">  1       -2 0.18586935E-01 0.17010330E+03</pdfrwt>
<totfact> 0.37613014E+03</totfact>
</mgrwt>
</event>
<event>
 6    1  0.5400401E-006  0.2206006E+03  0.7546771E-02  0.1155936E+00
          3   -1    0    0  501    0  0.00000000000E+00  0.00000000000E+00  0.15641218658E+03  0.15641218658E+03  0.00000000000E+00 0. -1.
         -3   -1    0    0    0  501 -0.00000000000E+00 -0.00000000000E+00 -0.49010141828E+03  0.49010141828E+03  0.00000000000E+00 0.  1.
          5    1    1    2  502    0  0.24783942644E+02 -0.61823440964E+02 -0.14376229047E+03  0.15851204316E+03  0.47000000000E+01 0. -1.
         -5    1    1    2    0  502 -0.93342950650E+02  0.12173446540E+03 -0.28785782160E+03  0.32621526935E+03  0.47000000000E+01 0.  1.
        -11    1    1    2    0    0  0.25126526079E+02  0.89231096692E+01 -0.83311238948E+01  0.27935136018E+02  0.00000000000E+00 0.  1.
         11    1    1    2    0    0  0.43432481926E+02 -0.68834134111E+02  0.10626200426E+03  0.13385115634E+03  0.00000000000E+00 0. -1.
<mgrwt>
<rscale>  0 0.19282680E+03</rscale>
<asrwt>0</asrwt>
<pdfrwt beam="1">  1        3 0.24063414E-01 0.22060065E+03</pdfrwt>
<pdfrwt beam="2">  1       -3 0.75400216E-01 0.22060065E+03</pdfrwt>
<totfact> 0.67221132E+01</totfact>
</mgrwt>
</event>
<event>
 7    1  0.5400401E-006  0.1346121E+03  0.7546771E-02  0.1233238E+00
          2   -1    0    0  501    0  0.00000000000E+00  0.00000000000E+00  0.26886395976E+03  0.26886395976E+03  0.00000000000E+00 0. -1.
         -2   -1    0    0    0  501 -0.00000000000E+00 -0.00000000000E+00 -0.60111363481E+02  0.60111363481E+02  0.00000000000E+00 0.  1.
         23    2    1    2    0    0  0.44813291767E+02  0.22120181756E+02  0.59660439068E+02  0.14724060940E+03  0.12499158174E+03 0.  0.
          5    1    3    3  502    0  0.59921282259E+02  0.47637468126E+02 -0.40593192072E+01  0.76801409554E+02  0.47000000000E+01 0. -1.
         -5    1    3    3    0  502 -0.15107990492E+02 -0.25517286369E+02  0.63719758275E+02  0.70439199846E+02  0.47000000000E+01 0. -1.
        -11    1    1    2    0    0 -0.32456358026E+02 -0.55931047042E+02  0.72780880148E+02  0.97358891297E+02  0.00000000000E+00 0.  1.
         11    1    1    2    0    0 -0.12356933742E+02  0.33810865286E+02  0.76311277063E+02  0.84375822543E+02  0.00000000000E+00 0. -1.
<mgrwt>
<rscale>  0 0.12617877E+03</rscale>
<asrwt>0</asrwt>
<pdfrwt beam="1">  1        2 0.41363686E-01 0.13461214E+03</pdfrwt>
<pdfrwt beam="2">  1       -2 0.92479022E-02 0.13461214E+03</pdfrwt>
<totfact> 0.87710099E+03</totfact>
</mgrwt>
</event>
<event>
 7    1  0.5400401E-006  0.1285856E+03  0.7546771E-02  0.1244446E+00
         -2   -1    0    0    0  501 -0.00000000000E+00  0.00000000000E+00  0.14681255574E+03  0.14681255574E+03  0.00000000000E+00 0.  1.
          2   -1    0    0  501    0  0.00000000000E+00 -0.00000000000E+00 -0.93536430963E+02  0.93536430963E+02  0.00000000000E+00 0. -1.
         23    2    1    2    0    0  0.27594072486E+02 -0.12052825138E+02  0.66089830585E+02  0.14457567622E+03  0.12501022765E+03 0.  0.
          5    1    3    3  502    0  0.25756568652E+02  0.25934068418E+02  0.91468547873E+02  0.98613193760E+02  0.47000000000E+01 0. -1.
         -5    1    3    3    0  502  0.18375038335E+01 -0.37986893556E+02 -0.25378717288E+02  0.45962482456E+02  0.47000000000E+01 0. -1.
        -11    1    1    2    0    0 -0.50150374488E+02  0.10317425211E+02  0.20792790854E+02  0.55261645612E+02  0.00000000000E+00 0.  1.
         11    1    1    2    0    0  0.22556302003E+02  0.17353999270E+01 -0.33606496663E+02  0.40511664875E+02  0.00000000000E+00 0. -1.
<mgrwt>
<rscale>  0 0.11918590E+03</rscale>
<asrwt>0</asrwt>
<pdfrwt beam="2">  1        2 0.14390220E-01 0.12858562E+03</pdfrwt>
<pdfrwt beam="1">  1       -2 0.22586547E-01 0.12858562E+03</pdfrwt>
<totfact> 0.65736428E+03</totfact>
</mgrwt>
</event>
<event>
 7    1  0.5400401E-006  0.1292246E+03  0.7546771E-02  0.1241879E+00
         -2   -1    0    0    0  501 -0.00000000000E+00  0.00000000000E+00  0.45909920731E+02  0.45909920731E+02  0.00000000000E+00 0.  1.
          2   -1    0    0  501    0  0.00000000000E+00 -0.00000000000E+00 -0.30715300005E+03  0.30715300005E+03  0.00000000000E+00 0. -1.
         23    2    1    2    0    0 -0.32760787803E+02  0.88027370462E+00 -0.97103792415E+02  0.16164201257E+03  0.12499979851E+03 0.  0.
          5    1    3    3  502    0 -0.27722732279E+02  0.54926504326E+02 -0.15672145872E+02  0.63664565644E+02  0.47000000000E+01 0. -1.
         -5    1    3    3    0  502 -0.50380555248E+01 -0.54046230621E+02 -0.81431646543E+02  0.97977446928E+02  0.47000000000E+01 0. -1.
        -11    1    1    2    0    0  0.54926648955E+02  0.10861753597E+02 -0.15486795146E+03  0.16467846504E+03  0.00000000000E+00 0. -1.
         11    1    1    2    0    0 -0.22165861152E+02 -0.11742027302E+02 -0.92713354380E+01  0.26742443167E+02  0.00000000000E+00 0.  1.
<mgrwt>
<rscale>  0 0.12074156E+03</rscale>
<asrwt>0</asrwt>
<pdfrwt beam="2">  1        2 0.47254309E-01 0.12922459E+03</pdfrwt>
<pdfrwt beam="1">  1       -2 0.70630645E-02 0.12922459E+03</pdfrwt>
<totfact> 0.11515135E+04</totfact>
</mgrwt>
</event>
<event>
 6    1  0.5400401E-006  0.1902161E+03  0.7546771E-02  0.1174809E+00
          2   -1    0    0  501    0  0.00000000000E+00  0.00000000000E+00  0.64065635747E+02  0.64065635747E+02  0.00000000000E+00 0. -1.
         -2   -1    0    0    0  501 -0.00000000000E+00 -0.00000000000E+00 -0.11181209355E+04  0.11181209355E+04  0.00000000000E+00 0.  1.
          5    1    1    2  502    0 -0.35196019777E+02 -0.72468684719E+02 -0.39047825762E+03  0.39873027192E+03  0.47000000000E+01 0. -1.
         -5    1    1    2    0  502  0.10722473684E+03  0.16632828495E+02 -0.64268637455E+03  0.65179878890E+03  0.47000000000E+01 0.  1.
        -11    1    1    2    0    0 -0.80236341721E+02  0.70803557878E+02 -0.31759577795E+01  0.10705653202E+03  0.00000000000E+00 0. -1.
         11    1    1    2    0    0  0.82076246546E+01 -0.14967701654E+02 -0.17714709820E+02  0.24600978421E+02  0.00000000000E+00 0.  1.
<mgrwt>
<rscale>  0 0.17294678E+03</rscale>
<asrwt>0</asrwt>
<pdfrwt beam="1">  1        2 0.98562509E-02 0.19021606E+03</pdfrwt>
<pdfrwt beam="2">  1       -2 0.17201862E+00 0.19021606E+03</pdfrwt>
<totfact> 0.14425406E+02</totfact>
</mgrwt>
</event>
<event>
 7    1  0.5400401E-006  0.1571780E+03  0.7546771E-02  0.1200258E+00
         -1   -1    0    0    0  501 -0.00000000000E+00  0.00000000000E+00  0.13852044721E+03  0.13852044721E+03  0.00000000000E+00 0.  1.
          1   -1    0    0  501    0  0.00000000000E+00 -0.00000000000E+00 -0.16817889577E+03  0.16817889577E+03  0.00000000000E+00 0. -1.
         23    2    1    2    0    0  0.94175125649E+02  0.14480433305E+02  0.34388601237E+02  0.16089593237E+03  0.12500515157E+03 0.  0.
          5    1    3    3  502    0  0.22419869375E+02  0.80227180552E+01  0.74464718250E+02  0.78320487817E+02  0.47000000000E+01 0. -1.
         -5    1    3    3    0  502  0.71755256273E+02  0.64577152501E+01 -0.40076117012E+02  0.82575444558E+02  0.47000000000E+01 0. -1.
        -11    1    1    2    0    0 -0.30449301010E+02  0.19220573099E+02  0.14833863794E+02  0.38943983840E+02  0.00000000000E+00 0.  1.
         11    1    1    2    0    0 -0.63725824638E+02 -0.33701006404E+02 -0.78880913597E+02  0.10685942676E+03  0.00000000000E+00 0. -1.
<mgrwt>
<rscale>  0 0.15017504E+03</rscale>
<asrwt>0</asrwt>
<pdfrwt beam="2">  1        1 0.25873676E-01 0.15717800E+03</pdfrwt>
<pdfrwt beam="1">  1       -1 0.21310838E-01 0.15717800E+03</pdfrwt>
<totfact> 0.32319401E+03</totfact>
</mgrwt>
</event>
<event>
 7    1  0.5400401E-006  0.2864779E+03  0.7546771E-02  0.1093975E+00
         -1   -1    0    0    0  501 -0.00000000000E+00  0.00000000000E+00  0.60845469101E+03  0.60845469101E+03  0.00000000000E+00 0.  1.
          1   -1    0    0  501    0  0.00000000000E+00 -0.00000000000E+00 -0.30011380052E+03  0.30011380052E+03  0.00000000000E+00 0. -1.
         23    2    1    2    0    0 -0.14118392210E+03 -0.21566550765E+03  0.49888613843E+03  0.57528858136E+03  0.12500024672E+03 0.  0.
          5    1    3    3  502    0 -0.40577063537E+02 -0.15494652967E+02  0.18205680994E+03  0.18722541067E+03  0.47000000000E+01 0. -1.
         -5    1    3    3    0  502 -0.10060685856E+03 -0.20017085469E+03  0.31682932848E+03  0.38806317069E+03  0.47000000000E+01 0. -1.
        -11    1    1    2    0    0  0.83022684233E+02  0.18828066573E+03 -0.12161274343E+03  0.23902308372E+03  0.00000000000E+00 0.  1.
         11    1    1    2    0    0  0.58161237864E+02  0.27384841923E+02 -0.68932504505E+02  0.94256826460E+02  0.00000000000E+00 0. -1.
<mgrwt>
<rscale>  0 0.28316058E+03</rscale>
<asrwt>0</asrwt>
<pdfrwt beam="2">  1        1 0.46171354E-01 0.28647787E+03</pdfrwt>
<pdfrwt beam="1">  1       -1 0.93608414E-01 0.28647787E+03</pdfrwt>
<totfact> 0.10293677E+02</totfact>
</mgrwt>
</event>
<event>
 7    1  0.5400401E-006  0.1747469E+03  0.7546771E-02  0.1173715E+00
          2   -1    0    0  501    0  0.00000000000E+00  0.00000000000E+00  0.64393596378E+03  0.64393596378E+03  0.00000000000E+00 0. -1.
         -2   -1    0    0    0  501 -0.00000000000E+00 -0.00000000000E+00 -0.49030239163E+02  0.49030239163E+02  0.00000000000E+00 0.  1.
         23    2    1    2    0    0 -0.88314761400E+02 -0.78209075375E+02  0.21869918469E+03  0.27815558245E+03  0.12500015245E+03 0.  0.
          5    1    3    3  502    0  0.29931490538E+02 -0.24777199874E+01  0.51084007683E+02  0.59444924620E+02  0.47000000000E+01 0. -1.
         -5    1    3    3    0  502 -0.11824625194E+03 -0.75731355388E+02  0.16761517701E+03  0.21871065783E+03  0.47000000000E+01 0. -1.
        -11    1    1    2    0    0  0.10673517721E+03  0.22263097475E+02  0.29490534542E+03  0.31441565852E+03  0.00000000000E+00 0. -1.
         11    1    1    2    0    0 -0.18420415809E+02  0.55945977900E+02  0.81301194506E+02  0.10039496197E+03  0.00000000000E+00 0.  1.
<mgrwt>
<rscale>  0 0.17402461E+03</rscale>
<asrwt>0</asrwt>
<pdfrwt beam="1">  1        2 0.99067065E-01 0.17474693E+03</pdfrwt>
<pdfrwt beam="2">  1       -2 0.75431142E-02 0.17474693E+03</pdfrwt>
<totfact> 0.47147998E+03</totfact>
</mgrwt>
</event>
<event>
 7    1  0.5400401E-006  0.1294995E+03  0.7546771E-02  0.1242151E+00
         -1   -1    0    0    0  501 -0.00000000000E+00  0.00000000000E+00  0.22083183112E+03  0.22083183112E+03  0.00000000000E+00 0.  1.
          1   -1    0    0  501    0  0.00000000000E+00 -0.00000000000E+00 -0.58965596060E+02  0.58965596060E+02  0.00000000000E+00 0. -1.
         23    2    1    2    0    0  0.31126512061E+02 -0.13263263894E+02  0.10757770183E+03  0.16835405915E+03  0.12500141351E+03 0.  0.
          5    1    3    3  502    0  0.78714850989E+02 -0.19048813486E+02  0.72063984735E+02  0.10850895335E+03  0.47000000000E+01 0.  1.
         -5    1    3    3    0  502 -0.47588338928E+02  0.57855495920E+01  0.35513717099E+02  0.59845105800E+02  0.47000000000E+01 0.  1.
        -11    1    1    2    0    0 -0.61722302762E+02  0.15637580528E+02  0.48906700585E+02  0.80287246466E+02  0.00000000000E+00 0.  1.
         11    1    1    2    0    0  0.30595790701E+02 -0.23743166335E+01  0.53818326373E+01  0.31156121560E+02  0.00000000000E+00 0. -1.
<mgrwt>
<rscale>  0 0.12057535E+03</rscale>
<asrwt>0</asrwt>
<pdfrwt beam="2">  1        1 0.90716302E-02 0.12949953E+03</pdfrwt>
<pdfrwt beam="1">  1       -1 0.33974128E-01 0.12949953E+03</pdfrwt>
<totfact> 0.57192215E+03</totfact>
</mgrwt>
</event>
<event>
 7    1  0.5400401E-006  0.1447960E+03  0.7546771E-02  0.1216022E+00
         -1   -1    0    0    0  501 -0.00000000000E+00  0.00000000000E+00  0.37068151878E+02  0.37068151878E+02  0.00000000000E+00 0.  1.
          1   -1    0    0  501    0  0.00000000000E+00 -0.00000000000E+00 -0.49772456036E+03  0.49772456036E+03  0.00000000000E+00 0. -1.
         23    2    1    2    0    0  0.22107877270E+02  0.69659642952E+02 -0.18971762767E+03  0.23866013204E+03  0.12499862513E+03 0.  0.
          5    1    3    3  502    0  0.64930511505E+01  0.89226779377E+02 -0.63277748322E+02  0.10968017735E+03  0.47000000000E+01 0.  1.
         -5    1    3    3    0  502  0.15614826120E+02 -0.19567136425E+02 -0.12643987935E+03  0.12897995469E+03  0.47000000000E+01 0.  1.
        -11    1    1    2    0    0 -0.90336867479E+01 -0.91743777165E+02 -0.18928439459E+03  0.21054004413E+03  0.00000000000E+00 0.  1.
         11    1    1    2    0    0 -0.13074190523E+02  0.22084134213E+02 -0.81654386223E+02  0.85592536072E+02  0.00000000000E+00 0. -1.
<mgrwt>
<rscale>  0 0.13801740E+03</rscale>
<asrwt>0</asrwt>
<pdfrwt beam="2">  1        1 0.76573010E-01 0.14479600E+03</pdfrwt>
<pdfrwt beam="1">  1       -1 0.57027926E-02 0.14479600E+03</pdfrwt>
<totfact> 0.63177774E+03</totfact>
</mgrwt>
</event>
<event>
 7    1  0.5400401E-006  0.1330171E+03  0.7546771E-02  0.1235912E+00
          1   -1    0    0  501    0  0.00000000000E+00  0.00000000000E+00  0.63742535218E+02  0.63742535218E+02  0.00000000000E+00 0. -1.
         -1   -1    0    0    0  501 -0.00000000000E+00 -0.00000000000E+00 -0.32455209708E+03  0.32455209708E+03  0.00000000000E+00 0.  1.
         23    2    1    2    0    0  0.34983868618E+02  0.29065339556E+02 -0.25324561910E+03  0.28605399722E+03  0.12499952282E+03 0.  0.
          5    1    3    3  502    0  0.66251524958E+02  0.27852508039E+02 -0.24197279876E+03  0.25246376394E+03  0.47000000000E+01 0. -1.
         -5    1    3    3    0  502 -0.31267656339E+02  0.12128315171E+01 -0.11272820339E+02  0.33590233278E+02  0.47000000000E+01 0. -1.
        -11    1    1    2    0    0 -0.71538314597E+01 -0.45330244479E+02 -0.36722012401E+02  0.58775118578E+02  0.00000000000E+00 0. -1.
         11    1    1    2    0    0 -0.27830037159E+02  0.16264904923E+02  0.29158069633E+02  0.43465516506E+02  0.00000000000E+00 0.  1.
<mgrwt>
<rscale>  0 0.12446250E+03</rscale>
<asrwt>0</asrwt>
<pdfrwt beam="1">  1        1 0.98065440E-02 0.13301709E+03</pdfrwt>
<pdfrwt beam="2">  1       -1 0.49931091E-01 0.13301709E+03</pdfrwt>
<totfact> 0.26213034E+03</totfact>
</mgrwt>
</event>
<event>
 7    1  0.5400401E-006  0.1265081E+03  0.7546771E-02  0.1247868E+00
          1   -1    0    0  501    0  0.00000000000E+00  0.00000000000E+00  0.15389136943E+03  0.15389136943E+03  0.00000000000E+00 0. -1.
         -1   -1    0    0    0  501 -0.00000000000E+00 -0.00000000000E+00 -0.80253912795E+02  0.80253912795E+02  0.00000000000E+00 0.  1.
         23    2    1    2    0    0  0.60490985784E+01 -0.18530814811E+02  0.24251313046E+02  0.12881155141E+03  0.12499722758E+03 0.  0.
          5    1    3    3  502    0  0.53842390352E+02 -0.15348738398E+02 -0.23602948124E+02  0.60940757539E+02  0.47000000000E+01 0. -1.
         -5    1    3    3    0  502 -0.47793291774E+02 -0.31820764130E+01  0.47854261170E+02  0.67870793873E+02  0.47000000000E+01 0. -1.
        -11    1    1    2    0    0  0.44578232731E+01 -0.30644617384E+02 -0.48819899349E+01  0.31349618636E+02  0.00000000000E+00 0.  1.
         11    1    1    2    0    0 -0.10506921851E+02  0.49175432194E+02  0.54268133524E+02  0.73984112176E+02  0.00000000000E+00 0. -1.
<mgrwt>
<rscale>  0 0.11715332E+03</rscale>
<asrwt>0</asrwt>
<pdfrwt beam="1">  1        1 0.23675595E-01 0.12650806E+03</pdfrwt>
<pdfrwt beam="2">  1       -1 0.12346756E-01 0.12650806E+03</pdfrwt>
<totfact> 0.84429578E+03</totfact>
</mgrwt>
</event>
<event>
 7    1  0.5400401E-006  0.2263689E+03  0.7546771E-02  0.1132471E+00
         -1   -1    0    0    0  501 -0.00000000000E+00  0.00000000000E+00  0.32697325649E+02  0.32697325649E+02  0.00000000000E+00 0.  1.
          1   -1    0    0  501    0  0.00000000000E+00 -0.00000000000E+00 -0.15661027675E+04  0.15661027675E+04  0.00000000000E+00 0. -1.
         23    2    1    2    0    0 -0.15946241282E+03 -0.10094366506E+03 -0.10129367615E+04  0.10379228187E+04  0.12500004129E+03 0.  0.
          5    1    3    3  502    0 -0.16583531093E+03 -0.11962813790E+03 -0.88074920180E+03  0.90418664456E+03  0.47000000000E+01 0.  1.
         -5    1    3    3    0  502  0.63728981028E+01  0.18684472836E+02 -0.13218755966E+03  0.13373617418E+03  0.47000000000E+01 0.  1.
        -11    1    1    2    0    0  0.33131551848E+02  0.31993968812E+02 -0.25287657451E+03  0.25703672053E+03  0.00000000000E+00 0.  1.
         11    1    1    2    0    0  0.12633086098E+03  0.68949696250E+02 -0.26759210586E+03  0.30384055386E+03  0.00000000000E+00 0. -1.
<mgrwt>
<rscale>  0 0.22190517E+03</rscale>
<asrwt>0</asrwt>
<pdfrwt beam="2">  1        1 0.24093886E+00 0.22636894E+03</pdfrwt>
<pdfrwt beam="1">  1       -1 0.50303584E-02 0.22636894E+03</pdfrwt>
<totfact> 0.11318620E+03</totfact>
</mgrwt>
</event>
<event>
 7    1  0.5400401E-006  0.1874221E+03  0.7546771E-02  0.1167080E+00
         -2   -1    0    0    0  501 -0.00000000000E+00  0.00000000000E+00  0.20334875659E+03  0.20334875659E+03  0.00000000000E+00 0. -1.
          2   -1    0    0  501    0  0.00000000000E+00 -0.00000000000E+00 -0.15110346359E+03  0.15110346359E+03  0.00000000000E+00 0.  1.
         23    2    1    2    0    0 -0.13314093202E+03  0.42145690184E+02  0.41594965455E+02  0.19198228681E+03  0.12499716124E+03 0.  0.
          5    1    3    3  502    0 -0.39621353198E+02  0.77399961311E+01 -0.44458670334E+02  0.60236388813E+02  0.47000000000E+01 0. -1.
         -5    1    3    3    0  502 -0.93519578824E+02  0.34405694053E+02  0.86053635789E+02  0.13174589800E+03  0.47000000000E+01 0. -1.
        -11    1    1    2    0    0  0.47506045915E+02 -0.55975968833E+02 -0.76533243024E+01  0.73815356520E+02  0.00000000000E+00 0.  1.
         11    1    1    2    0    0  0.85634886107E+02  0.13830278649E+02  0.18303651845E+02  0.88654576852E+02  0.00000000000E+00 0. -1.
<mgrwt>
<rscale>  0 0.18074868E+03</rscale>
<asrwt>0</asrwt>
<pdfrwt beam="2">  1        2 0.23246687E-01 0.18742214E+03</pdfrwt>
<pdfrwt beam="1">  1       -2 0.31284424E-01 0.18742214E+03</pdfrwt>
<totfact> 0.21759604E+03</totfact>
</mgrwt>
</event>
<event>
 7    1  0.5400401E-006  0.1469547E+03  0.7546771E-02  0.1214125E+00
          4   -1    0    0  501    0  0.00000000000E+00  0.00000000000E+00  0.33126661128E+02  0.33126661128E+02  0.00000000000E+00 0.  1.
         -4   -1    0    0    0  501 -0.00000000000E+00 -0.00000000000E+00 -0.82214293483E+03  0.82214293483E+03  0.00000000000E+00 0. -1.
         23    2    1    2    0    0 -0.17339843833E+02 -0.75283400947E+02 -0.67371852620E+03  0.68955953052E+03  0.12500973137E+03 0.  0.
          5    1    3    3  502    0 -0.15969969002E+01 -0.10855962051E+03 -0.53752504878E+03  0.54840040999E+03  0.47000000000E+01 0. -1.
         -5    1    3    3    0  502 -0.15742846932E+02  0.33276219559E+02 -0.13619347742E+03  0.14115912053E+03  0.47000000000E+01 0. -1.
        -11    1    1    2    0    0  0.37406361185E+02  0.45343008403E+02 -0.11557708731E+03  0.12966606102E+03  0.00000000000E+00 0. -1.
         11    1    1    2    0    0 -0.20066517353E+02  0.29940392544E+02  0.27933980983E+00  0.36044004427E+02  0.00000000000E+00 0.  1.
<mgrwt>
<rscale>  0 0.13941021E+03</rscale>
<asrwt>0</asrwt>
<pdfrwt beam="1">  1        4 0.50964095E-02 0.14695473E+03</pdfrwt>
<pdfrwt beam="2">  1       -4 0.12648353E+00 0.14695473E+03</pdfrwt>
<totfact> 0.19162653E+02</totfact>
</mgrwt>
</event>
<event>
 7    1  0.5400401E-006  0.1471868E+03  0.7546771E-02  0.1213392E+00
          1   -1    0    0  501    0  0.00000000000E+00  0.00000000000E+00  0.27024603912E+03  0.27024603912E+03  0.00000000000E+00 0. -1.
         -1   -1    0    0    0  501 -0.00000000000E+00 -0.00000000000E+00 -0.71047556183E+02  0.71047556183E+02  0.00000000000E+00 0.  1.
         23    2    1    2    0    0 -0.74725157475E+02  0.21371493588E+02  0.64544788351E+02  0.16071707456E+03  0.12499343364E+03 0.  0.
          5    1    3    3  502    0 -0.50136093250E+01  0.35216381007E+02 -0.26871513007E+02  0.44827424430E+02  0.47000000000E+01 0. -1.
         -5    1    3    3    0  502 -0.69711548150E+02 -0.13844887419E+02  0.91416301358E+02  0.11588965013E+03  0.47000000000E+01 0. -1.
        -11    1    1    2    0    0  0.10240285785E+01 -0.99977114214E+01 -0.12240054506E+02  0.15837354656E+02  0.00000000000E+00 0.  1.
         11    1    1    2    0    0  0.73701128896E+02 -0.11373782166E+02  0.14689374909E+03  0.16473916609E+03  0.00000000000E+00 0. -1.
<mgrwt>
<rscale>  0 0.13995347E+03</rscale>
<asrwt>0</asrwt>
<pdfrwt beam="1">  1        1 0.41576313E-01 0.14718678E+03</pdfrwt>
<pdfrwt beam="2">  1       -1 0.10930393E-01 0.14718678E+03</pdfrwt>
<totfact> 0.51069706E+03</totfact>
</mgrwt>
</event>
<event>
 7    1  0.5400401E-006  0.1277949E+03  0.7546771E-02  0.1245634E+00
         -3   -1    0    0    0  501 -0.00000000000E+00  0.00000000000E+00  0.73402129935E+03  0.73402129935E+03  0.00000000000E+00 0.  1.
          3   -1    0    0  501    0  0.00000000000E+00 -0.00000000000E+00 -0.29160536116E+02  0.29160536116E+02  0.00000000000E+00 0. -1.
         23    2    1    2    0    0  0.60895574292E+01  0.25875028489E+02  0.62963841929E+03  0.64247651554E+03  0.12499973663E+03 0.  0.
          5    1    3    3  502    0 -0.17347606576E+02  0.72219480940E+02  0.41289136083E+03  0.41954494245E+03  0.47000000000E+01 0. -1.
         -5    1    3    3    0  502  0.23437164005E+02 -0.46344452451E+02  0.21674705846E+03  0.22293157309E+03  0.47000000000E+01 0. -1.
        -11    1    1    2    0    0  0.17520957337E+02  0.27420393686E+02  0.11924989393E+02  0.34656417990E+02  0.00000000000E+00 0. -1.
         11    1    1    2    0    0 -0.23610514766E+02 -0.53295422175E+02  0.63297354553E+02  0.86048901944E+02  0.00000000000E+00 0.  1.
<mgrwt>
<rscale>  0 0.11847540E+03</rscale>
<asrwt>0</asrwt>
<pdfrwt beam="2">  1        3 0.44862369E-02 0.12779489E+03</pdfrwt>
<pdfrwt beam="1">  1       -3 0.11292634E+00 0.12779489E+03</pdfrwt>
<totfact> 0.42600554E+02</totfact>
</mgrwt>
</event>
<event>
 7    1  0.5400401E-006  0.1395901E+03  0.7546771E-02  0.1224133E+00
          2   -1    0    0  501    0  0.00000000000E+00  0.00000000000E+00  0.61926518833E+03  0.61926518833E+03  0.00000000000E+00 0. -1.
         -2   -1    0    0    0  501 -0.00000000000E+00 -0.00000000000E+00 -0.25690685220E+02  0.25690685220E+02  0.00000000000E+00 0.  1.
         23    2    1    2    0    0 -0.61109188985E+02  0.11179488805E+02  0.33993144916E+03  0.36747622550E+03  0.12500428885E+03 0.  0.
          5    1    3    3  502    0 -0.19160300365E+02  0.37340812397E+02  0.30212386958E+03  0.30506126589E+03  0.47000000000E+01 0. -1.
         -5    1    3    3    0  502 -0.41948888621E+02 -0.26161323592E+02  0.37807579583E+02  0.62414959605E+02  0.47000000000E+01 0. -1.
        -11    1    1    2    0    0  0.41409344315E+02  0.27848214395E+02  0.20946405735E+03  0.21532637591E+03  0.00000000000E+00 0. -1.
         11    1    1    2    0    0  0.19699844671E+02 -0.39027703200E+02  0.44178996603E+02  0.62153272142E+02  0.00000000000E+00 0.  1.
<mgrwt>
<rscale>  0 0.13226525E+03</rscale>
<asrwt>0</asrwt>
<pdfrwt beam="1">  1        2 0.95271556E-01 0.13959006E+03</pdfrwt>
<pdfrwt beam="2">  1       -2 0.39524136E-02 0.13959006E+03</pdfrwt>
<totfact> 0.12967243E+04</totfact>
</mgrwt>
</event>
<event>
 7    1  0.5400401E-006  0.1267525E+03  0.7546771E-02  0.1248352E+00
          2   -1    0    0  501    0  0.00000000000E+00  0.00000000000E+00  0.30161622510E+02  0.30161622510E+02  0.00000000000E+00 0.  1.
         -2   -1    0    0    0  501 -0.00000000000E+00 -0.00000000000E+00 -0.43629283207E+03  0.43629283207E+03  0.00000000000E+00 0. -1.
         23    2    1    2    0    0  0.16158509680E+02 -0.13391068170E+02 -0.30338641563E+03  0.32880012724E+03  0.12500315334E+03 0.  0.
          5    1    3    3  502    0 -0.37778572798E+02 -0.30926202206E+02 -0.53777585810E+02  0.72785776640E+02  0.47000000000E+01 0. -1.
         -5    1    3    3    0  502  0.53937082478E+02  0.17535134036E+02 -0.24960882982E+03  0.25601435060E+03  0.47000000000E+01 0. -1.
        -11    1    1    2    0    0 -0.38874254102E+02  0.99483257953E+01 -0.89850255170E+01  0.41120645686E+02  0.00000000000E+00 0.  1.
         11    1    1    2    0    0  0.22715744422E+02  0.34427423744E+01 -0.93759768418E+02  0.96533681653E+02  0.00000000000E+00 0. -1.
<mgrwt>
<rscale>  0 0.11686975E+03</rscale>
<asrwt>0</asrwt>
<pdfrwt beam="1">  1        2 0.46402501E-02 0.12675254E+03</pdfrwt>
<pdfrwt beam="2">  1       -2 0.67121967E-01 0.12675254E+03</pdfrwt>
<totfact> 0.34380499E+03</totfact>
</mgrwt>
</event>
<event>
 7    1  0.5400401E-006  0.1515823E+03  0.7546771E-02  0.1207672E+00
         -2   -1    0    0    0  501 -0.00000000000E+00  0.00000000000E+00  0.27809874861E+02  0.27809874861E+02  0.00000000000E+00 0.  1.
          2   -1    0    0  501    0  0.00000000000E+00 -0.00000000000E+00 -0.82896232518E+03  0.82896232518E+03  0.00000000000E+00 0. -1.
         23    2    1    2    0    0 -0.65251655394E+02  0.55626450247E+02 -0.25526547559E+03  0.29687988419E+03  0.12500048844E+03 0.  0.
          5    1    3    3  502    0 -0.44394469790E+02  0.95789327724E+02 -0.18808563771E+03  0.21574234950E+03  0.47000000000E+01 0. -1.
         -5    1    3    3    0  502 -0.20857185604E+02 -0.40162877477E+02 -0.67179837874E+02  0.81137534689E+02  0.47000000000E+01 0. -1.
        -11    1    1    2    0    0  0.25514372557E+01  0.15262290638E+02 -0.18672426809E+02  0.24250914839E+02  0.00000000000E+00 0.  1.
         11    1    1    2    0    0  0.62700218139E+02 -0.70888740885E+02 -0.52721454792E+03  0.53564140101E+03  0.00000000000E+00 0. -1.
<mgrwt>
<rscale>  0 0.14428849E+03</rscale>
<asrwt>0</asrwt>
<pdfrwt beam="2">  1        2 0.12753269E+00 0.15158233E+03</pdfrwt>
<pdfrwt beam="1">  1       -2 0.42784415E-02 0.15158233E+03</pdfrwt>
<totfact> 0.81562344E+03</totfact>
</mgrwt>
</event>
<event>
 7    1  0.5400401E-006  0.1279599E+03  0.7546771E-02  0.1245367E+00
          2   -1    0    0  501    0  0.00000000000E+00  0.00000000000E+00  0.70798787700E+03  0.70798787700E+03  0.00000000000E+00 0. -1.
         -2   -1    0    0    0  501 -0.00000000000E+00 -0.00000000000E+00 -0.17513723974E+02  0.17513723974E+02  0.00000000000E+00 0.  1.
         23    2    1    2    0    0 -0.24356936065E+02  0.12463043085E+02  0.41240235019E+03  0.43179789794E+03  0.12500055379E+03 0.  0.
          5    1    3    3  502    0 -0.51701982469E+02 -0.24976733630E+02  0.34547220934E+03  0.35024287236E+03  0.47000000000E+01 0. -1.
         -5    1    3    3    0  502  0.27345046403E+02  0.37439776714E+02  0.66930140854E+02  0.81555025583E+02  0.47000000000E+01 0. -1.
        -11    1    1    2    0    0  0.12975067950E+01 -0.47890148464E+02  0.19095783956E+03  0.19687571291E+03  0.00000000000E+00 0. -1.
         11    1    1    2    0    0  0.23059429270E+02  0.35427105379E+02  0.87113963283E+02  0.96827990131E+02  0.00000000000E+00 0.  1.
<mgrwt>
<rscale>  0 0.11863422E+03</rscale>
<asrwt>0</asrwt>
<pdfrwt beam="1">  1        2 0.10892119E+00 0.12795986E+03</pdfrwt>
<pdfrwt beam="2">  1       -2 0.26944196E-02 0.12795986E+03</pdfrwt>
<totfact> 0.19378207E+04</totfact>
</mgrwt>
</event>
<event>
 7    1  0.5400401E-006  0.2398622E+03  0.7546771E-02  0.1123105E+00
         -2   -1    0    0    0  501 -0.00000000000E+00  0.00000000000E+00  0.71250134192E+02  0.71250134192E+02  0.00000000000E+00 0.  1.
          2   -1    0    0  501    0  0.00000000000E+00 -0.00000000000E+00 -0.76715365658E+03  0.76715365658E+03  0.00000000000E+00 0. -1.
         23    2    1    2    0    0 -0.20463957334E+03 -0.57423600962E+01 -0.29260941429E+03  0.37835715144E+03  0.12499414003E+03 0.  0.
          5    1    3    3  502    0 -0.21703086235E+03 -0.21395967782E+02 -0.27702574903E+03  0.35259826754E+03  0.47000000000E+01 0. -1.
         -5    1    3    3    0  502  0.12391289010E+02  0.15653607686E+02 -0.15583665262E+02  0.25758883903E+02  0.47000000000E+01 0. -1.
        -11    1    1    2    0    0  0.16232612275E+03  0.35689437864E+02 -0.33820477742E+03  0.37683680496E+03  0.00000000000E+00 0.  1.
         11    1    1    2    0    0  0.42313450590E+02 -0.29947077768E+02 -0.65089330671E+02  0.83209834364E+02  0.00000000000E+00 0. -1.
<mgrwt>
<rscale>  0 0.23509439E+03</rscale>
<asrwt>0</asrwt>
<pdfrwt beam="2">  1        2 0.11802365E+00 0.23986218E+03</pdfrwt>
<pdfrwt beam="1">  1       -2 0.10961558E-01 0.23986218E+03</pdfrwt>
<totfact> 0.21361060E+03</totfact>
</mgrwt>
</event>
<event>
 6    1  0.5400401E-006  0.2086658E+03  0.7546771E-02  0.1150966E+00
          1   -1    0    0  501    0  0.00000000000E+00  0.00000000000E+00  0.39238782220E+03  0.39238782220E+03  0.00000000000E+00 0. -1.
         -1   -1    0    0    0  501 -0.00000000000E+00 -0.00000000000E+00 -0.44876805403E+03  0.44876805403E+03  0.00000000000E+00 0.  1.
          5    1    1    2  502    0 -0.22353994056E+02 -0.46112465285E+01  0.87466603833E+01  0.24890936356E+02  0.47000000000E+01 0. -1.
         -5    1    1    2    0  502 -0.11995900805E+03  0.16202482951E+01 -0.41219845248E+03  0.42932789688E+03  0.47000000000E+01 0.  1.
        -11    1    1    2    0    0  0.12550346161E+03  0.25065095402E+02  0.20123500166E+03  0.23848459862E+03  0.00000000000E+00 0. -1.
         11    1    1    2    0    0  0.16809540501E+02 -0.22074097168E+02  0.14583655860E+03  0.14845244438E+03  0.00000000000E+00 0.  1.
<mgrwt>
<rscale>  0 0.19855264E+03</rscale>
<asrwt>0</asrwt>
<pdfrwt beam="1">  1        1 0.60367357E-01 0.20866576E+03</pdfrwt>
<pdfrwt beam="2">  1       -1 0.69041239E-01 0.20866576E+03</pdfrwt>
<totfact> 0.13975127E+02</totfact>
</mgrwt>
</event>
<event>
 7    1  0.5400401E-006  0.1295114E+03  0.7546771E-02  0.1240299E+00
          2   -1    0    0  501    0  0.00000000000E+00  0.00000000000E+00  0.10176612956E+04  0.10176612956E+04  0.00000000000E+00 0. -1.
         -2   -1    0    0    0  501 -0.00000000000E+00 -0.00000000000E+00 -0.13058156737E+02  0.13058156737E+02  0.00000000000E+00 0.  1.
         23    2    1    2    0    0  0.17434172395E+02 -0.29072121969E+02  0.55752514395E+03  0.57237006103E+03  0.12499624786E+03 0.  0.
          5    1    3    3  502    0  0.61749759433E+02 -0.49705269021E+02  0.37788277174E+03  0.38613614923E+03  0.47000000000E+01 0.  1.
         -5    1    3    3    0  502 -0.44315587039E+02  0.20633147052E+02  0.17964237221E+03  0.18623391180E+03  0.47000000000E+01 0.  1.
        -11    1    1    2    0    0 -0.34566671521E+02 -0.24467443149E+02  0.24337983105E+03  0.24703694606E+03  0.00000000000E+00 0.  1.
         11    1    1    2    0    0  0.17132499126E+02  0.53539565118E+02  0.20369816385E+03  0.21131244525E+03  0.00000000000E+00 0. -1.
<mgrwt>
<rscale>  0 0.12171242E+03</rscale>
<asrwt>0</asrwt>
<pdfrwt beam="1">  1        2 0.15656321E+00 0.12951139E+03</pdfrwt>
<pdfrwt beam="2">  1       -2 0.20089480E-02 0.12951139E+03</pdfrwt>
<totfact> 0.18719024E+04</totfact>
</mgrwt>
</event>
<event>
 7    1  0.5400401E-006  0.1415916E+03  0.7546771E-02  0.1222505E+00
         -2   -1    0    0    0  501 -0.00000000000E+00  0.00000000000E+00  0.49392914585E+03  0.49392914585E+03  0.00000000000E+00 0.  1.
          2   -1    0    0  501    0  0.00000000000E+00 -0.00000000000E+00 -0.35266554984E+02  0.35266554984E+02  0.00000000000E+00 0. -1.
         23    2    1    2    0    0  0.61960505259E+02 -0.24161819954E+02  0.32890270584E+03  0.35808540610E+03  0.12500108160E+03 0.  0.
          5    1    3    3  502    0  0.16472103121E+02 -0.61277309506E+02  0.25889143568E+03  0.26659539439E+03  0.47000000000E+01 0. -1.
         -5    1    3    3    0  502  0.45488402138E+02  0.37115489553E+02  0.70011270155E+02  0.91490011709E+02  0.47000000000E+01 0. -1.
        -11    1    1    2    0    0  0.14145504749E+02  0.15038606699E+02  0.28568550034E+00  0.20647920289E+02  0.00000000000E+00 0.  1.
         11    1    1    2    0    0 -0.76106010008E+02  0.91232132545E+01  0.12947419953E+03  0.15046237444E+03  0.00000000000E+00 0. -1.
<mgrwt>
<rscale>  0 0.13339372E+03</rscale>
<asrwt>0</asrwt>
<pdfrwt beam="2">  1        2 0.54256242E-02 0.14159155E+03</pdfrwt>
<pdfrwt beam="1">  1       -2 0.75989095E-01 0.14159155E+03</pdfrwt>
<totfact> 0.21678181E+03</totfact>
</mgrwt>
</event>
<event>
 7    1  0.5400401E-006  0.1370245E+03  0.7546771E-02  0.1231889E+00
         -2   -1    0    0    0  501 -0.00000000000E+00  0.00000000000E+00  0.64373183750E+02  0.64373183750E+02  0.00000000000E+00 0.  1.
          2   -1    0    0  501    0  0.00000000000E+00 -0.00000000000E+00 -0.24405551184E+03  0.24405551184E+03  0.00000000000E+00 0. -1.
         23    2    1    2    0    0  0.44889822163E+02  0.33698115276E+02 -0.54672021248E+02  0.14752882211E+03  0.12500025735E+03 0.  0.
          5    1    3    3  502    0  0.11757714305E+02  0.78218247567E+02 -0.19306601625E+02  0.81554723741E+02  0.47000000000E+01 0.  1.
         -5    1    3    3    0  502  0.33132107858E+02 -0.44520132291E+02 -0.35365419623E+02  0.65974098368E+02  0.47000000000E+01 0.  1.
        -11    1    1    2    0    0  0.13510887693E+02  0.11180165906E+02 -0.21691024798E+01  0.17670461270E+02  0.00000000000E+00 0.  1.
         11    1    1    2    0    0 -0.58400709856E+02 -0.44878281182E+02 -0.12284120437E+03  0.14322941222E+03  0.00000000000E+00 0. -1.
<mgrwt>
<rscale>  0 0.12705697E+03</rscale>
<asrwt>0</asrwt>
<pdfrwt beam="2">  1        2 0.37547002E-01 0.13702454E+03</pdfrwt>
<pdfrwt beam="1">  1       -2 0.99035667E-02 0.13702454E+03</pdfrwt>
<totfact> 0.87448775E+03</totfact>
</mgrwt>
</event>
<event>
 7    1  0.5400401E-006  0.1506102E+03  0.7546771E-02  0.1209041E+00
         -2   -1    0    0    0  501 -0.00000000000E+00  0.00000000000E+00  0.14512790565E+03  0.14512790565E+03  0.00000000000E+00 0.  1.
          2   -1    0    0  501    0  0.00000000000E+00 -0.00000000000E+00 -0.14053867532E+03  0.14053867532E+03  0.00000000000E+00 0. -1.
         23    2    1    2    0    0  0.73003879353E+02  0.41550948894E+02  0.42970174778E+02  0.15662013676E+03  0.12500953389E+03 0.  0.
          5    1    3    3  502    0  0.26227532444E+02  0.34278439282E+02 -0.41253656255E+02  0.59890308165E+02  0.47000000000E+01 0. -1.
         -5    1    3    3    0  502  0.46776346909E+02  0.72725096113E+01  0.84223831033E+02  0.96729828595E+02  0.47000000000E+01 0. -1.
        -11    1    1    2    0    0 -0.60061774260E+02  0.16460493278E+01  0.12170793672E+02  0.61304603614E+02  0.00000000000E+00 0. -1.
         11    1    1    2    0    0 -0.12942105094E+02 -0.43196998221E+02 -0.50551738126E+02  0.67741840594E+02  0.00000000000E+00 0.  1.
<mgrwt>
<rscale>  0 0.14323507E+03</rscale>
<asrwt>0</asrwt>
<pdfrwt beam="2">  1        2 0.21621335E-01 0.15061020E+03</pdfrwt>
<pdfrwt beam="1">  1       -2 0.22327370E-01 0.15061020E+03</pdfrwt>
<totfact> 0.42441375E+03</totfact>
</mgrwt>
</event>
<event>
 7    1  0.5400401E-006  0.1678068E+03  0.7546771E-02  0.1186869E+00
         -2   -1    0    0    0  501 -0.00000000000E+00  0.00000000000E+00  0.65630186622E+02  0.65630186622E+02  0.00000000000E+00 0.  1.
          2   -1    0    0  501    0  0.00000000000E+00 -0.00000000000E+00 -0.42539109997E+03  0.42539109997E+03  0.00000000000E+00 0. -1.
         23    2    1    2    0    0 -0.26214024139E+02 -0.10885650739E+03 -0.10435776332E+03  0.19760988749E+03  0.12498884193E+03 0.  0.
          5    1    3    3  502    0 -0.69058196920E+02 -0.78957582766E+02 -0.35067406178E+02  0.11070296931E+03  0.47000000000E+01 0.  1.
         -5    1    3    3    0  502  0.42844172782E+02 -0.29898924624E+02 -0.69290357138E+02  0.86906918179E+02  0.47000000000E+01 0.  1.
        -11    1    1    2    0    0  0.14123738668E+02  0.61005250955E+02 -0.44525680378E+02  0.76835257865E+02  0.00000000000E+00 0.  1.
         11    1    1    2    0    0  0.12090285471E+02  0.47851256435E+02 -0.21087746966E+03  0.21657614124E+03  0.00000000000E+00 0. -1.
<mgrwt>
<rscale>  0 0.16162931E+03</rscale>
<asrwt>0</asrwt>
<pdfrwt beam="2">  1        2 0.65444787E-01 0.16780681E+03</pdfrwt>
<pdfrwt beam="1">  1       -2 0.10096951E-01 0.16780681E+03</pdfrwt>
<totfact> 0.47456299E+03</totfact>
</mgrwt>
</event>
<event>
 7    1  0.5400401E-006  0.1569660E+03  0.7546771E-02  0.1200254E+00
          1   -1    0    0  501    0  0.00000000000E+00  0.00000000000E+00  0.41196815307E+03  0.41196815307E+03  0.00000000000E+00 0. -1.
         -1   -1    0    0    0  501 -0.00000000000E+00 -0.00000000000E+00 -0.50621663526E+02  0.50621663526E+02  0.00000000000E+00 0.  1.
         23    2    1    2    0    0 -0.77399018638E+02 -0.54972057861E+02  0.18555853095E+03  0.24304378844E+03  0.12500311781E+03 0.  0.
          5    1    3    3  502    0 -0.64083943678E+00  0.31684264773E+02  0.11677547395E+02  0.34099243724E+02  0.47000000000E+01 0. -1.
         -5    1    3    3    0  502 -0.76758179201E+02 -0.86656322634E+02  0.17388098355E+03  0.20894454472E+03  0.47000000000E+01 0. -1.
        -11    1    1    2    0    0  0.67922049053E+02  0.71942003128E+02  0.97597739922E+02  0.13897616846E+03  0.00000000000E+00 0.  1.
         11    1    1    2    0    0  0.94769695845E+01 -0.16969945267E+02  0.78190218671E+02  0.80569859692E+02  0.00000000000E+00 0. -1.
<mgrwt>
<rscale>  0 0.15017821E+03</rscale>
<asrwt>0</asrwt>
<pdfrwt beam="1">  1        1 0.63379714E-01 0.15696597E+03</pdfrwt>
<pdfrwt beam="2">  1       -1 0.77879485E-02 0.15696597E+03</pdfrwt>
<totfact> 0.50715316E+03</totfact>
</mgrwt>
</event>
<event>
 7    1  0.5400401E-006  0.1503635E+03  0.7546771E-02  0.1208811E+00
         -1   -1    0    0    0  501 -0.00000000000E+00  0.00000000000E+00  0.48870821585E+02  0.48870821585E+02  0.00000000000E+00 0.  1.
          1   -1    0    0  501    0  0.00000000000E+00 -0.00000000000E+00 -0.41357097855E+03  0.41357097855E+03  0.00000000000E+00 0. -1.
         23    2    1    2    0    0 -0.49254658260E+02  0.67509430542E+02 -0.13926345356E+03  0.20494755047E+03  0.12500257748E+03 0.  0.
          5    1    3    3  502    0  0.20337093270E+01  0.10594959377E+02  0.22782003347E+02  0.25641739690E+02  0.47000000000E+01 0.  1.
         -5    1    3    3    0  502 -0.51288367587E+02  0.56914471165E+02 -0.16204545690E+03  0.17930581078E+03  0.47000000000E+01 0.  1.
        -11    1    1    2    0    0  0.11561021626E+02 -0.80974345348E+02 -0.12508860751E+03  0.14945789225E+03  0.00000000000E+00 0.  1.
         11    1    1    2    0    0  0.37693636635E+02  0.13464914806E+02 -0.10034809590E+03  0.10803635742E+03  0.00000000000E+00 0. -1.
<mgrwt>
<rscale>  0 0.14341144E+03</rscale>
<asrwt>0</asrwt>
<pdfrwt beam="2">  1        1 0.63626304E-01 0.15036352E+03</pdfrwt>
<pdfrwt beam="1">  1       -1 0.75185880E-02 0.15036352E+03</pdfrwt>
<totfact> 0.53098776E+03</totfact>
</mgrwt>
</event>
<event>
 7    1  0.5400401E-006  0.1935603E+03  0.7546771E-02  0.1159634E+00
          2   -1    0    0  501    0  0.00000000000E+00  0.00000000000E+00  0.11537385817E+04  0.11537385817E+04  0.00000000000E+00 0. -1.
         -2   -1    0    0    0  501 -0.00000000000E+00 -0.00000000000E+00 -0.49543629641E+02  0.49543629641E+02  0.00000000000E+00 0.  1.
         23    2    1    2    0    0 -0.95820527883E+02  0.11251237008E+03  0.18550835077E+03  0.26810244302E+03  0.12499985903E+03 0.  0.
          5    1    3    3  502    0  0.10208173008E+02 -0.20509425508E+02  0.22563833028E+02  0.32497075126E+02  0.47000000000E+01 0. -1.
         -5    1    3    3    0  502 -0.10602870089E+03  0.13302179559E+03  0.16294451775E+03  0.23560536789E+03  0.47000000000E+01 0. -1.
        -11    1    1    2    0    0  0.74235586853E+02 -0.17553635939E+02  0.45850759766E+03  0.46480992847E+03  0.00000000000E+00 0. -1.
         11    1    1    2    0    0  0.21584941030E+02 -0.94958734145E+02  0.46017900360E+03  0.47036983983E+03  0.00000000000E+00 0.  1.
<mgrwt>
<rscale>  0 0.18870567E+03</rscale>
<asrwt>0</asrwt>
<pdfrwt beam="1">  1        2 0.17749822E+00 0.19356025E+03</pdfrwt>
<pdfrwt beam="2">  1       -2 0.76220977E-02 0.19356025E+03</pdfrwt>
<totfact> 0.21626969E+03</totfact>
</mgrwt>
</event>
<event>
 7    1  0.5400401E-006  0.1572476E+03  0.7546771E-02  0.1200607E+00
         -4   -1    0    0    0  501 -0.00000000000E+00  0.00000000000E+00  0.19029188979E+02  0.19029188979E+02  0.00000000000E+00 0.  1.
          4   -1    0    0  501    0  0.00000000000E+00 -0.00000000000E+00 -0.11011052914E+04  0.11011052914E+04  0.00000000000E+00 0. -1.
         23    2    1    2    0    0 -0.79490378576E+02  0.52761046362E+02 -0.51971899865E+03  0.54298678030E+03  0.12499743085E+03 0.  0.
          5    1    3    3  502    0 -0.16538404823E+02  0.11846494052E+01 -0.38596316232E+03  0.38634773831E+03  0.47000000000E+01 0.  1.
         -5    1    3    3    0  502 -0.62951973753E+02  0.51576396956E+02 -0.13375583633E+03  0.15663904199E+03  0.47000000000E+01 0.  1.
        -11    1    1    2    0    0  0.45765402367E+02  0.19372241377E+02 -0.24118095781E+03  0.24624786334E+03  0.00000000000E+00 0. -1.
         11    1    1    2    0    0  0.33724976209E+02 -0.72133287739E+02 -0.32117614593E+03  0.33089983671E+03  0.00000000000E+00 0.  1.
<mgrwt>
<rscale>  0 0.14989106E+03</rscale>
<asrwt>0</asrwt>
<pdfrwt beam="2">  1        4 0.16940080E+00 0.15724759E+03</pdfrwt>
<pdfrwt beam="1">  1       -4 0.29275678E-02 0.15724759E+03</pdfrwt>
<totfact> 0.22246587E+02</totfact>
</mgrwt>
</event>
<event>
 6    1  0.5400401E-006  0.1851532E+03  0.7546771E-02  0.1169164E+00
          1   -1    0    0  501    0  0.00000000000E+00  0.00000000000E+00  0.72623019091E+03  0.72623019091E+03  0.00000000000E+00 0. -1.
         -1   -1    0    0    0  501 -0.00000000000E+00 -0.00000000000E+00 -0.41757316827E+02  0.41757316827E+02  0.00000000000E+00 0.  1.
          5    1    1    2  502    0 -0.61970566161E+01 -0.14098632686E+03  0.29699385055E+03  0.32885100750E+03  0.47000000000E+01 0. -1.
         -5    1    1    2    0  502  0.39585113471E+02  0.15953379878E+02  0.11816723766E+03  0.12572620091E+03  0.47000000000E+01 0.  1.
        -11    1    1    2    0    0 -0.12761377776E+02  0.13049310063E+03  0.18705609391E+03  0.22843223141E+03  0.00000000000E+00 0.  1.
         11    1    1    2    0    0 -0.20626679079E+02 -0.54601536531E+01  0.82255691964E+02  0.84978067924E+02  0.00000000000E+00 0. -1.
<mgrwt>
<rscale>  0 0.17860109E+03</rscale>
<asrwt>0</asrwt>
<pdfrwt beam="1">  1        1 0.11172771E+00 0.18515320E+03</pdfrwt>
<pdfrwt beam="2">  1       -1 0.64242031E-02 0.18515320E+03</pdfrwt>
<totfact> 0.31759802E+03</totfact>
</mgrwt>
</event>
<event>
 7    1  0.5400401E-006  0.1825169E+03  0.7546771E-02  0.1170636E+00
         -3   -1    0    0    0  501 -0.00000000000E+00  0.00000000000E+00  0.71233888824E+02  0.71233888824E+02  0.00000000000E+00 0.  1.
          3   -1    0    0  501    0  0.00000000000E+00 -0.00000000000E+00 -0.41879834362E+03  0.41879834362E+03  0.00000000000E+00 0. -1.
         23    2    1    2    0    0 -0.24274196427E+02 -0.13076720030E+03 -0.16451022810E+03  0.24571534605E+03  0.12499247517E+03 0.  0.
          5    1    3    3  502    0 -0.42661237093E+02 -0.11116250378E+03 -0.52119839339E+02  0.13006018242E+03  0.47000000000E+01 0.  1.
         -5    1    3    3    0  502  0.18387040666E+02 -0.19604696520E+02 -0.11239038876E+03  0.11565516363E+03  0.47000000000E+01 0.  1.
        -11    1    1    2    0    0  0.31451652220E+02  0.70659506219E+00 -0.38900513215E+02  0.50029547593E+02  0.00000000000E+00 0.  1.
         11    1    1    2    0    0 -0.71774557926E+01  0.13006060524E+03 -0.14415371349E+03  0.19428733880E+03  0.00000000000E+00 0. -1.
<mgrwt>
<rscale>  0 0.17710362E+03</rscale>
<asrwt>0</asrwt>
<pdfrwt beam="2">  1        3 0.64430517E-01 0.18251689E+03</pdfrwt>
<pdfrwt beam="1">  1       -3 0.10959059E-01 0.18251689E+03</pdfrwt>
<totfact> 0.36303644E+02</totfact>
</mgrwt>
</event>
<event>
 7    1  0.5400401E-006  0.1640697E+03  0.7546771E-02  0.1191230E+00
          2   -1    0    0  501    0  0.00000000000E+00  0.00000000000E+00  0.94604641471E+03  0.94604641471E+03  0.00000000000E+00 0. -1.
         -2   -1    0    0    0  501 -0.00000000000E+00 -0.00000000000E+00 -0.34496469199E+02  0.34496469199E+02  0.00000000000E+00 0.  1.
         23    2    1    2    0    0 -0.10370256530E+03 -0.23239184000E+02  0.21744542669E+03  0.27239929166E+03  0.12499831514E+03 0.  0.
          5    1    3    3  502    0 -0.11996091051E+03  0.11558759474E+02  0.18966462572E+03  0.22476428813E+03  0.47000000000E+01 0. -1.
         -5    1    3    3    0  502  0.16258345207E+02 -0.34797943474E+02  0.27780800968E+02  0.47635003530E+02  0.47000000000E+01 0. -1.
        -11    1    1    2    0    0  0.29461562086E+01 -0.22074814211E+02  0.51463279398E+02  0.56075363443E+02  0.00000000000E+00 0.  1.
         11    1    1    2    0    0  0.10075640909E+03  0.45313998211E+02  0.64264123942E+03  0.65206822880E+03  0.00000000000E+00 0. -1.
<mgrwt>
<rscale>  0 0.15777626E+03</rscale>
<asrwt>0</asrwt>
<pdfrwt beam="1">  1        2 0.14554558E+00 0.16406968E+03</pdfrwt>
<pdfrwt beam="2">  1       -2 0.53071498E-02 0.16406968E+03</pdfrwt>
<totfact> 0.49811377E+03</totfact>
</mgrwt>
</event>
<event>
 7    1  0.5400401E-006  0.2094401E+03  0.7546771E-02  0.1145980E+00
          2   -1    0    0  501    0  0.00000000000E+00  0.00000000000E+00  0.67905586396E+03  0.67905586396E+03  0.00000000000E+00 0. -1.
         -2   -1    0    0    0  501 -0.00000000000E+00 -0.00000000000E+00 -0.61452002543E+02  0.61452002543E+02  0.00000000000E+00 0.  1.
         23    2    1    2    0    0 -0.53751691225E+02 -0.15922129265E+03  0.24707076176E+03  0.32389674673E+03  0.12499790751E+03 0.  0.
          5    1    3    3  502    0 -0.11327186594E+02 -0.13235193055E+03  0.94183380903E+02  0.16290468966E+03  0.47000000000E+01 0.  1.
         -5    1    3    3    0  502 -0.42424504632E+02 -0.26869362104E+02  0.15288738086E+03  0.16099205707E+03  0.47000000000E+01 0.  1.
        -11    1    1    2    0    0  0.23851630586E+02  0.43703418400E+02  0.36017219790E+02  0.61450217110E+02  0.00000000000E+00 0. -1.
         11    1    1    2    0    0  0.29900060639E+02  0.11551787425E+03  0.33451587986E+03  0.35516090266E+03  0.00000000000E+00 0.  1.
<mgrwt>
<rscale>  0 0.20452120E+03</rscale>
<asrwt>0</asrwt>
<pdfrwt beam="1">  1        2 0.10447013E+00 0.20944007E+03</pdfrwt>
<pdfrwt beam="2">  1       -2 0.94541547E-02 0.20944007E+03</pdfrwt>
<totfact> 0.31298140E+03</totfact>
</mgrwt>
</event>
<event>
 7    1  0.5400401E-006  0.1487231E+03  0.7546771E-02  0.1211241E+00
         -1   -1    0    0    0  501 -0.00000000000E+00  0.00000000000E+00  0.81417573227E+03  0.81417573227E+03  0.00000000000E+00 0.  1.
          1   -1    0    0  501    0  0.00000000000E+00 -0.00000000000E+00 -0.38394992584E+02  0.38394992584E+02  0.00000000000E+00 0. -1.
         23    2    1    2    0    0  0.20033364604E+02  0.78051757530E+02  0.68360251780E+03  0.69959343150E+03  0.12500061802E+03 0.  0.
          5    1    3    3  502    0 -0.18986740841E+02 -0.22602111858E+02  0.28640167797E+03  0.28795722414E+03  0.47000000000E+01 0.  1.
         -5    1    3    3    0  502  0.39020105445E+02  0.10065386939E+03  0.39720083983E+03  0.41163620737E+03  0.47000000000E+01 0.  1.
        -11    1    1    2    0    0 -0.77299750998E+01  0.20627593383E+02  0.11081407002E+02  0.24658623338E+02  0.00000000000E+00 0. -1.
         11    1    1    2    0    0 -0.12303389504E+02 -0.98679350913E+02  0.81096814883E+02  0.12831867001E+03  0.00000000000E+00 0.  1.
<mgrwt>
<rscale>  0 0.14156347E+03</rscale>
<asrwt>0</asrwt>
<pdfrwt beam="2">  1        1 0.59069225E-02 0.14872312E+03</pdfrwt>
<pdfrwt beam="1">  1       -1 0.12525779E+00 0.14872312E+03</pdfrwt>
<totfact> 0.77930452E+02</totfact>
</mgrwt>
</event>
<event>
 7    1  0.5400401E-006  0.1276008E+03  0.7546771E-02  0.1246192E+00
         -2   -1    0    0    0  501 -0.00000000000E+00  0.00000000000E+00  0.50754140160E+02  0.50754140160E+02  0.00000000000E+00 0.  1.
          2   -1    0    0  501    0  0.00000000000E+00 -0.00000000000E+00 -0.24241777732E+03  0.24241777732E+03  0.00000000000E+00 0. -1.
         23    2    1    2    0    0  0.14469959500E+02  0.21054396345E+02 -0.11984571830E+03  0.17505704064E+03  0.12501721461E+03 0.  0.
          5    1    3    3  502    0  0.25724266816E+02  0.31786937161E+02  0.11478571646E+02  0.42731661381E+02  0.47000000000E+01 0.  1.
         -5    1    3    3    0  502 -0.11254307316E+02 -0.10732540816E+02 -0.13132428995E+03  0.13232537926E+03  0.47000000000E+01 0.  1.
        -11    1    1    2    0    0 -0.40138130406E+02  0.14378949564E+02 -0.12546876788E+02  0.44443760194E+02  0.00000000000E+00 0.  1.
         11    1    1    2    0    0  0.25668170906E+02 -0.35433345908E+02 -0.59271042072E+02  0.73671116648E+02  0.00000000000E+00 0. -1.
<mgrwt>
<rscale>  0 0.11814332E+03</rscale>
<asrwt>0</asrwt>
<pdfrwt beam="2">  1        2 0.37295042E-01 0.12760083E+03</pdfrwt>
<pdfrwt beam="1">  1       -2 0.78083293E-02 0.12760083E+03</pdfrwt>
<totfact> 0.12673756E+04</totfact>
</mgrwt>
</event>
<event>
 7    1  0.5400401E-006  0.2638382E+03  0.7546771E-02  0.1107060E+00
         -2   -1    0    0    0  501 -0.00000000000E+00  0.00000000000E+00  0.31732471061E+03  0.31732471061E+03  0.00000000000E+00 0.  1.
          2   -1    0    0  501    0  0.00000000000E+00 -0.00000000000E+00 -0.21950473692E+03  0.21950473692E+03  0.00000000000E+00 0. -1.
         23    2    1    2    0    0  0.20786260819E+03 -0.10381988508E+03  0.11300626614E+03  0.28702093475E+03  0.12500067351E+03 0.  0.
          5    1    3    3  502    0 -0.69177128534E+01  0.13710983379E+02 -0.25221352745E+01  0.16257213251E+02  0.47000000000E+01 0. -1.
         -5    1    3    3    0  502  0.21478032105E+03 -0.11753086846E+03  0.11552840141E+03  0.27076372150E+03  0.47000000000E+01 0. -1.
        -11    1    1    2    0    0 -0.86301026339E+02  0.19265780026E+02  0.32552701856E+02  0.94226937896E+02  0.00000000000E+00 0.  1.
         11    1    1    2    0    0 -0.12156158185E+03  0.84554105058E+02 -0.47738994298E+02  0.15558157488E+03  0.00000000000E+00 0. -1.
<mgrwt>
<rscale>  0 0.26013817E+03</rscale>
<asrwt>0</asrwt>
<pdfrwt beam="2">  1        2 0.33769960E-01 0.26383821E+03</pdfrwt>
<pdfrwt beam="1">  1       -2 0.48819186E-01 0.26383821E+03</pdfrwt>
<totfact> 0.62161145E+02</totfact>
</mgrwt>
</event>
<event>
 7    1  0.5400401E-006  0.1852121E+03  0.7546771E-02  0.1169411E+00
          2   -1    0    0  501    0  0.00000000000E+00  0.00000000000E+00  0.92892320853E+03  0.92892320853E+03  0.00000000000E+00 0. -1.
         -2   -1    0    0    0  501 -0.00000000000E+00 -0.00000000000E+00 -0.32323750192E+02  0.32323750192E+02  0.00000000000E+00 0.  1.
         23    2    1    2    0    0  0.77361507381E+02  0.11266798488E+03  0.42897093079E+03  0.46724682198E+03  0.12499862219E+03 0.  0.
          5    1    3    3  502    0  0.11106995688E+01 -0.26011918262E+02  0.73235317664E+02  0.77867549715E+02  0.47000000000E+01 0.  1.
         -5    1    3    3    0  502  0.76250807813E+02  0.13867990314E+03  0.35573561312E+03  0.38937927227E+03  0.47000000000E+01 0.  1.
        -11    1    1    2    0    0 -0.28039482401E+01 -0.67618403173E+02  0.14846609504E+03  0.16316339034E+03  0.00000000000E+00 0.  1.
         11    1    1    2    0    0 -0.74557559141E+02 -0.45049581707E+02  0.31916243251E+03  0.33083674639E+03  0.00000000000E+00 0. -1.
<mgrwt>
<rscale>  0 0.17834875E+03</rscale>
<asrwt>0</asrwt>
<pdfrwt beam="1">  1        2 0.14291124E+00 0.18521213E+03</pdfrwt>
<pdfrwt beam="2">  1       -2 0.49728854E-02 0.18521213E+03</pdfrwt>
<totfact> 0.56575718E+03</totfact>
</mgrwt>
</event>
<event>
 7    1  0.5400401E-006  0.1296703E+03  0.7546771E-02  0.1242147E+00
          3   -1    0    0  501    0  0.00000000000E+00  0.00000000000E+00  0.42685139945E+02  0.42685139945E+02  0.00000000000E+00 0. -1.
         -3   -1    0    0    0  501 -0.00000000000E+00 -0.00000000000E+00 -0.36715790040E+03  0.36715790040E+03  0.00000000000E+00 0.  1.
         23    2    1    2    0    0 -0.48539095250E+01 -0.34076529489E+02 -0.26780388973E+03  0.29754546170E+03  0.12501843113E+03 0.  0.
          5    1    3    3  502    0  0.18341673383E+02 -0.76723697775E+02 -0.14020512141E+03  0.16094256383E+03  0.47000000000E+01 0.  1.
         -5    1    3    3    0  502 -0.23195582908E+02  0.42647168286E+02 -0.12759876831E+03  0.13660289786E+03  0.47000000000E+01 0.  1.
        -11    1    1    2    0    0  0.19732947712E+02  0.58716985642E+02 -0.18806486755E+02  0.64736060834E+02  0.00000000000E+00 0.  1.
         11    1    1    2    0    0 -0.14879038187E+02 -0.24640456153E+02 -0.37862383978E+02  0.47561517820E+02  0.00000000000E+00 0. -1.
<mgrwt>
<rscale>  0 0.12057791E+03</rscale>
<asrwt>0</asrwt>
<pdfrwt beam="1">  1        3 0.65669445E-02 0.12967027E+03</pdfrwt>
<pdfrwt beam="2">  1       -3 0.56485832E-01 0.12967027E+03</pdfrwt>
<totfact> 0.10499269E+03</totfact>
</mgrwt>
</event>
<event>
 7    1  0.5400401E-006  0.1365022E+03  0.7546771E-02  0.1229279E+00
         -2   -1    0    0    0  501 -0.00000000000E+00  0.00000000000E+00  0.26164440671E+02  0.26164440671E+02  0.00000000000E+00 0.  1.
          2   -1    0    0  501    0  0.00000000000E+00 -0.00000000000E+00 -0.60635741078E+03  0.60635741078E+03  0.00000000000E+00 0. -1.
         23    2    1    2    0    0  0.17924157925E+02 -0.51828760838E+02 -0.24683496759E+03  0.28206443048E+03  0.12500138330E+03 0.  0.
          5    1    3    3  502    0  0.65486963049E+02 -0.45415971973E+02 -0.10271525787E+03  0.13009099523E+03  0.47000000000E+01 0.  1.
         -5    1    3    3    0  502 -0.47562805124E+02 -0.64127888655E+01 -0.14411970971E+03  0.15197343525E+03  0.47000000000E+01 0.  1.
        -11    1    1    2    0    0 -0.36499020231E+02  0.68953775582E+02 -0.19904516871E+03  0.21378910364E+03  0.00000000000E+00 0.  1.
         11    1    1    2    0    0  0.18574862306E+02 -0.17125014744E+02 -0.13431283381E+03  0.13666831734E+03  0.00000000000E+00 0. -1.
<mgrwt>
<rscale>  0 0.12877889E+03</rscale>
<asrwt>0</asrwt>
<pdfrwt beam="2">  1        2 0.93285760E-01 0.13650217E+03</pdfrwt>
<pdfrwt beam="1">  1       -2 0.40252984E-02 0.13650217E+03</pdfrwt>
<totfact> 0.12907228E+04</totfact>
</mgrwt>
</event>
<event>
 7    1  0.5400401E-006  0.1785154E+03  0.7546771E-02  0.1174938E+00
          2   -1    0    0  501    0  0.00000000000E+00  0.00000000000E+00  0.43564671853E+03  0.43564671853E+03  0.00000000000E+00 0. -1.
         -2   -1    0    0    0  501 -0.00000000000E+00 -0.00000000000E+00 -0.64527226750E+02  0.64527226750E+02  0.00000000000E+00 0.  1.
         23    2    1    2    0    0 -0.81590972004E+02 -0.98004290549E+02  0.19939090955E+03  0.26762749758E+03  0.12492323633E+03 0.  0.
          5    1    3    3  502    0 -0.10488274028E+03 -0.54147289666E+02  0.93773681765E+02  0.15082410808E+03  0.47000000000E+01 0.  1.
         -5    1    3    3    0  502  0.23291768271E+02 -0.43857000883E+02  0.10561722778E+03  0.11680338950E+03  0.47000000000E+01 0.  1.
        -11    1    1    2    0    0 -0.12300897078E+02  0.49178260799E+02  0.49212146411E+02  0.70651601245E+02  0.00000000000E+00 0.  1.
         11    1    1    2    0    0  0.93891869083E+02  0.48826029750E+02  0.12251643582E+03  0.16189484645E+03  0.00000000000E+00 0. -1.
<mgrwt>
<rscale>  0 0.17282050E+03</rscale>
<asrwt>0</asrwt>
<pdfrwt beam="1">  1        2 0.67022570E-01 0.17851538E+03</pdfrwt>
<pdfrwt beam="2">  1       -2 0.99272659E-02 0.17851538E+03</pdfrwt>
<totfact> 0.47638619E+03</totfact>
</mgrwt>
</event>
<event>
 6    1  0.5400401E-006  0.1653619E+03  0.7546771E-02  0.1208000E+00
          1   -1    0    0  501    0  0.00000000000E+00  0.00000000000E+00  0.61898961347E+02  0.61898961347E+02  0.00000000000E+00 0. -1.
         -1   -1    0    0    0  501 -0.00000000000E+00 -0.00000000000E+00 -0.68693112204E+03  0.68693112204E+03  0.00000000000E+00 0.  1.
          5    1    1    2  502    0 -0.65342792918E+02  0.29446952014E+02 -0.37718863045E+03  0.38396634814E+03  0.47000000000E+01 0. -1.
         -5    1    1    2    0  502  0.55651938840E+02 -0.66936379662E+02 -0.25492139754E+03  0.26941534133E+03  0.47000000000E+01 0.  1.
        -11    1    1    2    0    0  0.17512199113E+02  0.22680101311E+02 -0.37865836444E+02  0.47485636596E+02  0.00000000000E+00 0.  1.
         11    1    1    2    0    0 -0.78213450354E+01  0.14809326337E+02  0.44943703734E+02  0.47962757324E+02  0.00000000000E+00 0. -1.
<mgrwt>
<rscale>  0 0.14403543E+03</rscale>
<asrwt>0</asrwt>
<pdfrwt beam="1">  1        1 0.95229170E-02 0.16536186E+03</pdfrwt>
<pdfrwt beam="2">  1       -1 0.10568171E+00 0.16536186E+03</pdfrwt>
<totfact> 0.60775863E+02</totfact>
</mgrwt>
</event>
<event>
 6    1  0.5400401E-006  0.1735480E+03  0.7546771E-02  0.1196565E+00
         -2   -1    0    0    0  501 -0.00000000000E+00  0.00000000000E+00  0.41467186783E+02  0.41467186783E+02  0.00000000000E+00 0.  1.
          2   -1    0    0  501    0  0.00000000000E+00 -0.00000000000E+00 -0.48951556018E+03  0.48951556018E+03  0.00000000000E+00 0. -1.
          5    1    1    2  502    0 -0.96800759710E+02  0.56428908376E+02 -0.14036533071E+03  0.17966392194E+03  0.47000000000E+01 0. -1.
         -5    1    1    2    0  502  0.58118212893E+02 -0.18943817487E+02 -0.83685404853E+02  0.10373973143E+03  0.47000000000E+01 0.  1.
        -11    1    1    2    0    0 -0.54854474576E+01 -0.52715951652E+02 -0.78118665270E+02  0.94401205267E+02  0.00000000000E+00 0.  1.
         11    1    1    2    0    0  0.44167994275E+02  0.15230860763E+02 -0.14587897256E+03  0.15317788833E+03  0.00000000000E+00 0. -1.
<mgrwt>
<rscale>  0 0.15322514E+03</rscale>
<asrwt>0</asrwt>
<pdfrwt beam="2">  1        2 0.75310084E-01 0.17354797E+03</pdfrwt>
<pdfrwt beam="1">  1       -2 0.63795674E-02 0.17354797E+03</pdfrwt>
<totfact> 0.83235732E+03</totfact>
</mgrwt>
</event>
<event>
 7    1  0.5400401E-006  0.1328605E+03  0.7546771E-02  0.1234592E+00
         -1   -1    0    0    0  501 -0.00000000000E+00  0.00000000000E+00  0.19439898612E+02  0.19439898612E+02  0.00000000000E+00 0.  1.
          1   -1    0    0  501    0  0.00000000000E+00 -0.00000000000E+00 -0.72855758432E+03  0.72855758432E+03  0.00000000000E+00 0. -1.
         23    2    1    2    0    0  0.37320092456E+02  0.37126698467E+02 -0.40217411921E+03  0.42355158781E+03  0.12198665636E+03 0.  0.
          5    1    3    3  502    0  0.26770999044E+02  0.64886424005E+02 -0.37931201882E+03  0.38578054906E+03  0.47000000000E+01 0. -1.
         -5    1    3    3    0  502  0.10549093412E+02 -0.27759725538E+02 -0.22862100391E+02  0.37771038747E+02  0.47000000000E+01 0.  1.
        -11    1    1    2    0    0 -0.29602631427E+02 -0.62892473908E+02 -0.15140759202E+03  0.16660143452E+03  0.00000000000E+00 0. -1.
         11    1    1    2    0    0 -0.77174610288E+01  0.25765775441E+02 -0.15553597447E+03  0.15784446060E+03  0.00000000000E+00 0.  1.
<mgrwt>
<rscale>  0 0.12530580E+03</rscale>
<asrwt>0</asrwt>
<pdfrwt beam="2">  1        1 0.11208580E+00 0.13286055E+03</pdfrwt>
<pdfrwt beam="1">  1       -1 0.29907531E-02 0.13286055E+03</pdfrwt>
<totfact> 0.96440774E+03</totfact>
</mgrwt>
</event>
<event>
 7    1  0.5400401E-006  0.1457766E+03  0.7546771E-02  0.1215090E+00
          1   -1    0    0  501    0  0.00000000000E+00  0.00000000000E+00  0.26685227437E+03  0.26685227437E+03  0.00000000000E+00 0. -1.
         -1   -1    0    0    0  501 -0.00000000000E+00 -0.00000000000E+00 -0.92633228365E+02  0.92633228365E+02  0.00000000000E+00 0.  1.
         23    2    1    2    0    0 -0.58956790702E+02  0.46378361265E+02 -0.29465104593E+01  0.14580635395E+03  0.12499582139E+03 0.  0.
          5    1    3    3  502    0 -0.18514451337E+02  0.46143593313E+02 -0.58507908445E+02  0.76923867966E+02  0.47000000000E+01 0. -1.
         -5    1    3    3    0  502 -0.40442339365E+02  0.23476795197E+00  0.55561397986E+02  0.68882485985E+02  0.47000000000E+01 0. -1.
        -11    1    1    2    0    0  0.42170439321E+02 -0.69404751700E+02  0.86535903090E+02  0.11867530508E+03  0.00000000000E+00 0.  1.
         11    1    1    2    0    0  0.16786351381E+02  0.23026390434E+02  0.90629653377E+02  0.95003843714E+02  0.00000000000E+00 0. -1.
<mgrwt>
<rscale>  0 0.13869895E+03</rscale>
<asrwt>0</asrwt>
<pdfrwt beam="1">  1        1 0.41054196E-01 0.14577658E+03</pdfrwt>
<pdfrwt beam="2">  1       -1 0.14251266E-01 0.14577658E+03</pdfrwt>
<totfact> 0.34367300E+03</totfact>
</mgrwt>
</event>
<event>
 7    1  0.5400401E-006  0.1646393E+03  0.7546771E-02  0.1191011E+00
         -2   -1    0    0    0  501 -0.00000000000E+00  0.00000000000E+00  0.25196820941E+03  0.25196820941E+03  0.00000000000E+00 0. -1.
          2   -1    0    0  501    0  0.00000000000E+00 -0.00000000000E+00 -0.11134010519E+03  0.11134010519E+03  0.00000000000E+00 0.  1.
         23    2    1    2    0    0 -0.71426350505E+02 -0.79864236904E+02  0.15099302387E+03  0.22339425223E+03  0.12500431509E+03 0.  0.
          5    1    3    3  502    0 -0.22064764095E+02  0.28182681470E+02  0.71809250991E+01  0.36807241606E+02  0.47000000000E+01 0.  1.
         -5    1    3    3    0  502 -0.49361586411E+02 -0.10804691837E+03  0.14381209877E+03  0.18658701063E+03  0.47000000000E+01 0.  1.
        -11    1    1    2    0    0  0.67430818370E+02  0.45044245449E+02  0.29993744213E+02  0.86461112681E+02  0.00000000000E+00 0. -1.
         11    1    1    2    0    0  0.39955321356E+01  0.34819991455E+02 -0.40358663856E+02  0.53452949687E+02  0.00000000000E+00 0.  1.
<mgrwt>
<rscale>  0 0.15796713E+03</rscale>
<asrwt>0</asrwt>
<pdfrwt beam="2">  1        2 0.17129247E-01 0.16463930E+03</pdfrwt>
<pdfrwt beam="1">  1       -2 0.38764340E-01 0.16463930E+03</pdfrwt>
<totfact> 0.20597835E+03</totfact>
</mgrwt>
</event>
<event>
 7    1  0.5400401E-006  0.1631064E+03  0.7546771E-02  0.1192524E+00
          2   -1    0    0  501    0  0.00000000000E+00  0.00000000000E+00  0.85344381227E+03  0.85344381227E+03  0.00000000000E+00 0. -1.
         -2   -1    0    0    0  501 -0.00000000000E+00 -0.00000000000E+00 -0.27098731211E+02  0.27098731211E+02  0.00000000000E+00 0.  1.
         23    2    1    2    0    0  0.89623501487E+02  0.54264486040E+02  0.39267577765E+03  0.42520342922E+03  0.12500673343E+03 0.  0.
          5    1    3    3  502    0  0.47835822476E+02 -0.34664301516E+02  0.20386847283E+03  0.21230714525E+03  0.47000000000E+01 0. -1.
         -5    1    3    3    0  502  0.41787679011E+02  0.88928787556E+02  0.18880730483E+03  0.21289628397E+03  0.47000000000E+01 0. -1.
        -11    1    1    2    0    0 -0.10120100120E+03 -0.58808571842E+02  0.42318103231E+03  0.43906978588E+03  0.00000000000E+00 0. -1.
         11    1    1    2    0    0  0.11577499709E+02  0.45440858022E+01  0.10488271091E+02  0.16269328375E+02  0.00000000000E+00 0.  1.
<mgrwt>
<rscale>  0 0.15665647E+03</rscale>
<asrwt>0</asrwt>
<pdfrwt beam="1">  1        2 0.13129903E+00 0.16310638E+03</pdfrwt>
<pdfrwt beam="2">  1       -2 0.41690362E-02 0.16310638E+03</pdfrwt>
<totfact> 0.81997327E+03</totfact>
</mgrwt>
</event>
<event>
 6    1  0.5400401E-006  0.1429906E+03  0.7546771E-02  0.1230522E+00
         -2   -1    0    0    0  501 -0.00000000000E+00  0.00000000000E+00  0.72840855715E+02  0.72840855715E+02  0.00000000000E+00 0.  1.
          2   -1    0    0  501    0  0.00000000000E+00 -0.00000000000E+00 -0.47055887672E+03  0.47055887672E+03  0.00000000000E+00 0. -1.
          5    1    1    2  502    0 -0.67797243561E+02  0.83758967842E+01 -0.30762611046E+01  0.68543236456E+02  0.47000000000E+01 0. -1.
         -5    1    1    2    0  502  0.74109548233E+02 -0.60748135931E+01 -0.51119492966E+01  0.74681661237E+02  0.47000000000E+01 0.  1.
        -11    1    1    2    0    0  0.36956314425E+02  0.17826109868E+02 -0.23109374427E+03  0.23470802715E+03  0.00000000000E+00 0.  1.
         11    1    1    2    0    0 -0.43268619097E+02 -0.20127193059E+02 -0.15843606634E+03  0.16546680760E+03  0.00000000000E+00 0. -1.
<mgrwt>
<rscale>  0 0.12795496E+03</rscale>
<asrwt>0</asrwt>
<pdfrwt beam="2">  1        2 0.72393674E-01 0.14299064E+03</pdfrwt>
<pdfrwt beam="1">  1       -2 0.11206285E-01 0.14299064E+03</pdfrwt>
<totfact> 0.35791469E+03</totfact>
</mgrwt>
</event>
<event>
 7    1  0.5400401E-006  0.2038814E+03  0.7546771E-02  0.1150546E+00
         -1   -1    0    0    0  501 -0.00000000000E+00  0.00000000000E+00  0.68618692292E+03  0.68618692292E+03  0.00000000000E+00 0.  1.
          1   -1    0    0  501    0  0.00000000000E+00 -0.00000000000E+00 -0.65769781795E+02  0.65769781795E+02  0.00000000000E+00 0. -1.
         23    2    1    2    0    0  0.12461295946E+03 -0.10204892442E+03  0.47355085296E+03  0.51557546073E+03  0.12500109091E+03 0.  0.
          5    1    3    3  502    0  0.29362606263E+02  0.19810667222E+02  0.32998056637E+02  0.48637299721E+02  0.47000000000E+01 0.  1.
         -5    1    3    3    0  502  0.95250353194E+02 -0.12185959164E+03  0.44055279632E+03  0.46693816101E+03  0.47000000000E+01 0.  1.
        -11    1    1    2    0    0 -0.49568651295E+02  0.13778990247E+02  0.97909419983E+02  0.11060364499E+03  0.00000000000E+00 0.  1.
         11    1    1    2    0    0 -0.75044308162E+02  0.88269934173E+02  0.48956868177E+02  0.12577759899E+03  0.00000000000E+00 0. -1.
<mgrwt>
<rscale>  0 0.19904678E+03</rscale>
<asrwt>0</asrwt>
<pdfrwt beam="2">  1        1 0.10118428E-01 0.20388145E+03</pdfrwt>
<pdfrwt beam="1">  1       -1 0.10556721E+00 0.20388145E+03</pdfrwt>
<totfact> 0.56271966E+02</totfact>
</mgrwt>
</event>
<event>
 7    1  0.5400401E-006  0.1572361E+03  0.7546771E-02  0.1199738E+00
          2   -1    0    0  501    0  0.00000000000E+00  0.00000000000E+00  0.12860232894E+03  0.12860232894E+03  0.00000000000E+00 0. -1.
         -2   -1    0    0    0  501 -0.00000000000E+00 -0.00000000000E+00 -0.19127239146E+03  0.19127239146E+03  0.00000000000E+00 0.  1.
         23    2    1    2    0    0 -0.78673220871E+02 -0.53938251772E+02 -0.94933520595E+02  0.18367242704E+03  0.12499750572E+03 0.  0.
          5    1    3    3  502    0 -0.74678651108E+01  0.16451338256E+02  0.22527353817E+02  0.29257259095E+02  0.47000000000E+01 0.  1.
         -5    1    3    3    0  502 -0.71205355760E+02 -0.70389590029E+02 -0.11746087441E+03  0.15441516794E+03  0.47000000000E+01 0.  1.
        -11    1    1    2    0    0  0.56657455528E+02  0.40161214362E+02  0.64517495337E+02  0.94791864686E+02  0.00000000000E+00 0. -1.
         11    1    1    2    0    0  0.22015765342E+02  0.13777037410E+02 -0.32254037258E+02  0.41410428673E+02  0.00000000000E+00 0.  1.
<mgrwt>
<rscale>  0 0.15060013E+03</rscale>
<asrwt>0</asrwt>
<pdfrwt beam="1">  1        2 0.19784974E-01 0.15723609E+03</pdfrwt>
<pdfrwt beam="2">  1       -2 0.29426521E-01 0.15723609E+03</pdfrwt>
<totfact> 0.28942145E+03</totfact>
</mgrwt>
</event>
<event>
 7    1  0.5400401E-006  0.1526138E+03  0.7546771E-02  0.1206427E+00
         -1   -1    0    0    0  501 -0.00000000000E+00  0.00000000000E+00  0.61461861298E+02  0.61461861298E+02  0.00000000000E+00 0.  1.
          1   -1    0    0  501    0  0.00000000000E+00 -0.00000000000E+00 -0.35566909188E+03  0.35566909188E+03  0.00000000000E+00 0. -1.
         23    2    1    2    0    0 -0.20710620735E+01 -0.87534758560E+02 -0.88842277306E+02  0.17658973464E+03  0.12499744352E+03 0.  0.
          5    1    3    3  502    0  0.47448388386E+02  0.45094501344E+01 -0.25020603381E+02  0.54035222721E+02  0.47000000000E+01 0.  1.
         -5    1    3    3    0  502 -0.49519450460E+02 -0.92044208695E+02 -0.63821673924E+02  0.12255451191E+03  0.47000000000E+01 0.  1.
        -11    1    1    2    0    0  0.24534980973E+02  0.40585953716E+02 -0.26646924027E+02  0.54398929130E+02  0.00000000000E+00 0.  1.
         11    1    1    2    0    0 -0.22463918900E+02  0.46948804844E+02 -0.17871802925E+03  0.18614228941E+03  0.00000000000E+00 0. -1.
<mgrwt>
<rscale>  0 0.14525533E+03</rscale>
<asrwt>0</asrwt>
<pdfrwt beam="2">  1        1 0.54718323E-01 0.15261384E+03</pdfrwt>
<pdfrwt beam="1">  1       -1 0.94556707E-02 0.15261384E+03</pdfrwt>
<totfact> 0.45394859E+03</totfact>
</mgrwt>
</event>
<event>
 7    1  0.5400401E-006  0.1932023E+03  0.7546771E-02  0.1160334E+00
          2   -1    0    0  501    0  0.00000000000E+00  0.00000000000E+00  0.41592134129E+02  0.41592134129E+02  0.00000000000E+00 0. -1.
         -2   -1    0    0    0  501 -0.00000000000E+00 -0.00000000000E+00 -0.84834191801E+03  0.84834191801E+03  0.00000000000E+00 0.  1.
         23    2    1    2    0    0 -0.13981599367E+03 -0.46391798351E+02 -0.52375296986E+03  0.55825110924E+03  0.12500566581E+03 0.  0.
          5    1    3    3  502    0 -0.89716946579E+02  0.14338307070E+01 -0.44181403290E+03  0.45085797768E+03  0.47000000000E+01 0.  1.
         -5    1    3    3    0  502 -0.50099047089E+02 -0.47825629058E+02 -0.81938936965E+02  0.10739313155E+03  0.47000000000E+01 0.  1.
        -11    1    1    2    0    0  0.15564049597E+02 -0.21815022081E+02 -0.21961755898E+02  0.34647561969E+02  0.00000000000E+00 0. -1.
         11    1    1    2    0    0  0.12425194407E+03  0.68206820432E+02 -0.26103505811E+03  0.29703538093E+03  0.00000000000E+00 0.  1.
<mgrwt>
<rscale>  0 0.18793860E+03</rscale>
<asrwt>0</asrwt>
<pdfrwt beam="1">  1        2 0.63987901E-02 0.19320230E+03</pdfrwt>
<pdfrwt beam="2">  1       -2 0.13051414E+00 0.19320230E+03</pdfrwt>
<totfact> 0.50843470E+02</totfact>
</mgrwt>
</event>
<event>
 6    1  0.5400401E-006  0.4653182E+03  0.7546771E-02  0.1076384E+00
         -1   -1    0    0    0  501 -0.00000000000E+00  0.00000000000E+00  0.33766022699E+02  0.33766022699E+02  0.00000000000E+00 0.  1.
          1   -1    0    0  501    0  0.00000000000E+00 -0.00000000000E+00 -0.25120217010E+04  0.25120217010E+04  0.00000000000E+00 0. -1.
          5    1    1    2  502    0  0.70051617808E+02  0.17354094185E+03 -0.46121133836E+03  0.49775664365E+03  0.47000000000E+01 0. -1.
         -5    1    1    2    0  502 -0.34547344967E+02 -0.20051515904E+03 -0.17560583855E+04  0.17678130533E+04  0.47000000000E+01 0.  1.
        -11    1    1    2    0    0 -0.58609025108E+02  0.43892870691E+02 -0.19453212424E+03  0.20785655940E+03  0.00000000000E+00 0.  1.
         11    1    1    2    0    0  0.23104752266E+02 -0.16918653507E+02 -0.66453830169E+02  0.72361467356E+02  0.00000000000E+00 0. -1.
<mgrwt>
<rscale>  0 0.31840942E+03</rscale>
<asrwt>0</asrwt>
<pdfrwt beam="2">  1        1 0.38646508E+00 0.46531820E+03</pdfrwt>
<pdfrwt beam="1">  1       -1 0.51947700E-02 0.46531820E+03</pdfrwt>
<totfact> 0.25018502E+02</totfact>
</mgrwt>
</event>
<event>
 7    1  0.5400401E-006  0.1264152E+03  0.7546771E-02  0.1248416E+00
         -3   -1    0    0    0  501 -0.00000000000E+00  0.00000000000E+00  0.15274634445E+03  0.15274634445E+03  0.00000000000E+00 0.  1.
          3   -1    0    0  501    0  0.00000000000E+00 -0.00000000000E+00 -0.85860010114E+02  0.85860010114E+02  0.00000000000E+00 0. -1.
         23    2    1    2    0    0 -0.35393738809E+01 -0.11199277958E+02  0.73351068411E+02  0.14615469244E+03  0.12586843882E+03 0.  0.
          5    1    3    3  502    0  0.98622782256E+01 -0.52833661802E+02 -0.71453994026E+01  0.54422486932E+02  0.47000000000E+01 0. -1.
         -5    1    3    3    0  502 -0.13401652107E+02  0.41634383844E+02  0.80496467814E+02  0.91732205510E+02  0.47000000000E+01 0.  1.
        -11    1    1    2    0    0  0.43213893085E+02 -0.10961578461E+02 -0.13236053924E+02  0.46505804814E+02  0.00000000000E+00 0.  1.
         11    1    1    2    0    0 -0.39674519204E+02  0.22160856419E+02  0.67713198481E+01  0.45945857308E+02  0.00000000000E+00 0. -1.
<mgrwt>
<rscale>  0 0.11683210E+03</rscale>
<asrwt>0</asrwt>
<pdfrwt beam="2">  1        3 0.13209232E-01 0.12641525E+03</pdfrwt>
<pdfrwt beam="1">  1       -3 0.23499438E-01 0.12641525E+03</pdfrwt>
<totfact> 0.17587324E+03</totfact>
</mgrwt>
</event>
<event>
 7    1  0.5400401E-006  0.1426949E+03  0.7546771E-02  0.1219668E+00
          2   -1    0    0  501    0  0.00000000000E+00  0.00000000000E+00  0.23350387096E+03  0.23350387096E+03  0.00000000000E+00 0. -1.
         -2   -1    0    0    0  501 -0.00000000000E+00 -0.00000000000E+00 -0.12480171894E+03  0.12480171894E+03  0.00000000000E+00 0.  1.
         23    2    1    2    0    0 -0.22188806284E+02  0.65150294022E+02 -0.59150591404E+02  0.15446885502E+03  0.12499972308E+03 0.  0.
          5    1    3    3  502    0  0.22556857950E+01 -0.19706681131E+02 -0.62734900269E+02  0.65963619605E+02  0.47000000000E+01 0.  1.
         -5    1    3    3    0  502 -0.24444492079E+02  0.84856975153E+02  0.35843088646E+01  0.88505235411E+02  0.47000000000E+01 0.  1.
        -11    1    1    2    0    0 -0.28917221601E+02 -0.52614237372E+02  0.66185365439E+02  0.89358638517E+02  0.00000000000E+00 0. -1.
         11    1    1    2    0    0  0.51106027885E+02 -0.12536056650E+02  0.10166737798E+03  0.11447809637E+03  0.00000000000E+00 0.  1.
<mgrwt>
<rscale>  0 0.13539186E+03</rscale>
<asrwt>0</asrwt>
<pdfrwt beam="1">  1        2 0.35923672E-01 0.14269490E+03</pdfrwt>
<pdfrwt beam="2">  1       -2 0.19200264E-01 0.14269490E+03</pdfrwt>
<totfact> 0.31390126E+03</totfact>
</mgrwt>
</event>
<event>
 6    1  0.5400401E-006  0.4330939E+03  0.7546771E-02  0.1086881E+00
          2   -1    0    0  501    0  0.00000000000E+00  0.00000000000E+00  0.11030522850E+04  0.11030522850E+04  0.00000000000E+00 0. -1.
         -2   -1    0    0    0  501 -0.00000000000E+00 -0.00000000000E+00 -0.65986211632E+02  0.65986211632E+02  0.00000000000E+00 0.  1.
          5    1    1    2  502    0 -0.89417803457E+02 -0.48577894634E+02  0.74820927995E+03  0.75511229101E+03  0.47000000000E+01 0. -1.
         -5    1    1    2    0  502  0.10424584632E+03  0.19957172464E+02 -0.35840335078E+01  0.10630343599E+03  0.47000000000E+01 0.  1.
        -11    1    1    2    0    0  0.32259574799E+02 -0.67010933873E+01  0.14849963162E+03  0.15211089839E+03  0.00000000000E+00 0. -1.
         11    1    1    2    0    0 -0.47087617662E+02  0.35321815558E+02  0.14394119533E+03  0.15551187126E+03  0.00000000000E+00 0.  1.
<mgrwt>
<rscale>  0 0.29674069E+03</rscale>
<asrwt>0</asrwt>
<pdfrwt beam="1">  1        2 0.16970034E+00 0.43309387E+03</pdfrwt>
<pdfrwt beam="2">  1       -2 0.10151726E-01 0.43309387E+03</pdfrwt>
<totfact> 0.14698730E+03</totfact>
</mgrwt>
</event>
<event>
 7    1  0.5400401E-006  0.2206087E+03  0.7546771E-02  0.1137455E+00
         -1   -1    0    0    0  501 -0.00000000000E+00  0.00000000000E+00  0.10043498178E+03  0.10043498178E+03  0.00000000000E+00 0.  1.
          1   -1    0    0  501    0  0.00000000000E+00 -0.00000000000E+00 -0.44075197379E+03  0.44075197379E+03  0.00000000000E+00 0. -1.
         23    2    1    2    0    0  0.93280403662E+02 -0.15601830855E+03 -0.17128357894E+03  0.27929603521E+03  0.12500105823E+03 0.  0.
          5    1    3    3  502    0  0.11764912024E+03 -0.15068001589E+03 -0.13140803414E+03  0.23202574021E+03  0.47000000000E+01 0.  1.
         -5    1    3    3    0  502 -0.24368716582E+02 -0.53382926628E+01 -0.39875544796E+02  0.47270294998E+02  0.47000000000E+01 0.  1.
        -11    1    1    2    0    0 -0.69837502381E+02  0.10874007234E+03 -0.63707332900E+02  0.14408436535E+03  0.00000000000E+00 0.  1.
         11    1    1    2    0    0 -0.23442901281E+02  0.47278236208E+02 -0.10532608018E+03  0.11780655501E+03  0.00000000000E+00 0. -1.
<mgrwt>
<rscale>  0 0.21527533E+03</rscale>
<asrwt>0</asrwt>
<pdfrwt beam="2">  1        1 0.67807996E-01 0.22060873E+03</pdfrwt>
<pdfrwt beam="1">  1       -1 0.15451536E-01 0.22060873E+03</pdfrwt>
<totfact> 0.16291061E+03</totfact>
</mgrwt>
</event>
<event>
 7    1  0.5400401E-006  0.1440080E+03  0.7546771E-02  0.1218326E+00
          1   -1    0    0  501    0  0.00000000000E+00  0.00000000000E+00  0.36953796948E+02  0.36953796948E+02  0.00000000000E+00 0. -1.
         -1   -1    0    0    0  501 -0.00000000000E+00 -0.00000000000E+00 -0.46875694296E+03  0.46875694296E+03  0.00000000000E+00 0.  1.
         23    2    1    2    0    0  0.44603422920E+02  0.55896949161E+02 -0.27956172844E+03  0.31447268291E+03  0.12499749608E+03 0.  0.
          5    1    3    3  502    0  0.62235513938E+02  0.10509973820E+01 -0.23003754278E+03  0.23835629817E+03  0.47000000000E+01 0. -1.
         -5    1    3    3    0  502 -0.17632091018E+02  0.54845951779E+02 -0.49524185663E+02  0.76116384739E+02  0.47000000000E+01 0. -1.
        -11    1    1    2    0    0 -0.23469331869E+02  0.34278695454E+01 -0.11636801669E+03  0.11876057905E+03  0.00000000000E+00 0.  1.
         11    1    1    2    0    0 -0.21134091051E+02 -0.59324818706E+02 -0.35873400887E+02  0.72477477952E+02  0.00000000000E+00 0. -1.
<mgrwt>
<rscale>  0 0.13635027E+03</rscale>
<asrwt>0</asrwt>
<pdfrwt beam="1">  1        1 0.56851994E-02 0.14400801E+03</pdfrwt>
<pdfrwt beam="2">  1       -1 0.72116454E-01 0.14400801E+03</pdfrwt>
<totfact> 0.27231281E+03</totfact>
</mgrwt>
</event>
<event>
 7    1  0.5895213E-006  0.1982656E+03  0.7546771E-02  0.1155646E+00
          1   -1    0    0  501    0  0.00000000000E+00  0.00000000000E+00  0.16658049420E+03  0.16658049420E+03  0.00000000000E+00 0. -1.
         -1   -1    0    0    0  501 -0.00000000000E+00 -0.00000000000E+00 -0.22061782921E+03  0.22061782921E+03  0.00000000000E+00 0.  1.
         23    2    1    2    0    0  0.15139408077E+03 -0.27620421097E+02 -0.63950116348E+02  0.20832392114E+03  0.12500473345E+03 0.  0.
          5    1    3    3  502    0 -0.21842504426E+02 -0.85303329847E+01 -0.74537000614E+01  0.25050134232E+02  0.47000000000E+01 0.  1.
         -5    1    3    3    0  502  0.17323658520E+03 -0.19090088113E+02 -0.56496416287E+02  0.18327378691E+03  0.47000000000E+01 0.  1.
        -11    1    1    2    0    0 -0.79576749523E+02  0.45596931227E+02  0.38561803899E+02  0.99491466579E+02  0.00000000000E+00 0. -1.
         11    1    1    2    0    0 -0.71817331247E+02 -0.17976510129E+02 -0.28649022565E+02  0.79382935684E+02  0.00000000000E+00 0.  1.
<mgrwt>
<rscale>  0 0.19315482E+03</rscale>
<asrwt>0</asrwt>
<pdfrwt beam="1">  1        1 0.25627768E-01 0.19826558E+03</pdfrwt>
<pdfrwt beam="2">  1       -1 0.33941204E-01 0.19826558E+03</pdfrwt>
<totfact> 0.15165834E+03</totfact>
</mgrwt>
</event>
<event>
 7    1  0.5400401E-006  0.1312790E+03  0.7546771E-02  0.1239848E+00
         -1   -1    0    0    0  501 -0.00000000000E+00  0.00000000000E+00  0.87302784753E+02  0.87302784753E+02  0.00000000000E+00 0.  1.
          1   -1    0    0  501    0  0.00000000000E+00 -0.00000000000E+00 -0.15490858000E+03  0.15490858000E+03  0.00000000000E+00 0. -1.
         23    2    1    2    0    0 -0.10280001727E+02 -0.38793140244E+02 -0.18112439938E+02  0.13252259105E+03  0.12499436185E+03 0.  0.
          5    1    3    3  502    0  0.94705069118E+01  0.33023024536E+02  0.28196612048E+02  0.44691717148E+02  0.47000000000E+01 0. -1.
         -5    1    3    3    0  502 -0.19750508639E+02 -0.71816164780E+02 -0.46309051987E+02  0.87830873906E+02  0.47000000000E+01 0. -1.
        -11    1    1    2    0    0 -0.22048106118E+02  0.19993460486E+02  0.16355824817E+02  0.33961308147E+02  0.00000000000E+00 0.  1.
         11    1    1    2    0    0  0.32328107845E+02  0.18799679758E+02 -0.65849180129E+02  0.75727465556E+02  0.00000000000E+00 0. -1.
<mgrwt>
<rscale>  0 0.12199125E+03</rscale>
<asrwt>0</asrwt>
<pdfrwt beam="2">  1        1 0.23832089E-01 0.13127900E+03</pdfrwt>
<pdfrwt beam="1">  1       -1 0.13431198E-01 0.13127900E+03</pdfrwt>
<totfact> 0.73710004E+03</totfact>
</mgrwt>
</event>
<event>
 7    1  0.5400401E-006  0.2313249E+03  0.7546771E-02  0.1128755E+00
         -1   -1    0    0    0  501 -0.00000000000E+00  0.00000000000E+00  0.10763389302E+03  0.10763389302E+03  0.00000000000E+00 0.  1.
          1   -1    0    0  501    0  0.00000000000E+00 -0.00000000000E+00 -0.74254567521E+03  0.74254567521E+03  0.00000000000E+00 0. -1.
         23    2    1    2    0    0  0.51148927343E+02 -0.18780643878E+03 -0.63612782587E+02  0.23991209587E+03  0.12499502558E+03 0.  0.
          5    1    3    3  502    0 -0.19793714698E+02  0.88627748753E+01 -0.55140469336E+01  0.22865577482E+02  0.47000000000E+01 0. -1.
         -5    1    3    3    0  502  0.70942642040E+02 -0.19666921366E+03 -0.58098735654E+02  0.21704651839E+03  0.47000000000E+01 0. -1.
        -11    1    1    2    0    0 -0.19823989498E+02  0.12281020140E+03 -0.23062293239E+03  0.26203486996E+03  0.00000000000E+00 0.  1.
         11    1    1    2    0    0 -0.31324937845E+02  0.64996237389E+02 -0.34067606720E+03  0.34823260240E+03  0.00000000000E+00 0. -1.
<mgrwt>
<rscale>  0 0.22701956E+03</rscale>
<asrwt>0</asrwt>
<pdfrwt beam="2">  1        1 0.11423779E+00 0.23132494E+03</pdfrwt>
<pdfrwt beam="1">  1       -1 0.16559061E-01 0.23132494E+03</pdfrwt>
<totfact> 0.71157519E+02</totfact>
</mgrwt>
</event>
<event>
 7    1  0.5400401E-006  0.1377622E+03  0.7546771E-02  0.1229077E+00
          2   -1    0    0  501    0  0.00000000000E+00  0.00000000000E+00  0.16530978494E+03  0.16530978494E+03  0.00000000000E+00 0. -1.
         -2   -1    0    0    0  501 -0.00000000000E+00 -0.00000000000E+00 -0.21092647465E+03  0.21092647465E+03  0.00000000000E+00 0.  1.
         23    2    1    2    0    0  0.52828831815E+02  0.23709343889E+02 -0.16623620735E+03  0.21590019017E+03  0.12500158808E+03 0.  0.
          5    1    3    3  502    0 -0.25253428321E+02 -0.20504953578E+02 -0.78355414068E+01  0.33788673729E+02  0.47000000000E+01 0.  1.
         -5    1    3    3    0  502  0.78082260135E+02  0.44214297467E+02 -0.15840066595E+03  0.18211151644E+03  0.47000000000E+01 0.  1.
        -11    1    1    2    0    0 -0.71491020386E+02 -0.33706742759E+02  0.11286703386E+03  0.13778997727E+03  0.00000000000E+00 0. -1.
         11    1    1    2    0    0  0.18662188571E+02  0.99973988699E+01  0.77524837736E+01  0.22546092147E+02  0.00000000000E+00 0.  1.
<mgrwt>
<rscale>  0 0.12891357E+03</rscale>
<asrwt>0</asrwt>
<pdfrwt beam="1">  1        2 0.25432275E-01 0.13776217E+03</pdfrwt>
<pdfrwt beam="2">  1       -2 0.32450227E-01 0.13776217E+03</pdfrwt>
<totfact> 0.18199699E+03</totfact>
</mgrwt>
</event>
<event>
 7    1  0.5400401E-006  0.1386440E+03  0.7546771E-02  0.1226791E+00
          2   -1    0    0  501    0  0.00000000000E+00  0.00000000000E+00  0.62150423253E+03  0.62150423253E+03  0.00000000000E+00 0. -1.
         -2   -1    0    0    0  501 -0.00000000000E+00 -0.00000000000E+00 -0.26221946769E+02  0.26221946769E+02  0.00000000000E+00 0.  1.
         23    2    1    2    0    0  0.42445947149E+02  0.42347888660E+02  0.25153182739E+03  0.28721147125E+03  0.12500866741E+03 0.  0.
          5    1    3    3  502    0  0.76057025633E+02  0.38434188412E+02  0.98130557916E+02  0.13005212180E+03  0.47000000000E+01 0. -1.
         -5    1    3    3    0  502 -0.33611078484E+02  0.39137002474E+01  0.15340126947E+03  0.15715934946E+03  0.47000000000E+01 0. -1.
        -11    1    1    2    0    0 -0.70435160755E+02 -0.35719722098E+02  0.27138082536E+03  0.28263857272E+03  0.00000000000E+00 0. -1.
         11    1    1    2    0    0  0.27989213606E+02 -0.66281665618E+01  0.72369633012E+02  0.77876135321E+02  0.00000000000E+00 0.  1.
<mgrwt>
<rscale>  0 0.13044906E+03</rscale>
<asrwt>0</asrwt>
<pdfrwt beam="1">  1        2 0.95616024E-01 0.13864404E+03</pdfrwt>
<pdfrwt beam="2">  1       -2 0.40341461E-02 0.13864404E+03</pdfrwt>
<totfact> 0.12520559E+04</totfact>
</mgrwt>
</event>
<event>
 7    1  0.5400401E-006  0.1645853E+03  0.7546771E-02  0.1190339E+00
          1   -1    0    0  501    0  0.00000000000E+00  0.00000000000E+00  0.49638792798E+02  0.49638792798E+02  0.00000000000E+00 0. -1.
         -1   -1    0    0    0  501 -0.00000000000E+00 -0.00000000000E+00 -0.15515072662E+04  0.15515072662E+04  0.00000000000E+00 0.  1.
         23    2    1    2    0    0 -0.90438455651E+02  0.57280181875E+02 -0.14350083400E+04  0.14444158834E+04  0.12501269949E+03 0.  0.
          5    1    3    3  502    0 -0.48014908337E+02  0.95645385456E+02 -0.95431714169E+03  0.96031076642E+03  0.47000000000E+01 0. -1.
         -5    1    3    3    0  502 -0.42423547314E+02 -0.38365203582E+02 -0.48069119826E+03  0.48410511699E+03  0.47000000000E+01 0. -1.
        -11    1    1    2    0    0  0.24656588224E+02 -0.69336024332E+02 -0.45520524519E+02  0.86530629060E+02  0.00000000000E+00 0. -1.
         11    1    1    2    0    0  0.65781867427E+02  0.12055842458E+02 -0.21339608899E+02  0.70199546491E+02  0.00000000000E+00 0.  1.
<mgrwt>
<rscale>  0 0.15855382E+03</rscale>
<asrwt>0</asrwt>
<pdfrwt beam="1">  1        1 0.76367373E-02 0.16458526E+03</pdfrwt>
<pdfrwt beam="2">  1       -1 0.23869343E+00 0.16458526E+03</pdfrwt>
<totfact> 0.88367428E+01</totfact>
</mgrwt>
</event>
<event>
 7    1  0.5400401E-006  0.1356838E+03  0.7546771E-02  0.1231151E+00
          2   -1    0    0  501    0  0.00000000000E+00  0.00000000000E+00  0.31940186752E+02  0.31940186752E+02  0.00000000000E+00 0. -1.
         -2   -1    0    0    0  501 -0.00000000000E+00 -0.00000000000E+00 -0.49932503686E+03  0.49932503686E+03  0.00000000000E+00 0.  1.
         23    2    1    2    0    0 -0.52394416816E+02 -0.63592157738E+01 -0.33689606926E+03  0.36319285612E+03  0.12499789882E+03 0.  0.
          5    1    3    3  502    0 -0.87515494849E+02  0.21923129548E+02 -0.22571175977E+03  0.24312028699E+03  0.47000000000E+01 0. -1.
         -5    1    3    3    0  502  0.35121078033E+02 -0.28282345322E+02 -0.11118430949E+03  0.12007256913E+03  0.47000000000E+01 0. -1.
        -11    1    1    2    0    0 -0.18634177952E+02  0.12858288249E+02 -0.73100439837E+02  0.76526090119E+02  0.00000000000E+00 0.  1.
         11    1    1    2    0    0  0.71028594768E+02 -0.64990724755E+01 -0.57388341009E+02  0.91546277377E+02  0.00000000000E+00 0. -1.
<mgrwt>
<rscale>  0 0.12754102E+03</rscale>
<asrwt>0</asrwt>
<pdfrwt beam="1">  1        2 0.49138746E-02 0.13568378E+03</pdfrwt>
<pdfrwt beam="2">  1       -2 0.76819242E-01 0.13568378E+03</pdfrwt>
<totfact> 0.24028191E+03</totfact>
</mgrwt>
</event>
<event>
 7    1  0.5400401E-006  0.1276906E+03  0.7546771E-02  0.1244604E+00
          1   -1    0    0  501    0  0.00000000000E+00  0.00000000000E+00  0.85842303423E+02  0.85842303423E+02  0.00000000000E+00 0. -1.
         -1   -1    0    0    0  501 -0.00000000000E+00 -0.00000000000E+00 -0.14679710206E+03  0.14679710206E+03  0.00000000000E+00 0.  1.
         23    2    1    2    0    0  0.22681457789E+02 -0.12837427518E+02 -0.29751266221E+02  0.13111077523E+03  0.12500259784E+03 0.  0.
          5    1    3    3  502    0  0.36675559413E+02 -0.12568662485E+02 -0.74431188668E+02  0.84054504826E+02  0.47000000000E+01 0.  1.
         -5    1    3    3    0  502 -0.13994101624E+02 -0.26876503288E+00  0.44679922447E+02  0.47056270408E+02  0.47000000000E+01 0.  1.
        -11    1    1    2    0    0 -0.45700480412E+02  0.38649303137E+02 -0.92466553569E+01  0.60562390790E+02  0.00000000000E+00 0. -1.
         11    1    1    2    0    0  0.23019022623E+02 -0.25811875619E+02 -0.21956877062E+02  0.40966239464E+02  0.00000000000E+00 0.  1.
<mgrwt>
<rscale>  0 0.11909132E+03</rscale>
<asrwt>0</asrwt>
<pdfrwt beam="1">  1        1 0.13206508E-01 0.12769063E+03</pdfrwt>
<pdfrwt beam="2">  1       -1 0.22584169E-01 0.12769063E+03</pdfrwt>
<totfact> 0.68676174E+03</totfact>
</mgrwt>
</event>
<event>
 7    1  0.5400401E-006  0.1289703E+03  0.7546771E-02  0.1241448E+00
         -2   -1    0    0    0  501 -0.00000000000E+00  0.00000000000E+00  0.69866308072E+03  0.69866308072E+03  0.00000000000E+00 0.  1.
          2   -1    0    0  501    0  0.00000000000E+00 -0.00000000000E+00 -0.19783842638E+02  0.19783842638E+02  0.00000000000E+00 0. -1.
         23    2    1    2    0    0 -0.14042690143E+02  0.28504234921E+02  0.46171913585E+03  0.47939325461E+03  0.12499457431E+03 0.  0.
          5    1    3    3  502    0  0.95625085935E+01 -0.59447016960E+01  0.42000089754E+03  0.42017808723E+03  0.47000000000E+01 0. -1.
         -5    1    3    3    0  502 -0.23605198737E+02  0.34448936617E+02  0.41718238306E+02  0.59215167388E+02  0.47000000000E+01 0. -1.
        -11    1    1    2    0    0 -0.13004535804E+02 -0.50965287890E+02  0.68900329834E+02  0.86682374059E+02  0.00000000000E+00 0. -1.
         11    1    1    2    0    0  0.27047225947E+02  0.22461052969E+02  0.14825977240E+03  0.15237129468E+03  0.00000000000E+00 0.  1.
<mgrwt>
<rscale>  0 0.12100487E+03</rscale>
<asrwt>0</asrwt>
<pdfrwt beam="2">  1        2 0.30436686E-02 0.12897028E+03</pdfrwt>
<pdfrwt beam="1">  1       -2 0.10748661E+00 0.12897028E+03</pdfrwt>
<totfact> 0.21206144E+03</totfact>
</mgrwt>
</event>
<event>
 7    1  0.5400401E-006  0.1282667E+03  0.7546771E-02  0.1245401E+00
         -1   -1    0    0    0  501 -0.00000000000E+00  0.00000000000E+00  0.10733408204E+03  0.10733408204E+03  0.00000000000E+00 0.  1.
          1   -1    0    0  501    0  0.00000000000E+00 -0.00000000000E+00 -0.24260709445E+03  0.24260709445E+03  0.00000000000E+00 0. -1.
         23    2    1    2    0    0 -0.28601501062E+02 -0.28761729254E+01  0.53633716988E+02  0.13902850022E+03  0.12500412010E+03 0.  0.
          5    1    3    3  502    0  0.46462627055E+02 -0.20371843823E+02  0.18673611744E+02  0.54263998279E+02  0.47000000000E+01 0. -1.
         -5    1    3    3    0  502 -0.75064128117E+02  0.17495670898E+02  0.34960105244E+02  0.84764501938E+02  0.47000000000E+01 0. -1.
        -11    1    1    2    0    0 -0.13363954978E+02 -0.93001856518E+01  0.73871324541E+00  0.16298295711E+02  0.00000000000E+00 0.  1.
         11    1    1    2    0    0  0.41965456040E+02  0.12176358577E+02 -0.18964544264E+03  0.19461438057E+03  0.00000000000E+00 0. -1.
<mgrwt>
<rscale>  0 0.11861400E+03</rscale>
<asrwt>0</asrwt>
<pdfrwt beam="2">  1        1 0.37324168E-01 0.12826671E+03</pdfrwt>
<pdfrwt beam="1">  1       -1 0.16512936E-01 0.12826671E+03</pdfrwt>
<totfact> 0.30495686E+03</totfact>
</mgrwt>
</event>
<event>
 7    1  0.5400401E-006  0.1256147E+03  0.7546771E-02  0.1248628E+00
          2   -1    0    0  501    0  0.00000000000E+00  0.00000000000E+00  0.74110800135E+02  0.74110800135E+02  0.00000000000E+00 0. -1.
         -2   -1    0    0    0  501 -0.00000000000E+00 -0.00000000000E+00 -0.43202509878E+03  0.43202509878E+03  0.00000000000E+00 0.  1.
         23    2    1    2    0    0  0.11488789073E+02  0.50608629646E+01 -0.38799156289E+03  0.40781919859E+03  0.12498576422E+03 0.  0.
          5    1    3    3  502    0  0.38998143718E+02 -0.48729551765E+02 -0.15713932280E+03  0.16914573953E+03  0.47000000000E+01 0.  1.
         -5    1    3    3    0  502 -0.27509354645E+02  0.53790414729E+02 -0.23085224009E+03  0.23867345907E+03  0.47000000000E+01 0.  1.
        -11    1    1    2    0    0 -0.39012615580E+02 -0.27604738436E+02 -0.53727076351E+01  0.48092325228E+02  0.00000000000E+00 0.  1.
         11    1    1    2    0    0  0.27523826507E+02  0.22543875471E+02  0.35449971883E+02  0.50224375091E+02  0.00000000000E+00 0. -1.
<mgrwt>
<rscale>  0 0.11670858E+03</rscale>
<asrwt>0</asrwt>
<pdfrwt beam="1">  1        2 0.11401661E-01 0.12561467E+03</pdfrwt>
<pdfrwt beam="2">  1       -2 0.66465402E-01 0.12561467E+03</pdfrwt>
<totfact> 0.11282566E+03</totfact>
</mgrwt>
</event>
<event>
 7    1  0.5400401E-006  0.1456566E+03  0.7546771E-02  0.1215799E+00
         -2   -1    0    0    0  501 -0.00000000000E+00  0.00000000000E+00  0.55787369070E+02  0.55787369070E+02  0.00000000000E+00 0.  1.
          2   -1    0    0  501    0  0.00000000000E+00 -0.00000000000E+00 -0.31844431505E+03  0.31844431505E+03  0.00000000000E+00 0. -1.
         23    2    1    2    0    0  0.51172192018E+02  0.54527882810E+02 -0.11725514882E+03  0.18698829759E+03  0.12499588102E+03 0.  0.
          5    1    3    3  502    0  0.37614825582E+02 -0.20729105012E+02 -0.99311235484E+02  0.10830227325E+03  0.47000000000E+01 0. -1.
         -5    1    3    3    0  502  0.13557366437E+02  0.75256987822E+02 -0.17943913334E+02  0.78686024340E+02  0.47000000000E+01 0. -1.
        -11    1    1    2    0    0 -0.34122781972E+02 -0.80034596853E+02 -0.10155130449E+03  0.13372572074E+03  0.00000000000E+00 0.  1.
         11    1    1    2    0    0 -0.17049410047E+02  0.25506714043E+02 -0.43850492668E+02  0.53517665789E+02  0.00000000000E+00 0. -1.
<mgrwt>
<rscale>  0 0.13818038E+03</rscale>
<asrwt>0</asrwt>
<pdfrwt beam="2">  1        2 0.48991433E-01 0.14565663E+03</pdfrwt>
<pdfrwt beam="1">  1       -2 0.85826722E-02 0.14565663E+03</pdfrwt>
<totfact> 0.82785604E+03</totfact>
</mgrwt>
</event>
<event>
 7    1  0.5400401E-006  0.1402268E+03  0.7546771E-02  0.1224077E+00
          2   -1    0    0  501    0  0.00000000000E+00  0.00000000000E+00  0.18132032997E+03  0.18132032997E+03  0.00000000000E+00 0. -1.
         -2   -1    0    0    0  501 -0.00000000000E+00 -0.00000000000E+00 -0.10217803550E+03  0.10217803550E+03  0.00000000000E+00 0.  1.
         23    2    1    2    0    0 -0.60837308737E+02 -0.18400749418E+02 -0.10652982710E+02  0.14063084118E+03  0.12499512686E+03 0.  0.
          5    1    3    3  502    0 -0.64519297569E+02 -0.32080424492E+02 -0.56965145018E+02  0.91972882641E+02  0.47000000000E+01 0. -1.
         -5    1    3    3    0  502  0.36819888320E+01  0.13679675073E+02  0.46312162307E+02  0.48657958542E+02  0.47000000000E+01 0. -1.
        -11    1    1    2    0    0  0.56955009538E+02  0.41359012134E+02  0.95746020423E+02  0.11883493351E+03  0.00000000000E+00 0. -1.
         11    1    1    2    0    0  0.38822991992E+01 -0.22958262716E+02 -0.59507432462E+01  0.24032590771E+02  0.00000000000E+00 0.  1.
<mgrwt>
<rscale>  0 0.13230386E+03</rscale>
<asrwt>0</asrwt>
<pdfrwt beam="1">  1        2 0.27895435E-01 0.14022677E+03</pdfrwt>
<pdfrwt beam="2">  1       -2 0.15719698E-01 0.14022677E+03</pdfrwt>
<totfact> 0.57482541E+03</totfact>
</mgrwt>
</event>
<event>
 7    1  0.5400401E-006  0.1271007E+03  0.7546771E-02  0.1247757E+00
         -2   -1    0    0    0  501 -0.00000000000E+00  0.00000000000E+00  0.36330344622E+02  0.36330344622E+02  0.00000000000E+00 0.  1.
          2   -1    0    0  501    0  0.00000000000E+00 -0.00000000000E+00 -0.45990472411E+03  0.45990472411E+03  0.00000000000E+00 0. -1.
         23    2    1    2    0    0 -0.56209910504E+01 -0.22293760157E+02 -0.10563757952E+03  0.16526912925E+03  0.12500391831E+03 0.  0.
          5    1    3    3  502    0 -0.57163985934E+02 -0.67427393953E+01 -0.14876940405E+02  0.59637229800E+02  0.47000000000E+01 0. -1.
         -5    1    3    3    0  502  0.51542994883E+02 -0.15551020762E+02 -0.90760639114E+02  0.10563189945E+03  0.47000000000E+01 0. -1.
        -11    1    1    2    0    0 -0.34218052140E+02 -0.14980690152E+02 -0.13390137375E+03  0.13901393477E+03  0.00000000000E+00 0. -1.
         11    1    1    2    0    0  0.39839043191E+02  0.37274450310E+02 -0.18403542622E+03  0.19195200471E+03  0.00000000000E+00 0.  1.
<mgrwt>
<rscale>  0 0.11721896E+03</rscale>
<asrwt>0</asrwt>
<pdfrwt beam="2">  1        2 0.70754568E-01 0.12710070E+03</pdfrwt>
<pdfrwt beam="1">  1       -2 0.55892842E-02 0.12710070E+03</pdfrwt>
<totfact> 0.10672775E+04</totfact>
</mgrwt>
</event>
<event>
 7    1  0.5400401E-006  0.1251739E+03  0.7546771E-02  0.1251438E+00
          3   -1    0    0  501    0  0.00000000000E+00  0.00000000000E+00  0.29037777715E+03  0.29037777715E+03  0.00000000000E+00 0. -1.
         -3   -1    0    0    0  501 -0.00000000000E+00 -0.00000000000E+00 -0.46693474122E+02  0.46693474122E+02  0.00000000000E+00 0.  1.
         23    2    1    2    0    0 -0.53845678600E+01 -0.32377890423E+01  0.74398287054E+02  0.14561462675E+03  0.12501614919E+03 0.  0.
          5    1    3    3  502    0  0.37306668291E+02  0.25075014648E+02 -0.10452177755E+02  0.46388380855E+02  0.47000000000E+01 0. -1.
         -5    1    3    3    0  502 -0.42691236151E+02 -0.28312803690E+02  0.84850464809E+02  0.99226245899E+02  0.47000000000E+01 0. -1.
        -11    1    1    2    0    0  0.37193707306E+02 -0.26780256671E+01  0.28318917176E+02  0.46824189845E+02  0.00000000000E+00 0.  1.
         11    1    1    2    0    0 -0.31809139446E+02  0.59158147094E+01  0.14096709880E+03  0.14463243467E+03  0.00000000000E+00 0. -1.
<mgrwt>
<rscale>  0 0.11508198E+03</rscale>
<asrwt>0</asrwt>
<pdfrwt beam="1">  1        3 0.44673503E-01 0.12517394E+03</pdfrwt>
<pdfrwt beam="2">  1       -3 0.71836116E-02 0.12517394E+03</pdfrwt>
<totfact> 0.14431197E+03</totfact>
</mgrwt>
</event>
<event>
 7    1  0.5400401E-006  0.1366538E+03  0.7546771E-02  0.1229830E+00
         -2   -1    0    0    0  501 -0.00000000000E+00  0.00000000000E+00  0.52602528413E+03  0.52602528413E+03  0.00000000000E+00 0.  1.
          2   -1    0    0  501    0  0.00000000000E+00 -0.00000000000E+00 -0.34478533548E+02  0.34478533548E+02  0.00000000000E+00 0. -1.
         23    2    1    2    0    0 -0.34293236983E+02 -0.43257751589E+02  0.39025184671E+03  0.41348612446E+03  0.12500804808E+03 0.  0.
          5    1    3    3  502    0 -0.52458177696E+02 -0.78940524992E+02  0.24478895424E+03  0.26253988080E+03  0.47000000000E+01 0.  1.
         -5    1    3    3    0  502  0.18164940713E+02  0.35682773404E+02  0.14546289248E+03  0.15094624367E+03  0.47000000000E+01 0.  1.
        -11    1    1    2    0    0  0.20071274904E+02  0.65589796734E+02  0.38014471265E+02  0.78421792490E+02  0.00000000000E+00 0.  1.
         11    1    1    2    0    0  0.14221962079E+02 -0.22332045145E+02  0.63280432604E+02  0.68595900725E+02  0.00000000000E+00 0. -1.
<mgrwt>
<rscale>  0 0.12841265E+03</rscale>
<asrwt>0</asrwt>
<pdfrwt beam="2">  1        2 0.53043901E-02 0.13665384E+03</pdfrwt>
<pdfrwt beam="1">  1       -2 0.80926961E-01 0.13665384E+03</pdfrwt>
<totfact> 0.19420984E+03</totfact>
</mgrwt>
</event>
<event>
 7    1  0.5400401E-006  0.1322064E+03  0.7546771E-02  0.1237084E+00
          1   -1    0    0  501    0  0.00000000000E+00  0.00000000000E+00  0.12692662535E+03  0.12692662535E+03  0.00000000000E+00 0. -1.
         -1   -1    0    0    0  501 -0.00000000000E+00 -0.00000000000E+00 -0.11303949614E+03  0.11303949614E+03  0.00000000000E+00 0.  1.
         23    2    1    2    0    0 -0.23939882398E+02  0.35802895181E+02 -0.18578385175E+02  0.13350537015E+03  0.12499424863E+03 0.  0.
          5    1    3    3  502    0 -0.30389265270E+02  0.17564649587E+02  0.50464065651E+02  0.61650111766E+02  0.47000000000E+01 0.  1.
         -5    1    3    3    0  502  0.64493828721E+01  0.18238245594E+02 -0.69042450825E+02  0.71855258386E+02  0.47000000000E+01 0.  1.
        -11    1    1    2    0    0 -0.10824562101E+02 -0.10008509302E+02  0.55500240886E+02  0.57424891306E+02  0.00000000000E+00 0. -1.
         11    1    1    2    0    0  0.34764444499E+02 -0.25794385879E+02 -0.23034726497E+02  0.49035860031E+02  0.00000000000E+00 0.  1.
<mgrwt>
<rscale>  0 0.12371941E+03</rscale>
<asrwt>0</asrwt>
<pdfrwt beam="1">  1        1 0.19527173E-01 0.13220638E+03</pdfrwt>
<pdfrwt beam="2">  1       -1 0.17390692E-01 0.13220638E+03</pdfrwt>
<totfact> 0.63266181E+03</totfact>
</mgrwt>
</event>
<event>
 7    1  0.5400401E-006  0.1293054E+03  0.7546771E-02  0.1243493E+00
         -1   -1    0    0    0  501 -0.00000000000E+00  0.00000000000E+00  0.31780590301E+02  0.31780590301E+02  0.00000000000E+00 0.  1.
          1   -1    0    0  501    0  0.00000000000E+00 -0.00000000000E+00 -0.39646969668E+03  0.39646969668E+03  0.00000000000E+00 0. -1.
         23    2    1    2    0    0  0.18007165059E+02  0.27536869477E+02 -0.21433832367E+03  0.25032140239E+03  0.12504939154E+03 0.  0.
          5    1    3    3  502    0  0.90590940580E+01  0.39632665982E+02 -0.22665314564E+03  0.23031837492E+03  0.47000000000E+01 0.  1.
         -5    1    3    3    0  502  0.89480710009E+01 -0.12095796505E+02  0.12314821967E+02  0.20003027466E+02  0.47000000000E+01 0.  1.
        -11    1    1    2    0    0 -0.44747777318E+01  0.25302018270E+02 -0.10390812423E+02  0.27716145964E+02  0.00000000000E+00 0.  1.
         11    1    1    2    0    0 -0.13532387327E+02 -0.52838887746E+02 -0.13995997028E+03  0.15021273863E+03  0.00000000000E+00 0. -1.
<mgrwt>
<rscale>  0 0.11976049E+03</rscale>
<asrwt>0</asrwt>
<pdfrwt beam="2">  1        1 0.60995340E-01 0.12930540E+03</pdfrwt>
<pdfrwt beam="1">  1       -1 0.48893214E-02 0.12930540E+03</pdfrwt>
<totfact> 0.10539089E+04</totfact>
</mgrwt>
</event>
<event>
 7    1  0.5400401E-006  0.1334163E+03  0.7546771E-02  0.1235995E+00
          2   -1    0    0  501    0  0.00000000000E+00  0.00000000000E+00  0.65102627821E+02  0.65102627821E+02  0.00000000000E+00 0.  1.
         -2   -1    0    0    0  501 -0.00000000000E+00 -0.00000000000E+00 -0.26754322213E+03  0.26754322213E+03  0.00000000000E+00 0. -1.
         23    2    1    2    0    0  0.34207495262E+02 -0.31722322414E+02 -0.18831408819E+03  0.23078586251E+03  0.12499384005E+03 0.  0.
          5    1    3    3  502    0  0.34799503335E+02  0.38589020469E+02 -0.12728022707E+03  0.13755894786E+03  0.47000000000E+01 0. -1.
         -5    1    3    3    0  502 -0.59200807366E+00 -0.70311342883E+02 -0.61033861128E+02  0.93226914654E+02  0.47000000000E+01 0. -1.
        -11    1    1    2    0    0 -0.34152938640E+02  0.32415196686E+01  0.32478294254E+02  0.47241615818E+02  0.00000000000E+00 0.  1.
         11    1    1    2    0    0 -0.54556621922E-01  0.28480802746E+02 -0.46604800364E+02  0.54618371620E+02  0.00000000000E+00 0. -1.
<mgrwt>
<rscale>  0 0.12440945E+03</rscale>
<asrwt>0</asrwt>
<pdfrwt beam="1">  1        2 0.10015789E-01 0.13341634E+03</pdfrwt>
<pdfrwt beam="2">  1       -2 0.41160495E-01 0.13341634E+03</pdfrwt>
<totfact> 0.34483170E+03</totfact>
</mgrwt>
</event>
<event>
 7    1  0.5400401E-006  0.1679519E+03  0.7546771E-02  0.1186958E+00
          2   -1    0    0  501    0  0.00000000000E+00  0.00000000000E+00  0.95228443817E+02  0.95228443817E+02  0.00000000000E+00 0. -1.
         -2   -1    0    0    0  501 -0.00000000000E+00 -0.00000000000E+00 -0.27266844262E+03  0.27266844262E+03  0.00000000000E+00 0.  1.
         23    2    1    2    0    0  0.11190463179E+03  0.84091546820E+01 -0.48600784945E+02  0.17484242476E+03  0.12495789971E+03 0.  0.
          5    1    3    3  502    0 -0.12578219051E+02 -0.60728278461E+01 -0.47175544756E+02  0.49423808591E+02  0.47000000000E+01 0.  1.
         -5    1    3    3    0  502  0.12448285084E+03  0.14481982528E+02 -0.14252401889E+01  0.12541861617E+03  0.47000000000E+01 0.  1.
        -11    1    1    2    0    0 -0.10027889382E+03  0.21543317677E+02 -0.64563603122E+02  0.12119583298E+03  0.00000000000E+00 0. -1.
         11    1    1    2    0    0 -0.11625737967E+02 -0.29952472359E+02 -0.64275610738E+02  0.71858628706E+02  0.00000000000E+00 0.  1.
<mgrwt>
<rscale>  0 0.16155020E+03</rscale>
<asrwt>0</asrwt>
<pdfrwt beam="1">  1        2 0.14650530E-01 0.16795189E+03</pdfrwt>
<pdfrwt beam="2">  1       -2 0.41948991E-01 0.16795189E+03</pdfrwt>
<totfact> 0.21298579E+03</totfact>
</mgrwt>
</event>
<event>
 7    1  0.5400401E-006  0.1708243E+03  0.7546771E-02  0.1183273E+00
          1   -1    0    0  501    0  0.00000000000E+00  0.00000000000E+00  0.32961505737E+02  0.32961505737E+02  0.00000000000E+00 0. -1.
         -1   -1    0    0    0  501 -0.00000000000E+00 -0.00000000000E+00 -0.97454902808E+03  0.97454902808E+03  0.00000000000E+00 0.  1.
         23    2    1    2    0    0  0.11126443996E+03 -0.34321226420E+02 -0.72597876006E+03  0.74580567066E+03  0.12499286435E+03 0.  0.
          5    1    3    3  502    0  0.55339037607E+01 -0.47026681666E+01  0.25622802703E+01  0.90218877682E+01  0.47000000000E+01 0.  1.
         -5    1    3    3    0  502  0.10573053620E+03 -0.29618558254E+02 -0.72854104033E+03  0.73678378289E+03  0.47000000000E+01 0.  1.
        -11    1    1    2    0    0 -0.20658419863E+02 -0.12141156159E+02 -0.78959207984E+00  0.23975016992E+02  0.00000000000E+00 0. -1.
         11    1    1    2    0    0 -0.90606020102E+02  0.46462382579E+02 -0.21481917020E+03  0.23772984617E+03  0.00000000000E+00 0.  1.
<mgrwt>
<rscale>  0 0.16490003E+03</rscale>
<asrwt>0</asrwt>
<pdfrwt beam="1">  1        1 0.50710005E-02 0.17082429E+03</pdfrwt>
<pdfrwt beam="2">  1       -1 0.14993063E+00 0.17082429E+03</pdfrwt>
<totfact> 0.61465464E+02</totfact>
</mgrwt>
</event>
<event>
 7    1  0.7769787E-006  0.3314059E+03  0.7546771E-02  0.1071804E+00
         -1   -1    0    0    0  501 -0.00000000000E+00  0.00000000000E+00  0.32480729287E+03  0.32480729287E+03  0.00000000000E+00 0.  1.
          1   -1    0    0  501    0  0.00000000000E+00 -0.00000000000E+00 -0.33476208172E+03  0.33476208172E+03  0.00000000000E+00 0. -1.
         23    2    1    2    0    0  0.86358810019E+02  0.29452702020E+03  0.46665321687E+02  0.33467524820E+03  0.12500343922E+03 0.  0.
          5    1    3    3  502    0  0.37603500293E+02  0.56765721012E+01  0.82065407911E+01  0.39187804441E+02  0.47000000000E+01 0.  1.
         -5    1    3    3    0  502  0.48755309726E+02  0.28885044810E+03  0.38458780896E+02  0.29548744376E+03  0.47000000000E+01 0.  1.
        -11    1    1    2    0    0 -0.57741922426E+02 -0.58689706650E+02 -0.16274518798E+02  0.83925390879E+02  0.00000000000E+00 0.  1.
         11    1    1    2    0    0 -0.28616887593E+02 -0.23583731355E+03 -0.40345591744E+02  0.24096873551E+03  0.00000000000E+00 0. -1.
<mgrwt>
<rscale>  0 0.32849695E+03</rscale>
<asrwt>0</asrwt>
<pdfrwt beam="2">  1        1 0.51501859E-01 0.33140590E+03</pdfrwt>
<pdfrwt beam="1">  1       -1 0.49970353E-01 0.33140590E+03</pdfrwt>
<totfact> 0.31427592E+02</totfact>
</mgrwt>
</event>
<event>
 7    1  0.5400401E-006  0.1329550E+03  0.7546771E-02  0.1235304E+00
         -1   -1    0    0    0  501 -0.00000000000E+00  0.00000000000E+00  0.67635232972E+02  0.67635232972E+02  0.00000000000E+00 0.  1.
          1   -1    0    0  501    0  0.00000000000E+00 -0.00000000000E+00 -0.40489598270E+03  0.40489598270E+03  0.00000000000E+00 0. -1.
         23    2    1    2    0    0  0.43936913612E+02  0.91413203264E+01 -0.14648734125E+02  0.13375953485E+03  0.12515195419E+03 0.  0.
          5    1    3    3  502    0 -0.12735867820E+02  0.38341174945E+01  0.47383283267E+02  0.49438530715E+02  0.47000000000E+01 0.  1.
         -5    1    3    3    0  502  0.56672781432E+02  0.53072028319E+01 -0.62032017392E+02  0.84321004139E+02  0.47000000000E+01 0.  1.
        -11    1    1    2    0    0  0.84929077374E+01  0.17643470485E+02 -0.12750821815E+02  0.23366749657E+02  0.00000000000E+00 0.  1.
         11    1    1    2    0    0 -0.52429821350E+02 -0.26784790811E+02 -0.30986119379E+03  0.31540493116E+03  0.00000000000E+00 0. -1.
<mgrwt>
<rscale>  0 0.12485019E+03</rscale>
<asrwt>0</asrwt>
<pdfrwt beam="2">  1        1 0.62291691E-01 0.13295498E+03</pdfrwt>
<pdfrwt beam="1">  1       -1 0.10405420E-01 0.13295498E+03</pdfrwt>
<totfact> 0.33107462E+03</totfact>
</mgrwt>
</event>
<event>
 7    1  0.5400401E-006  0.1869915E+03  0.7546771E-02  0.1166333E+00
         -1   -1    0    0    0  501 -0.00000000000E+00  0.00000000000E+00  0.48768255355E+02  0.48768255355E+02  0.00000000000E+00 0.  1.
          1   -1    0    0  501    0  0.00000000000E+00 -0.00000000000E+00 -0.87339630959E+03  0.87339630959E+03  0.00000000000E+00 0. -1.
         23    2    1    2    0    0  0.30061567478E+02 -0.13578227197E+03 -0.19164105990E+03  0.26775385422E+03  0.12500122956E+03 0.  0.
          5    1    3    3  502    0 -0.17385029007E+02 -0.82955029994E+02 -0.28126911895E+02  0.89425887794E+02  0.47000000000E+01 0. -1.
         -5    1    3    3    0  502  0.47446596485E+02 -0.52827241975E+02 -0.16351414801E+03  0.17832796643E+03  0.47000000000E+01 0. -1.
        -11    1    1    2    0    0 -0.12062963089E+02  0.26124905874E+01 -0.70559244733E+01  0.14217111371E+02  0.00000000000E+00 0.  1.
         11    1    1    2    0    0 -0.17998604389E+02  0.13316978138E+03 -0.62593106986E+03  0.64019359935E+03  0.00000000000E+00 0. -1.
<mgrwt>
<rscale>  0 0.18152748E+03</rscale>
<asrwt>0</asrwt>
<pdfrwt beam="2">  1        1 0.13436866E+00 0.18699153E+03</pdfrwt>
<pdfrwt beam="1">  1       -1 0.75028088E-02 0.18699153E+03</pdfrwt>
<totfact> 0.18970178E+03</totfact>
</mgrwt>
</event>
<event>
 7    1  0.5400401E-006  0.1400606E+03  0.7546771E-02  0.1227128E+00
          2   -1    0    0  501    0  0.00000000000E+00  0.00000000000E+00  0.14891590085E+03  0.14891590085E+03  0.00000000000E+00 0. -1.
         -2   -1    0    0    0  501 -0.00000000000E+00 -0.00000000000E+00 -0.11411381688E+03  0.11411381688E+03  0.00000000000E+00 0.  1.
         23    2    1    2    0    0  0.62281529688E+02 -0.10661531620E+02 -0.25319734418E+02  0.14233084305E+03  0.12499729091E+03 0.  0.
          5    1    3    3  502    0 -0.37480754089E+02 -0.68698996323E+01  0.28280099426E+01  0.38497923169E+02  0.47000000000E+01 0. -1.
         -5    1    3    3    0  502  0.99762283777E+02 -0.37916319878E+01 -0.28147744361E+02  0.10383291988E+03  0.47000000000E+01 0. -1.
        -11    1    1    2    0    0  0.56583259976E+01 -0.25053884831E+02  0.26492584759E+02  0.36899469446E+02  0.00000000000E+00 0. -1.
         11    1    1    2    0    0 -0.67939855685E+02  0.35715416451E+02  0.33629233629E+02  0.83799405232E+02  0.00000000000E+00 0.  1.
<mgrwt>
<rscale>  0 0.13022117E+03</rscale>
<asrwt>0</asrwt>
<pdfrwt beam="1">  1        2 0.22910139E-01 0.14006063E+03</pdfrwt>
<pdfrwt beam="2">  1       -2 0.17555972E-01 0.14006063E+03</pdfrwt>
<totfact> 0.59489702E+03</totfact>
</mgrwt>
</event>
<event>
 7    1  0.5400401E-006  0.1405989E+03  0.7546771E-02  0.1229851E+00
          1   -1    0    0  501    0  0.00000000000E+00  0.00000000000E+00  0.18373296230E+03  0.18373296230E+03  0.00000000000E+00 0. -1.
         -1   -1    0    0    0  501 -0.00000000000E+00 -0.00000000000E+00 -0.77391040420E+02  0.77391040420E+02  0.00000000000E+00 0.  1.
         23    2    1    2    0    0  0.17699896512E+02  0.61886940848E+02  0.66424438504E+02  0.15549998608E+03  0.12499903942E+03 0.  0.
          5    1    3    3  502    0  0.25273460174E+02  0.13693286055E+02  0.94589686651E+02  0.98972484524E+02  0.47000000000E+01 0. -1.
         -5    1    3    3    0  502 -0.75735636615E+01  0.48193654793E+02 -0.28165248147E+02  0.56527501555E+02  0.47000000000E+01 0. -1.
        -11    1    1    2    0    0 -0.38483877317E+02 -0.89110700545E+01  0.77519726319E+01  0.40255546979E+02  0.00000000000E+00 0. -1.
         11    1    1    2    0    0  0.20783980804E+02 -0.52975870793E+02  0.32165510742E+02  0.65368469660E+02  0.00000000000E+00 0.  1.
<mgrwt>
<rscale>  0 0.12839874E+03</rscale>
<asrwt>0</asrwt>
<pdfrwt beam="1">  1        1 0.28266610E-01 0.14059886E+03</pdfrwt>
<pdfrwt beam="2">  1       -1 0.11906314E-01 0.14059886E+03</pdfrwt>
<totfact> 0.72077960E+03</totfact>
</mgrwt>
</event>
<event>
 7    1  0.5400401E-006  0.3344950E+03  0.7546771E-02  0.1070396E+00
          2   -1    0    0  501    0  0.00000000000E+00  0.00000000000E+00  0.86392934489E+03  0.86392934489E+03  0.00000000000E+00 0. -1.
         -2   -1    0    0    0  501 -0.00000000000E+00 -0.00000000000E+00 -0.13143573014E+03  0.13143573014E+03  0.00000000000E+00 0.  1.
         23    2    1    2    0    0 -0.31024602333E+03 -0.31331699871E+01  0.26411145378E+03  0.42619452270E+03  0.12499799761E+03 0.  0.
          5    1    3    3  502    0 -0.17467279741E+03  0.12629673753E+02  0.69561793487E+02  0.18849675840E+03  0.47000000000E+01 0.  1.
         -5    1    3    3    0  502 -0.13557322593E+03 -0.15762843740E+02  0.19454966030E+03  0.23769776430E+03  0.47000000000E+01 0.  1.
        -11    1    1    2    0    0  0.10536924757E+03  0.34854786854E+02  0.21346364582E+03  0.24059148486E+03  0.00000000000E+00 0.  1.
         11    1    1    2    0    0  0.20487677576E+03 -0.31721616866E+02  0.25491851514E+03  0.32857906748E+03  0.00000000000E+00 0. -1.
<mgrwt>
<rscale>  0 0.33168041E+03</rscale>
<asrwt>0</asrwt>
<pdfrwt beam="1">  1        2 0.13291220E+00 0.33449501E+03</pdfrwt>
<pdfrwt beam="2">  1       -2 0.20220882E-01 0.33449501E+03</pdfrwt>
<totfact> 0.66231665E+02</totfact>
</mgrwt>
</event>
<event>
 7    1  0.5400401E-006  0.2090459E+03  0.7546771E-02  0.1146579E+00
          2   -1    0    0  501    0  0.00000000000E+00  0.00000000000E+00  0.10494960254E+04  0.10494960254E+04  0.00000000000E+00 0. -1.
         -2   -1    0    0    0  501 -0.00000000000E+00 -0.00000000000E+00 -0.37899677446E+02  0.37899677446E+02  0.00000000000E+00 0.  1.
         23    2    1    2    0    0  0.58827596993E+02  0.15689120261E+03  0.57030000720E+03  0.60740619547E+03  0.12499860984E+03 0.  0.
          5    1    3    3  502    0 -0.38243810251E+02  0.63365397902E+02  0.20472615828E+03  0.21774446619E+03  0.47000000000E+01 0.  1.
         -5    1    3    3    0  502  0.97071407243E+02  0.93525804708E+02  0.36557384892E+03  0.38966172928E+03  0.47000000000E+01 0.  1.
        -11    1    1    2    0    0 -0.23723358674E+02 -0.12797105346E+03  0.39140896408E+03  0.41248074553E+03  0.00000000000E+00 0. -1.
         11    1    1    2    0    0 -0.35104238318E+02 -0.28920149153E+02  0.49887376689E+02  0.67508761860E+02  0.00000000000E+00 0.  1.
<mgrwt>
<rscale>  0 0.20379092E+03</rscale>
<asrwt>0</asrwt>
<pdfrwt beam="1">  1        2 0.16146091E+00 0.20904590E+03</pdfrwt>
<pdfrwt beam="2">  1       -2 0.58307204E-02 0.20904590E+03</pdfrwt>
<totfact> 0.37618754E+03</totfact>
</mgrwt>
</event>
<event>
 7    1  0.5400401E-006  0.1430918E+03  0.7546771E-02  0.1220223E+00
          2   -1    0    0  501    0  0.00000000000E+00  0.00000000000E+00  0.50165245681E+03  0.50165245681E+03  0.00000000000E+00 0. -1.
         -2   -1    0    0    0  501 -0.00000000000E+00 -0.00000000000E+00 -0.43287054057E+02  0.43287054057E+02  0.00000000000E+00 0.  1.
         23    2    1    2    0    0 -0.67931958662E+02  0.15360020187E+02  0.11571867620E+03  0.18402741505E+03  0.12499838495E+03 0.  0.
          5    1    3    3  502    0 -0.57628727111E+02  0.66677182633E+02  0.56206776568E+02  0.10463368771E+03  0.47000000000E+01 0. -1.
         -5    1    3    3    0  502 -0.10303231551E+02 -0.51317162446E+02  0.59511899637E+02  0.79393727336E+02  0.47000000000E+01 0. -1.
        -11    1    1    2    0    0  0.53319215315E+02  0.23202903831E+02  0.10790645401E+03  0.12257698106E+03  0.00000000000E+00 0.  1.
         11    1    1    2    0    0  0.14612743347E+02 -0.38562924018E+02  0.23474027254E+03  0.23833511477E+03  0.00000000000E+00 0. -1.
<mgrwt>
<rscale>  0 0.13499798E+03</rscale>
<asrwt>0</asrwt>
<pdfrwt beam="1">  1        2 0.77177297E-01 0.14309185E+03</pdfrwt>
<pdfrwt beam="2">  1       -2 0.66595471E-02 0.14309185E+03</pdfrwt>
<totfact> 0.75000518E+03</totfact>
</mgrwt>
</event>
<event>
 7    1  0.5400401E-006  0.1344721E+03  0.7546771E-02  0.1233347E+00
          2   -1    0    0  501    0  0.00000000000E+00  0.00000000000E+00  0.19700338204E+03  0.19700338204E+03  0.00000000000E+00 0. -1.
         -2   -1    0    0    0  501 -0.00000000000E+00 -0.00000000000E+00 -0.76598463741E+02  0.76598463741E+02  0.00000000000E+00 0.  1.
         23    2    1    2    0    0  0.46535879166E+02 -0.17106995538E+02  0.34824747113E+02  0.13890827909E+03  0.12499803855E+03 0.  0.
          5    1    3    3  502    0  0.27029683633E+02  0.52343117381E+02  0.10243155811E+01  0.59106217582E+02  0.47000000000E+01 0. -1.
         -5    1    3    3    0  502  0.19506195533E+02 -0.69450112920E+02  0.33800431532E+02  0.79802061505E+02  0.47000000000E+01 0. -1.
        -11    1    1    2    0    0  0.19288398710E+02  0.24116995943E+02  0.64892088695E+01  0.31556008142E+02  0.00000000000E+00 0.  1.
         11    1    1    2    0    0 -0.65824277876E+02 -0.70100004050E+01  0.79090962315E+02  0.10313755855E+03  0.00000000000E+00 0. -1.
<mgrwt>
<rscale>  0 0.12610854E+03</rscale>
<asrwt>0</asrwt>
<pdfrwt beam="1">  1        2 0.30308212E-01 0.13447210E+03</pdfrwt>
<pdfrwt beam="2">  1       -2 0.11784379E-01 0.13447210E+03</pdfrwt>
<totfact> 0.83486828E+03</totfact>
</mgrwt>
</event>
<event>
 6    1  0.5400401E-006  0.1851129E+03  0.7546771E-02  0.1186775E+00
         -2   -1    0    0    0  501 -0.00000000000E+00  0.00000000000E+00  0.60766586613E+03  0.60766586613E+03  0.00000000000E+00 0.  1.
          2   -1    0    0  501    0  0.00000000000E+00 -0.00000000000E+00 -0.38020436003E+02  0.38020436003E+02  0.00000000000E+00 0. -1.
          5    1    1    2  502    0 -0.41915473351E+02 -0.11780095804E+02  0.22560765273E+02  0.49262112146E+02  0.47000000000E+01 0. -1.
         -5    1    1    2    0  502  0.95244527535E+02  0.41327959276E+00  0.41554061337E+03  0.42634232980E+03  0.47000000000E+01 0.  1.
        -11    1    1    2    0    0  0.18769710212E+02  0.25150303887E+02  0.59286746889E+02  0.67080236760E+02  0.00000000000E+00 0.  1.
         11    1    1    2    0    0 -0.72098764396E+02 -0.13783487677E+02  0.72257304595E+02  0.10300162342E+03  0.00000000000E+00 0. -1.
<mgrwt>
<rscale>  0 0.16171373E+03</rscale>
<asrwt>0</asrwt>
<pdfrwt beam="2">  1        2 0.58492983E-02 0.18511285E+03</pdfrwt>
<pdfrwt beam="1">  1       -2 0.93487049E-01 0.18511285E+03</pdfrwt>
<totfact> 0.12586295E+03</totfact>
</mgrwt>
</event>
<event>
 7    1  0.5400401E-006  0.1278491E+03  0.7546771E-02  0.1245030E+00
         -3   -1    0    0    0  501 -0.00000000000E+00  0.00000000000E+00  0.13360468533E+03  0.13360468533E+03  0.00000000000E+00 0.  1.
          3   -1    0    0  501    0  0.00000000000E+00 -0.00000000000E+00 -0.11781104312E+03  0.11781104312E+03  0.00000000000E+00 0. -1.
         23    2    1    2    0    0  0.44593173595E+01  0.26539281808E+02  0.65676951906E+02  0.14373191815E+03  0.12498473224E+03 0.  0.
          5    1    3    3  502    0 -0.41977454915E+02  0.53389871277E+02  0.57813609950E+02  0.89314548488E+02  0.47000000000E+01 0. -1.
         -5    1    3    3    0  502  0.46436772275E+02 -0.26850589468E+02  0.78633419562E+01  0.54417369661E+02  0.47000000000E+01 0. -1.
        -11    1    1    2    0    0  0.21966947732E+02 -0.39385160132E+02  0.50570734652E+01  0.45379638862E+02  0.00000000000E+00 0.  1.
         11    1    1    2    0    0 -0.26426265091E+02  0.12845878323E+02 -0.54940383160E+02  0.62304171436E+02  0.00000000000E+00 0. -1.
<mgrwt>
<rscale>  0 0.11883599E+03</rscale>
<asrwt>0</asrwt>
<pdfrwt beam="2">  1        3 0.18124776E-01 0.12784914E+03</pdfrwt>
<pdfrwt beam="1">  1       -3 0.20554567E-01 0.12784914E+03</pdfrwt>
<totfact> 0.13002242E+03</totfact>
</mgrwt>
</event>
<event>
 7    1  0.5400401E-006  0.1754032E+03  0.7546771E-02  0.1178501E+00
          1   -1    0    0  501    0  0.00000000000E+00  0.00000000000E+00  0.42475887249E+03  0.42475887249E+03  0.00000000000E+00 0. -1.
         -1   -1    0    0    0  501 -0.00000000000E+00 -0.00000000000E+00 -0.63420817850E+02  0.63420817850E+02  0.00000000000E+00 0.  1.
         23    2    1    2    0    0  0.11617131563E+03 -0.40568125692E+02  0.20453071725E+03  0.26944222472E+03  0.12499900306E+03 0.  0.
          5    1    3    3  502    0  0.62908358192E+02 -0.23857981862E+02  0.11463366908E+02  0.68411721289E+02  0.47000000000E+01 0. -1.
         -5    1    3    3    0  502  0.53262957441E+02 -0.16710143830E+02  0.19306735034E+03  0.20103050343E+03  0.47000000000E+01 0. -1.
        -11    1    1    2    0    0 -0.10694733700E+03  0.47206925855E+02  0.16674401840E+03  0.20364133768E+03  0.00000000000E+00 0. -1.
         11    1    1    2    0    0 -0.92239786280E+01 -0.66388001628E+01 -0.99366810059E+01  0.15096127939E+02  0.00000000000E+00 0.  1.
<mgrwt>
<rscale>  0 0.16937476E+03</rscale>
<asrwt>0</asrwt>
<pdfrwt beam="1">  1        1 0.65347517E-01 0.17540324E+03</pdfrwt>
<pdfrwt beam="2">  1       -1 0.97570492E-02 0.17540324E+03</pdfrwt>
<totfact> 0.34777610E+03</totfact>
</mgrwt>
</event>
<event>
 7    1  0.5400401E-006  0.1289903E+03  0.7546771E-02  0.1242446E+00
         -4   -1    0    0    0  501 -0.00000000000E+00  0.00000000000E+00  0.48329086988E+02  0.48329086988E+02  0.00000000000E+00 0.  1.
          4   -1    0    0  501    0  0.00000000000E+00 -0.00000000000E+00 -0.28576945711E+03  0.28576945711E+03  0.00000000000E+00 0. -1.
         23    2    1    2    0    0  0.27594282397E+02 -0.15895589778E+02 -0.90648649499E+02  0.15765680493E+03  0.12499750514E+03 0.  0.
          5    1    3    3  502    0  0.46382326412E+02 -0.28800068796E+02 -0.11287639710E+03  0.12547483886E+03  0.47000000000E+01 0.  1.
         -5    1    3    3    0  502 -0.18788044015E+02  0.12904479018E+02  0.22227747600E+02  0.32181966069E+02  0.47000000000E+01 0.  1.
        -11    1    1    2    0    0 -0.13430562468E+02 -0.30536559050E+02 -0.16131765735E+02  0.37055300734E+02  0.00000000000E+00 0.  1.
         11    1    1    2    0    0 -0.14163719929E+02  0.46432148828E+02 -0.13065995489E+03  0.13938643843E+03  0.00000000000E+00 0. -1.
<mgrwt>
<rscale>  0 0.12039554E+03</rscale>
<asrwt>0</asrwt>
<pdfrwt beam="2">  1        4 0.43964531E-01 0.12899027E+03</pdfrwt>
<pdfrwt beam="1">  1       -4 0.74352443E-02 0.12899027E+03</pdfrwt>
<totfact> 0.10262221E+03</totfact>
</mgrwt>
</event>
<event>
 7    1  0.5400401E-006  0.1497374E+03  0.7546771E-02  0.1210429E+00
          2   -1    0    0  501    0  0.00000000000E+00  0.00000000000E+00  0.34581430952E+03  0.34581430952E+03  0.00000000000E+00 0. -1.
         -2   -1    0    0    0  501 -0.00000000000E+00 -0.00000000000E+00 -0.59245982183E+02  0.59245982183E+02  0.00000000000E+00 0.  1.
         23    2    1    2    0    0  0.54143541610E+02 -0.62149882628E+02  0.92562043984E+02  0.17603696695E+03  0.12500860266E+03 0.  0.
          5    1    3    3  502    0  0.30102383889E+02 -0.76393627722E+02  0.11395309121E+03  0.14053304547E+03  0.47000000000E+01 0.  1.
         -5    1    3    3    0  502  0.24041157720E+02  0.14243745093E+02 -0.21391047230E+02  0.35503921479E+02  0.47000000000E+01 0.  1.
        -11    1    1    2    0    0 -0.42063693383E+02 -0.14137245572E+02  0.66449579315E+02  0.79904709527E+02  0.00000000000E+00 0.  1.
         11    1    1    2    0    0 -0.12079848226E+02  0.76287128201E+02  0.12755670404E+03  0.14911861523E+03  0.00000000000E+00 0. -1.
<mgrwt>
<rscale>  0 0.14217687E+03</rscale>
<asrwt>0</asrwt>
<pdfrwt beam="1">  1        2 0.53202200E-01 0.14973738E+03</pdfrwt>
<pdfrwt beam="2">  1       -2 0.91147667E-02 0.14973738E+03</pdfrwt>
<totfact> 0.69169753E+03</totfact>
</mgrwt>
</event>
<event>
 7    1  0.5400401E-006  0.1562819E+03  0.7546771E-02  0.1201201E+00
          1   -1    0    0  501    0  0.00000000000E+00  0.00000000000E+00  0.25983386234E+03  0.25983386234E+03  0.00000000000E+00 0. -1.
         -1   -1    0    0    0  501 -0.00000000000E+00 -0.00000000000E+00 -0.14276190818E+03  0.14276190818E+03  0.00000000000E+00 0.  1.
         23    2    1    2    0    0  0.59946430845E+02 -0.72153963301E+02 -0.72611658253E+02  0.17232671398E+03  0.12499709775E+03 0.  0.
          5    1    3    3  502    0  0.91226790235E+02 -0.80359113299E+02 -0.45595052749E+02  0.12992656842E+03  0.47000000000E+01 0.  1.
         -5    1    3    3    0  502 -0.31280359390E+02  0.82051499987E+01 -0.27016605504E+02  0.42400145554E+02  0.47000000000E+01 0.  1.
        -11    1    1    2    0    0 -0.19609970943E+02  0.50989174020E+01 -0.46355541052E+01  0.20785530566E+02  0.00000000000E+00 0.  1.
         11    1    1    2    0    0 -0.40336459902E+02  0.67055045899E+02  0.19431916652E+03  0.20948352597E+03  0.00000000000E+00 0. -1.
<mgrwt>
<rscale>  0 0.14940940E+03</rscale>
<asrwt>0</asrwt>
<pdfrwt beam="1">  1        1 0.39974440E-01 0.15628194E+03</pdfrwt>
<pdfrwt beam="2">  1       -1 0.21963370E-01 0.15628194E+03</pdfrwt>
<totfact> 0.17881773E+03</totfact>
</mgrwt>
</event>
<event>
 7    1  0.5400401E-006  0.1600143E+03  0.7546771E-02  0.1196268E+00
         -1   -1    0    0    0  501 -0.00000000000E+00  0.00000000000E+00  0.66999825403E+02  0.66999825403E+02  0.00000000000E+00 0.  1.
          1   -1    0    0  501    0  0.00000000000E+00 -0.00000000000E+00 -0.32934131674E+03  0.32934131674E+03  0.00000000000E+00 0. -1.
         23    2    1    2    0    0 -0.92142918014E+01  0.99469000975E+02 -0.16283493655E+03  0.22829756759E+03  0.12500230989E+03 0.  0.
          5    1    3    3  502    0 -0.20795146901E+02 -0.10977586135E+02  0.73051166517E+01  0.25067912982E+02  0.47000000000E+01 0.  1.
         -5    1    3    3    0  502  0.11580855100E+02  0.11044658711E+03 -0.17014005320E+03  0.20322965461E+03  0.47000000000E+01 0.  1.
        -11    1    1    2    0    0  0.20137550174E+02 -0.46660492266E+00 -0.55704460678E+02  0.59234496592E+02  0.00000000000E+00 0. -1.
         11    1    1    2    0    0 -0.10923258372E+02 -0.99002396052E+02 -0.43802094107E+02  0.10880907796E+03  0.00000000000E+00 0.  1.
<mgrwt>
<rscale>  0 0.15347418E+03</rscale>
<asrwt>0</asrwt>
<pdfrwt beam="2">  1        1 0.50667895E-01 0.16001426E+03</pdfrwt>
<pdfrwt beam="1">  1       -1 0.10307665E-01 0.16001426E+03</pdfrwt>
<totfact> 0.43904709E+03</totfact>
</mgrwt>
</event>
<event>
 7    1  0.5400401E-006  0.1261119E+03  0.7546771E-02  0.1248667E+00
          4   -1    0    0  501    0  0.00000000000E+00  0.00000000000E+00  0.10723991067E+03  0.10723991067E+03  0.00000000000E+00 0.  1.
         -4   -1    0    0    0  501 -0.00000000000E+00 -0.00000000000E+00 -0.11723998094E+03  0.11723998094E+03  0.00000000000E+00 0. -1.
         23    2    1    2    0    0  0.16543905726E+02 -0.13377361821E+01 -0.30629655923E+02  0.12977821986E+03  0.12501487980E+03 0.  0.
          5    1    3    3  502    0  0.37216969381E+02  0.81409028835E+01 -0.72422625688E+02  0.81966479864E+02  0.47000000000E+01 0. -1.
         -5    1    3    3    0  502 -0.20673063654E+02 -0.94786390656E+01  0.41792969765E+02  0.47811739993E+02  0.47000000000E+01 0. -1.
        -11    1    1    2    0    0 -0.55919345732E+01 -0.13841236076E+02  0.54225862372E+02  0.56243165792E+02  0.00000000000E+00 0.  1.
         11    1    1    2    0    0 -0.10951971153E+02  0.15178972258E+02 -0.33596276721E+02  0.38458505957E+02  0.00000000000E+00 0. -1.
<mgrwt>
<rscale>  0 0.11668559E+03</rscale>
<asrwt>0</asrwt>
<pdfrwt beam="1">  1        4 0.16498448E-01 0.12611190E+03</pdfrwt>
<pdfrwt beam="2">  1       -4 0.18036920E-01 0.12611190E+03</pdfrwt>
<totfact> 0.14027309E+03</totfact>
</mgrwt>
</event>
<event>
 7    1  0.5400401E-006  0.2010818E+03  0.7546771E-02  0.1152635E+00
          1   -1    0    0  501    0  0.00000000000E+00  0.00000000000E+00  0.10742532139E+03  0.10742532139E+03  0.00000000000E+00 0. -1.
         -1   -1    0    0    0  501 -0.00000000000E+00 -0.00000000000E+00 -0.36290006157E+03  0.36290006157E+03  0.00000000000E+00 0.  1.
         23    2    1    2    0    0 -0.10779736877E+02 -0.15714140962E+03 -0.18583935332E+03  0.27380678986E+03  0.12499707031E+03 0.  0.
          5    1    3    3  502    0  0.41029280718E+02 -0.14838898787E+02 -0.71895399218E+02  0.84229645744E+02  0.47000000000E+01 0. -1.
         -5    1    3    3    0  502 -0.51809017595E+02 -0.14230251084E+03 -0.11394395410E+03  0.18957714411E+03  0.47000000000E+01 0. -1.
        -11    1    1    2    0    0  0.32512229255E+01  0.96940562898E+02  0.87591564275E+01  0.97389763358E+02  0.00000000000E+00 0. -1.
         11    1    1    2    0    0  0.75285139515E+01  0.60200846726E+02 -0.78394543286E+02  0.99128829741E+02  0.00000000000E+00 0.  1.
<mgrwt>
<rscale>  0 0.19660598E+03</rscale>
<asrwt>0</asrwt>
<pdfrwt beam="1">  1        1 0.16526972E-01 0.20108181E+03</pdfrwt>
<pdfrwt beam="2">  1       -1 0.55830779E-01 0.20108181E+03</pdfrwt>
<totfact> 0.10883365E+03</totfact>
</mgrwt>
</event>
<event>
 7    1  0.5400401E-006  0.1237897E+03  0.7546771E-02  0.1237438E+00
         -2   -1    0    0    0  501 -0.00000000000E+00  0.00000000000E+00  0.23270706926E+03  0.23270706926E+03  0.00000000000E+00 0.  1.
          2   -1    0    0  501    0  0.00000000000E+00 -0.00000000000E+00 -0.10909366105E+03  0.10909366105E+03  0.00000000000E+00 0. -1.
         23    2    1    2    0    0  0.47336638981E+02  0.22358460082E+02  0.16999735330E+03  0.20960636314E+03  0.11088313313E+03 0.  0.
          5    1    3    3  502    0 -0.19341389411E+02 -0.26951028452E+01 -0.49233635797E+01  0.20680484343E+02  0.47000000000E+01 0. -1.
         -5    1    3    3    0  502  0.66678028393E+02  0.25053562927E+02  0.17492071688E+03  0.18892587879E+03  0.47000000000E+01 0.  1.
        -11    1    1    2    0    0  0.19555520626E+02  0.95929930385E+01  0.22273203035E+02  0.31153482563E+02  0.00000000000E+00 0.  1.
         11    1    1    2    0    0 -0.66892159607E+02 -0.31951453120E+02 -0.68657148127E+02  0.10104088461E+03  0.00000000000E+00 0. -1.
<mgrwt>
<rscale>  0 0.12349627E+03</rscale>
<asrwt>0</asrwt>
<pdfrwt beam="2">  1        2 0.16783640E-01 0.12378966E+03</pdfrwt>
<pdfrwt beam="1">  1       -2 0.35801088E-01 0.12378966E+03</pdfrwt>
<totfact> 0.24140051E+03</totfact>
</mgrwt>
</event>
<event>
 7    1  0.5400401E-006  0.1380046E+03  0.7546771E-02  0.1226046E+00
          2   -1    0    0  501    0  0.00000000000E+00  0.00000000000E+00  0.45868811938E+03  0.45868811938E+03  0.00000000000E+00 0. -1.
         -2   -1    0    0    0  501 -0.00000000000E+00 -0.00000000000E+00 -0.34494801435E+02  0.34494801435E+02  0.00000000000E+00 0.  1.
         23    2    1    2    0    0  0.49811480217E+02  0.30730582116E+02  0.26223796024E+03  0.29633429934E+03  0.12497886597E+03 0.  0.
          5    1    3    3  502    0  0.50887573506E+02  0.58998906846E+01  0.26585144961E+03  0.27078300742E+03  0.47000000000E+01 0.  1.
         -5    1    3    3    0  502 -0.10760932884E+01  0.24830691431E+02 -0.36134893692E+01  0.25551291927E+02  0.47000000000E+01 0.  1.
        -11    1    1    2    0    0  0.17843367850E+02  0.15122298445E+02  0.70090078869E+02  0.73889707283E+02  0.00000000000E+00 0. -1.
         11    1    1    2    0    0 -0.67654848067E+02 -0.45852880560E+02  0.91865278837E+02  0.12295891419E+03  0.00000000000E+00 0.  1.
<mgrwt>
<rscale>  0 0.13095438E+03</rscale>
<asrwt>0</asrwt>
<pdfrwt beam="1">  1        2 0.70567399E-01 0.13800460E+03</pdfrwt>
<pdfrwt beam="2">  1       -2 0.53068929E-02 0.13800460E+03</pdfrwt>
<totfact> 0.11643444E+04</totfact>
</mgrwt>
</event>
<event>
 7    1  0.5400401E-006  0.1178925E+03  0.7546771E-02  0.1258226E+00
          2   -1    0    0  501    0  0.00000000000E+00  0.00000000000E+00  0.23238204683E+03  0.23238204683E+03  0.00000000000E+00 0. -1.
         -2   -1    0    0    0  501 -0.00000000000E+00 -0.00000000000E+00 -0.53450023402E+02  0.53450023402E+02  0.00000000000E+00 0.  1.
         23    2    1    2    0    0  0.36409469081E+01 -0.20816787034E+02  0.53811443756E+02  0.12959288173E+03  0.11598296599E+03 0.  0.
          5    1    3    3  502    0  0.50365814225E+02  0.21213058242E+02  0.23922009749E+02  0.59841972168E+02  0.47000000000E+01 0. -1.
         -5    1    3    3    0  502 -0.46724867317E+02 -0.42029845276E+02  0.29889434007E+02  0.69750909563E+02  0.47000000000E+01 0.  1.
        -11    1    1    2    0    0 -0.11493449791E+02 -0.31361512297E+02  0.20841507971E+02  0.39370195531E+02  0.00000000000E+00 0.  1.
         11    1    1    2    0    0  0.78525028825E+01  0.52178299331E+02  0.10427907170E+03  0.11686899296E+03  0.00000000000E+00 0. -1.
<mgrwt>
<rscale>  0 0.11127560E+03</rscale>
<asrwt>0</asrwt>
<pdfrwt beam="1">  1        2 0.35751084E-01 0.11789251E+03</pdfrwt>
<pdfrwt beam="2">  1       -2 0.82230806E-02 0.11789251E+03</pdfrwt>
<totfact> 0.12159484E+04</totfact>
</mgrwt>
</event>
<event>
 7    1  0.5400401E-006  0.1400492E+03  0.7546771E-02  0.1213736E+00
          1   -1    0    0  501    0  0.00000000000E+00  0.00000000000E+00  0.63134091769E+03  0.63134091769E+03  0.00000000000E+00 0. -1.
         -1   -1    0    0    0  501 -0.00000000000E+00 -0.00000000000E+00 -0.30842552770E+02  0.30842552770E+02  0.00000000000E+00 0.  1.
         23    2    1    2    0    0 -0.41170303598E+02  0.43662415345E+02  0.28133010188E+03  0.31364055334E+03  0.12498947980E+03 0.  0.
          5    1    3    3  502    0 -0.79224742467E+02 -0.15065651968E+01  0.15830168035E+03  0.17708851335E+03  0.47000000000E+01 0.  1.
         -5    1    3    3    0  502  0.38054438869E+02  0.45168980542E+02  0.12302842153E+03  0.13655203999E+03  0.47000000000E+01 0.  1.
        -11    1    1    2    0    0  0.32531358528E+02  0.31155116921E+02  0.42941191224E+02  0.62232439305E+02  0.00000000000E+00 0.  1.
         11    1    1    2    0    0  0.86389450703E+01 -0.74817532266E+02  0.27622707181E+03  0.28631047782E+03  0.00000000000E+00 0. -1.
<mgrwt>
<rscale>  0 0.13969805E+03</rscale>
<asrwt>0</asrwt>
<pdfrwt beam="1">  1        1 0.97129362E-01 0.14004922E+03</pdfrwt>
<pdfrwt beam="2">  1       -1 0.47450086E-02 0.14004922E+03</pdfrwt>
<totfact> 0.60214648E+03</totfact>
</mgrwt>
</event>
<event>
 7    1  0.5400401E-006  0.1511511E+03  0.7546771E-02  0.1208688E+00
          3   -1    0    0  501    0  0.00000000000E+00  0.00000000000E+00  0.27399003023E+02  0.27399003023E+02  0.00000000000E+00 0. -1.
         -3   -1    0    0    0  501 -0.00000000000E+00 -0.00000000000E+00 -0.89489279513E+03  0.89489279513E+03  0.00000000000E+00 0.  1.
         23    2    1    2    0    0 -0.36529867860E+02 -0.76937768977E+02 -0.69057742339E+03  0.70692563093E+03  0.12487120735E+03 0.  0.
          5    1    3    3  502    0 -0.30621229936E+02 -0.90615973931E+02 -0.27762549984E+03  0.29367826378E+03  0.47000000000E+01 0.  1.
         -5    1    3    3    0  502 -0.59086379235E+01  0.13678204954E+02 -0.41295192355E+03  0.41324736715E+03  0.47000000000E+01 0.  1.
        -11    1    1    2    0    0  0.18344646937E+02  0.30621653726E+02 -0.45781309545E+01  0.35988484703E+02  0.00000000000E+00 0. -1.
         11    1    1    2    0    0  0.18185220923E+02  0.46316115250E+02 -0.17233823776E+03  0.17937768252E+03  0.00000000000E+00 0.  1.
<mgrwt>
<rscale>  0 0.14350605E+03</rscale>
<asrwt>0</asrwt>
<pdfrwt beam="1">  1        3 0.42152315E-02 0.15115115E+03</pdfrwt>
<pdfrwt beam="2">  1       -3 0.13767581E+00 0.15115115E+03</pdfrwt>
<totfact> 0.29981335E+02</totfact>
</mgrwt>
</event>
<event>
 7    1  0.5400401E-006  0.1342409E+03  0.7546771E-02  0.1233785E+00
          1   -1    0    0  501    0  0.00000000000E+00  0.00000000000E+00  0.35317284137E+02  0.35317284137E+02  0.00000000000E+00 0. -1.
         -1   -1    0    0    0  501 -0.00000000000E+00 -0.00000000000E+00 -0.40669248307E+03  0.40669248307E+03  0.00000000000E+00 0.  1.
         23    2    1    2    0    0 -0.14073769155E+02 -0.46911888788E+02 -0.23633706767E+03  0.27180108952E+03  0.12498730503E+03 0.  0.
          5    1    3    3  502    0 -0.24395244447E+02 -0.85844776058E+02 -0.12789050043E+03  0.15602090766E+03  0.47000000000E+01 0.  1.
         -5    1    3    3    0  502  0.10321475293E+02  0.38932887270E+02 -0.10844656724E+03  0.11578018185E+03  0.47000000000E+01 0.  1.
        -11    1    1    2    0    0  0.33977362934E+02 -0.21799199977E+01 -0.11743130454E+02  0.36015473841E+02  0.00000000000E+00 0. -1.
         11    1    1    2    0    0 -0.19903593779E+02  0.49091808786E+02 -0.12329500081E+03  0.13419320385E+03  0.00000000000E+00 0.  1.
<mgrwt>
<rscale>  0 0.12582515E+03</rscale>
<asrwt>0</asrwt>
<pdfrwt beam="1">  1        1 0.54334283E-02 0.13424091E+03</pdfrwt>
<pdfrwt beam="2">  1       -1 0.62568075E-01 0.13424091E+03</pdfrwt>
<totfact> 0.38077563E+03</totfact>
</mgrwt>
</event>
<event>
 7    1  0.5400401E-006  0.1264730E+03  0.7546771E-02  0.1246815E+00
         -1   -1    0    0    0  501 -0.00000000000E+00  0.00000000000E+00  0.19027272398E+03  0.19027272398E+03  0.00000000000E+00 0.  1.
          1   -1    0    0  501    0  0.00000000000E+00 -0.00000000000E+00 -0.73023969819E+02  0.73023969819E+02  0.00000000000E+00 0. -1.
         23    2    1    2    0    0 -0.15758130592E+02 -0.11092165245E+02  0.11051284276E+03  0.16795391753E+03  0.12499630071E+03 0.  0.
          5    1    3    3  502    0  0.37286649140E+02 -0.14584651737E+02 -0.50849691806E+01  0.40631923188E+02  0.47000000000E+01 0.  1.
         -5    1    3    3    0  502 -0.53044779732E+02  0.34924864917E+01  0.11559781194E+03  0.12732199434E+03  0.47000000000E+01 0.  1.
        -11    1    1    2    0    0 -0.67156228374E+01  0.37215143218E+02  0.34423712245E+02  0.51137642100E+02  0.00000000000E+00 0.  1.
         11    1    1    2    0    0  0.22473753429E+02 -0.26122977973E+02 -0.27687800842E+02  0.44205134168E+02  0.00000000000E+00 0. -1.
<mgrwt>
<rscale>  0 0.11777382E+03</rscale>
<asrwt>0</asrwt>
<pdfrwt beam="2">  1        1 0.11234457E-01 0.12647304E+03</pdfrwt>
<pdfrwt beam="1">  1       -1 0.29272727E-01 0.12647304E+03</pdfrwt>
<totfact> 0.55333794E+03</totfact>
</mgrwt>
</event>
<event>
 7    1  0.5400401E-006  0.1762072E+03  0.7546771E-02  0.1177844E+00
          1   -1    0    0  501    0  0.00000000000E+00  0.00000000000E+00  0.41108338924E+03  0.41108338924E+03  0.00000000000E+00 0.  1.
         -1   -1    0    0    0  501 -0.00000000000E+00 -0.00000000000E+00 -0.72951665032E+02  0.72951665032E+02  0.00000000000E+00 0. -1.
         23    2    1    2    0    0 -0.12373369817E+03  0.10718658961E+02  0.25569183456E+03  0.31052744065E+03  0.12499623764E+03 0.  0.
          5    1    3    3  502    0 -0.64023883185E+02  0.55999031165E+01  0.23985920935E+03  0.24836454426E+03  0.47000000000E+01 0.  1.
         -5    1    3    3    0  502 -0.59709814981E+02  0.51187558449E+01  0.15832625204E+02  0.62162896388E+02  0.47000000000E+01 0.  1.
        -11    1    1    2    0    0  0.10107727194E+02 -0.78959461946E+01  0.55142566701E+02  0.56614616290E+02  0.00000000000E+00 0. -1.
         11    1    1    2    0    0  0.11362597097E+03 -0.28227127668E+01  0.27297322953E+02  0.11689299734E+03  0.00000000000E+00 0.  1.
<mgrwt>
<rscale>  0 0.17000322E+03</rscale>
<asrwt>0</asrwt>
<pdfrwt beam="1">  1        1 0.63243597E-01 0.17620720E+03</pdfrwt>
<pdfrwt beam="2">  1       -1 0.11223333E-01 0.17620720E+03</pdfrwt>
<totfact> 0.29234635E+03</totfact>
</mgrwt>
</event>
<event>
 7    1  0.5400401E-006  0.1365071E+03  0.7546771E-02  0.1229649E+00
          2   -1    0    0  501    0  0.00000000000E+00  0.00000000000E+00  0.20765247062E+03  0.20765247062E+03  0.00000000000E+00 0.  1.
         -2   -1    0    0    0  501 -0.00000000000E+00 -0.00000000000E+00 -0.82695969408E+02  0.82695969408E+02  0.00000000000E+00 0. -1.
         23    2    1    2    0    0 -0.32435537474E+02  0.44199490949E+02  0.16020199140E+02  0.13744393504E+03  0.12501411683E+03 0.  0.
          5    1    3    3  502    0 -0.92840057904E+01  0.16924795623E+02  0.69860426493E+02  0.72630645461E+02  0.47000000000E+01 0. -1.
         -5    1    3    3    0  502 -0.23151531683E+02  0.27274695326E+02 -0.53840227353E+02  0.64813289577E+02  0.47000000000E+01 0. -1.
        -11    1    1    2    0    0  0.24241662217E+02 -0.22288541327E+02  0.12182402999E+03  0.12619640068E+03  0.00000000000E+00 0.  1.
         11    1    1    2    0    0  0.81938752563E+01 -0.21910949623E+02 -0.12887727916E+02  0.26708104312E+02  0.00000000000E+00 0. -1.
<mgrwt>
<rscale>  0 0.12853264E+03</rscale>
<asrwt>0</asrwt>
<pdfrwt beam="1">  1        2 0.31946534E-01 0.13650710E+03</pdfrwt>
<pdfrwt beam="2">  1       -2 0.12722457E-01 0.13650710E+03</pdfrwt>
<totfact> 0.69851105E+03</totfact>
</mgrwt>
</event>
<event>
 7    1  0.5400401E-006  0.1679936E+03  0.7546771E-02  0.1184262E+00
         -1   -1    0    0    0  501 -0.00000000000E+00  0.00000000000E+00  0.12319924659E+03  0.12319924659E+03  0.00000000000E+00 0.  1.
          1   -1    0    0  501    0  0.00000000000E+00 -0.00000000000E+00 -0.25641956469E+03  0.25641956469E+03  0.00000000000E+00 0. -1.
         23    2    1    2    0    0  0.11134777448E+03  0.14159004703E+02  0.12757212206E+02  0.16847728631E+03  0.12499218073E+03 0.  0.
          5    1    3    3  502    0  0.60557375585E+01 -0.35628092305E+01  0.53451375374E+02  0.54115664058E+02  0.47000000000E+01 0. -1.
         -5    1    3    3    0  502  0.10529203692E+03  0.17721813934E+02 -0.40694163168E+02  0.11436162225E+03  0.47000000000E+01 0. -1.
        -11    1    1    2    0    0 -0.79322352595E+02  0.30315582278E+02 -0.44647323750E+02  0.95939844007E+02  0.00000000000E+00 0.  1.
         11    1    1    2    0    0 -0.32025421886E+02 -0.44474586981E+02 -0.10133020656E+03  0.11520168096E+03  0.00000000000E+00 0. -1.
<mgrwt>
<rscale>  0 0.16399180E+03</rscale>
<asrwt>0</asrwt>
<pdfrwt beam="2">  1        1 0.39449164E-01 0.16799360E+03</pdfrwt>
<pdfrwt beam="1">  1       -1 0.18953730E-01 0.16799360E+03</pdfrwt>
<totfact> 0.23119493E+03</totfact>
</mgrwt>
</event>
<event>
 7    1  0.5400401E-006  0.1574549E+03  0.7546771E-02  0.1199480E+00
         -2   -1    0    0    0  501 -0.00000000000E+00  0.00000000000E+00  0.77692524406E+02  0.77692524406E+02  0.00000000000E+00 0. -1.
          2   -1    0    0  501    0  0.00000000000E+00 -0.00000000000E+00 -0.33233604198E+03  0.33233604198E+03  0.00000000000E+00 0.  1.
         23    2    1    2    0    0 -0.50453154429E+02 -0.81377978025E+02 -0.48112761762E+02  0.16464164839E+03  0.12499655372E+03 0.  0.
          5    1    3    3  502    0  0.13975406371E+02  0.17147512364E+01 -0.57110337495E+02  0.59007906283E+02  0.47000000000E+01 0.  1.
         -5    1    3    3    0  502 -0.64428560800E+02 -0.83092729261E+02  0.89975757338E+01  0.10563374211E+03  0.47000000000E+01 0.  1.
        -11    1    1    2    0    0 -0.49078272460E+01  0.37206013598E+02 -0.15041698073E+03  0.15502787590E+03  0.00000000000E+00 0.  1.
         11    1    1    2    0    0  0.55360981675E+02  0.44171964427E+02 -0.56113775084E+02  0.90359042091E+02  0.00000000000E+00 0. -1.
<mgrwt>
<rscale>  0 0.15081063E+03</rscale>
<asrwt>0</asrwt>
<pdfrwt beam="2">  1        2 0.51128621E-01 0.15745487E+03</pdfrwt>
<pdfrwt beam="1">  1       -2 0.11952696E-01 0.15745487E+03</pdfrwt>
<totfact> 0.47135987E+03</totfact>
</mgrwt>
</event>
<event>
 7    1  0.5400401E-006  0.1537554E+03  0.7546771E-02  0.1202843E+00
          1   -1    0    0  501    0  0.00000000000E+00  0.00000000000E+00  0.30961688747E+03  0.30961688747E+03  0.00000000000E+00 0. -1.
         -1   -1    0    0    0  501 -0.00000000000E+00 -0.00000000000E+00 -0.73496528223E+02  0.73496528223E+02  0.00000000000E+00 0.  1.
         23    2    1    2    0    0  0.84974704373E+02  0.28294180320E+02  0.65300523385E+02  0.16704752260E+03  0.12497781975E+03 0.  0.
          5    1    3    3  502    0  0.25491080883E+02  0.17946415883E+02  0.94641403376E+02  0.99754469978E+02  0.47000000000E+01 0. -1.
         -5    1    3    3    0  502  0.59483623489E+02  0.10347764437E+02 -0.29340879991E+02  0.67293052620E+02  0.47000000000E+01 0. -1.
        -11    1    1    2    0    0 -0.25392220636E+02  0.26282046974E+02  0.13042191921E+02  0.38802185919E+02  0.00000000000E+00 0.  1.
         11    1    1    2    0    0 -0.59582483736E+02 -0.54576227293E+02  0.15777764394E+03  0.17726370717E+03  0.00000000000E+00 0. -1.
<mgrwt>
<rscale>  0 0.14808742E+03</rscale>
<asrwt>0</asrwt>
<pdfrwt beam="1">  1        1 0.47633367E-01 0.15375538E+03</pdfrwt>
<pdfrwt beam="2">  1       -1 0.11307158E-01 0.15375538E+03</pdfrwt>
<totfact> 0.41042087E+03</totfact>
</mgrwt>
</event>
<event>
 7    1  0.5400401E-006  0.1371871E+03  0.7546771E-02  0.1229239E+00
          2   -1    0    0  501    0  0.00000000000E+00  0.00000000000E+00  0.18955352584E+03  0.18955352584E+03  0.00000000000E+00 0. -1.
         -2   -1    0    0    0  501 -0.00000000000E+00 -0.00000000000E+00 -0.85524631823E+02  0.85524631823E+02  0.00000000000E+00 0.  1.
         23    2    1    2    0    0 -0.43544820518E+02 -0.36042693468E+02  0.18558853478E+02  0.13843674718E+03  0.12500029913E+03 0.  0.
          5    1    3    3  502    0 -0.76069094871E+02  0.11076693351E+02 -0.30111871962E+01  0.77073715224E+02  0.47000000000E+01 0. -1.
         -5    1    3    3    0  502  0.32524274353E+02 -0.47119386820E+02  0.21570040675E+02  0.61363031959E+02  0.47000000000E+01 0. -1.
        -11    1    1    2    0    0 -0.20146423866E+02  0.29099468009E+02  0.55701392889E+02  0.65994716476E+02  0.00000000000E+00 0. -1.
         11    1    1    2    0    0  0.63691244384E+02  0.69432254594E+01  0.29768647651E+02  0.70646694006E+02  0.00000000000E+00 0.  1.
<mgrwt>
<rscale>  0 0.12880559E+03</rscale>
<asrwt>0</asrwt>
<pdfrwt beam="1">  1        2 0.29162081E-01 0.13718711E+03</pdfrwt>
<pdfrwt beam="2">  1       -2 0.13157636E-01 0.13718711E+03</pdfrwt>
<totfact> 0.73057461E+03</totfact>
</mgrwt>
</event>
<event>
 7    1  0.1265374E-005  0.2123834E+03  0.7546771E-02  0.1143228E+00
         -1   -1    0    0    0  501 -0.00000000000E+00  0.00000000000E+00  0.37286867336E+03  0.37286867336E+03  0.00000000000E+00 0.  1.
          1   -1    0    0  501    0  0.00000000000E+00 -0.00000000000E+00 -0.11184375162E+03  0.11184375162E+03  0.00000000000E+00 0. -1.
         23    2    1    2    0    0 -0.12376706531E+03 -0.11901030667E+03  0.15275956863E+03  0.26161457882E+03  0.12499984999E+03 0.  0.
          5    1    3    3  502    0 -0.90437019314E+02 -0.88960605314E+02  0.17097976068E+03  0.21295307540E+03  0.47000000000E+01 0. -1.
         -5    1    3    3    0  502 -0.33330045994E+02 -0.30049701355E+02 -0.18220192048E+02  0.48661503427E+02  0.47000000000E+01 0. -1.
        -11    1    1    2    0    0  0.10994517467E+03  0.76293030073E+02  0.36956972542E+02  0.13883222137E+03  0.00000000000E+00 0.  1.
         11    1    1    2    0    0  0.13821890636E+02  0.42717276596E+02  0.71308380574E+02  0.84265624786E+02  0.00000000000E+00 0. -1.
<mgrwt>
<rscale>  0 0.20791534E+03</rscale>
<asrwt>0</asrwt>
<pdfrwt beam="2">  1        1 0.17206731E-01 0.21238338E+03</pdfrwt>
<pdfrwt beam="1">  1       -1 0.57364411E-01 0.21238338E+03</pdfrwt>
<totfact> 0.98204113E+02</totfact>
</mgrwt>
</event>
<event>
 7    1  0.5400401E-006  0.1474609E+03  0.7546771E-02  0.1213644E+00
         -2   -1    0    0    0  501 -0.00000000000E+00  0.00000000000E+00  0.43080882604E+02  0.43080882604E+02  0.00000000000E+00 0.  1.
          2   -1    0    0  501    0  0.00000000000E+00 -0.00000000000E+00 -0.42582433899E+03  0.42582433899E+03  0.00000000000E+00 0. -1.
         23    2    1    2    0    0 -0.78121164334E+02  0.39270666353E+01 -0.16920857138E+03  0.22444656083E+03  0.12500551937E+03 0.  0.
          5    1    3    3  502    0 -0.11110161992E+03  0.26215152733E+01 -0.14719082714E+03  0.18449301311E+03  0.47000000000E+01 0. -1.
         -5    1    3    3    0  502  0.32980455581E+02  0.13055513620E+01 -0.22017744236E+02  0.39953547726E+02  0.47000000000E+01 0. -1.
        -11    1    1    2    0    0  0.32237379312E+02  0.14721191062E+02 -0.12762736417E+02  0.37667619145E+02  0.00000000000E+00 0.  1.
         11    1    1    2    0    0  0.45883785023E+02 -0.18648257697E+02 -0.20077214859E+03  0.20679104161E+03  0.00000000000E+00 0. -1.
<mgrwt>
<rscale>  0 0.13976604E+03</rscale>
<asrwt>0</asrwt>
<pdfrwt beam="2">  1        2 0.65511441E-01 0.14746090E+03</pdfrwt>
<pdfrwt beam="1">  1       -2 0.66278277E-02 0.14746090E+03</pdfrwt>
<totfact> 0.90477161E+03</totfact>
</mgrwt>
</event>
<event>
 7    1  0.5400401E-006  0.2134394E+03  0.7546771E-02  0.1142807E+00
          1   -1    0    0  501    0  0.00000000000E+00  0.00000000000E+00  0.56168007744E+03  0.56168007744E+03  0.00000000000E+00 0. -1.
         -1   -1    0    0    0  501 -0.00000000000E+00 -0.00000000000E+00 -0.76995293606E+02  0.76995293606E+02  0.00000000000E+00 0.  1.
         23    2    1    2    0    0  0.10778908014E+03  0.13533296338E+03  0.18978916945E+03  0.28561565580E+03  0.12499150860E+03 0.  0.
          5    1    3    3  502    0  0.35092913401E+02  0.10864004935E+03  0.17121015364E+03  0.20583775067E+03  0.47000000000E+01 0.  1.
         -5    1    3    3    0  502  0.72696166734E+02  0.26692914033E+02  0.18579015811E+02  0.79777905124E+02  0.47000000000E+01 0.  1.
        -11    1    1    2    0    0 -0.48830619673E+02 -0.39224003296E+02  0.39938376177E+02  0.74283414999E+02  0.00000000000E+00 0.  1.
         11    1    1    2    0    0 -0.58958460463E+02 -0.96108960082E+02  0.25495723821E+03  0.27877630025E+03  0.00000000000E+00 0. -1.
<mgrwt>
<rscale>  0 0.20843994E+03</rscale>
<asrwt>0</asrwt>
<pdfrwt beam="1">  1        1 0.86412317E-01 0.21343939E+03</pdfrwt>
<pdfrwt beam="2">  1       -1 0.11845430E-01 0.21343939E+03</pdfrwt>
<totfact> 0.17937238E+03</totfact>
</mgrwt>
</event>
<event>
 7    1  0.5400401E-006  0.3192702E+03  0.7546771E-02  0.1077378E+00
         -2   -1    0    0    0  501 -0.00000000000E+00  0.00000000000E+00  0.42635392726E+02  0.42635392726E+02  0.00000000000E+00 0. -1.
          2   -1    0    0  501    0  0.00000000000E+00 -0.00000000000E+00 -0.23133014713E+04  0.23133014713E+04  0.00000000000E+00 0.  1.
         23    2    1    2    0    0 -0.33862483756E+02 -0.29182399536E+03 -0.12349583959E+04  0.12755609318E+04  0.12500215631E+03 0.  0.
          5    1    3    3  502    0 -0.44386142955E+02 -0.53157497204E+02 -0.44090292364E+03  0.44633320207E+03  0.47000000000E+01 0.  1.
         -5    1    3    3    0  502  0.10523659199E+02 -0.23866649815E+03 -0.79405547230E+03  0.82922772978E+03  0.47000000000E+01 0.  1.
        -11    1    1    2    0    0  0.20571782063E+02  0.11197067470E+03 -0.56386555342E+03  0.57524342025E+03  0.00000000000E+00 0.  1.
         11    1    1    2    0    0  0.13290701693E+02  0.17985332066E+03 -0.47184212923E+03  0.50513251194E+03  0.00000000000E+00 0. -1.
<mgrwt>
<rscale>  0 0.31627163E+03</rscale>
<asrwt>0</asrwt>
<pdfrwt beam="2">  1        2 0.35589261E+00 0.31927019E+03</pdfrwt>
<pdfrwt beam="1">  1       -2 0.65592898E-02 0.31927019E+03</pdfrwt>
<totfact> 0.64813790E+02</totfact>
</mgrwt>
</event>
<event>
 7    1  0.5400401E-006  0.1628027E+03  0.7546771E-02  0.1192721E+00
          1   -1    0    0  501    0  0.00000000000E+00  0.00000000000E+00  0.80818830000E+02  0.80818830000E+02  0.00000000000E+00 0. -1.
         -1   -1    0    0    0  501 -0.00000000000E+00 -0.00000000000E+00 -0.40284634898E+03  0.40284634898E+03  0.00000000000E+00 0.  1.
         23    2    1    2    0    0 -0.28586485333E+02 -0.10031337651E+03 -0.30222897463E+03  0.34328863298E+03  0.12499908710E+03 0.  0.
          5    1    3    3  502    0 -0.61986530109E+02 -0.10637031480E+03 -0.26745041666E+03  0.29446356168E+03  0.47000000000E+01 0. -1.
         -5    1    3    3    0  502  0.33400044776E+02  0.60569382968E+01 -0.34778557976E+02  0.48825071300E+02  0.47000000000E+01 0. -1.
        -11    1    1    2    0    0 -0.28999467742E+02  0.58384920684E+02  0.38948253808E+01  0.65306490928E+02  0.00000000000E+00 0.  1.
         11    1    1    2    0    0  0.57585953074E+02  0.41928455823E+02 -0.23693369724E+02  0.75070055069E+02  0.00000000000E+00 0. -1.
<mgrwt>
<rscale>  0 0.15648732E+03</rscale>
<asrwt>0</asrwt>
<pdfrwt beam="1">  1        1 0.12433666E-01 0.16280274E+03</pdfrwt>
<pdfrwt beam="2">  1       -1 0.61976361E-01 0.16280274E+03</pdfrwt>
<totfact> 0.12883537E+03</totfact>
</mgrwt>
</event>
<event>
 7    1  0.5400401E-006  0.1378360E+03  0.7546771E-02  0.1226143E+00
         -2   -1    0    0    0  501 -0.00000000000E+00  0.00000000000E+00  0.21522897113E+03  0.21522897113E+03  0.00000000000E+00 0.  1.
          2   -1    0    0  501    0  0.00000000000E+00 -0.00000000000E+00 -0.11765495770E+03  0.11765495770E+03  0.00000000000E+00 0. -1.
         23    2    1    2    0    0 -0.35348063517E+02 -0.46102749805E+02  0.15460718388E+03  0.20712832060E+03  0.12499524292E+03 0.  0.
          5    1    3    3  502    0 -0.58528576660E+02 -0.76695682747E+02  0.91102235606E+02  0.13277623797E+03  0.47000000000E+01 0.  1.
         -5    1    3    3    0  502  0.23180513143E+02  0.30592932942E+02  0.63504948277E+02  0.74352082629E+02  0.47000000000E+01 0.  1.
        -11    1    1    2    0    0  0.36416318097E+02 -0.12893534921E+02 -0.54360382281E+02  0.66689149254E+02  0.00000000000E+00 0. -1.
         11    1    1    2    0    0 -0.10682545796E+01  0.58996284726E+02 -0.26727881778E+01  0.59066458976E+02  0.00000000000E+00 0.  1.
<mgrwt>
<rscale>  0 0.13088895E+03</rscale>
<asrwt>0</asrwt>
<pdfrwt beam="2">  1        2 0.18100763E-01 0.13783599E+03</pdfrwt>
<pdfrwt beam="1">  1       -2 0.33112149E-01 0.13783599E+03</pdfrwt>
<totfact> 0.25693847E+03</totfact>
</mgrwt>
</event>
<event>
 7    1  0.5400401E-006  0.1276812E+03  0.7546771E-02  0.1245922E+00
          2   -1    0    0  501    0  0.00000000000E+00  0.00000000000E+00  0.49254612126E+03  0.49254612126E+03  0.00000000000E+00 0. -1.
         -2   -1    0    0    0  501 -0.00000000000E+00 -0.00000000000E+00 -0.25074422444E+02  0.25074422444E+02  0.00000000000E+00 0.  1.
         23    2    1    2    0    0 -0.31450052929E+01 -0.25842658336E+02  0.25220898694E+03  0.28268687612E+03  0.12499905115E+03 0.  0.
          5    1    3    3  502    0 -0.21138260518E+02 -0.40885183011E+01 -0.60456181012E+01  0.22851291820E+02  0.47000000000E+01 0.  1.
         -5    1    3    3    0  502  0.17993255225E+02 -0.21754140035E+02  0.25825460505E+03  0.25983558430E+03  0.47000000000E+01 0.  1.
        -11    1    1    2    0    0 -0.34846908154E+02 -0.12391381481E+02  0.58974900532E+02  0.69612443110E+02  0.00000000000E+00 0. -1.
         11    1    1    2    0    0  0.37991913447E+02  0.38234039817E+02  0.15628781134E+03  0.16532122447E+03  0.00000000000E+00 0.  1.
<mgrwt>
<rscale>  0 0.11830381E+03</rscale>
<asrwt>0</asrwt>
<pdfrwt beam="1">  1        2 0.75776319E-01 0.12768123E+03</pdfrwt>
<pdfrwt beam="2">  1       -2 0.38576038E-02 0.12768123E+03</pdfrwt>
<totfact> 0.17244015E+04</totfact>
</mgrwt>
</event>
<event>
 7    1  0.5400401E-006  0.1705521E+03  0.7546771E-02  0.1185024E+00
          1   -1    0    0  501    0  0.00000000000E+00  0.00000000000E+00  0.80687573287E+03  0.80687573287E+03  0.00000000000E+00 0. -1.
         -1   -1    0    0    0  501 -0.00000000000E+00 -0.00000000000E+00 -0.31372371227E+02  0.31372371227E+02  0.00000000000E+00 0.  1.
         23    2    1    2    0    0  0.30297441997E+02  0.11199238130E+03  0.35187325176E+03  0.39102789097E+03  0.12501119049E+03 0.  0.
          5    1    3    3  502    0 -0.81838509069E+01 -0.78404024046E+01  0.16629278740E+03  0.16674480042E+03  0.47000000000E+01 0. -1.
         -5    1    3    3    0  502  0.38481292904E+02  0.11983278370E+03  0.18558046436E+03  0.22428309055E+03  0.47000000000E+01 0. -1.
        -11    1    1    2    0    0  0.15162364406E+02 -0.87135843612E+01  0.14206203930E+02  0.22530869421E+02  0.00000000000E+00 0.  1.
         11    1    1    2    0    0 -0.45459806403E+02 -0.10327879694E+03  0.40942390596E+03  0.42468934371E+03  0.00000000000E+00 0. -1.
<mgrwt>
<rscale>  0 0.16329655E+03</rscale>
<asrwt>0</asrwt>
<pdfrwt beam="1">  1        1 0.12413471E+00 0.17055212E+03</pdfrwt>
<pdfrwt beam="2">  1       -1 0.48265193E-02 0.17055212E+03</pdfrwt>
<totfact> 0.41505817E+03</totfact>
</mgrwt>
</event>
<event>
 7    1  0.5400401E-006  0.1543496E+03  0.7546771E-02  0.1203455E+00
         -2   -1    0    0    0  501 -0.00000000000E+00  0.00000000000E+00  0.44043778616E+03  0.44043778616E+03  0.00000000000E+00 0.  1.
          2   -1    0    0  501    0  0.00000000000E+00 -0.00000000000E+00 -0.54575804076E+02  0.54575804076E+02  0.00000000000E+00 0. -1.
         23    2    1    2    0    0  0.82778103726E+02  0.36690935320E+02  0.30738386635E+03  0.34396020894E+03  0.12500137938E+03 0.  0.
          5    1    3    3  502    0  0.10046844346E+03  0.21384772154E+02  0.30264181914E+03  0.31963319180E+03  0.47000000000E+01 0.  1.
         -5    1    3    3    0  502 -0.17690339737E+02  0.15306163166E+02  0.47420472160E+01  0.24327017135E+02  0.47000000000E+01 0.  1.
        -11    1    1    2    0    0 -0.27514613672E+02 -0.47451515404E+02  0.77244309659E+02  0.94738501436E+02  0.00000000000E+00 0.  1.
         11    1    1    2    0    0 -0.55263490055E+02  0.10760580084E+02  0.12338060753E+01  0.56314879865E+02  0.00000000000E+00 0. -1.
<mgrwt>
<rscale>  0 0.14759882E+03</rscale>
<asrwt>0</asrwt>
<pdfrwt beam="2">  1        2 0.83962778E-02 0.15434955E+03</pdfrwt>
<pdfrwt beam="1">  1       -2 0.67759657E-01 0.15434955E+03</pdfrwt>
<totfact> 0.15931294E+03</totfact>
</mgrwt>
</event>
<event>
 7    1  0.5400401E-006  0.1271874E+03  0.7546771E-02  0.1245478E+00
         -1   -1    0    0    0  501 -0.00000000000E+00  0.00000000000E+00  0.84402722386E+02  0.84402722386E+02  0.00000000000E+00 0. -1.
          1   -1    0    0  501    0  0.00000000000E+00 -0.00000000000E+00 -0.15051741133E+03  0.15051741133E+03  0.00000000000E+00 0.  1.
         23    2    1    2    0    0  0.10999077356E+02  0.22449792675E+02 -0.21445259458E+02  0.12898273400E+03  0.12470634957E+03 0.  0.
          5    1    3    3  502    0  0.45878531909E+00  0.62815693838E+02  0.23726928677E+02  0.67313290076E+02  0.47000000000E+01 0. -1.
         -5    1    3    3    0  502  0.10540292037E+02 -0.40365901163E+02 -0.45172188136E+02  0.61669443924E+02  0.47000000000E+01 0. -1.
        -11    1    1    2    0    0 -0.36170969317E+02 -0.19350087805E+02 -0.62623930163E+02  0.74863352506E+02  0.00000000000E+00 0.  1.
         11    1    1    2    0    0  0.25171891961E+02 -0.30997048704E+01  0.17954500680E+02  0.31074047207E+02  0.00000000000E+00 0. -1.
<mgrwt>
<rscale>  0 0.11856813E+03</rscale>
<asrwt>0</asrwt>
<pdfrwt beam="2">  1        1 0.23156524E-01 0.12718745E+03</pdfrwt>
<pdfrwt beam="1">  1       -1 0.12985034E-01 0.12718745E+03</pdfrwt>
<totfact> 0.80342385E+03</totfact>
</mgrwt>
</event>
<event>
 7    1  0.5400401E-006  0.1580113E+03  0.7546771E-02  0.1196791E+00
          1   -1    0    0  501    0  0.00000000000E+00  0.00000000000E+00  0.54055197988E+03  0.54055197988E+03  0.00000000000E+00 0. -1.
         -1   -1    0    0    0  501 -0.00000000000E+00 -0.00000000000E+00 -0.47768074416E+02  0.47768074416E+02  0.00000000000E+00 0.  1.
         23    2    1    2    0    0 -0.95384471076E+02 -0.15814116914E+02  0.14774915764E+03  0.21632705859E+03  0.12497719424E+03 0.  0.
          5    1    3    3  502    0 -0.24979139101E+02 -0.62333655321E+02  0.36376026901E+02  0.76516320540E+02  0.47000000000E+01 0. -1.
         -5    1    3    3    0  502 -0.70405331975E+02  0.46519538407E+02  0.11137313074E+03  0.13981073805E+03  0.47000000000E+01 0. -1.
        -11    1    1    2    0    0 -0.19439866466E+02 -0.44401873996E+01  0.79943227664E+02  0.82392616913E+02  0.00000000000E+00 0. -1.
         11    1    1    2    0    0  0.11482433754E+03  0.20254304314E+02  0.26509152016E+03  0.28960037879E+03  0.00000000000E+00 0.  1.
<mgrwt>
<rscale>  0 0.15303636E+03</rscale>
<asrwt>0</asrwt>
<pdfrwt beam="1">  1        1 0.83161839E-01 0.15801134E+03</pdfrwt>
<pdfrwt beam="2">  1       -1 0.73489349E-02 0.15801134E+03</pdfrwt>
<totfact> 0.38914795E+03</totfact>
</mgrwt>
</event>
<event>
 7    1  0.5400401E-006  0.1293038E+03  0.7546771E-02  0.1228554E+00
          2   -1    0    0  501    0  0.00000000000E+00  0.00000000000E+00  0.46696936673E+03  0.46696936673E+03  0.00000000000E+00 0. -1.
         -2   -1    0    0    0  501 -0.00000000000E+00 -0.00000000000E+00 -0.42128173577E+02  0.42128173577E+02  0.00000000000E+00 0.  1.
         23    2    1    2    0    0 -0.30961205494E+02 -0.96235560175E+01  0.11333076890E+03  0.17181691451E+03  0.12500391936E+03 0.  0.
          5    1    3    3  502    0  0.31483958905E+02  0.32347260675E+02  0.14760491776E+02  0.47723653035E+02  0.47000000000E+01 0.  1.
         -5    1    3    3    0  502 -0.62445164400E+02 -0.41970816693E+02  0.98570277123E+02  0.12409326147E+03  0.47000000000E+01 0.  1.
        -11    1    1    2    0    0  0.32284365959E+02  0.61986310681E+02  0.23006031129E+03  0.24044194690E+03  0.00000000000E+00 0.  1.
         11    1    1    2    0    0 -0.13231604643E+01 -0.52362754663E+02  0.81450112961E+02  0.96838678899E+02  0.00000000000E+00 0. -1.
<mgrwt>
<rscale>  0 0.12926289E+03</rscale>
<asrwt>0</asrwt>
<pdfrwt beam="1">  1        2 0.71841437E-01 0.12930381E+03</pdfrwt>
<pdfrwt beam="2">  1       -2 0.64812578E-02 0.12930381E+03</pdfrwt>
<totfact> 0.83995741E+03</totfact>
</mgrwt>
</event>
<event>
 7    1  0.5400401E-006  0.1274736E+03  0.7546771E-02  0.1247310E+00
          2   -1    0    0  501    0  0.00000000000E+00  0.00000000000E+00  0.66611326876E+02  0.66611326876E+02  0.00000000000E+00 0. -1.
         -2   -1    0    0    0  501 -0.00000000000E+00 -0.00000000000E+00 -0.22404865687E+03  0.22404865687E+03  0.00000000000E+00 0.  1.
         23    2    1    2    0    0  0.10867065673E+02  0.22500241948E+02 -0.15222240416E+03  0.19854765731E+03  0.12500063156E+03 0.  0.
          5    1    3    3  502    0 -0.40510258744E+02 -0.28297625553E+02 -0.34885709624E+02  0.60670745928E+02  0.47000000000E+01 0. -1.
         -5    1    3    3    0  502  0.51377324417E+02  0.50797867502E+02 -0.11733669454E+03  0.13787691138E+03  0.47000000000E+01 0. -1.
        -11    1    1    2    0    0  0.38631725575E+02 -0.11915274893E+02  0.41339287589E+01  0.40638323829E+02  0.00000000000E+00 0.  1.
         11    1    1    2    0    0 -0.49498791247E+02 -0.10584967056E+02 -0.93488545927E+01  0.51474002610E+02  0.00000000000E+00 0. -1.
<mgrwt>
<rscale>  0 0.11748171E+03</rscale>
<asrwt>0</asrwt>
<pdfrwt beam="1">  1        2 0.10247896E-01 0.12747357E+03</pdfrwt>
<pdfrwt beam="2">  1       -2 0.34469024E-01 0.12747357E+03</pdfrwt>
<totfact> 0.46576881E+03</totfact>
</mgrwt>
</event>
<event>
 7    1  0.5400401E-006  0.1615924E+03  0.7546771E-02  0.1194444E+00
          2   -1    0    0  501    0  0.00000000000E+00  0.00000000000E+00  0.14799806822E+03  0.14799806822E+03  0.00000000000E+00 0.  1.
         -2   -1    0    0    0  501 -0.00000000000E+00 -0.00000000000E+00 -0.15349090097E+03  0.15349090097E+03  0.00000000000E+00 0. -1.
         23    2    1    2    0    0  0.10227313579E+03 -0.52367247753E+01 -0.24124528014E+02  0.16338323539E+03  0.12499948465E+03 0.  0.
          5    1    3    3  502    0  0.83021849372E+02 -0.55423302168E+02  0.85606023666E+01  0.10029827421E+03  0.47000000000E+01 0. -1.
         -5    1    3    3    0  502  0.19251286417E+02  0.50186577393E+02 -0.32685130380E+02  0.63084961180E+02  0.47000000000E+01 0. -1.
        -11    1    1    2    0    0 -0.50582478410E+02  0.36268811658E+02 -0.21306254132E+02  0.65787310983E+02  0.00000000000E+00 0.  1.
         11    1    1    2    0    0 -0.51690657378E+02 -0.31032086883E+02  0.39937949394E+02  0.72318422814E+02  0.00000000000E+00 0. -1.
<mgrwt>
<rscale>  0 0.15501417E+03</rscale>
<asrwt>0</asrwt>
<pdfrwt beam="1">  1        2 0.22768934E-01 0.16159235E+03</pdfrwt>
<pdfrwt beam="2">  1       -2 0.23613985E-01 0.16159235E+03</pdfrwt>
<totfact> 0.36492528E+03</totfact>
</mgrwt>
</event>
<event>
 7    1  0.5400401E-006  0.1288829E+03  0.7546771E-02  0.1242664E+00
          1   -1    0    0  501    0  0.00000000000E+00  0.00000000000E+00  0.51870563659E+03  0.51870563659E+03  0.00000000000E+00 0. -1.
         -1   -1    0    0    0  501 -0.00000000000E+00 -0.00000000000E+00 -0.25107275103E+02  0.25107275103E+02  0.00000000000E+00 0.  1.
         23    2    1    2    0    0  0.30594093544E+02  0.71105355708E+01  0.24798142598E+03  0.27947376469E+03  0.12499695695E+03 0.  0.
          5    1    3    3  502    0  0.47729077244E+02 -0.30415464217E+02  0.22492051998E+03  0.23197951544E+03  0.47000000000E+01 0.  1.
         -5    1    3    3    0  502 -0.17134983700E+02  0.37525999788E+02  0.23060905996E+02  0.47494249250E+02  0.47000000000E+01 0.  1.
        -11    1    1    2    0    0 -0.55213792128E+02 -0.21088583474E+02  0.10138627278E+03  0.11735615664E+03  0.00000000000E+00 0.  1.
         11    1    1    2    0    0  0.24619698584E+02  0.13978047904E+02  0.14423066273E+03  0.14698299036E+03  0.00000000000E+00 0. -1.
<mgrwt>
<rscale>  0 0.12026318E+03</rscale>
<asrwt>0</asrwt>
<pdfrwt beam="1">  1        1 0.79800859E-01 0.12888288E+03</pdfrwt>
<pdfrwt beam="2">  1       -1 0.38626581E-02 0.12888288E+03</pdfrwt>
<totfact> 0.10560221E+04</totfact>
</mgrwt>
</event>
<event>
 7    1  0.5400401E-006  0.2211293E+03  0.7546771E-02  0.1136031E+00
          2   -1    0    0  501    0  0.00000000000E+00  0.00000000000E+00  0.14857837276E+04  0.14857837276E+04  0.00000000000E+00 0. -1.
         -2   -1    0    0    0  501 -0.00000000000E+00 -0.00000000000E+00 -0.30819808127E+02  0.30819808127E+02  0.00000000000E+00 0.  1.
         23    2    1    2    0    0  0.15174975726E+03 -0.10121755015E+03  0.69615092806E+03  0.73042747778E+03  0.12500081746E+03 0.  0.
          5    1    3    3  502    0  0.14148014344E+03 -0.11932079979E+03  0.50099857609E+03  0.53411211135E+03  0.47000000000E+01 0. -1.
         -5    1    3    3    0  502  0.10269613825E+02  0.18103249635E+02  0.19515235198E+03  0.19631536643E+03  0.47000000000E+01 0. -1.
        -11    1    1    2    0    0 -0.66787454392E+02  0.95482500242E+02  0.36056454527E+03  0.37892514198E+03  0.00000000000E+00 0. -1.
         11    1    1    2    0    0 -0.84962302870E+02  0.57350499093E+01  0.39824844619E+03  0.40725091602E+03  0.00000000000E+00 0.  1.
<mgrwt>
<rscale>  0 0.21714311E+03</rscale>
<asrwt>0</asrwt>
<pdfrwt beam="1">  1        2 0.22858206E+00 0.22112934E+03</pdfrwt>
<pdfrwt beam="2">  1       -2 0.47415101E-02 0.22112934E+03</pdfrwt>
<totfact> 0.29457144E+03</totfact>
</mgrwt>
</event>
<event>
 7    1  0.5400401E-006  0.1335001E+03  0.7546771E-02  0.1235172E+00
          2   -1    0    0  501    0  0.00000000000E+00  0.00000000000E+00  0.16562780793E+03  0.16562780793E+03  0.00000000000E+00 0. -1.
         -2   -1    0    0    0  501 -0.00000000000E+00 -0.00000000000E+00 -0.10847415384E+03  0.10847415384E+03  0.00000000000E+00 0.  1.
         23    2    1    2    0    0  0.12760171302E+02 -0.45108231587E+02 -0.33172336683E+02  0.13755969373E+03  0.12499876355E+03 0.  0.
          5    1    3    3  502    0 -0.23145195471E+02 -0.53680165704E+01  0.39998719235E+02  0.46760060049E+02  0.47000000000E+01 0. -1.
         -5    1    3    3    0  502  0.35905366773E+02 -0.39740215017E+02 -0.73171055919E+02  0.90799633683E+02  0.47000000000E+01 0. -1.
        -11    1    1    2    0    0 -0.27155245054E+02  0.19144549509E+02  0.99955057933E+02  0.10533249601E+03  0.00000000000E+00 0. -1.
         11    1    1    2    0    0  0.14395073752E+02  0.25963682078E+02 -0.96290671656E+01  0.31209772025E+02  0.00000000000E+00 0.  1.
<mgrwt>
<rscale>  0 0.12493444E+03</rscale>
<asrwt>0</asrwt>
<pdfrwt beam="1">  1        2 0.25481201E-01 0.13350006E+03</pdfrwt>
<pdfrwt beam="2">  1       -2 0.16688331E-01 0.13350006E+03</pdfrwt>
<totfact> 0.57339518E+03</totfact>
</mgrwt>
</event>
<event>
 7    1  0.5400401E-006  0.1294593E+03  0.7546771E-02  0.1244134E+00
         -3   -1    0    0    0  501 -0.00000000000E+00  0.00000000000E+00  0.56967709774E+02  0.56967709774E+02  0.00000000000E+00 0.  1.
          3   -1    0    0  501    0  0.00000000000E+00 -0.00000000000E+00 -0.25631238139E+03  0.25631238139E+03  0.00000000000E+00 0. -1.
         23    2    1    2    0    0 -0.21482143107E+02  0.25966796413E+02 -0.53696086424E+02  0.14015343625E+03  0.12499583596E+03 0.  0.
          5    1    3    3  502    0  0.16102921014E+02  0.46797455644E+02 -0.76534839401E+02  0.91263232258E+02  0.47000000000E+01 0.  1.
         -5    1    3    3    0  502 -0.37585064121E+02 -0.20830659232E+02  0.22838752977E+02  0.48890203994E+02  0.47000000000E+01 0.  1.
        -11    1    1    2    0    0  0.49282865676E+02 -0.31406104088E+02 -0.63822760578E+02  0.86536056018E+02  0.00000000000E+00 0.  1.
         11    1    1    2    0    0 -0.27800722569E+02  0.54393076756E+01 -0.81825824615E+02  0.86590598897E+02  0.00000000000E+00 0. -1.
<mgrwt>
<rscale>  0 0.11937375E+03</rscale>
<asrwt>0</asrwt>
<pdfrwt beam="2">  1        3 0.39432673E-01 0.12945932E+03</pdfrwt>
<pdfrwt beam="1">  1       -3 0.87642632E-02 0.12945932E+03</pdfrwt>
<totfact> 0.13384470E+03</totfact>
</mgrwt>
</event>
<event>
 7    1  0.8756986E-006  0.1536944E+03  0.7546771E-02  0.1204720E+00
          1   -1    0    0  501    0  0.00000000000E+00  0.00000000000E+00  0.11127677493E+04  0.11127677493E+04  0.00000000000E+00 0. -1.
         -1   -1    0    0    0  501 -0.00000000000E+00 -0.00000000000E+00 -0.17735380010E+02  0.17735380010E+02  0.00000000000E+00 0.  1.
         23    2    1    2    0    0  0.33280853223E+02  0.83000851467E+02  0.61114105772E+03  0.63017090982E+03  0.12500090644E+03 0.  0.
          5    1    3    3  502    0  0.19249911061E+02 -0.38214938304E+01  0.41115244565E+03  0.41164740550E+03  0.47000000000E+01 0. -1.
         -5    1    3    3    0  502  0.14030942163E+02  0.86822345297E+02  0.19998861207E+03  0.21852350432E+03  0.47000000000E+01 0. -1.
        -11    1    1    2    0    0 -0.57565138478E+02 -0.35544103267E+02  0.19097637224E+03  0.20260578274E+03  0.00000000000E+00 0. -1.
         11    1    1    2    0    0  0.24284285255E+02 -0.47456748199E+02  0.29291493931E+03  0.29772643674E+03  0.00000000000E+00 0.  1.
<mgrwt>
<rscale>  0 0.14659565E+03</rscale>
<asrwt>0</asrwt>
<pdfrwt beam="1">  1        1 0.17119498E+00 0.15369445E+03</pdfrwt>
<pdfrwt beam="2">  1       -1 0.27285209E-02 0.15369445E+03</pdfrwt>
<totfact> 0.56238074E+03</totfact>
</mgrwt>
</event>
<event>
 7    1  0.5400401E-006  0.1439285E+03  0.7546771E-02  0.1217332E+00
          3   -1    0    0  501    0  0.00000000000E+00  0.00000000000E+00  0.14733641415E+03  0.14733641415E+03  0.00000000000E+00 0. -1.
         -3   -1    0    0    0  501 -0.00000000000E+00 -0.00000000000E+00 -0.14015995873E+03  0.14015995873E+03  0.00000000000E+00 0.  1.
         23    2    1    2    0    0 -0.44350315140E+02 -0.55897254691E+02 -0.54636475232E+02  0.15394989684E+03  0.12499589104E+03 0.  0.
          5    1    3    3  502    0 -0.75439810325E+02 -0.73384498792E+02 -0.27484657211E+02  0.10887582848E+03  0.47000000000E+01 0.  1.
         -5    1    3    3    0  502  0.31089495185E+02  0.17487244101E+02 -0.27151818021E+02  0.45074068365E+02  0.47000000000E+01 0.  1.
        -11    1    1    2    0    0 -0.77491643703E+01  0.19946369910E+02 -0.20550632758E+02  0.29668766873E+02  0.00000000000E+00 0.  1.
         11    1    1    2    0    0  0.52099479510E+02  0.35950884781E+02  0.82363563411E+02  0.10387770916E+03  0.00000000000E+00 0. -1.
<mgrwt>
<rscale>  0 0.13706601E+03</rscale>
<asrwt>0</asrwt>
<pdfrwt beam="1">  1        3 0.22667141E-01 0.14392855E+03</pdfrwt>
<pdfrwt beam="2">  1       -3 0.21563071E-01 0.14392855E+03</pdfrwt>
<totfact> 0.82040638E+02</totfact>
</mgrwt>
</event>
<event>
 7    1  0.5400401E-006  0.1793873E+03  0.7546771E-02  0.1174392E+00
         -2   -1    0    0    0  501 -0.00000000000E+00  0.00000000000E+00  0.29462340980E+03  0.29462340980E+03  0.00000000000E+00 0.  1.
          2   -1    0    0  501    0  0.00000000000E+00 -0.00000000000E+00 -0.99253720823E+02  0.99253720823E+02  0.00000000000E+00 0. -1.
         23    2    1    2    0    0 -0.39904727531E+02  0.12232013236E+03  0.14126521256E+03  0.22833236771E+03  0.12500083121E+03 0.  0.
          5    1    3    3  502    0 -0.44545299768E+02  0.51128259671E+02 -0.22309291754E+01  0.68010658822E+02  0.47000000000E+01 0. -1.
         -5    1    3    3    0  502  0.46405722372E+01  0.71191872686E+02  0.14349614174E+03  0.16032170889E+03  0.47000000000E+01 0. -1.
        -11    1    1    2    0    0  0.52200170421E+02 -0.35411206199E+02  0.44609927108E+02  0.77258377624E+02  0.00000000000E+00 0.  1.
         11    1    1    2    0    0 -0.12295442890E+02 -0.86908926158E+02  0.94945493118E+01  0.88286385294E+02  0.00000000000E+00 0. -1.
<mgrwt>
<rscale>  0 0.17335657E+03</rscale>
<asrwt>0</asrwt>
<pdfrwt beam="2">  1        2 0.15269803E-01 0.17938732E+03</pdfrwt>
<pdfrwt beam="1">  1       -2 0.45326678E-01 0.17938732E+03</pdfrwt>
<totfact> 0.17511099E+03</totfact>
</mgrwt>
</event>
<event>
 7    1  0.5400401E-006  0.1675269E+03  0.7546771E-02  0.1187133E+00
         -2   -1    0    0    0  501 -0.00000000000E+00  0.00000000000E+00  0.39335234434E+02  0.39335234434E+02  0.00000000000E+00 0.  1.
          2   -1    0    0  501    0  0.00000000000E+00 -0.00000000000E+00 -0.71135449821E+03  0.71135449821E+03  0.00000000000E+00 0. -1.
         23    2    1    2    0    0  0.96618584664E+02  0.55732482762E+02 -0.22211690178E+03  0.27821064867E+03  0.12499594570E+03 0.  0.
          5    1    3    3  502    0  0.99964741359E+02  0.19209926531E+02 -0.75022839255E+02  0.12654045678E+03  0.47000000000E+01 0.  1.
         -5    1    3    3    0  502 -0.33461566952E+01  0.36522556231E+02 -0.14709406252E+03  0.15167019189E+03  0.47000000000E+01 0.  1.
        -11    1    1    2    0    0 -0.27472315957E+02 -0.10794651725E+02 -0.22290853064E+02  0.36988305993E+02  0.00000000000E+00 0.  1.
         11    1    1    2    0    0 -0.69146268707E+02 -0.44937831037E+02 -0.42761150894E+03  0.43549077799E+03  0.00000000000E+00 0. -1.
<mgrwt>
<rscale>  0 0.16139302E+03</rscale>
<asrwt>0</asrwt>
<pdfrwt beam="2">  1        2 0.10943915E+00 0.16752685E+03</pdfrwt>
<pdfrwt beam="1">  1       -2 0.60515749E-02 0.16752685E+03</pdfrwt>
<totfact> 0.58659969E+03</totfact>
</mgrwt>
</event>
<event>
 7    1  0.5400401E-006  0.1324029E+03  0.7546771E-02  0.1236765E+00
         -1   -1    0    0    0  501 -0.00000000000E+00  0.00000000000E+00  0.28261132504E+02  0.28261132504E+02  0.00000000000E+00 0.  1.
          1   -1    0    0  501    0  0.00000000000E+00 -0.00000000000E+00 -0.48471635609E+03  0.48471635609E+03  0.00000000000E+00 0. -1.
         23    2    1    2    0    0  0.33525740622E+02 -0.27944212680E+02 -0.25158761333E+03  0.28430066506E+03  0.12500274663E+03 0.  0.
          5    1    3    3  502    0  0.38517172622E+02  0.43677401286E+02 -0.13780676385E+03  0.14967993229E+03  0.47000000000E+01 0.  1.
         -5    1    3    3    0  502 -0.49914319993E+01 -0.71621613966E+02 -0.11378084948E+03  0.13462073276E+03  0.47000000000E+01 0.  1.
        -11    1    1    2    0    0  0.25322382779E+02  0.15245610433E+02 -0.24067024853E+02  0.38116576346E+02  0.00000000000E+00 0.  1.
         11    1    1    2    0    0 -0.58848123402E+02  0.12698602247E+02 -0.18080058541E+03  0.19056024719E+03  0.00000000000E+00 0. -1.
<mgrwt>
<rscale>  0 0.12392119E+03</rscale>
<asrwt>0</asrwt>
<pdfrwt beam="2">  1        1 0.74571744E-01 0.13240295E+03</pdfrwt>
<pdfrwt beam="1">  1       -1 0.43478667E-02 0.13240295E+03</pdfrwt>
<totfact> 0.97149903E+03</totfact>
</mgrwt>
</event>
<event>
 7    1  0.5400401E-006  0.1313949E+03  0.7546771E-02  0.1237040E+00
         -1   -1    0    0    0  501 -0.00000000000E+00  0.00000000000E+00  0.11685620972E+03  0.11685620972E+03  0.00000000000E+00 0.  1.
          1   -1    0    0  501    0  0.00000000000E+00 -0.00000000000E+00 -0.12041180080E+03  0.12041180080E+03  0.00000000000E+00 0. -1.
         23    2    1    2    0    0 -0.41994359630E+01  0.49139586637E+02  0.14978242644E+02  0.13224590380E+03  0.12178791845E+03 0.  0.
          5    1    3    3  502    0 -0.23209195621E+02  0.31397813295E+02 -0.49114898164E+02  0.62919414037E+02  0.47000000000E+01 0. -1.
         -5    1    3    3    0  502  0.19009759658E+02  0.17741773342E+02  0.64093140809E+02  0.69326489759E+02  0.47000000000E+01 0.  1.
        -11    1    1    2    0    0 -0.32605233421E+02  0.91174688176E+01 -0.79031923727E+00  0.33865234217E+02  0.00000000000E+00 0. -1.
         11    1    1    2    0    0  0.36804669384E+02 -0.58257055455E+02 -0.17743514493E+02  0.71156872509E+02  0.00000000000E+00 0.  1.
<mgrwt>
<rscale>  0 0.12374755E+03</rscale>
<asrwt>0</asrwt>
<pdfrwt beam="2">  1        1 0.18524892E-01 0.13139494E+03</pdfrwt>
<pdfrwt beam="1">  1       -1 0.17977879E-01 0.13139494E+03</pdfrwt>
<totfact> 0.64158195E+03</totfact>
</mgrwt>
</event>
<event>
 7    1  0.5400401E-006  0.1292041E+03  0.7546771E-02  0.1242786E+00
         -2   -1    0    0    0  501 -0.00000000000E+00  0.00000000000E+00  0.10883498281E+03  0.10883498281E+03  0.00000000000E+00 0. -1.
          2   -1    0    0  501    0  0.00000000000E+00 -0.00000000000E+00 -0.14140445915E+03  0.14140445915E+03  0.00000000000E+00 0.  1.
         23    2    1    2    0    0  0.23355779975E+02  0.22878401045E+02  0.33020702726E+02  0.13335694493E+03  0.12499917703E+03 0.  0.
          5    1    3    3  502    0 -0.32940380324E+01 -0.25304419216E+02  0.64664717997E+02  0.69676251852E+02  0.47000000000E+01 0. -1.
         -5    1    3    3    0  502  0.26649818008E+02  0.48182820261E+02 -0.31644015272E+02  0.63680693076E+02  0.47000000000E+01 0. -1.
        -11    1    1    2    0    0 -0.36054644569E+02 -0.71762824947E+01 -0.82643381872E+02  0.90450898241E+02  0.00000000000E+00 0.  1.
         11    1    1    2    0    0  0.12698864594E+02 -0.15702118550E+02  0.17053202798E+02  0.26431598790E+02  0.00000000000E+00 0. -1.
<mgrwt>
<rscale>  0 0.12018868E+03</rscale>
<asrwt>0</asrwt>
<pdfrwt beam="2">  1        2 0.21754532E-01 0.12920413E+03</pdfrwt>
<pdfrwt beam="1">  1       -2 0.16743844E-01 0.12920413E+03</pdfrwt>
<totfact> 0.67801355E+03</totfact>
</mgrwt>
</event>
<event>
 7    1  0.5400401E-006  0.1492914E+03  0.7546771E-02  0.1211217E+00
         -1   -1    0    0    0  501 -0.00000000000E+00  0.00000000000E+00  0.82949885611E+03  0.82949885611E+03  0.00000000000E+00 0.  1.
          1   -1    0    0  501    0  0.00000000000E+00 -0.00000000000E+00 -0.28149173698E+02  0.28149173698E+02  0.00000000000E+00 0. -1.
         23    2    1    2    0    0  0.53815187681E+01  0.81450229376E+02  0.63361505311E+03  0.65096539893E+03  0.12499925786E+03 0.  0.
          5    1    3    3  502    0  0.64700707652E+02  0.36226191166E+02  0.29702749081E+03  0.30617958585E+03  0.47000000000E+01 0.  1.
         -5    1    3    3    0  502 -0.59319188884E+02  0.45224038211E+02  0.33658756230E+03  0.34478581307E+03  0.47000000000E+01 0.  1.
        -11    1    1    2    0    0  0.31216126187E+02 -0.19010013135E+02  0.10403322359E+03  0.11026667105E+03  0.00000000000E+00 0.  1.
         11    1    1    2    0    0 -0.36597644955E+02 -0.62440216242E+02  0.63701405712E+02  0.96415959832E+02  0.00000000000E+00 0. -1.
<mgrwt>
<rscale>  0 0.14158139E+03</rscale>
<asrwt>0</asrwt>
<pdfrwt beam="2">  1        1 0.43306428E-02 0.14929138E+03</pdfrwt>
<pdfrwt beam="1">  1       -1 0.12761519E+00 0.14929138E+03</pdfrwt>
<totfact> 0.11400278E+03</totfact>
</mgrwt>
</event>
<event>
 7    1  0.5400401E-006  0.1395121E+03  0.7546771E-02  0.1225176E+00
         -1   -1    0    0    0  501 -0.00000000000E+00  0.00000000000E+00  0.72865314349E+02  0.72865314349E+02  0.00000000000E+00 0.  1.
          1   -1    0    0  501    0  0.00000000000E+00 -0.00000000000E+00 -0.21443598126E+03  0.21443598126E+03  0.00000000000E+00 0. -1.
         23    2    1    2    0    0 -0.37106952318E+02  0.49611210662E+02 -0.73296318497E+02  0.15759437147E+03  0.12500174991E+03 0.  0.
          5    1    3    3  502    0  0.29854806559E+02  0.51250921391E+02 -0.67827633062E+02  0.90225518701E+02  0.47000000000E+01 0. -1.
         -5    1    3    3    0  502 -0.66961758877E+02 -0.16397107287E+01 -0.54686854349E+01  0.67368852770E+02  0.47000000000E+01 0. -1.
        -11    1    1    2    0    0 -0.35423010661E+01 -0.17645243126E+02  0.20307841959E+02  0.27135050154E+02  0.00000000000E+00 0.  1.
         11    1    1    2    0    0  0.40649253384E+02 -0.31965967536E+02 -0.88582190374E+02  0.10257187398E+03  0.00000000000E+00 0. -1.
<mgrwt>
<rscale>  0 0.13154879E+03</rscale>
<asrwt>0</asrwt>
<pdfrwt beam="2">  1        1 0.32990150E-01 0.13951213E+03</pdfrwt>
<pdfrwt beam="1">  1       -1 0.11210049E-01 0.13951213E+03</pdfrwt>
<totfact> 0.65220667E+03</totfact>
</mgrwt>
</event>
<event>
 7    1  0.5400401E-006  0.1379296E+03  0.7546771E-02  0.1230191E+00
         -2   -1    0    0    0  501 -0.00000000000E+00  0.00000000000E+00  0.24745959401E+02  0.24745959401E+02  0.00000000000E+00 0.  1.
          2   -1    0    0  501    0  0.00000000000E+00 -0.00000000000E+00 -0.59066590860E+03  0.59066590860E+03  0.00000000000E+00 0. -1.
         23    2    1    2    0    0 -0.47073616878E+02 -0.23690400902E+02 -0.29598536019E+03  0.32654539821E+03  0.12746530173E+03 0.  0.
          5    1    3    3  502    0 -0.10158507873E+02  0.21738659016E+01 -0.27728624938E+03  0.27752058495E+03  0.47000000000E+01 0. -1.
         -5    1    3    3    0  502 -0.36915109006E+02 -0.25864266804E+02 -0.18699110809E+02  0.49024813261E+02  0.47000000000E+01 0.  1.
        -11    1    1    2    0    0 -0.95748951728E+01  0.42179979005E+02 -0.11574294608E+03  0.12356074949E+03  0.00000000000E+00 0. -1.
         11    1    1    2    0    0  0.56648512051E+02 -0.18489578103E+02 -0.15419164293E+03  0.16530572030E+03  0.00000000000E+00 0.  1.
<mgrwt>
<rscale>  0 0.12817384E+03</rscale>
<asrwt>0</asrwt>
<pdfrwt beam="2">  1        2 0.90871681E-01 0.13792956E+03</pdfrwt>
<pdfrwt beam="1">  1       -2 0.38070706E-02 0.13792956E+03</pdfrwt>
<totfact> 0.14456551E+04</totfact>
</mgrwt>
</event>
<event>
 7    1  0.5400401E-006  0.1399163E+03  0.7546771E-02  0.1224333E+00
          2   -1    0    0  501    0  0.00000000000E+00  0.00000000000E+00  0.40712099223E+03  0.40712099223E+03  0.00000000000E+00 0. -1.
         -2   -1    0    0    0  501 -0.00000000000E+00 -0.00000000000E+00 -0.39529156148E+02  0.39529156148E+02  0.00000000000E+00 0.  1.
         23    2    1    2    0    0  0.59953184010E+02 -0.18899136321E+02  0.17305101277E+03  0.22253811327E+03  0.12499998884E+03 0.  0.
          5    1    3    3  502    0  0.42052338122E+02  0.45270784816E+02  0.12731044807E+03  0.14159054801E+03  0.47000000000E+01 0.  1.
         -5    1    3    3    0  502  0.17900845888E+02 -0.64169921136E+02  0.45740564706E+02  0.80947565262E+02  0.47000000000E+01 0.  1.
        -11    1    1    2    0    0 -0.22384102155E+02 -0.37270077344E+02  0.69442795395E+02  0.81929289798E+02  0.00000000000E+00 0.  1.
         11    1    1    2    0    0 -0.37569081854E+02  0.56169213665E+02  0.12509802792E+03  0.14218274531E+03  0.00000000000E+00 0. -1.
<mgrwt>
<rscale>  0 0.13212699E+03</rscale>
<asrwt>0</asrwt>
<pdfrwt beam="1">  1        2 0.62633996E-01 0.13991626E+03</pdfrwt>
<pdfrwt beam="2">  1       -2 0.60814089E-02 0.13991626E+03</pdfrwt>
<totfact> 0.10785903E+04</totfact>
</mgrwt>
</event>
<event>
 7    1  0.5400401E-006  0.1480575E+03  0.7546771E-02  0.1212346E+00
          2   -1    0    0  501    0  0.00000000000E+00  0.00000000000E+00  0.79398492811E+03  0.79398492811E+03  0.00000000000E+00 0. -1.
         -2   -1    0    0    0  501 -0.00000000000E+00 -0.00000000000E+00 -0.22802727923E+02  0.22802727923E+02  0.00000000000E+00 0.  1.
         23    2    1    2    0    0  0.73794974984E+02  0.28889623076E+02  0.43977939013E+03  0.46403333913E+03  0.12506286094E+03 0.  0.
          5    1    3    3  502    0  0.54984985276E+02  0.77367263775E+02  0.25987531666E+03  0.27670618410E+03  0.47000000000E+01 0. -1.
         -5    1    3    3    0  502  0.18809989708E+02 -0.48477640699E+02  0.17990407348E+03  0.18732715504E+03  0.47000000000E+01 0. -1.
        -11    1    1    2    0    0 -0.22277621127E+02 -0.62489537652E+01  0.79836887486E+01  0.24476133524E+02  0.00000000000E+00 0.  1.
         11    1    1    2    0    0 -0.51517353857E+02 -0.22640669311E+02  0.32341912130E+03  0.32827818338E+03  0.00000000000E+00 0. -1.
<mgrwt>
<rscale>  0 0.14073298E+03</rscale>
<asrwt>0</asrwt>
<pdfrwt beam="1">  1        2 0.12215151E+00 0.14805752E+03</pdfrwt>
<pdfrwt beam="2">  1       -2 0.35081126E-02 0.14805752E+03</pdfrwt>
<totfact> 0.11552579E+04</totfact>
</mgrwt>
</event>
<event>
 7    1  0.5400401E-006  0.2179580E+03  0.7546771E-02  0.1138754E+00
         -2   -1    0    0    0  501 -0.00000000000E+00  0.00000000000E+00  0.42939616283E+02  0.42939616283E+02  0.00000000000E+00 0. -1.
          2   -1    0    0  501    0  0.00000000000E+00 -0.00000000000E+00 -0.10228574361E+04  0.10228574361E+04  0.00000000000E+00 0.  1.
         23    2    1    2    0    0  0.17765246491E+03 -0.17944098909E+02 -0.49407900427E+03  0.54001828540E+03  0.12499318836E+03 0.  0.
          5    1    3    3  502    0  0.62562548214E+02 -0.22256542726E+02 -0.55885091848E+02  0.86917544972E+02  0.47000000000E+01 0.  1.
         -5    1    3    3    0  502  0.11508991670E+03  0.43124438175E+01 -0.43819391242E+03  0.45310074043E+03  0.47000000000E+01 0.  1.
        -11    1    1    2    0    0 -0.14203488644E+03  0.32369361974E+02 -0.45087656072E+03  0.47382629472E+03  0.00000000000E+00 0.  1.
         11    1    1    2    0    0 -0.35617578468E+02 -0.14425263065E+02 -0.34962254806E+02  0.51952472237E+02  0.00000000000E+00 0. -1.
<mgrwt>
<rscale>  0 0.21359082E+03</rscale>
<asrwt>0</asrwt>
<pdfrwt beam="2">  1        2 0.15736269E+00 0.21795799E+03</pdfrwt>
<pdfrwt beam="1">  1       -2 0.66060944E-02 0.21795799E+03</pdfrwt>
<totfact> 0.32243567E+03</totfact>
</mgrwt>
</event>
<event>
 6    1  0.5400401E-006  0.2745174E+03  0.7546771E-02  0.1098722E+00
          1   -1    0    0  501    0  0.00000000000E+00  0.00000000000E+00  0.10157990936E+04  0.10157990936E+04  0.00000000000E+00 0. -1.
         -1   -1    0    0    0  501 -0.00000000000E+00 -0.00000000000E+00 -0.18546926814E+02  0.18546926814E+02  0.00000000000E+00 0.  1.
          5    1    1    2  502    0  0.35170292462E+01  0.37484066202E+02  0.16019923339E+03  0.16463082668E+03  0.47000000000E+01 0. -1.
         -5    1    1    2    0  502 -0.33543369207E+02 -0.10875079407E+03  0.45621429297E+03  0.47021852785E+03  0.47000000000E+01 0.  1.
        -11    1    1    2    0    0 -0.17385539766E+02  0.54480489972E+02  0.10947920029E+03  0.12351548922E+03  0.00000000000E+00 0.  1.
         11    1    1    2    0    0  0.47411879727E+02  0.16786237892E+02  0.27135944014E+03  0.27598117667E+03  0.00000000000E+00 0. -1.
<mgrwt>
<rscale>  0 0.27451741E+03</rscale>
<asrwt>0</asrwt>
<pdfrwt beam="1">  1        1 0.15627674E+00 0.27451741E+03</pdfrwt>
<pdfrwt beam="2">  1       -1 0.28533742E-02 0.27451741E+03</pdfrwt>
<totfact> 0.63170067E+03</totfact>
</mgrwt>
</event>
<event>
 7    1  0.5400401E-006  0.1322858E+03  0.7546771E-02  0.1232694E+00
          1   -1    0    0  501    0  0.00000000000E+00  0.00000000000E+00  0.21071210273E+03  0.21071210273E+03  0.00000000000E+00 0. -1.
         -1   -1    0    0    0  501 -0.00000000000E+00 -0.00000000000E+00 -0.70108365454E+02  0.70108365454E+02  0.00000000000E+00 0.  1.
         23    2    1    2    0    0 -0.41022515311E+02 -0.13885011671E+02  0.73176699269E+02  0.15117659196E+03  0.12499556924E+03 0.  0.
          5    1    3    3  502    0  0.82261080032E+01  0.39748991378E+02  0.66307650126E+02  0.77887390723E+02  0.47000000000E+01 0.  1.
         -5    1    3    3    0  502 -0.49248623314E+02 -0.53634003049E+02  0.68690491428E+01  0.73289201234E+02  0.47000000000E+01 0.  1.
        -11    1    1    2    0    0  0.41090481783E+02  0.47459122064E+02  0.72264132348E+02  0.95723042076E+02  0.00000000000E+00 0. -1.
         11    1    1    2    0    0 -0.67966472242E-01 -0.33574110394E+02 -0.48370943365E+01  0.33920834155E+02  0.00000000000E+00 0.  1.
<mgrwt>
<rscale>  0 0.12653225E+03</rscale>
<asrwt>0</asrwt>
<pdfrwt beam="1">  1        1 0.32417246E-01 0.13228580E+03</pdfrwt>
<pdfrwt beam="2">  1       -1 0.10785902E-01 0.13228580E+03</pdfrwt>
<totfact> 0.70468330E+03</totfact>
</mgrwt>
</event>
<event>
 7    1  0.5400401E-006  0.1264465E+03  0.7546771E-02  0.1247993E+00
          1   -1    0    0  501    0  0.00000000000E+00  0.00000000000E+00  0.21377227839E+03  0.21377227839E+03  0.00000000000E+00 0. -1.
         -1   -1    0    0    0  501 -0.00000000000E+00 -0.00000000000E+00 -0.97944772257E+02  0.97944772257E+02  0.00000000000E+00 0.  1.
         23    2    1    2    0    0 -0.18813716513E+02 -0.31124168607E+01 -0.37963733370E+02  0.13202255343E+03  0.12500026598E+03 0.  0.
          5    1    3    3  502    0  0.29381942074E+02  0.58912060569E+01  0.33523738005E+02  0.45209908634E+02  0.47000000000E+01 0. -1.
         -5    1    3    3    0  502 -0.48195658587E+02 -0.90036229176E+01 -0.71487471375E+02  0.86812644792E+02  0.47000000000E+01 0. -1.
        -11    1    1    2    0    0 -0.35581391821E+02 -0.37503332801E+01  0.41932381584E+02  0.55121910970E+02  0.00000000000E+00 0. -1.
         11    1    1    2    0    0  0.54395108334E+02  0.68627501408E+01  0.11185885791E+03  0.12457258625E+03  0.00000000000E+00 0.  1.
<mgrwt>
<rscale>  0 0.11708034E+03</rscale>
<asrwt>0</asrwt>
<pdfrwt beam="1">  1        1 0.32888043E-01 0.12644647E+03</pdfrwt>
<pdfrwt beam="2">  1       -1 0.15068427E-01 0.12644647E+03</pdfrwt>
<totfact> 0.41140133E+03</totfact>
</mgrwt>
</event>
<event>
 7    1  0.5400401E-006  0.1623389E+03  0.7546771E-02  0.1193388E+00
          2   -1    0    0  501    0  0.00000000000E+00  0.00000000000E+00  0.15338676364E+03  0.15338676364E+03  0.00000000000E+00 0.  1.
         -2   -1    0    0    0  501 -0.00000000000E+00 -0.00000000000E+00 -0.14871711956E+03  0.14871711956E+03  0.00000000000E+00 0. -1.
         23    2    1    2    0    0  0.78961567147E+02 -0.67038656969E+02 -0.12970060368E+02  0.16285618591E+03  0.12499921683E+03 0.  0.
          5    1    3    3  502    0  0.90048131657E+02 -0.10012155970E+02 -0.39336736697E+02  0.98885682159E+02  0.47000000000E+01 0.  1.
         -5    1    3    3    0  502 -0.11086564510E+02 -0.57026501000E+02  0.26366676329E+02  0.63970503746E+02  0.47000000000E+01 0.  1.
        -11    1    1    2    0    0 -0.63945178770E+02  0.24038308492E+02 -0.28857537418E+02  0.74159177644E+02  0.00000000000E+00 0. -1.
         11    1    1    2    0    0 -0.15016388378E+02  0.43000348477E+02  0.46497241870E+02  0.65088519653E+02  0.00000000000E+00 0.  1.
<mgrwt>
<rscale>  0 0.15591421E+03</rscale>
<asrwt>0</asrwt>
<pdfrwt beam="1">  1        2 0.23597964E-01 0.16233889E+03</pdfrwt>
<pdfrwt beam="2">  1       -2 0.22879557E-01 0.16233889E+03</pdfrwt>
<totfact> 0.37046261E+03</totfact>
</mgrwt>
</event>
<event>
 7    1  0.5400401E-006  0.1597732E+03  0.7546771E-02  0.1196538E+00
         -1   -1    0    0    0  501 -0.00000000000E+00  0.00000000000E+00  0.34413919734E+02  0.34413919734E+02  0.00000000000E+00 0.  1.
          1   -1    0    0  501    0  0.00000000000E+00 -0.00000000000E+00 -0.70245829891E+03  0.70245829891E+03  0.00000000000E+00 0. -1.
         23    2    1    2    0    0 -0.84671645034E+02 -0.52242145026E+02 -0.24287711824E+03  0.29071770563E+03  0.12501584144E+03 0.  0.
          5    1    3    3  502    0 -0.28242743755E+02 -0.25108227459E+02 -0.22095262793E+03  0.22421023494E+03  0.47000000000E+01 0. -1.
         -5    1    3    3    0  502 -0.56428901279E+02 -0.27133917568E+02 -0.21924490307E+02  0.66507470688E+02  0.47000000000E+01 0. -1.
        -11    1    1    2    0    0 -0.12932620944E+02 -0.12500488439E+02 -0.63176284005E+02  0.65686815697E+02  0.00000000000E+00 0.  1.
         11    1    1    2    0    0  0.97604265978E+02  0.64742633466E+02 -0.36199097693E+03  0.38046769732E+03  0.00000000000E+00 0. -1.
<mgrwt>
<rscale>  0 0.15324800E+03</rscale>
<asrwt>0</asrwt>
<pdfrwt beam="2">  1        1 0.10807051E+00 0.15977324E+03</pdfrwt>
<pdfrwt beam="1">  1       -1 0.52944493E-02 0.15977324E+03</pdfrwt>
<totfact> 0.44300032E+03</totfact>
</mgrwt>
</event>
<event>
 7    1  0.5400401E-006  0.1298154E+03  0.7546771E-02  0.1240705E+00
          1   -1    0    0  501    0  0.00000000000E+00  0.00000000000E+00  0.63826420973E+02  0.63826420973E+02  0.00000000000E+00 0. -1.
         -1   -1    0    0    0  501 -0.00000000000E+00 -0.00000000000E+00 -0.35088090655E+03  0.35088090655E+03  0.00000000000E+00 0.  1.
         23    2    1    2    0    0  0.22743558490E+01  0.34949982787E+02 -0.28724645906E+03  0.31521828231E+03  0.12500145306E+03 0.  0.
          5    1    3    3  502    0 -0.53686068677E+02  0.41145554271E+02 -0.20087457201E+03  0.21200904293E+03  0.47000000000E+01 0. -1.
         -5    1    3    3    0  502  0.55960424526E+02 -0.61955714835E+01 -0.86371887053E+02  0.10320923937E+03  0.47000000000E+01 0. -1.
        -11    1    1    2    0    0 -0.32354620997E+02  0.18623697584E+02 -0.57081753978E+01  0.37765683867E+02  0.00000000000E+00 0.  1.
         11    1    1    2    0    0  0.30080265148E+02 -0.53573680372E+02  0.59001488768E+01  0.61723361353E+02  0.00000000000E+00 0. -1.
<mgrwt>
<rscale>  0 0.12146140E+03</rscale>
<asrwt>0</asrwt>
<pdfrwt beam="1">  1        1 0.98194493E-02 0.12981540E+03</pdfrwt>
<pdfrwt beam="2">  1       -1 0.53981679E-01 0.12981540E+03</pdfrwt>
<totfact> 0.22645475E+03</totfact>
</mgrwt>
</event>
<event>
 7    1  0.5400401E-006  0.1308799E+03  0.7546771E-02  0.1238256E+00
         -2   -1    0    0    0  501 -0.00000000000E+00  0.00000000000E+00  0.85282087430E+02  0.85282087430E+02  0.00000000000E+00 0.  1.
          2   -1    0    0  501    0  0.00000000000E+00 -0.00000000000E+00 -0.17588000433E+03  0.17588000433E+03  0.00000000000E+00 0. -1.
         23    2    1    2    0    0 -0.35485431745E+02  0.15688737260E+02 -0.10237935584E+02  0.13127971786E+03  0.12499678658E+03 0.  0.
          5    1    3    3  502    0 -0.49115401036E+02  0.63623123078E+02 -0.10708419425E+02  0.81221823764E+02  0.47000000000E+01 0.  1.
         -5    1    3    3    0  502  0.13629969290E+02 -0.47934385818E+02  0.47048384102E+00  0.50057894099E+02  0.47000000000E+01 0.  1.
        -11    1    1    2    0    0  0.13773026318E+02 -0.74574541279E+01  0.20830518384E+02  0.26061856653E+02  0.00000000000E+00 0.  1.
         11    1    1    2    0    0  0.21712405427E+02 -0.82312831324E+01 -0.10119049970E+03  0.10382051725E+03  0.00000000000E+00 0. -1.
<mgrwt>
<rscale>  0 0.12298296E+03</rscale>
<asrwt>0</asrwt>
<pdfrwt beam="2">  1        2 0.27058462E-01 0.13087990E+03</pdfrwt>
<pdfrwt beam="1">  1       -2 0.13120321E-01 0.13087990E+03</pdfrwt>
<totfact> 0.79359977E+03</totfact>
</mgrwt>
</event>
<event>
 7    1  0.5400401E-006  0.1898227E+03  0.7546771E-02  0.1165574E+00
         -1   -1    0    0    0  501 -0.00000000000E+00  0.00000000000E+00  0.29894527136E+02  0.29894527136E+02  0.00000000000E+00 0.  1.
          1   -1    0    0  501    0  0.00000000000E+00 -0.00000000000E+00 -0.11323884758E+04  0.11323884758E+04  0.00000000000E+00 0. -1.
         23    2    1    2    0    0 -0.12531356554E+03 -0.68583219887E+02 -0.41960154402E+03  0.46054108872E+03  0.12500196356E+03 0.  0.
          5    1    3    3  502    0 -0.12803044562E+02  0.78430825175E+01 -0.21027482243E+03  0.21086256862E+03  0.47000000000E+01 0. -1.
         -5    1    3    3    0  502 -0.11251052098E+03 -0.76426302405E+02 -0.20932672159E+03  0.24967852010E+03  0.47000000000E+01 0. -1.
        -11    1    1    2    0    0  0.17962136385E+02 -0.16461933319E+02 -0.11733865367E+03  0.11984153386E+03  0.00000000000E+00 0. -1.
         11    1    1    2    0    0  0.10735142915E+03  0.85045153206E+02 -0.56555375100E+03  0.58190038039E+03  0.00000000000E+00 0.  1.
<mgrwt>
<rscale>  0 0.18232256E+03</rscale>
<asrwt>0</asrwt>
<pdfrwt beam="2">  1        1 0.17421357E+00 0.18982265E+03</pdfrwt>
<pdfrwt beam="1">  1       -1 0.45991590E-02 0.18982265E+03</pdfrwt>
<totfact> 0.25400185E+03</totfact>
</mgrwt>
</event>
<event>
 7    1  0.5400401E-006  0.1381918E+03  0.7546771E-02  0.1228024E+00
          1   -1    0    0  501    0  0.00000000000E+00  0.00000000000E+00  0.14853705372E+03  0.14853705372E+03  0.00000000000E+00 0. -1.
         -1   -1    0    0    0  501 -0.00000000000E+00 -0.00000000000E+00 -0.16636526887E+03  0.16636526887E+03  0.00000000000E+00 0.  1.
         23    2    1    2    0    0 -0.98318521599E+01 -0.58107632641E+02 -0.10769754012E+03  0.17520201046E+03  0.12499528805E+03 0.  0.
          5    1    3    3  502    0  0.42336637331E+02 -0.15167474764E+02  0.31211045808E+01  0.45324104459E+02  0.47000000000E+01 0.  1.
         -5    1    3    3    0  502 -0.52168489491E+02 -0.42940157877E+02 -0.11081864470E+03  0.12987790601E+03  0.47000000000E+01 0.  1.
        -11    1    1    2    0    0  0.26290107170E+02  0.17610018410E+02  0.90613661402E+02  0.95979779725E+02  0.00000000000E+00 0. -1.
         11    1    1    2    0    0 -0.16458255010E+02  0.40497614231E+02 -0.74433642339E+00  0.43720532397E+02  0.00000000000E+00 0.  1.
<mgrwt>
<rscale>  0 0.12961747E+03</rscale>
<asrwt>0</asrwt>
<pdfrwt beam="1">  1        1 0.22851855E-01 0.13819184E+03</pdfrwt>
<pdfrwt beam="2">  1       -1 0.25594657E-01 0.13819184E+03</pdfrwt>
<totfact> 0.27848781E+03</totfact>
</mgrwt>
</event>
<event>
 6    1  0.5400401E-006  0.1873328E+03  0.7546771E-02  0.1178857E+00
         -1   -1    0    0    0  501 -0.00000000000E+00  0.00000000000E+00  0.68445342779E+02  0.68445342779E+02  0.00000000000E+00 0.  1.
          1   -1    0    0  501    0  0.00000000000E+00 -0.00000000000E+00 -0.35448859213E+03  0.35448859213E+03  0.00000000000E+00 0. -1.
          5    1    1    2  502    0  0.85260360624E+02  0.54639913994E+02 -0.17350039042E+03  0.20094607428E+03  0.47000000000E+01 0. -1.
         -5    1    1    2    0  502 -0.48926467515E+02  0.23890490075E+02 -0.38629826972E+00  0.54651568741E+02  0.47000000000E+01 0.  1.
        -11    1    1    2    0    0 -0.38481226867E+02  0.48817538155E+01 -0.22427002695E+02  0.44806325350E+02  0.00000000000E+00 0.  1.
         11    1    1    2    0    0  0.21473337573E+01 -0.83412157885E+02 -0.89729557968E+02  0.12252996653E+03  0.00000000000E+00 0. -1.
<mgrwt>
<rscale>  0 0.16903597E+03</rscale>
<asrwt>0</asrwt>
<pdfrwt beam="2">  1        1 0.54536707E-01 0.18733279E+03</pdfrwt>
<pdfrwt beam="1">  1       -1 0.10530053E-01 0.18733279E+03</pdfrwt>
<totfact> 0.39019812E+03</totfact>
</mgrwt>
</event>
<event>
 7    1  0.6194295E-006  0.1496302E+03  0.7546771E-02  0.1209620E+00
         -1   -1    0    0    0  501 -0.00000000000E+00  0.00000000000E+00  0.21523771466E+02  0.21523771466E+02  0.00000000000E+00 0.  1.
          1   -1    0    0  501    0  0.00000000000E+00 -0.00000000000E+00 -0.87077181922E+03  0.87077181922E+03  0.00000000000E+00 0. -1.
         23    2    1    2    0    0  0.66230468228E+02  0.48759779691E+02 -0.45372195149E+03  0.47775811488E+03  0.12500086412E+03 0.  0.
          5    1    3    3  502    0  0.75704628694E+02  0.33370115288E+02 -0.13441616104E+03  0.15790677550E+03  0.47000000000E+01 0. -1.
         -5    1    3    3    0  502 -0.94741604656E+01  0.15389664403E+02 -0.31930579046E+03  0.31985133938E+03  0.47000000000E+01 0. -1.
        -11    1    1    2    0    0 -0.34031043676E+02 -0.70451542095E+02 -0.19178884926E+03  0.20713400111E+03  0.00000000000E+00 0.  1.
         11    1    1    2    0    0 -0.32199424552E+02  0.21691762404E+02 -0.20373724701E+03  0.20740347469E+03  0.00000000000E+00 0. -1.
<mgrwt>
<rscale>  0 0.14279273E+03</rscale>
<asrwt>0</asrwt>
<pdfrwt beam="2">  1        1 0.13396486E+00 0.14963023E+03</pdfrwt>
<pdfrwt beam="1">  1       -1 0.33113503E-02 0.14963023E+03</pdfrwt>
<totfact> 0.63945790E+03</totfact>
</mgrwt>
</event>
<event>
 7    1  0.5400401E-006  0.1488467E+03  0.7546771E-02  0.1211386E+00
          1   -1    0    0  501    0  0.00000000000E+00  0.00000000000E+00  0.46287750064E+02  0.46287750064E+02  0.00000000000E+00 0. -1.
         -1   -1    0    0    0  501 -0.00000000000E+00 -0.00000000000E+00 -0.42326743225E+03  0.42326743225E+03  0.00000000000E+00 0.  1.
         23    2    1    2    0    0 -0.68004247237E+02 -0.43666870076E+02 -0.26726752830E+03  0.30592036605E+03  0.12499586190E+03 0.  0.
          5    1    3    3  502    0 -0.64789122174E+02  0.25592846392E+02 -0.18777100523E+03  0.20033138681E+03  0.47000000000E+01 0. -1.
         -5    1    3    3    0  502 -0.32151250625E+01 -0.69259716467E+02 -0.79496523077E+02  0.10558897923E+03  0.47000000000E+01 0. -1.
        -11    1    1    2    0    0  0.19087371558E+02 -0.13907689062E+02 -0.78354553021E+02  0.81836346125E+02  0.00000000000E+00 0.  1.
         11    1    1    2    0    0  0.48916875679E+02  0.57574559138E+02 -0.31357600864E+02  0.81798470145E+02  0.00000000000E+00 0. -1.
<mgrwt>
<rscale>  0 0.14145396E+03</rscale>
<asrwt>0</asrwt>
<pdfrwt beam="1">  1        1 0.71211924E-02 0.14884670E+03</pdfrwt>
<pdfrwt beam="2">  1       -1 0.65118066E-01 0.14884670E+03</pdfrwt>
<totfact> 0.24556535E+03</totfact>
</mgrwt>
</event>
<event>
 7    1  0.5400401E-006  0.1273124E+03  0.7546771E-02  0.1246866E+00
          2   -1    0    0  501    0  0.00000000000E+00  0.00000000000E+00  0.13014922188E+03  0.13014922188E+03  0.00000000000E+00 0. -1.
         -2   -1    0    0    0  501 -0.00000000000E+00 -0.00000000000E+00 -0.23820731804E+03  0.23820731804E+03  0.00000000000E+00 0.  1.
         23    2    1    2    0    0  0.21739294410E+02 -0.10552950170E+02 -0.20025636106E+03  0.23729949761E+03  0.12499791895E+03 0.  0.
          5    1    3    3  502    0  0.20141649690E+02 -0.78876685817E+01 -0.21777498881E+03  0.21889709253E+03  0.47000000000E+01 0. -1.
         -5    1    3    3    0  502  0.15976447201E+01 -0.26652815881E+01  0.17518627746E+02  0.18402405079E+02  0.47000000000E+01 0. -1.
        -11    1    1    2    0    0 -0.40695835559E+02  0.34403461861E+02  0.28462818150E+02  0.60414246969E+02  0.00000000000E+00 0.  1.
         11    1    1    2    0    0  0.18956541149E+02 -0.23850511691E+02  0.63735446757E+02  0.70642795341E+02  0.00000000000E+00 0. -1.
<mgrwt>
<rscale>  0 0.11774415E+03</rscale>
<asrwt>0</asrwt>
<pdfrwt beam="1">  1        2 0.20022957E-01 0.12731238E+03</pdfrwt>
<pdfrwt beam="2">  1       -2 0.36647280E-01 0.12731238E+03</pdfrwt>
<totfact> 0.18929639E+03</totfact>
</mgrwt>
</event>
<event>
 7    1  0.5400401E-006  0.2275993E+03  0.7546771E-02  0.1131823E+00
          2   -1    0    0  501    0  0.00000000000E+00  0.00000000000E+00  0.18245884685E+03  0.18245884685E+03  0.00000000000E+00 0. -1.
         -2   -1    0    0    0  501 -0.00000000000E+00 -0.00000000000E+00 -0.26435589781E+03  0.26435589781E+03  0.00000000000E+00 0.  1.
         23    2    1    2    0    0  0.16116882456E+03  0.10100042908E+03 -0.67368717966E+02  0.23736047819E+03  0.12499990305E+03 0.  0.
          5    1    3    3  502    0  0.71608226854E+02  0.34885333108E+02 -0.93498349100E+02  0.12291767938E+03  0.47000000000E+01 0.  1.
         -5    1    3    3    0  502  0.89560597709E+02  0.66115095974E+02  0.26129631134E+02  0.11444279882E+03  0.47000000000E+01 0.  1.
        -11    1    1    2    0    0 -0.15913331572E+03 -0.91162018068E+02  0.92622521116E+01  0.18362928695E+03  0.00000000000E+00 0. -1.
         11    1    1    2    0    0 -0.20355088423E+01 -0.98384110131E+01 -0.23790585110E+02  0.25824979524E+02  0.00000000000E+00 0.  1.
<mgrwt>
<rscale>  0 0.22278642E+03</rscale>
<asrwt>0</asrwt>
<pdfrwt beam="1">  1        2 0.28070592E-01 0.22759932E+03</pdfrwt>
<pdfrwt beam="2">  1       -2 0.40670138E-01 0.22759932E+03</pdfrwt>
<totfact> 0.10862934E+03</totfact>
</mgrwt>
</event>
<event>
 7    1  0.5400401E-006  0.1569626E+03  0.7546771E-02  0.1199620E+00
         -2   -1    0    0    0  501 -0.00000000000E+00  0.00000000000E+00  0.11773046483E+03  0.11773046483E+03  0.00000000000E+00 0.  1.
          2   -1    0    0  501    0  0.00000000000E+00 -0.00000000000E+00 -0.22358054183E+03  0.22358054183E+03  0.00000000000E+00 0. -1.
         23    2    1    2    0    0  0.32779451261E+02 -0.89093403242E+02  0.19646335697E+02  0.15818732911E+03  0.12500050263E+03 0.  0.
          5    1    3    3  502    0  0.14816598653E+01 -0.60310833461E+02  0.69726793320E+02  0.92322844710E+02  0.47000000000E+01 0. -1.
         -5    1    3    3    0  502  0.31297791395E+02 -0.28782569781E+02 -0.50080457623E+02  0.65864484399E+02  0.47000000000E+01 0. -1.
        -11    1    1    2    0    0 -0.17945040791E+02 -0.34262676428E+01 -0.73963473218E+02  0.76186345033E+02  0.00000000000E+00 0. -1.
         11    1    1    2    0    0 -0.14834410470E+02  0.92519670885E+02 -0.51532939480E+02  0.10693733252E+03  0.00000000000E+00 0.  1.
<mgrwt>
<rscale>  0 0.15069666E+03</rscale>
<asrwt>0</asrwt>
<pdfrwt beam="2">  1        2 0.34397006E-01 0.15696258E+03</pdfrwt>
<pdfrwt beam="1">  1       -2 0.18112379E-01 0.15696258E+03</pdfrwt>
<totfact> 0.36446239E+03</totfact>
</mgrwt>
</event>
<event>
 7    1  0.5400401E-006  0.1320869E+03  0.7546771E-02  0.1237205E+00
          1   -1    0    0  501    0  0.00000000000E+00  0.00000000000E+00  0.27126930144E+03  0.27126930144E+03  0.00000000000E+00 0. -1.
         -1   -1    0    0    0  501 -0.00000000000E+00 -0.00000000000E+00 -0.52100336482E+02  0.52100336482E+02  0.00000000000E+00 0.  1.
         23    2    1    2    0    0  0.30955121398E+02  0.29232705561E+02  0.93238883392E+02  0.16168004444E+03  0.12503670173E+03 0.  0.
          5    1    3    3  502    0  0.19219425727E+01 -0.29669402527E+02  0.90952054120E+02  0.95803619233E+02  0.47000000000E+01 0.  1.
         -5    1    3    3    0  502  0.29033178826E+02  0.58902108087E+02  0.22868292723E+01  0.65876425206E+02  0.47000000000E+01 0.  1.
        -11    1    1    2    0    0  0.14507843664E+02 -0.22048116076E+02  0.10978490296E+03  0.11291289505E+03  0.00000000000E+00 0. -1.
         11    1    1    2    0    0 -0.45462965062E+02 -0.71845894847E+01  0.16145178613E+02  0.48776698441E+02  0.00000000000E+00 0.  1.
<mgrwt>
<rscale>  0 0.12364344E+03</rscale>
<asrwt>0</asrwt>
<pdfrwt beam="1">  1        1 0.41733738E-01 0.13208689E+03</pdfrwt>
<pdfrwt beam="2">  1       -1 0.80154365E-02 0.13208689E+03</pdfrwt>
<totfact> 0.80941745E+03</totfact>
</mgrwt>
</event>
<event>
 7    1  0.5400401E-006  0.3380201E+03  0.7546771E-02  0.1068817E+00
          1   -1    0    0  501    0  0.00000000000E+00  0.00000000000E+00  0.87644347782E+03  0.87644347782E+03  0.00000000000E+00 0. -1.
         -1   -1    0    0    0  501 -0.00000000000E+00 -0.00000000000E+00 -0.12961782055E+03  0.12961782055E+03  0.00000000000E+00 0.  1.
         23    2    1    2    0    0  0.12187973229E+03 -0.28944217025E+03  0.46038414816E+03  0.57114899964E+03  0.12500470732E+03 0.  0.
          5    1    3    3  502    0  0.95697061293E+02 -0.13126546800E+03  0.14714547802E+03  0.21923145835E+03  0.47000000000E+01 0. -1.
         -5    1    3    3    0  502  0.26182670998E+02 -0.15817670225E+03  0.31323867014E+03  0.35191754129E+03  0.47000000000E+01 0. -1.
        -11    1    1    2    0    0 -0.70162400471E+02  0.61316266780E+02  0.75392188786E+02  0.11986003980E+03  0.00000000000E+00 0.  1.
         11    1    1    2    0    0 -0.51717331820E+02  0.22812590347E+03  0.21104932033E+03  0.31505225892E+03  0.00000000000E+00 0. -1.
<mgrwt>
<rscale>  0 0.33529772E+03</rscale>
<asrwt>0</asrwt>
<pdfrwt beam="1">  1        1 0.13483745E+00 0.33802014E+03</pdfrwt>
<pdfrwt beam="2">  1       -1 0.19941204E-01 0.33802014E+03</pdfrwt>
<totfact> 0.40407862E+02</totfact>
</mgrwt>
</event>
<event>
 7    1  0.5400401E-006  0.1334891E+03  0.7546771E-02  0.1235009E+00
          1   -1    0    0  501    0  0.00000000000E+00  0.00000000000E+00  0.27647910318E+03  0.27647910318E+03  0.00000000000E+00 0. -1.
         -1   -1    0    0    0  501 -0.00000000000E+00 -0.00000000000E+00 -0.50666043969E+02  0.50666043969E+02  0.00000000000E+00 0.  1.
         23    2    1    2    0    0 -0.10940145738E+02  0.45548223326E+02  0.11744527778E+03  0.17779973344E+03  0.12500009801E+03 0.  0.
          5    1    3    3  502    0  0.50967506957E+02 -0.47517439049E+00  0.23991043521E+02  0.56529397001E+02  0.47000000000E+01 0.  1.
         -5    1    3    3    0  502 -0.61907652695E+02  0.46023397716E+02  0.93454234261E+02  0.12127033644E+03  0.47000000000E+01 0.  1.
        -11    1    1    2    0    0  0.20998399835E+02 -0.58585080091E+02  0.11565708562E+03  0.13133813558E+03  0.00000000000E+00 0. -1.
         11    1    1    2    0    0 -0.10058254098E+02  0.13036856765E+02 -0.72893041889E+01  0.18007278122E+02  0.00000000000E+00 0.  1.
<mgrwt>
<rscale>  0 0.12503883E+03</rscale>
<asrwt>0</asrwt>
<pdfrwt beam="1">  1        1 0.42535246E-01 0.13348915E+03</pdfrwt>
<pdfrwt beam="2">  1       -1 0.77947762E-02 0.13348915E+03</pdfrwt>
<totfact> 0.82521092E+03</totfact>
</mgrwt>
</event>
<event>
 6    1  0.5400401E-006  0.2062319E+03  0.7546771E-02  0.1170194E+00
         -1   -1    0    0    0  501 -0.00000000000E+00  0.00000000000E+00  0.89651650654E+02  0.89651650654E+02  0.00000000000E+00 0.  1.
          1   -1    0    0  501    0  0.00000000000E+00 -0.00000000000E+00 -0.28672292193E+03  0.28672292193E+03  0.00000000000E+00 0. -1.
          5    1    1    2  502    0 -0.86044083797E+02 -0.84632837949E+02 -0.11318531287E+03  0.16552735926E+03  0.47000000000E+01 0. -1.
         -5    1    1    2    0  502  0.78147859853E+02  0.15643058202E+02 -0.28875634786E+02  0.84898089224E+02  0.47000000000E+01 0.  1.
        -11    1    1    2    0    0 -0.16298649670E+01 -0.21876122709E+02 -0.10699589555E+02  0.24407015820E+02  0.00000000000E+00 0. -1.
         11    1    1    2    0    0  0.95260889100E+01  0.90865902456E+02 -0.44310734062E+02  0.10154210827E+03  0.00000000000E+00 0.  1.
<mgrwt>
<rscale>  0 0.17755177E+03</rscale>
<asrwt>0</asrwt>
<pdfrwt beam="2">  1        1 0.44111219E-01 0.20623189E+03</pdfrwt>
<pdfrwt beam="1">  1       -1 0.13792562E-01 0.20623189E+03</pdfrwt>
<totfact> 0.33582947E+03</totfact>
</mgrwt>
</event>
<event>
 7    1  0.5400401E-006  0.1803297E+03  0.7546771E-02  0.1173165E+00
          2   -1    0    0  501    0  0.00000000000E+00  0.00000000000E+00  0.16873055471E+04  0.16873055471E+04  0.00000000000E+00 0. -1.
         -2   -1    0    0    0  501 -0.00000000000E+00 -0.00000000000E+00 -0.17078039161E+02  0.17078039161E+02  0.00000000000E+00 0.  1.
         23    2    1    2    0    0  0.10876853910E+03  0.71104720470E+02  0.83039202745E+03  0.84974685716E+03  0.12502929907E+03 0.  0.
          5    1    3    3  502    0  0.10705663174E+03  0.56176120169E+02  0.82386711191E+03  0.83270402123E+03  0.47000000000E+01 0. -1.
         -5    1    3    3    0  502  0.17119073544E+01  0.14928600301E+02  0.65249155370E+01  0.17042835929E+02  0.47000000000E+01 0. -1.
        -11    1    1    2    0    0 -0.89525270252E+02 -0.90138691270E+02  0.75421741017E+03  0.76484224483E+03  0.00000000000E+00 0. -1.
         11    1    1    2    0    0 -0.19243268846E+02  0.19033970800E+02  0.85618070300E+02  0.89794484252E+02  0.00000000000E+00 0.  1.
<mgrwt>
<rscale>  0 0.17456897E+03</rscale>
<asrwt>0</asrwt>
<pdfrwt beam="1">  1        2 0.25958534E+00 0.18032970E+03</pdfrwt>
<pdfrwt beam="2">  1       -2 0.26273920E-02 0.18032970E+03</pdfrwt>
<totfact> 0.55613327E+03</totfact>
</mgrwt>
</event>
<event>
 7    1  0.5400401E-006  0.2460181E+03  0.7546771E-02  0.1118416E+00
         -2   -1    0    0    0  501 -0.00000000000E+00  0.00000000000E+00  0.10699385387E+03  0.10699385387E+03  0.00000000000E+00 0.  1.
          2   -1    0    0  501    0  0.00000000000E+00 -0.00000000000E+00 -0.12572329231E+04  0.12572329231E+04  0.00000000000E+00 0. -1.
         23    2    1    2    0    0 -0.19736539407E+03 -0.77113703271E+02 -0.64596605421E+02  0.25435729348E+03  0.12500115721E+03 0.  0.
          5    1    3    3  502    0 -0.11073255885E+03  0.16221288808E+02 -0.59473934872E+02  0.12682298186E+03  0.47000000000E+01 0. -1.
         -5    1    3    3    0  502 -0.86632835219E+02 -0.93334992079E+02 -0.51226705487E+01  0.12753431161E+03  0.47000000000E+01 0. -1.
        -11    1    1    2    0    0  0.33098990953E+02  0.38244045956E+02 -0.13113665888E+03  0.14055238723E+03  0.00000000000E+00 0.  1.
         11    1    1    2    0    0  0.16426640311E+03  0.38869657315E+02 -0.95450580490E+03  0.96931709623E+03  0.00000000000E+00 0. -1.
<mgrwt>
<rscale>  0 0.24207770E+03</rscale>
<asrwt>0</asrwt>
<pdfrwt beam="2">  1        2 0.19342045E+00 0.24601811E+03</pdfrwt>
<pdfrwt beam="1">  1       -2 0.16460593E-01 0.24601811E+03</pdfrwt>
<totfact> 0.54716695E+02</totfact>
</mgrwt>
</event>
<event>
 7    1  0.5400401E-006  0.1815118E+03  0.7546771E-02  0.1171884E+00
          1   -1    0    0  501    0  0.00000000000E+00  0.00000000000E+00  0.77267470775E+03  0.77267470775E+03  0.00000000000E+00 0. -1.
         -1   -1    0    0    0  501 -0.00000000000E+00 -0.00000000000E+00 -0.58348201811E+02  0.58348201811E+02  0.00000000000E+00 0.  1.
         23    2    1    2    0    0  0.97733282692E+02  0.88141251791E+02  0.12499520359E+03  0.22038679968E+03  0.12500346292E+03 0.  0.
          5    1    3    3  502    0  0.77274704450E+02  0.75880528025E+02  0.15028859558E+03  0.18530511715E+03  0.47000000000E+01 0. -1.
         -5    1    3    3    0  502  0.20458578241E+02  0.12260723767E+02 -0.25293391990E+02  0.35081682532E+02  0.47000000000E+01 0. -1.
        -11    1    1    2    0    0 -0.65531092026E+02 -0.10479827732E+03  0.46098636012E+03  0.47726871589E+03  0.00000000000E+00 0.  1.
         11    1    1    2    0    0 -0.32202190665E+02  0.16657025524E+02  0.12834494223E+03  0.13336739399E+03  0.00000000000E+00 0. -1.
<mgrwt>
<rscale>  0 0.17584684E+03</rscale>
<asrwt>0</asrwt>
<pdfrwt beam="1">  1        1 0.11887302E+00 0.18151182E+03</pdfrwt>
<pdfrwt beam="2">  1       -1 0.89766470E-02 0.18151182E+03</pdfrwt>
<totfact> 0.17436441E+03</totfact>
</mgrwt>
</event>
<event>
 7    1  0.5400401E-006  0.1612232E+03  0.7546771E-02  0.1195731E+00
         -1   -1    0    0    0  501 -0.00000000000E+00  0.00000000000E+00  0.86097657978E+02  0.86097657978E+02  0.00000000000E+00 0.  1.
          1   -1    0    0  501    0  0.00000000000E+00 -0.00000000000E+00 -0.25316865829E+03  0.25316865829E+03  0.00000000000E+00 0. -1.
         23    2    1    2    0    0  0.98362757818E+02 -0.26285680556E+02 -0.95659546651E+02  0.18746648143E+03  0.12500705447E+03 0.  0.
          5    1    3    3  502    0  0.21608257436E+02  0.43657325374E+02 -0.43892289539E+01  0.49134857067E+02  0.47000000000E+01 0. -1.
         -5    1    3    3    0  502  0.76754500382E+02 -0.69943005929E+02 -0.91270317697E+02  0.13833162437E+03  0.47000000000E+01 0. -1.
        -11    1    1    2    0    0 -0.25538188258E+02  0.19448899434E+02  0.17585212835E+02  0.36601891470E+02  0.00000000000E+00 0.  1.
         11    1    1    2    0    0 -0.72824569560E+02  0.68367811223E+01 -0.88996666492E+02  0.11519794336E+03  0.00000000000E+00 0. -1.
<mgrwt>
<rscale>  0 0.15392509E+03</rscale>
<asrwt>0</asrwt>
<pdfrwt beam="2">  1        1 0.38949024E-01 0.16122324E+03</pdfrwt>
<pdfrwt beam="1">  1       -1 0.13245794E-01 0.16122324E+03</pdfrwt>
<totfact> 0.41332032E+03</totfact>
</mgrwt>
</event>
<event>
 7    1  0.5400401E-006  0.1418324E+03  0.7546771E-02  0.1219706E+00
          1   -1    0    0  501    0  0.00000000000E+00  0.00000000000E+00  0.10414266591E+03  0.10414266591E+03  0.00000000000E+00 0. -1.
         -1   -1    0    0    0  501 -0.00000000000E+00 -0.00000000000E+00 -0.16173517657E+03  0.16173517657E+03  0.00000000000E+00 0.  1.
         23    2    1    2    0    0  0.63811320548E+02 -0.20459827074E+02 -0.28714272722E+02  0.14470985957E+03  0.12500377932E+03 0.  0.
          5    1    3    3  502    0 -0.30517105014E+02 -0.12589824641E+01  0.19910024754E+02  0.36761091128E+02  0.47000000000E+01 0. -1.
         -5    1    3    3    0  502  0.94328425562E+02 -0.19200844610E+02 -0.48624297476E+02  0.10794876844E+03  0.47000000000E+01 0. -1.
        -11    1    1    2    0    0 -0.35331335655E+02  0.36498107438E+00  0.34152994702E+02  0.49141261049E+02  0.00000000000E+00 0. -1.
         11    1    1    2    0    0 -0.28479984893E+02  0.20094846000E+02 -0.63031232641E+02  0.72026721871E+02  0.00000000000E+00 0.  1.
<mgrwt>
<rscale>  0 0.13536424E+03</rscale>
<asrwt>0</asrwt>
<pdfrwt beam="1">  1        1 0.16021949E-01 0.14183242E+03</pdfrwt>
<pdfrwt beam="2">  1       -1 0.24882335E-01 0.14183242E+03</pdfrwt>
<totfact> 0.45955162E+03</totfact>
</mgrwt>
</event>
<event>
 7    1  0.5400401E-006  0.1214755E+03  0.7546771E-02  0.1264266E+00
          2   -1    0    0  501    0  0.00000000000E+00  0.00000000000E+00  0.15128538832E+03  0.15128538832E+03  0.00000000000E+00 0. -1.
         -2   -1    0    0    0  501 -0.00000000000E+00 -0.00000000000E+00 -0.13328238548E+03  0.13328238548E+03  0.00000000000E+00 0.  1.
         23    2    1    2    0    0  0.13769338254E+02  0.27532083194E+02 -0.90942992399E+02  0.15174626587E+03  0.11751038703E+03 0.  0.
          5    1    3    3  502    0  0.44800607802E+02 -0.28344829995E+02 -0.21924413554E+02  0.57561217470E+02  0.47000000000E+01 0. -1.
         -5    1    3    3    0  502 -0.31031269548E+02  0.55876913189E+02 -0.69018578844E+02  0.94185048405E+02  0.47000000000E+01 0.  1.
        -11    1    1    2    0    0  0.77868878560E+01 -0.30885033697E+02  0.10615227939E+03  0.11082791773E+03  0.00000000000E+00 0. -1.
         11    1    1    2    0    0 -0.21556226110E+02  0.33529505038E+01  0.27937158513E+01  0.21993590190E+02  0.00000000000E+00 0.  1.
<mgrwt>
<rscale>  0 0.10802777E+03</rscale>
<asrwt>0</asrwt>
<pdfrwt beam="1">  1        2 0.23274675E-01 0.12147552E+03</pdfrwt>
<pdfrwt beam="2">  1       -2 0.20504982E-01 0.12147552E+03</pdfrwt>
<totfact> 0.44625712E+03</totfact>
</mgrwt>
</event>
<event>
 7    1  0.5400401E-006  0.1682655E+03  0.7546771E-02  0.1186873E+00
          2   -1    0    0  501    0  0.00000000000E+00  0.00000000000E+00  0.55515133432E+03  0.55515133432E+03  0.00000000000E+00 0.  1.
         -2   -1    0    0    0  501 -0.00000000000E+00 -0.00000000000E+00 -0.44486920209E+02  0.44486920209E+02  0.00000000000E+00 0. -1.
         23    2    1    2    0    0  0.47415763819E+02  0.10217794781E+03  0.23567383836E+03  0.28957801124E+03  0.12499871532E+03 0.  0.
          5    1    3    3  502    0  0.60491397526E+02  0.51504925905E+01  0.46848637436E+02  0.76828520604E+02  0.47000000000E+01 0.  1.
         -5    1    3    3    0  502 -0.13075633707E+02  0.97027455217E+02  0.18882520092E+03  0.21274949063E+03  0.47000000000E+01 0.  1.
        -11    1    1    2    0    0 -0.27668894636E+02 -0.67126458853E+02  0.68947966256E+02  0.10012667606E+03  0.00000000000E+00 0. -1.
         11    1    1    2    0    0 -0.19746869183E+02 -0.35051488954E+02  0.20604260950E+03  0.20993356723E+03  0.00000000000E+00 0.  1.
<mgrwt>
<rscale>  0 0.16162625E+03</rscale>
<asrwt>0</asrwt>
<pdfrwt beam="1">  1        2 0.85407893E-01 0.16826546E+03</pdfrwt>
<pdfrwt beam="2">  1       -2 0.68441419E-02 0.16826546E+03</pdfrwt>
<totfact> 0.64832222E+03</totfact>
</mgrwt>
</event>
<event>
 7    1  0.5400401E-006  0.1848649E+03  0.7546771E-02  0.1168555E+00
          1   -1    0    0  501    0  0.00000000000E+00  0.00000000000E+00  0.11887768183E+03  0.11887768183E+03  0.00000000000E+00 0. -1.
         -1   -1    0    0    0  501 -0.00000000000E+00 -0.00000000000E+00 -0.26529298274E+03  0.26529298274E+03  0.00000000000E+00 0.  1.
         23    2    1    2    0    0  0.98675596457E+02 -0.93876156927E+02 -0.11542376746E+03  0.21793960840E+03  0.12500168255E+03 0.  0.
          5    1    3    3  502    0  0.12841932115E+03 -0.79931412612E+02 -0.89419054620E+02  0.17577943593E+03  0.47000000000E+01 0. -1.
         -5    1    3    3    0  502 -0.29743724694E+02 -0.13944744315E+02 -0.26004712843E+02  0.42160172471E+02  0.47000000000E+01 0. -1.
        -11    1    1    2    0    0 -0.17931867150E+02 -0.11221975264E+02  0.15013172773E+02  0.25939929549E+02  0.00000000000E+00 0. -1.
         11    1    1    2    0    0 -0.80743729307E+02  0.10509813219E+03 -0.46004706220E+02  0.14029112662E+03  0.00000000000E+00 0.  1.
<mgrwt>
<rscale>  0 0.17922491E+03</rscale>
<asrwt>0</asrwt>
<pdfrwt beam="1">  1        1 0.18288874E-01 0.18486489E+03</pdfrwt>
<pdfrwt beam="2">  1       -1 0.40814305E-01 0.18486489E+03</pdfrwt>
<totfact> 0.16878611E+03</totfact>
</mgrwt>
</event>
<event>
 6    1  0.5400401E-006  0.1574702E+03  0.7546771E-02  0.1213655E+00
          1   -1    0    0  501    0  0.00000000000E+00  0.00000000000E+00  0.13023179650E+03  0.13023179650E+03  0.00000000000E+00 0. -1.
         -1   -1    0    0    0  501 -0.00000000000E+00 -0.00000000000E+00 -0.41216841382E+03  0.41216841382E+03  0.00000000000E+00 0.  1.
          5    1    1    2  502    0 -0.25220622165E+02  0.19163602307E+02 -0.31571784629E+03  0.31733763077E+03  0.47000000000E+01 0. -1.
         -5    1    1    2    0  502  0.53407201314E+02 -0.40273337955E+02 -0.59744710605E+02  0.89809750848E+02  0.47000000000E+01 0.  1.
        -11    1    1    2    0    0 -0.23416093179E+02 -0.33172115113E+02  0.24926597718E+02  0.47644914887E+02  0.00000000000E+00 0.  1.
         11    1    1    2    0    0 -0.47704859702E+01  0.54281850761E+02  0.68599341864E+02  0.87607913812E+02  0.00000000000E+00 0. -1.
<mgrwt>
<rscale>  0 0.13975833E+03</rscale>
<asrwt>0</asrwt>
<pdfrwt beam="1">  1        1 0.20035661E-01 0.15747018E+03</pdfrwt>
<pdfrwt beam="2">  1       -1 0.63410524E-01 0.15747018E+03</pdfrwt>
<totfact> 0.66376594E+02</totfact>
</mgrwt>
</event>
<event>
 7    1  0.5400401E-006  0.1216360E+03  0.7546771E-02  0.1252237E+00
         -1   -1    0    0    0  501 -0.00000000000E+00  0.00000000000E+00  0.24031418796E+03  0.24031418796E+03  0.00000000000E+00 0.  1.
          1   -1    0    0  501    0  0.00000000000E+00 -0.00000000000E+00 -0.55082383491E+02  0.55082383491E+02  0.00000000000E+00 0. -1.
         23    2    1    2    0    0  0.10092602998E+02 -0.26682398638E+02  0.15019739563E+03  0.19327329404E+03  0.11824338249E+03 0.  0.
          5    1    3    3  502    0 -0.22236021527E+02 -0.25968714602E+02 -0.48244069319E+01  0.34845081342E+02  0.47000000000E+01 0. -1.
         -5    1    3    3    0  502  0.32328624526E+02 -0.71368403560E+00  0.15502180256E+03  0.15842821270E+03  0.47000000000E+01 0.  1.
        -11    1    1    2    0    0 -0.28549728379E+02 -0.21434535684E+02  0.35832589534E+02  0.50581624956E+02  0.00000000000E+00 0. -1.
         11    1    1    2    0    0  0.18457125381E+02  0.48116934322E+02 -0.79818069231E+00  0.51541652459E+02  0.00000000000E+00 0.  1.
<mgrwt>
<rscale>  0 0.11462526E+03</rscale>
<asrwt>0</asrwt>
<pdfrwt beam="2">  1        1 0.84742130E-02 0.12163597E+03</pdfrwt>
<pdfrwt beam="1">  1       -1 0.36971413E-01 0.12163597E+03</pdfrwt>
<totfact> 0.53924506E+03</totfact>
</mgrwt>
</event>
<event>
 7    1  0.5400401E-006  0.1265594E+03  0.7546771E-02  0.1247650E+00
         -1   -1    0    0    0  501 -0.00000000000E+00  0.00000000000E+00  0.56597408525E+02  0.56597408525E+02  0.00000000000E+00 0.  1.
          1   -1    0    0  501    0  0.00000000000E+00 -0.00000000000E+00 -0.22144037696E+03  0.22144037696E+03  0.00000000000E+00 0. -1.
         23    2    1    2    0    0  0.19800101570E+02 -0.48864637204E+00 -0.68533130407E+02  0.14392388032E+03  0.12500004226E+03 0.  0.
          5    1    3    3  502    0 -0.36992286715E+00 -0.37859809044E+01 -0.10321641361E+03  0.10339336793E+03  0.47000000000E+01 0. -1.
         -5    1    3    3    0  502  0.20170024438E+02  0.32973345323E+01  0.34683283199E+02  0.40530512386E+02  0.47000000000E+01 0. -1.
        -11    1    1    2    0    0 -0.30500306537E+01 -0.32474584563E+02 -0.18439073764E+01  0.32669577958E+02  0.00000000000E+00 0.  1.
         11    1    1    2    0    0 -0.16750070917E+02  0.32963230935E+02 -0.94465930651E+02  0.10144432721E+03  0.00000000000E+00 0. -1.
<mgrwt>
<rscale>  0 0.11728140E+03</rscale>
<asrwt>0</asrwt>
<pdfrwt beam="2">  1        1 0.34067750E-01 0.12655945E+03</pdfrwt>
<pdfrwt beam="1">  1       -1 0.87072936E-02 0.12655945E+03</pdfrwt>
<totfact> 0.91483764E+03</totfact>
</mgrwt>
</event>
<event>
 6    1  0.5400401E-006  0.2230753E+03  0.7546771E-02  0.1136508E+00
          1   -1    0    0  501    0  0.00000000000E+00  0.00000000000E+00  0.12297206133E+03  0.12297206133E+03  0.00000000000E+00 0. -1.
         -1   -1    0    0    0  501 -0.00000000000E+00 -0.00000000000E+00 -0.38941831046E+03  0.38941831046E+03  0.00000000000E+00 0.  1.
          5    1    1    2  502    0 -0.46408766009E+02 -0.10596702076E+03 -0.40405256519E+02  0.12262731264E+03  0.47000000000E+01 0. -1.
         -5    1    1    2    0  502 -0.62990761314E+02 -0.31224299032E+02 -0.16998535330E+03  0.18401060621E+03  0.47000000000E+01 0.  1.
        -11    1    1    2    0    0 -0.92460490319E+01  0.45179218279E+01  0.11449942495E+02  0.15394876534E+02  0.00000000000E+00 0.  1.
         11    1    1    2    0    0  0.11864557636E+03  0.13267339797E+03 -0.67505581804E+02  0.19035757640E+03  0.00000000000E+00 0. -1.
<mgrwt>
<rscale>  0 0.21651506E+03</rscale>
<asrwt>0</asrwt>
<pdfrwt beam="1">  1        1 0.18918779E-01 0.22307533E+03</pdfrwt>
<pdfrwt beam="2">  1       -1 0.59910509E-01 0.22307533E+03</pdfrwt>
<totfact> 0.79973864E+02</totfact>
</mgrwt>
</event>
<event>
 7    1  0.5400401E-006  0.1388154E+03  0.7546771E-02  0.1225981E+00
         -2   -1    0    0    0  501 -0.00000000000E+00  0.00000000000E+00  0.58605906641E+02  0.58605906641E+02  0.00000000000E+00 0.  1.
          2   -1    0    0  501    0  0.00000000000E+00 -0.00000000000E+00 -0.27726608239E+03  0.27726608239E+03  0.00000000000E+00 0. -1.
         23    2    1    2    0    0 -0.52677065852E+02 -0.29496771540E+02 -0.85254467951E+02  0.16290496193E+03  0.12499907807E+03 0.  0.
          5    1    3    3  502    0  0.55798899508E+01 -0.37241153260E+02 -0.95772513012E+02  0.10301700305E+03  0.47000000000E+01 0. -1.
         -5    1    3    3    0  502 -0.58256955802E+02  0.77443817201E+01  0.10518045061E+02  0.59887958886E+02  0.47000000000E+01 0. -1.
        -11    1    1    2    0    0 -0.85679952753E+01  0.37857448518E+02 -0.88275345467E+02  0.96432015268E+02  0.00000000000E+00 0. -1.
         11    1    1    2    0    0  0.61245061127E+02 -0.83606769783E+01 -0.45130362333E+02  0.76535011833E+02  0.00000000000E+00 0.  1.
<mgrwt>
<rscale>  0 0.13099908E+03</rscale>
<asrwt>0</asrwt>
<pdfrwt beam="2">  1        2 0.42656321E-01 0.13881535E+03</pdfrwt>
<pdfrwt beam="1">  1       -2 0.90162933E-02 0.13881535E+03</pdfrwt>
<totfact> 0.88512037E+03</totfact>
</mgrwt>
</event>
<event>
 7    1  0.5400401E-006  0.1732609E+03  0.7546771E-02  0.1180442E+00
         -1   -1    0    0    0  501 -0.00000000000E+00  0.00000000000E+00  0.77733517794E+02  0.77733517794E+02  0.00000000000E+00 0.  1.
          1   -1    0    0  501    0  0.00000000000E+00 -0.00000000000E+00 -0.33993956697E+03  0.33993956697E+03  0.00000000000E+00 0. -1.
         23    2    1    2    0    0  0.30165452789E+02 -0.11611853240E+03 -0.12981077894E+03  0.21649519400E+03  0.12500345031E+03 0.  0.
          5    1    3    3  502    0 -0.30973845802E+02 -0.95752142071E+02 -0.10942853751E+03  0.14874322390E+03  0.47000000000E+01 0.  1.
         -5    1    3    3    0  502  0.61139298591E+02 -0.20366390330E+02 -0.20382241424E+02  0.67751970102E+02  0.47000000000E+01 0.  1.
        -11    1    1    2    0    0 -0.57539822859E+02  0.10744322050E+03 -0.98159155612E+02  0.15649312022E+03  0.00000000000E+00 0.  1.
         11    1    1    2    0    0  0.27374370070E+02  0.86753119032E+01 -0.34236114623E+02  0.44684770536E+02  0.00000000000E+00 0. -1.
<mgrwt>
<rscale>  0 0.16753637E+03</rscale>
<asrwt>0</asrwt>
<pdfrwt beam="2">  1        1 0.52298395E-01 0.17326087E+03</pdfrwt>
<pdfrwt beam="1">  1       -1 0.11959003E-01 0.17326087E+03</pdfrwt>
<totfact> 0.33668590E+03</totfact>
</mgrwt>
</event>
<event>
 7    1  0.5400401E-006  0.1275395E+03  0.7546771E-02  0.1245023E+00
          4   -1    0    0  501    0  0.00000000000E+00  0.00000000000E+00  0.46164978263E+03  0.46164978263E+03  0.00000000000E+00 0.  1.
         -4   -1    0    0    0  501 -0.00000000000E+00 -0.00000000000E+00 -0.28074006908E+02  0.28074006908E+02  0.00000000000E+00 0. -1.
         23    2    1    2    0    0 -0.24364097019E+02  0.69233853098E+01  0.20086481461E+03  0.23793484513E+03  0.12499909716E+03 0.  0.
          5    1    3    3  502    0  0.19331877911E+02  0.32521406881E+02  0.86338463144E+01  0.39089598505E+02  0.47000000000E+01 0.  1.
         -5    1    3    3    0  502 -0.43695974930E+02 -0.25598021572E+02  0.19223096830E+03  0.19884524663E+03  0.47000000000E+01 0.  1.
        -11    1    1    2    0    0 -0.88206373553E+01  0.37690187338E+02  0.12037383246E+03  0.12644450722E+03  0.00000000000E+00 0.  1.
         11    1    1    2    0    0  0.33184734374E+02 -0.44613572648E+02  0.11233712865E+03  0.12534443718E+03  0.00000000000E+00 0. -1.
<mgrwt>
<rscale>  0 0.11883975E+03</rscale>
<asrwt>0</asrwt>
<pdfrwt beam="1">  1        4 0.71023038E-01 0.12753947E+03</pdfrwt>
<pdfrwt beam="2">  1       -4 0.43190783E-02 0.12753947E+03</pdfrwt>
<totfact> 0.91195279E+02</totfact>
</mgrwt>
</event>
<event>
 7    1  0.5400401E-006  0.1454923E+03  0.7546771E-02  0.1216388E+00
          3   -1    0    0  501    0  0.00000000000E+00  0.00000000000E+00  0.17628786480E+03  0.17628786480E+03  0.00000000000E+00 0. -1.
         -3   -1    0    0    0  501 -0.00000000000E+00 -0.00000000000E+00 -0.12184449317E+03  0.12184449317E+03  0.00000000000E+00 0.  1.
         23    2    1    2    0    0  0.50678946398E+02 -0.54534398459E+02 -0.36516964591E+02  0.15000502628E+03  0.12500265191E+03 0.  0.
          5    1    3    3  502    0 -0.19042311115E+02  0.27790550045E+02  0.48694908697E+01  0.34361697073E+02  0.47000000000E+01 0.  1.
         -5    1    3    3    0  502  0.69721257513E+02 -0.82324948504E+02 -0.41386455461E+02  0.11564332921E+03  0.47000000000E+01 0.  1.
        -11    1    1    2    0    0 -0.33436938431E+02  0.76954359829E+02  0.47916825660E+02  0.96623105568E+02  0.00000000000E+00 0.  1.
         11    1    1    2    0    0 -0.17242007967E+02 -0.22419961370E+02  0.43043510564E+02  0.51504226120E+02  0.00000000000E+00 0. -1.
<mgrwt>
<rscale>  0 0.13775041E+03</rscale>
<asrwt>0</asrwt>
<pdfrwt beam="1">  1        3 0.27121210E-01 0.14549233E+03</pdfrwt>
<pdfrwt beam="2">  1       -3 0.18745307E-01 0.14549233E+03</pdfrwt>
<totfact> 0.76075072E+02</totfact>
</mgrwt>
</event>
<event>
 7    1  0.5400401E-006  0.1585341E+03  0.7546771E-02  0.1205808E+00
          2   -1    0    0  501    0  0.00000000000E+00  0.00000000000E+00  0.16971126907E+03  0.16971126907E+03  0.00000000000E+00 0.  1.
         -2   -1    0    0    0  501 -0.00000000000E+00 -0.00000000000E+00 -0.14748479735E+03  0.14748479735E+03  0.00000000000E+00 0. -1.
         23    2    1    2    0    0 -0.10730565025E+03 -0.10474657431E+02 -0.67917267460E+02  0.17246979946E+03  0.11622760208E+03 0.  0.
          5    1    3    3  502    0 -0.78656966755E+02 -0.11467721263E+02 -0.10088929196E+03  0.12852690879E+03  0.47000000000E+01 0. -1.
         -5    1    3    3    0  502 -0.28648683492E+02  0.99306383245E+00  0.32972024498E+02  0.43942890678E+02  0.47000000000E+01 0.  1.
        -11    1    1    2    0    0  0.64751758437E+02 -0.47087084500E+01  0.36100946494E+02  0.74284860461E+02  0.00000000000E+00 0.  1.
         11    1    1    2    0    0  0.42553891811E+02  0.15183365881E+02  0.54042792688E+02  0.70441406497E+02  0.00000000000E+00 0. -1.
<mgrwt>
<rscale>  0 0.14573950E+03</rscale>
<asrwt>0</asrwt>
<pdfrwt beam="1">  1        2 0.26109426E-01 0.15853415E+03</pdfrwt>
<pdfrwt beam="2">  1       -2 0.22689969E-01 0.15853415E+03</pdfrwt>
<totfact> 0.33553705E+03</totfact>
</mgrwt>
</event>
<event>
 7    1  0.5400401E-006  0.1255568E+03  0.7546771E-02  0.1248794E+00
          2   -1    0    0  501    0  0.00000000000E+00  0.00000000000E+00  0.17952102132E+03  0.17952102132E+03  0.00000000000E+00 0. -1.
         -2   -1    0    0    0  501 -0.00000000000E+00 -0.00000000000E+00 -0.72872603959E+02  0.72872603959E+02  0.00000000000E+00 0.  1.
         23    2    1    2    0    0 -0.42148679702E+00 -0.11816081490E+02  0.24358301123E+02  0.12789780487E+03  0.12499889689E+03 0.  0.
          5    1    3    3  502    0  0.55745303118E+02  0.11941784368E+02 -0.94990091292E+01  0.57986776148E+02  0.47000000000E+01 0.  1.
         -5    1    3    3    0  502 -0.56166789915E+02 -0.23757865858E+02  0.33857310252E+02  0.69911028722E+02  0.47000000000E+01 0.  1.
        -11    1    1    2    0    0 -0.23930427172E+02  0.43221389288E+02  0.26687419402E+02  0.56151332941E+02  0.00000000000E+00 0. -1.
         11    1    1    2    0    0  0.24351913969E+02 -0.31405307799E+02  0.55602696839E+02  0.68344487471E+02  0.00000000000E+00 0.  1.
<mgrwt>
<rscale>  0 0.11661162E+03</rscale>
<asrwt>0</asrwt>
<pdfrwt beam="1">  1        2 0.27618618E-01 0.12555685E+03</pdfrwt>
<pdfrwt beam="2">  1       -2 0.11211170E-01 0.12555685E+03</pdfrwt>
<totfact> 0.99424283E+03</totfact>
</mgrwt>
</event>
<event>
 7    1  0.5400401E-006  0.1301205E+03  0.7546771E-02  0.1243707E+00
         -2   -1    0    0    0  501 -0.00000000000E+00  0.00000000000E+00  0.58257070583E+02  0.58257070583E+02  0.00000000000E+00 0.  1.
          2   -1    0    0  501    0  0.00000000000E+00 -0.00000000000E+00 -0.33504323280E+03  0.33504323280E+03  0.00000000000E+00 0. -1.
         23    2    1    2    0    0  0.34327111654E+02  0.11283988665E+02 -0.35728544005E+02  0.13493652764E+03  0.12500263453E+03 0.  0.
          5    1    3    3  502    0 -0.33173779356E+02  0.36224234819E+02  0.88858359543E+01  0.50137240706E+02  0.47000000000E+01 0. -1.
         -5    1    3    3    0  502  0.67500891010E+02 -0.24940246155E+02 -0.44614379960E+02  0.84799286934E+02  0.47000000000E+01 0. -1.
        -11    1    1    2    0    0  0.11273590433E+02 -0.36861412027E+01  0.10263653870E+01  0.11905246916E+02  0.00000000000E+00 0.  1.
         11    1    1    2    0    0 -0.45600702087E+02 -0.75978474622E+01 -0.24208398359E+03  0.24645852882E+03  0.00000000000E+00 0. -1.
<mgrwt>
<rscale>  0 0.11963072E+03</rscale>
<asrwt>0</asrwt>
<pdfrwt beam="2">  1        2 0.51545113E-01 0.13012047E+03</pdfrwt>
<pdfrwt beam="1">  1       -2 0.89626263E-02 0.13012047E+03</pdfrwt>
<totfact> 0.72781973E+03</totfact>
</mgrwt>
</event>
<event>
 7    1  0.5400401E-006  0.1429765E+03  0.7546771E-02  0.1219702E+00
         -2   -1    0    0    0  501 -0.00000000000E+00  0.00000000000E+00  0.13506622945E+02  0.13506622945E+02  0.00000000000E+00 0. -1.
          2   -1    0    0  501    0  0.00000000000E+00 -0.00000000000E+00 -0.12986966229E+04  0.12986966229E+04  0.00000000000E+00 0.  1.
         23    2    1    2    0    0 -0.60841142301E+01 -0.69148682695E+02 -0.85818041136E+03  0.87000914173E+03  0.12499492584E+03 0.  0.
          5    1    3    3  502    0 -0.23276607727E+02 -0.67054695862E+02 -0.21271325502E+03  0.22429255798E+03  0.47000000000E+01 0.  1.
         -5    1    3    3    0  502  0.17192493497E+02 -0.20939868331E+01 -0.64546715634E+03  0.64571658375E+03  0.47000000000E+01 0.  1.
        -11    1    1    2    0    0  0.34880838717E+02  0.75242481800E+02 -0.35147499577E+03  0.36112709207E+03  0.00000000000E+00 0.  1.
         11    1    1    2    0    0 -0.28796724487E+02 -0.60937991051E+01 -0.75534592832E+02  0.81067012052E+02  0.00000000000E+00 0. -1.
<mgrwt>
<rscale>  0 0.13536733E+03</rscale>
<asrwt>0</asrwt>
<pdfrwt beam="2">  1        2 0.19979942E+00 0.14297653E+03</pdfrwt>
<pdfrwt beam="1">  1       -2 0.20779426E-02 0.14297653E+03</pdfrwt>
<totfact> 0.12461170E+04</totfact>
</mgrwt>
</event>
<event>
 7    1  0.5400401E-006  0.2131127E+03  0.7546771E-02  0.1142945E+00
          1   -1    0    0  501    0  0.00000000000E+00  0.00000000000E+00  0.10831080604E+04  0.10831080604E+04  0.00000000000E+00 0. -1.
         -1   -1    0    0    0  501 -0.00000000000E+00 -0.00000000000E+00 -0.43021101501E+02  0.43021101501E+02  0.00000000000E+00 0.  1.
         23    2    1    2    0    0 -0.14983774504E+03 -0.85702477408E+02  0.35554233853E+03  0.41452063617E+03  0.12498295424E+03 0.  0.
          5    1    3    3  502    0 -0.15566064843E+02 -0.71129933132E+02  0.16983912270E+03  0.18484909348E+03  0.47000000000E+01 0. -1.
         -5    1    3    3    0  502 -0.13427168020E+03 -0.14572544276E+02  0.18570321583E+03  0.22967154269E+03  0.47000000000E+01 0. -1.
        -11    1    1    2    0    0  0.79594479456E+02  0.56652565497E+01  0.19655712344E+03  0.21213693471E+03  0.00000000000E+00 0.  1.
         11    1    1    2    0    0  0.70243265586E+02  0.80037220858E+02  0.48798749692E+03  0.49947159102E+03  0.00000000000E+00 0. -1.
<mgrwt>
<rscale>  0 0.20826791E+03</rscale>
<asrwt>0</asrwt>
<pdfrwt beam="1">  1        1 0.16663199E+00 0.21311265E+03</pdfrwt>
<pdfrwt beam="2">  1       -1 0.66186318E-02 0.21311265E+03</pdfrwt>
<totfact> 0.15971127E+03</totfact>
</mgrwt>
</event>
<event>
 7    1  0.5400401E-006  0.1310520E+03  0.7546771E-02  0.1241606E+00
          2   -1    0    0  501    0  0.00000000000E+00  0.00000000000E+00  0.39703486845E+02  0.39703486845E+02  0.00000000000E+00 0. -1.
         -2   -1    0    0    0  501 -0.00000000000E+00 -0.00000000000E+00 -0.41448012893E+03  0.41448012893E+03  0.00000000000E+00 0.  1.
         23    2    1    2    0    0  0.39115428603E+02 -0.44627423689E+01 -0.31703754873E+03  0.34305603426E+03  0.12499881006E+03 0.  0.
          5    1    3    3  502    0  0.37006782879E+02 -0.24612128385E+01 -0.13926831292E+02  0.39894939247E+02  0.47000000000E+01 0.  1.
         -5    1    3    3    0  502  0.21086457233E+01 -0.20015295304E+01 -0.30311071744E+03  0.30316109502E+03  0.47000000000E+01 0.  1.
        -11    1    1    2    0    0 -0.26457611168E+02  0.19685545430E+02 -0.76839972855E+02  0.83617625630E+02  0.00000000000E+00 0.  1.
         11    1    1    2    0    0 -0.12657817434E+02 -0.15222803061E+02  0.19100879495E+02  0.27509955883E+02  0.00000000000E+00 0. -1.
<mgrwt>
<rscale>  0 0.12090848E+03</rscale>
<asrwt>0</asrwt>
<pdfrwt beam="1">  1        2 0.61082290E-02 0.13105203E+03</pdfrwt>
<pdfrwt beam="2">  1       -2 0.63766171E-01 0.13105203E+03</pdfrwt>
<totfact> 0.26855526E+03</totfact>
</mgrwt>
</event>
<event>
 7    1  0.5400401E-006  0.1263275E+03  0.7546771E-02  0.1248932E+00
          1   -1    0    0  501    0  0.00000000000E+00  0.00000000000E+00  0.56928935456E+03  0.56928935456E+03  0.00000000000E+00 0. -1.
         -1   -1    0    0    0  501 -0.00000000000E+00 -0.00000000000E+00 -0.20948936764E+02  0.20948936764E+02  0.00000000000E+00 0.  1.
         23    2    1    2    0    0  0.18252000023E+02  0.50154368063E+01  0.33965905335E+03  0.36239055182E+03  0.12490135875E+03 0.  0.
          5    1    3    3  502    0  0.55061251304E+02  0.43697841614E+02  0.15815860080E+03  0.17314004668E+03  0.47000000000E+01 0. -1.
         -5    1    3    3    0  502 -0.36809251281E+02 -0.38682404807E+02  0.18150045255E+03  0.18925050514E+03  0.47000000000E+01 0. -1.
        -11    1    1    2    0    0  0.19728658009E+02 -0.58497606454E+01  0.57148210020E+01  0.21356470344E+02  0.00000000000E+00 0.  1.
         11    1    1    2    0    0 -0.37980658033E+02  0.83432383909E+00  0.20296654344E+03  0.20649126916E+03  0.00000000000E+00 0. -1.
<mgrwt>
<rscale>  0 0.11653130E+03</rscale>
<asrwt>0</asrwt>
<pdfrwt beam="1">  1        1 0.87582966E-01 0.12632751E+03</pdfrwt>
<pdfrwt beam="2">  1       -1 0.32229138E-02 0.12632751E+03</pdfrwt>
<totfact> 0.12143186E+04</totfact>
</mgrwt>
</event>
<event>
 6    1  0.5400401E-006  0.1434580E+03  0.7546771E-02  0.1226691E+00
          2   -1    0    0  501    0  0.00000000000E+00  0.00000000000E+00  0.74050544496E+03  0.74050544496E+03  0.00000000000E+00 0. -1.
         -2   -1    0    0    0  501 -0.00000000000E+00 -0.00000000000E+00 -0.19872918959E+02  0.19872918959E+02  0.00000000000E+00 0.  1.
          5    1    1    2  502    0  0.45543429522E+02 -0.18314551673E+02  0.84842586743E+02  0.98132468128E+02  0.47000000000E+01 0. -1.
         -5    1    1    2    0  502 -0.86598926622E+02  0.54859294940E+01  0.31061644427E+03  0.32254322960E+03  0.47000000000E+01 0.  1.
        -11    1    1    2    0    0  0.43390503189E+02  0.39885466217E+02  0.28616866094E+03  0.29217475710E+03  0.00000000000E+00 0. -1.
         11    1    1    2    0    0 -0.23350060881E+01 -0.27056844038E+02  0.39004834047E+02  0.47527909083E+02  0.00000000000E+00 0.  1.
<mgrwt>
<rscale>  0 0.13051676E+03</rscale>
<asrwt>0</asrwt>
<pdfrwt beam="1">  1        2 0.11392389E+00 0.14345800E+03</pdfrwt>
<pdfrwt beam="2">  1       -2 0.30573727E-02 0.14345800E+03</pdfrwt>
<totfact> 0.15387458E+04</totfact>
</mgrwt>
</event>
<event>
 7    1  0.5400401E-006  0.1339791E+03  0.7546771E-02  0.1234326E+00
         -3   -1    0    0    0  501 -0.00000000000E+00  0.00000000000E+00  0.15571258859E+03  0.15571258859E+03  0.00000000000E+00 0.  1.
          3   -1    0    0  501    0  0.00000000000E+00 -0.00000000000E+00 -0.11455737426E+03  0.11455737426E+03  0.00000000000E+00 0. -1.
         23    2    1    2    0    0 -0.48215651956E+02 -0.10283043704E+01  0.84559461324E+02  0.15843203273E+03  0.12499839996E+03 0.  0.
          5    1    3    3  502    0 -0.43536154870E+02 -0.25721991090E+02  0.11074462970E+03  0.12183382377E+03  0.47000000000E+01 0.  1.
         -5    1    3    3    0  502 -0.46794970863E+01  0.24693686719E+02 -0.26185168375E+02  0.36598208967E+02  0.47000000000E+01 0.  1.
        -11    1    1    2    0    0  0.35635538794E+02  0.23420280218E+02 -0.65365436956E+02  0.78045124762E+02  0.00000000000E+00 0. -1.
         11    1    1    2    0    0  0.12580113162E+02 -0.22391975848E+02  0.21961189957E+02  0.33792805357E+02  0.00000000000E+00 0.  1.
<mgrwt>
<rscale>  0 0.12547662E+03</rscale>
<asrwt>0</asrwt>
<pdfrwt beam="2">  1        3 0.17624211E-01 0.13397913E+03</pdfrwt>
<pdfrwt beam="1">  1       -3 0.23955783E-01 0.13397913E+03</pdfrwt>
<totfact> 0.10474696E+03</totfact>
</mgrwt>
</event>
<event>
 7    1  0.5400401E-006  0.1254717E+03  0.7546771E-02  0.1249538E+00
         -1   -1    0    0    0  501 -0.00000000000E+00  0.00000000000E+00  0.40534804068E+03  0.40534804068E+03  0.00000000000E+00 0.  1.
          1   -1    0    0  501    0  0.00000000000E+00 -0.00000000000E+00 -0.86974662704E+02  0.86974662704E+02  0.00000000000E+00 0. -1.
         23    2    1    2    0    0  0.50459160303E+01 -0.96325994623E+01  0.36714444924E+03  0.38799251873E+03  0.12499959895E+03 0.  0.
          5    1    3    3  502    0 -0.11241286681E+02  0.38361714497E+02  0.30508765157E+03  0.30773129969E+03  0.47000000000E+01 0. -1.
         -5    1    3    3    0  502  0.16287202711E+02 -0.47994313959E+02  0.62056797672E+02  0.80261219040E+02  0.47000000000E+01 0. -1.
        -11    1    1    2    0    0  0.40818829453E+02  0.94053268839E+01 -0.39422322819E+02  0.57521791941E+02  0.00000000000E+00 0. -1.
         11    1    1    2    0    0 -0.45864745483E+02  0.22727257843E+00 -0.93487484497E+01  0.46808392716E+02  0.00000000000E+00 0.  1.
<mgrwt>
<rscale>  0 0.11617859E+03</rscale>
<asrwt>0</asrwt>
<pdfrwt beam="2">  1        1 0.13380718E-01 0.12547170E+03</pdfrwt>
<pdfrwt beam="1">  1       -1 0.62361236E-01 0.12547170E+03</pdfrwt>
<totfact> 0.11481189E+03</totfact>
</mgrwt>
</event>
<event>
 7    1  0.5400401E-006  0.1659618E+03  0.7546771E-02  0.1189248E+00
         -2   -1    0    0    0  501 -0.00000000000E+00  0.00000000000E+00  0.11770478647E+03  0.11770478647E+03  0.00000000000E+00 0.  1.
          2   -1    0    0  501    0  0.00000000000E+00 -0.00000000000E+00 -0.20724394986E+03  0.20724394986E+03  0.00000000000E+00 0. -1.
         23    2    1    2    0    0  0.53404467019E+02  0.95220189832E+02 -0.19985584303E+02  0.16716082819E+03  0.12499758899E+03 0.  0.
          5    1    3    3  502    0 -0.28935806365E+02  0.80036441276E+00  0.20085285471E+02  0.35544762844E+02  0.47000000000E+01 0. -1.
         -5    1    3    3    0  502  0.82340273385E+02  0.94419825420E+02 -0.40070869774E+02  0.13161606535E+03  0.47000000000E+01 0. -1.
        -11    1    1    2    0    0 -0.26732597043E+02  0.82320291806E+01 -0.36441898977E+02  0.45939199494E+02  0.00000000000E+00 0. -1.
         11    1    1    2    0    0 -0.26671869977E+02 -0.10345221901E+03 -0.33111680113E+02  0.11184870865E+03  0.00000000000E+00 0.  1.
<mgrwt>
<rscale>  0 0.15951284E+03</rscale>
<asrwt>0</asrwt>
<pdfrwt beam="2">  1        2 0.31883685E-01 0.16596180E+03</pdfrwt>
<pdfrwt beam="1">  1       -2 0.18108429E-01 0.16596180E+03</pdfrwt>
<totfact> 0.39685542E+03</totfact>
</mgrwt>
</event>
<event>
 7    1  0.5400401E-006  0.1481626E+03  0.7546771E-02  0.1212109E+00
          1   -1    0    0  501    0  0.00000000000E+00  0.00000000000E+00  0.22905271524E+03  0.22905271524E+03  0.00000000000E+00 0. -1.
         -1   -1    0    0    0  501 -0.00000000000E+00 -0.00000000000E+00 -0.81833635032E+02  0.81833635032E+02  0.00000000000E+00 0.  1.
         23    2    1    2    0    0 -0.68795535689E+02 -0.39909788623E+02  0.52990509161E+02  0.15735358707E+03  0.12500616122E+03 0.  0.
          5    1    3    3  502    0 -0.32900690700E+02  0.11192244593E+01  0.86856399339E+02  0.93004474183E+02  0.47000000000E+01 0. -1.
         -5    1    3    3    0  502 -0.35894844990E+02 -0.41029013082E+02 -0.33865890177E+02  0.64349112883E+02  0.47000000000E+01 0. -1.
        -11    1    1    2    0    0  0.80405768920E+02  0.56027044234E+02  0.62939342353E+02  0.11647093276E+03  0.00000000000E+00 0.  1.
         11    1    1    2    0    0 -0.11610233231E+02 -0.16117255611E+02  0.31289228693E+02  0.37061830450E+02  0.00000000000E+00 0. -1.
<mgrwt>
<rscale>  0 0.14091065E+03</rscale>
<asrwt>0</asrwt>
<pdfrwt beam="1">  1        1 0.35238879E-01 0.14816260E+03</pdfrwt>
<pdfrwt beam="2">  1       -1 0.12589790E-01 0.14816260E+03</pdfrwt>
<totfact> 0.50420176E+03</totfact>
</mgrwt>
</event>
<event>
 7    1  0.5400401E-006  0.1331271E+03  0.7546771E-02  0.1236384E+00
          1   -1    0    0  501    0  0.00000000000E+00  0.00000000000E+00  0.45969969342E+03  0.45969969342E+03  0.00000000000E+00 0. -1.
         -1   -1    0    0    0  501 -0.00000000000E+00 -0.00000000000E+00 -0.94013095637E+02  0.94013095637E+02  0.00000000000E+00 0.  1.
         23    2    1    2    0    0  0.14485920428E+02 -0.43453278539E+02 -0.37359378060E+02  0.13826987006E+03  0.12499921812E+03 0.  0.
          5    1    3    3  502    0  0.34631000190E+02  0.33806185769E+02 -0.31793760765E+02  0.58095590143E+02  0.47000000000E+01 0. -1.
         -5    1    3    3    0  502 -0.20145079761E+02 -0.77259464309E+02 -0.55656172944E+01  0.80174279914E+02  0.47000000000E+01 0. -1.
        -11    1    1    2    0    0 -0.32022356625E+02 -0.17117524490E+02  0.11590786155E+03  0.12146223008E+03  0.00000000000E+00 0.  1.
         11    1    1    2    0    0  0.17536436197E+02  0.60570803030E+02  0.28713811429E+03  0.29398068891E+03  0.00000000000E+00 0. -1.
<mgrwt>
<rscale>  0 0.12416262E+03</rscale>
<asrwt>0</asrwt>
<pdfrwt beam="1">  1        1 0.70723028E-01 0.13312713E+03</pdfrwt>
<pdfrwt beam="2">  1       -1 0.14463553E-01 0.13312713E+03</pdfrwt>
<totfact> 0.16939732E+03</totfact>
</mgrwt>
</event>
<event>
 7    1  0.5400401E-006  0.3003940E+03  0.7546771E-02  0.1086645E+00
          2   -1    0    0  501    0  0.00000000000E+00  0.00000000000E+00  0.91237356736E+02  0.91237356736E+02  0.00000000000E+00 0. -1.
         -2   -1    0    0    0  501 -0.00000000000E+00 -0.00000000000E+00 -0.94814897525E+03  0.94814897525E+03  0.00000000000E+00 0.  1.
         23    2    1    2    0    0 -0.26824284169E+03 -0.51552876824E+02 -0.43718689450E+03  0.53044222812E+03  0.12499862168E+03 0.  0.
          5    1    3    3  502    0 -0.99591815066E+02  0.36832176368E+02 -0.19759437344E+03  0.22436747817E+03  0.47000000000E+01 0.  1.
         -5    1    3    3    0  502 -0.16865102663E+03 -0.88385053191E+02 -0.23959252106E+03  0.30607474995E+03  0.47000000000E+01 0.  1.
        -11    1    1    2    0    0  0.51031836814E+02  0.29275014958E+02 -0.15498874776E+03  0.16577933164E+03  0.00000000000E+00 0.  1.
         11    1    1    2    0    0  0.21721100488E+03  0.22277861866E+02 -0.26473597626E+03  0.34316477222E+03  0.00000000000E+00 0. -1.
<mgrwt>
<rscale>  0 0.29720663E+03</rscale>
<asrwt>0</asrwt>
<pdfrwt beam="1">  1        2 0.14036517E-01 0.30039404E+03</pdfrwt>
<pdfrwt beam="2">  1       -2 0.14586907E+00 0.30039404E+03</pdfrwt>
<totfact> 0.14402506E+02</totfact>
</mgrwt>
</event>
<event>
 7    1  0.5400401E-006  0.1313874E+03  0.7546771E-02  0.1238399E+00
          2   -1    0    0  501    0  0.00000000000E+00  0.00000000000E+00  0.12642632581E+03  0.12642632581E+03  0.00000000000E+00 0. -1.
         -2   -1    0    0    0  501 -0.00000000000E+00 -0.00000000000E+00 -0.11089471165E+03  0.11089471165E+03  0.00000000000E+00 0.  1.
         23    2    1    2    0    0 -0.52934381114E+01  0.40122117258E+02 -0.14954885195E+02  0.13223579436E+03  0.12499940775E+03 0.  0.
          5    1    3    3  502    0  0.51434992271E+02  0.51574740331E+02 -0.13002427042E+02  0.74139499453E+02  0.47000000000E+01 0.  1.
         -5    1    3    3    0  502 -0.56728430382E+02 -0.11452623073E+02 -0.19524581528E+01  0.58096294905E+02  0.47000000000E+01 0.  1.
        -11    1    1    2    0    0 -0.23476963325E+02  0.21247777621E+02  0.17136021852E+02  0.36003876259E+02  0.00000000000E+00 0. -1.
         11    1    1    2    0    0  0.28770401436E+02 -0.61369894879E+02  0.13350477505E+02  0.69081366850E+02  0.00000000000E+00 0.  1.
<mgrwt>
<rscale>  0 0.12289323E+03</rscale>
<asrwt>0</asrwt>
<pdfrwt beam="1">  1        2 0.19450204E-01 0.13138743E+03</pdfrwt>
<pdfrwt beam="2">  1       -2 0.17060725E-01 0.13138743E+03</pdfrwt>
<totfact> 0.74651907E+03</totfact>
</mgrwt>
</event>
<event>
 6    1  0.5400401E-006  0.1685010E+03  0.7546771E-02  0.1187275E+00
         -2   -1    0    0    0  501 -0.00000000000E+00  0.00000000000E+00  0.41026163904E+02  0.41026163904E+02  0.00000000000E+00 0. -1.
          2   -1    0    0  501    0  0.00000000000E+00 -0.00000000000E+00 -0.58593575798E+03  0.58593575798E+03  0.00000000000E+00 0.  1.
          5    1    1    2  502    0 -0.33143307291E+02  0.37379735030E+02 -0.21202852881E+03  0.21788508539E+03  0.47000000000E+01 0. -1.
         -5    1    1    2    0  502 -0.73167608868E+02 -0.45781123913E+02 -0.72604334582E+02  0.11288440855E+03  0.47000000000E+01 0.  1.
        -11    1    1    2    0    0  0.10416028642E+03 -0.22878963774E+02 -0.17056850516E+03  0.20116268839E+03  0.00000000000E+00 0. -1.
         11    1    1    2    0    0  0.21506297427E+01  0.31280352656E+02 -0.89708225529E+02  0.95029739546E+02  0.00000000000E+00 0.  1.
<mgrwt>
<rscale>  0 0.16126591E+03</rscale>
<asrwt>0</asrwt>
<pdfrwt beam="2">  1        2 0.90143960E-01 0.16850101E+03</pdfrwt>
<pdfrwt beam="1">  1       -2 0.63117177E-02 0.16850101E+03</pdfrwt>
<totfact> 0.69046764E+03</totfact>
</mgrwt>
</event>
<event>
 7    1  0.5400401E-006  0.1276515E+03  0.7546771E-02  0.1246204E+00
         -4   -1    0    0    0  501 -0.00000000000E+00  0.00000000000E+00  0.11305407824E+03  0.11305407824E+03  0.00000000000E+00 0.  1.
          4   -1    0    0  501    0  0.00000000000E+00 -0.00000000000E+00 -0.11208825691E+03  0.11208825691E+03  0.00000000000E+00 0. -1.
         23    2    1    2    0    0  0.23364983208E+02  0.11198142391E+02  0.21046789849E+02  0.12937490028E+03  0.12499430638E+03 0.  0.
          5    1    3    3  502    0  0.87073928769E+01  0.65602574020E+02 -0.61590997038E+01  0.66629880068E+02  0.47000000000E+01 0. -1.
         -5    1    3    3    0  502  0.14657590332E+02 -0.54404431628E+02  0.27205889553E+02  0.62745020212E+02  0.47000000000E+01 0. -1.
        -11    1    1    2    0    0 -0.41412894077E+01 -0.26317401804E+02 -0.50283101568E+02  0.56904711747E+02  0.00000000000E+00 0. -1.
         11    1    1    2    0    0 -0.19223693801E+02  0.15119259412E+02  0.30202133049E+02  0.38862723132E+02  0.00000000000E+00 0.  1.
<mgrwt>
<rscale>  0 0.11813617E+03</rscale>
<asrwt>0</asrwt>
<pdfrwt beam="2">  1        4 0.17244347E-01 0.12765147E+03</pdfrwt>
<pdfrwt beam="1">  1       -4 0.17392935E-01 0.12765147E+03</pdfrwt>
<totfact> 0.13876457E+03</totfact>
</mgrwt>
</event>
<event>
 7    1  0.5400401E-006  0.1254654E+03  0.7546771E-02  0.1249106E+00
          1   -1    0    0  501    0  0.00000000000E+00  0.00000000000E+00  0.28713198949E+02  0.28713198949E+02  0.00000000000E+00 0. -1.
         -1   -1    0    0    0  501 -0.00000000000E+00 -0.00000000000E+00 -0.42108472287E+03  0.42108472287E+03  0.00000000000E+00 0.  1.
         23    2    1    2    0    0 -0.20607050381E+01  0.10613078986E+02 -0.25005482764E+03  0.27976593633E+03  0.12499871341E+03 0.  0.
          5    1    3    3  502    0 -0.24085097166E+01 -0.18216535847E+02  0.76203066843E+01  0.20440209669E+02  0.47000000000E+01 0. -1.
         -5    1    3    3    0  502  0.34780467845E+00  0.28829614834E+02 -0.25767513432E+03  0.25932572666E+03  0.47000000000E+01 0. -1.
        -11    1    1    2    0    0  0.34664101519E+02 -0.29535328473E+02 -0.38672403545E+02  0.59745212010E+02  0.00000000000E+00 0. -1.
         11    1    1    2    0    0 -0.32603396481E+02  0.18922249487E+02 -0.10364429274E+03  0.11028677348E+03  0.00000000000E+00 0.  1.
<mgrwt>
<rscale>  0 0.11642944E+03</rscale>
<asrwt>0</asrwt>
<pdfrwt beam="1">  1        1 0.44174152E-02 0.12546538E+03</pdfrwt>
<pdfrwt beam="2">  1       -1 0.64782266E-01 0.12546538E+03</pdfrwt>
<totfact> 0.47037417E+03</totfact>
</mgrwt>
</event>
<event>
 7    1  0.5400401E-006  0.1507510E+03  0.7546771E-02  0.1208661E+00
         -2   -1    0    0    0  501 -0.00000000000E+00  0.00000000000E+00  0.44275889263E+03  0.44275889263E+03  0.00000000000E+00 0.  1.
          2   -1    0    0  501    0  0.00000000000E+00 -0.00000000000E+00 -0.45302913648E+02  0.45302913648E+02  0.00000000000E+00 0. -1.
         23    2    1    2    0    0  0.36434264431E+02 -0.75992872946E+02  0.27655616673E+03  0.31497486459E+03  0.12499391828E+03 0.  0.
          5    1    3    3  502    0 -0.39556727138E+02  0.42157071420E+01  0.68466728708E+02  0.79323954696E+02  0.47000000000E+01 0.  1.
         -5    1    3    3    0  502  0.75990991569E+02 -0.80208580088E+02  0.20808943802E+03  0.23565090989E+03  0.47000000000E+01 0.  1.
        -11    1    1    2    0    0 -0.85547105697E+01  0.33402497289E+02 -0.72170867017E+01  0.35227776520E+02  0.00000000000E+00 0. -1.
         11    1    1    2    0    0 -0.27879553861E+02  0.42590375657E+02  0.12811689895E+03  0.13785916516E+03  0.00000000000E+00 0.  1.
<mgrwt>
<rscale>  0 0.14352629E+03</rscale>
<asrwt>0</asrwt>
<pdfrwt beam="2">  1        2 0.69696793E-02 0.15075096E+03</pdfrwt>
<pdfrwt beam="1">  1       -2 0.68116750E-01 0.15075096E+03</pdfrwt>
<totfact> 0.19915071E+03</totfact>
</mgrwt>
</event>
<event>
 7    1  0.5400401E-006  0.1796323E+03  0.7546771E-02  0.1173639E+00
          1   -1    0    0  501    0  0.00000000000E+00  0.00000000000E+00  0.27486409171E+03  0.27486409171E+03  0.00000000000E+00 0. -1.
         -1   -1    0    0    0  501 -0.00000000000E+00 -0.00000000000E+00 -0.10515388373E+03  0.10515388373E+03  0.00000000000E+00 0.  1.
         23    2    1    2    0    0 -0.52801364741E+02 -0.11770360401E+03  0.11002996290E+03  0.21065221287E+03  0.12500255811E+03 0.  0.
          5    1    3    3  502    0 -0.56688460335E+02 -0.12687394150E+03  0.12838307946E+03  0.18924820649E+03  0.47000000000E+01 0. -1.
         -5    1    3    3    0  502  0.38870955935E+01  0.91703374921E+01 -0.18353116556E+02  0.21404006382E+02  0.47000000000E+01 0. -1.
        -11    1    1    2    0    0 -0.17422421397E+02  0.40754194940E+02 -0.81339868548E+01  0.45062255988E+02  0.00000000000E+00 0.  1.
         11    1    1    2    0    0  0.70223786138E+02  0.76949409069E+02  0.67814231937E+02  0.12430350658E+03  0.00000000000E+00 0. -1.
<mgrwt>
<rscale>  0 0.17409942E+03</rscale>
<asrwt>0</asrwt>
<pdfrwt beam="1">  1        1 0.42286783E-01 0.17963230E+03</pdfrwt>
<pdfrwt beam="2">  1       -1 0.16177521E-01 0.17963230E+03</pdfrwt>
<totfact> 0.27369998E+03</totfact>
</mgrwt>
</event>
<event>
 7    1  0.5400401E-006  0.1459470E+03  0.7546771E-02  0.1215421E+00
         -3   -1    0    0    0  501 -0.00000000000E+00  0.00000000000E+00  0.12377560017E+03  0.12377560017E+03  0.00000000000E+00 0.  1.
          3   -1    0    0  501    0  0.00000000000E+00 -0.00000000000E+00 -0.14343492521E+03  0.14343492521E+03  0.00000000000E+00 0. -1.
         23    2    1    2    0    0  0.25037838530E+02 -0.71055321004E+02 -0.28361194129E+02  0.14867711479E+03  0.12499910051E+03 0.  0.
          5    1    3    3  502    0  0.28190952430E+02 -0.10478663513E+03 -0.34428619935E+02  0.11394028511E+03  0.47000000000E+01 0.  1.
         -5    1    3    3    0  502 -0.31531139006E+01  0.33731314126E+02  0.60674258062E+01  0.34736829675E+02  0.47000000000E+01 0.  1.
        -11    1    1    2    0    0 -0.22117438325E+02 -0.50014223319E+01 -0.26327503442E+02  0.34746693956E+02  0.00000000000E+00 0. -1.
         11    1    1    2    0    0 -0.29204002043E+01  0.76056743336E+02  0.35029372528E+02  0.83786716631E+02  0.00000000000E+00 0.  1.
<mgrwt>
<rscale>  0 0.13845646E+03</rscale>
<asrwt>0</asrwt>
<pdfrwt beam="2">  1        3 0.22066911E-01 0.14594700E+03</pdfrwt>
<pdfrwt beam="1">  1       -3 0.19042400E-01 0.14594700E+03</pdfrwt>
<totfact> 0.10742572E+03</totfact>
</mgrwt>
</event>
<event>
 7    1  0.5400401E-006  0.1351002E+03  0.7546771E-02  0.1232350E+00
         -2   -1    0    0    0  501 -0.00000000000E+00  0.00000000000E+00  0.21826804992E+02  0.21826804992E+02  0.00000000000E+00 0.  1.
          2   -1    0    0  501    0  0.00000000000E+00 -0.00000000000E+00 -0.67320599400E+03  0.67320599400E+03  0.00000000000E+00 0. -1.
         23    2    1    2    0    0  0.12277563522E+02 -0.49747047545E+02 -0.31528788997E+03  0.34301387377E+03  0.12500622678E+03 0.  0.
          5    1    3    3  502    0 -0.28888799088E+02  0.28834826211E+02 -0.14805146928E+03  0.15364679454E+03  0.47000000000E+01 0. -1.
         -5    1    3    3    0  502  0.41166362610E+02 -0.78581873756E+02 -0.16723642069E+03  0.18936707924E+03  0.47000000000E+01 0. -1.
        -11    1    1    2    0    0  0.38216014975E+02  0.32998526274E+02 -0.18799950915E+03  0.19466171164E+03  0.00000000000E+00 0.  1.
         11    1    1    2    0    0 -0.50493578497E+02  0.16748521271E+02 -0.14809178988E+03  0.15735721358E+03  0.00000000000E+00 0. -1.
<mgrwt>
<rscale>  0 0.12675588E+03</rscale>
<asrwt>0</asrwt>
<pdfrwt beam="2">  1        2 0.10357015E+00 0.13510020E+03</pdfrwt>
<pdfrwt beam="1">  1       -2 0.33579702E-02 0.13510020E+03</pdfrwt>
<totfact> 0.14947231E+04</totfact>
</mgrwt>
</event>
<event>
 7    1  0.5400401E-006  0.1269220E+03  0.7546771E-02  0.1248922E+00
          1   -1    0    0  501    0  0.00000000000E+00  0.00000000000E+00  0.21884717174E+02  0.21884717174E+02  0.00000000000E+00 0. -1.
         -1   -1    0    0    0  501 -0.00000000000E+00 -0.00000000000E+00 -0.61913823852E+03  0.61913823852E+03  0.00000000000E+00 0.  1.
         23    2    1    2    0    0 -0.22067516328E+02 -0.31447929647E+00 -0.45673148133E+03  0.47403885452E+03  0.12498846099E+03 0.  0.
          5    1    3    3  502    0 -0.45460592286E+02 -0.35509779969E+02 -0.10627896470E+03  0.12101619008E+03  0.47000000000E+01 0.  1.
         -5    1    3    3    0  502  0.23393075958E+02  0.35195300673E+02 -0.35045251664E+03  0.35302266444E+03  0.47000000000E+01 0.  1.
        -11    1    1    2    0    0 -0.18768941626E+02 -0.18352775238E+02 -0.10901690687E+03  0.11213288328E+03  0.00000000000E+00 0.  1.
         11    1    1    2    0    0  0.40836457953E+02  0.18667254534E+02 -0.31505133138E+02  0.54851217890E+02  0.00000000000E+00 0. -1.
<mgrwt>
<rscale>  0 0.11653659E+03</rscale>
<asrwt>0</asrwt>
<pdfrwt beam="1">  1        1 0.33668793E-02 0.12692198E+03</pdfrwt>
<pdfrwt beam="2">  1       -1 0.95252044E-01 0.12692198E+03</pdfrwt>
<totfact> 0.31186550E+03</totfact>
</mgrwt>
</event>
<event>
 7    1  0.5400401E-006  0.1950223E+03  0.7546771E-02  0.1158188E+00
          2   -1    0    0  501    0  0.00000000000E+00  0.00000000000E+00  0.27938622445E+03  0.27938622445E+03  0.00000000000E+00 0. -1.
         -2   -1    0    0    0  501 -0.00000000000E+00 -0.00000000000E+00 -0.12827200041E+03  0.12827200041E+03  0.00000000000E+00 0.  1.
         23    2    1    2    0    0 -0.61419528236E+02  0.13651255238E+03  0.11746500596E+03  0.22766582255E+03  0.12500265489E+03 0.  0.
          5    1    3    3  502    0 -0.51950606119E+02  0.14541293544E+03  0.13512415674E+03  0.20524233239E+03  0.47000000000E+01 0. -1.
         -5    1    3    3    0  502 -0.94689221178E+01 -0.89003830614E+01 -0.17659150786E+02  0.22423490165E+02  0.47000000000E+01 0. -1.
        -11    1    1    2    0    0  0.34916543835E+02 -0.59425061809E+02 -0.31364843733E+02  0.75724873237E+02  0.00000000000E+00 0. -1.
         11    1    1    2    0    0  0.26502984402E+02 -0.77087490569E+02  0.65014061817E+02  0.10426752907E+03  0.00000000000E+00 0.  1.
<mgrwt>
<rscale>  0 0.19030294E+03</rscale>
<asrwt>0</asrwt>
<pdfrwt beam="1">  1        2 0.42982496E-01 0.19502230E+03</pdfrwt>
<pdfrwt beam="2">  1       -2 0.19734154E-01 0.19502230E+03</pdfrwt>
<totfact> 0.25050097E+03</totfact>
</mgrwt>
</event>
<event>
 7    1  0.6510550E-006  0.1542363E+03  0.7546771E-02  0.1203696E+00
         -1   -1    0    0    0  501 -0.00000000000E+00  0.00000000000E+00  0.50021974732E+02  0.50021974732E+02  0.00000000000E+00 0.  1.
          1   -1    0    0  501    0  0.00000000000E+00 -0.00000000000E+00 -0.40744615274E+03  0.40744615274E+03  0.00000000000E+00 0. -1.
         23    2    1    2    0    0  0.34985363903E+02 -0.83302055504E+02 -0.16382795022E+03  0.22500759689E+03  0.12500245296E+03 0.  0.
          5    1    3    3  502    0  0.40698731549E+02  0.92435785688E+01 -0.67412687893E+01  0.42536633616E+02  0.47000000000E+01 0.  1.
         -5    1    3    3    0  502 -0.57133676465E+01 -0.92545634073E+02 -0.15708668143E+03  0.18247096328E+03  0.47000000000E+01 0.  1.
        -11    1    1    2    0    0 -0.44231266517E+02  0.44453351879E+02 -0.17945587815E+03  0.19009712684E+03  0.00000000000E+00 0. -1.
         11    1    1    2    0    0  0.92459026144E+01  0.38848703625E+02 -0.14140349637E+02  0.42363403739E+02  0.00000000000E+00 0.  1.
<mgrwt>
<rscale>  0 0.14740667E+03</rscale>
<asrwt>0</asrwt>
<pdfrwt beam="2">  1        1 0.62684020E-01 0.15423625E+03</pdfrwt>
<pdfrwt beam="1">  1       -1 0.76956888E-02 0.15423625E+03</pdfrwt>
<totfact> 0.52317162E+03</totfact>
</mgrwt>
</event>
<event>
 7    1  0.5400401E-006  0.1446162E+03  0.7546771E-02  0.1216576E+00
         -2   -1    0    0    0  501 -0.00000000000E+00  0.00000000000E+00  0.12094220128E+03  0.12094220128E+03  0.00000000000E+00 0.  1.
          2   -1    0    0  501    0  0.00000000000E+00 -0.00000000000E+00 -0.16162984909E+03  0.16162984909E+03  0.00000000000E+00 0. -1.
         23    2    1    2    0    0  0.63902070171E+02 -0.34744760126E+02  0.25388375099E+02  0.14682785009E+03  0.12499269996E+03 0.  0.
          5    1    3    3  502    0  0.86772826011E+02 -0.60555213003E+02  0.40335586361E+01  0.10599441849E+03  0.47000000000E+01 0. -1.
         -5    1    3    3    0  502 -0.22870755840E+02  0.25810452877E+02  0.21354816462E+02  0.40833431604E+02  0.47000000000E+01 0. -1.
        -11    1    1    2    0    0 -0.37132685832E+02  0.48281298619E+01  0.18765499167E+02  0.41884259025E+02  0.00000000000E+00 0.  1.
         11    1    1    2    0    0 -0.26769384340E+02  0.29916630264E+02 -0.84841522072E+02  0.93859941252E+02  0.00000000000E+00 0. -1.
<mgrwt>
<rscale>  0 0.13761400E+03</rscale>
<asrwt>0</asrwt>
<pdfrwt beam="2">  1        2 0.24866131E-01 0.14461621E+03</pdfrwt>
<pdfrwt beam="1">  1       -2 0.18606492E-01 0.14461621E+03</pdfrwt>
<totfact> 0.49389699E+03</totfact>
</mgrwt>
</event>
<event>
 6    1  0.5400401E-006  0.3259897E+03  0.7546771E-02  0.1101702E+00
          2   -1    0    0  501    0  0.00000000000E+00  0.00000000000E+00  0.10482913360E+03  0.10482913360E+03  0.00000000000E+00 0. -1.
         -2   -1    0    0    0  501 -0.00000000000E+00 -0.00000000000E+00 -0.54432501900E+03  0.54432501900E+03  0.00000000000E+00 0.  1.
          5    1    1    2  502    0  0.29073510958E+02 -0.67772266845E+02  0.48356882161E+02  0.88310968996E+02  0.47000000000E+01 0. -1.
         -5    1    1    2    0  502 -0.31614762705E+02 -0.53669078901E+02 -0.35097048711E+03  0.35648595495E+03  0.47000000000E+01 0.  1.
        -11    1    1    2    0    0  0.26089014215E+02 -0.11540613421E+00 -0.37012634919E+02  0.45283386854E+02  0.00000000000E+00 0.  1.
         11    1    1    2    0    0 -0.23547762468E+02  0.12155675188E+03 -0.99869645531E+02  0.15907384179E+03  0.00000000000E+00 0. -1.
<mgrwt>
<rscale>  0 0.26926393E+03</rscale>
<asrwt>0</asrwt>
<pdfrwt beam="1">  1        2 0.16127559E-01 0.32598974E+03</pdfrwt>
<pdfrwt beam="2">  1       -2 0.83742310E-01 0.32598974E+03</pdfrwt>
<totfact> 0.46120707E+02</totfact>
</mgrwt>
</event>
<event>
 7    1  0.5400401E-006  0.1277458E+03  0.7546771E-02  0.1237456E+00
          1   -1    0    0  501    0  0.00000000000E+00  0.00000000000E+00  0.35800757405E+03  0.35800757405E+03  0.00000000000E+00 0. -1.
         -1   -1    0    0    0  501 -0.00000000000E+00 -0.00000000000E+00 -0.41458253189E+02  0.41458253189E+02  0.00000000000E+00 0.  1.
         23    2    1    2    0    0  0.55420984465E+02 -0.30954872388E+02  0.20621927627E+03  0.24258064670E+03  0.11085707286E+03 0.  0.
          5    1    3    3  502    0  0.72511691888E+02  0.14675056395E+02  0.15452582816E+03  0.17138735166E+03  0.47000000000E+01 0. -1.
         -5    1    3    3    0  502 -0.17090707423E+02 -0.45629928783E+02  0.51693448110E+02  0.71193295039E+02  0.47000000000E+01 0.  1.
        -11    1    1    2    0    0 -0.82535900767E+01  0.10080666991E+02 -0.15880810416E+02  0.20541220402E+02  0.00000000000E+00 0.  1.
         11    1    1    2    0    0 -0.47167394388E+02  0.20874205397E+02  0.12621085500E+03  0.13634396013E+03  0.00000000000E+00 0. -1.
<mgrwt>
<rscale>  0 0.12348479E+03</rscale>
<asrwt>0</asrwt>
<pdfrwt beam="1">  1        1 0.55078086E-01 0.12774576E+03</pdfrwt>
<pdfrwt beam="2">  1       -1 0.63781930E-02 0.12774576E+03</pdfrwt>
<totfact> 0.80654974E+03</totfact>
</mgrwt>
</event>
<event>
 7    1  0.5400401E-006  0.2827987E+03  0.7546771E-02  0.1096086E+00
         -2   -1    0    0    0  501 -0.00000000000E+00  0.00000000000E+00  0.75992644778E+02  0.75992644778E+02  0.00000000000E+00 0.  1.
          2   -1    0    0  501    0  0.00000000000E+00 -0.00000000000E+00 -0.13124120527E+04  0.13124120527E+04  0.00000000000E+00 0. -1.
         23    2    1    2    0    0  0.15158312359E+03  0.20339590665E+03 -0.29226285665E+03  0.40668499982E+03  0.12501109350E+03 0.  0.
          5    1    3    3  502    0  0.23154108752E+02 -0.15799530701E+02 -0.24143001579E+02  0.37292257209E+02  0.47000000000E+01 0. -1.
         -5    1    3    3    0  502  0.12842901484E+03  0.21919543735E+03 -0.26811985507E+03  0.36939274261E+03  0.47000000000E+01 0. -1.
        -11    1    1    2    0    0 -0.26297422104E+02 -0.10770070786E+03 -0.41798665518E+03  0.43243940708E+03  0.00000000000E+00 0. -1.
         11    1    1    2    0    0 -0.12528570149E+03 -0.95695198794E+02 -0.52616989609E+03  0.54928029058E+03  0.00000000000E+00 0.  1.
<mgrwt>
<rscale>  0 0.27927487E+03</rscale>
<asrwt>0</asrwt>
<pdfrwt beam="2">  1        2 0.20190955E+00 0.28279871E+03</pdfrwt>
<pdfrwt beam="1">  1       -2 0.11691176E-01 0.28279871E+03</pdfrwt>
<totfact> 0.89202770E+02</totfact>
</mgrwt>
</event>
<event>
 7    1  0.5400401E-006  0.1319161E+03  0.7546771E-02  0.1238228E+00
         -2   -1    0    0    0  501 -0.00000000000E+00  0.00000000000E+00  0.14802217454E+03  0.14802217454E+03  0.00000000000E+00 0.  1.
          2   -1    0    0  501    0  0.00000000000E+00 -0.00000000000E+00 -0.91278764714E+02  0.91278764714E+02  0.00000000000E+00 0. -1.
         23    2    1    2    0    0  0.40330233036E+02  0.12312530255E+02  0.42417546196E+02  0.13856809162E+03  0.12499496667E+03 0.  0.
          5    1    3    3  502    0  0.17981736130E+02  0.53629200655E+02  0.64952212153E+02  0.86257253960E+02  0.47000000000E+01 0.  1.
         -5    1    3    3    0  502  0.22348496906E+02 -0.41316670401E+02 -0.22534665957E+02  0.52310837661E+02  0.47000000000E+01 0.  1.
        -11    1    1    2    0    0 -0.57529099270E+02  0.91495490479E+01 -0.15381742995E+02  0.60248730511E+02  0.00000000000E+00 0. -1.
         11    1    1    2    0    0  0.17198866234E+02 -0.21462079303E+02  0.29707606625E+02  0.40484117122E+02  0.00000000000E+00 0.  1.
<mgrwt>
<rscale>  0 0.12300053E+03</rscale>
<asrwt>0</asrwt>
<pdfrwt beam="2">  1        2 0.14042887E-01 0.13191614E+03</pdfrwt>
<pdfrwt beam="1">  1       -2 0.22772642E-01 0.13191614E+03</pdfrwt>
<totfact> 0.66835600E+03</totfact>
</mgrwt>
</event>
<event>
 7    1  0.5400401E-006  0.1362099E+03  0.7546771E-02  0.1229512E+00
          1   -1    0    0  501    0  0.00000000000E+00  0.00000000000E+00  0.48127692245E+03  0.48127692245E+03  0.00000000000E+00 0. -1.
         -1   -1    0    0    0  501 -0.00000000000E+00 -0.00000000000E+00 -0.31951412709E+02  0.31951412709E+02  0.00000000000E+00 0.  1.
         23    2    1    2    0    0  0.34788316309E+02 -0.41451270338E+02  0.20693674889E+03  0.24774169825E+03  0.12499878498E+03 0.  0.
          5    1    3    3  502    0 -0.28156384760E+02  0.28514898094E+02  0.45474009301E+02  0.60793560004E+02  0.47000000000E+01 0. -1.
         -5    1    3    3    0  502  0.62944701069E+02 -0.69966168432E+02  0.16146273959E+03  0.18694813825E+03  0.47000000000E+01 0. -1.
        -11    1    1    2    0    0  0.13428630406E+02 -0.18801057968E+02  0.21709385195E+02  0.31703395730E+02  0.00000000000E+00 0.  1.
         11    1    1    2    0    0 -0.48216946715E+02  0.60252328306E+02  0.22067937566E+03  0.23378324118E+03  0.00000000000E+00 0. -1.
<mgrwt>
<rscale>  0 0.12862418E+03</rscale>
<asrwt>0</asrwt>
<pdfrwt beam="1">  1        1 0.74042598E-01 0.13620988E+03</pdfrwt>
<pdfrwt beam="2">  1       -1 0.49156023E-02 0.13620988E+03</pdfrwt>
<totfact> 0.81969824E+03</totfact>
</mgrwt>
</event>
<event>
 7    1  0.5400401E-006  0.1261721E+03  0.7546771E-02  0.1248018E+00
          2   -1    0    0  501    0  0.00000000000E+00  0.00000000000E+00  0.93935285178E+02  0.93935285178E+02  0.00000000000E+00 0. -1.
         -2   -1    0    0    0  501 -0.00000000000E+00 -0.00000000000E+00 -0.14306930233E+03  0.14306930233E+03  0.00000000000E+00 0.  1.
         23    2    1    2    0    0 -0.39556493684E+01  0.16573151557E+02 -0.65371902266E+02  0.14210165312E+03  0.12501630973E+03 0.  0.
          5    1    3    3  502    0  0.32379323569E+02  0.53533732155E+02 -0.64600936182E+02  0.90053606418E+02  0.47000000000E+01 0.  1.
         -5    1    3    3    0  502 -0.36334972938E+02 -0.36960580598E+02 -0.77096608397E+00  0.52048046699E+02  0.47000000000E+01 0.  1.
        -11    1    1    2    0    0 -0.12196109051E+02  0.66651751522E+01  0.49393529318E+02  0.51311698220E+02  0.00000000000E+00 0. -1.
         11    1    1    2    0    0  0.16151758420E+02 -0.23238326709E+02 -0.33155644201E+02  0.43591236168E+02  0.00000000000E+00 0.  1.
<mgrwt>
<rscale>  0 0.11706562E+03</rscale>
<asrwt>0</asrwt>
<pdfrwt beam="1">  1        2 0.14451582E-01 0.12617208E+03</pdfrwt>
<pdfrwt beam="2">  1       -2 0.22010662E-01 0.12617208E+03</pdfrwt>
<totfact> 0.68272441E+03</totfact>
</mgrwt>
</event>
<event>
 7    1  0.5400401E-006  0.1399901E+03  0.7546771E-02  0.1213685E+00
         -2   -1    0    0    0  501 -0.00000000000E+00  0.00000000000E+00  0.50633362844E+02  0.50633362844E+02  0.00000000000E+00 0.  1.
          2   -1    0    0  501    0  0.00000000000E+00 -0.00000000000E+00 -0.44485249696E+03  0.44485249696E+03  0.00000000000E+00 0. -1.
         23    2    1    2    0    0  0.20709759011E+02  0.59517036896E+02 -0.10628072355E+03  0.17576350711E+03  0.12500418567E+03 0.  0.
          5    1    3    3  502    0 -0.37471695098E+02 -0.17110249448E+02 -0.18355574738E+02  0.45342096264E+02  0.47000000000E+01 0.  1.
         -5    1    3    3    0  502  0.58181454109E+02  0.76627286344E+02 -0.87925148810E+02  0.13042141085E+03  0.47000000000E+01 0.  1.
        -11    1    1    2    0    0 -0.40176313005E+02  0.16872565122E+02 -0.38579841594E+02  0.58199860462E+02  0.00000000000E+00 0.  1.
         11    1    1    2    0    0  0.19466553994E+02 -0.76389602018E+02 -0.24935856898E+03  0.26152249223E+03  0.00000000000E+00 0. -1.
<mgrwt>
<rscale>  0 0.13973543E+03</rscale>
<asrwt>0</asrwt>
<pdfrwt beam="2">  1        2 0.68438846E-01 0.13999006E+03</pdfrwt>
<pdfrwt beam="1">  1       -2 0.77897481E-02 0.13999006E+03</pdfrwt>
<totfact> 0.67129219E+03</totfact>
</mgrwt>
</event>
<event>
 7    1  0.5400401E-006  0.1551706E+03  0.7546771E-02  0.1202582E+00
          2   -1    0    0  501    0  0.00000000000E+00  0.00000000000E+00  0.21963670076E+03  0.21963670076E+03  0.00000000000E+00 0. -1.
         -2   -1    0    0    0  501 -0.00000000000E+00 -0.00000000000E+00 -0.10475552022E+03  0.10475552022E+03  0.00000000000E+00 0.  1.
         23    2    1    2    0    0 -0.31815193400E+01  0.91880593864E+02  0.60738422597E+01  0.15528939666E+03  0.12500295821E+03 0.  0.
          5    1    3    3  502    0 -0.26156668267E+02  0.11321502605E+02  0.52114100154E+02  0.59584537851E+02  0.47000000000E+01 0.  1.
         -5    1    3    3    0  502  0.22975148927E+02  0.80559091260E+02 -0.46040257894E+02  0.95704858809E+02  0.47000000000E+01 0.  1.
        -11    1    1    2    0    0  0.42068602424E+02 -0.48137127695E+02  0.83933332336E+02  0.10550713080E+03  0.00000000000E+00 0. -1.
         11    1    1    2    0    0 -0.38887083084E+02 -0.43743466170E+02  0.24874005941E+02  0.63595693525E+02  0.00000000000E+00 0.  1.
<mgrwt>
<rscale>  0 0.14829642E+03</rscale>
<asrwt>0</asrwt>
<pdfrwt beam="1">  1        2 0.33790262E-01 0.15517057E+03</pdfrwt>
<pdfrwt beam="2">  1       -2 0.16116234E-01 0.15517057E+03</pdfrwt>
<totfact> 0.45090430E+03</totfact>
</mgrwt>
</event>
<event>
 7    1  0.8465305E-006  0.1937250E+03  0.7546771E-02  0.1159551E+00
          1   -1    0    0  501    0  0.00000000000E+00  0.00000000000E+00  0.98351140318E+02  0.98351140318E+02  0.00000000000E+00 0. -1.
         -1   -1    0    0    0  501 -0.00000000000E+00 -0.00000000000E+00 -0.35465160369E+03  0.35465160369E+03  0.00000000000E+00 0.  1.
         23    2    1    2    0    0 -0.74537174393E+02 -0.12786161545E+03 -0.17164162183E+03  0.25882470369E+03  0.12499999129E+03 0.  0.
          5    1    3    3  502    0 -0.80999999155E+02 -0.14904716347E+03 -0.16054867352E+03  0.23361083744E+03  0.47000000000E+01 0. -1.
         -5    1    3    3    0  502  0.64628247620E+01  0.21185548021E+02 -0.11092948314E+02  0.25213866247E+02  0.47000000000E+01 0. -1.
        -11    1    1    2    0    0  0.38804123106E+02  0.30588117776E+02  0.13729108317E+02  0.51282368649E+02  0.00000000000E+00 0. -1.
         11    1    1    2    0    0  0.35733051287E+02  0.97273497676E+02 -0.98387949855E+02  0.14289567167E+03  0.00000000000E+00 0.  1.
<mgrwt>
<rscale>  0 0.18879667E+03</rscale>
<asrwt>0</asrwt>
<pdfrwt beam="1">  1        1 0.15130945E-01 0.19372501E+03</pdfrwt>
<pdfrwt beam="2">  1       -1 0.54561785E-01 0.19372501E+03</pdfrwt>
<totfact> 0.12740235E+03</totfact>
</mgrwt>
</event>
<event>
 7    1  0.5400401E-006  0.3002417E+03  0.7546771E-02  0.1086727E+00
          2   -1    0    0  501    0  0.00000000000E+00  0.00000000000E+00  0.24898041333E+04  0.24898041333E+04  0.00000000000E+00 0. -1.
         -2   -1    0    0    0  501 -0.00000000000E+00 -0.00000000000E+00 -0.37378684843E+02  0.37378684843E+02  0.00000000000E+00 0.  1.
         23    2    1    2    0    0 -0.18367493494E+03  0.20194838793E+03  0.91267191499E+03  0.96078877764E+03  0.12500167086E+03 0.  0.
          5    1    3    3  502    0 -0.19348723938E+03  0.19912933705E+03  0.90625902012E+03  0.94784877814E+03  0.47000000000E+01 0.  1.
         -5    1    3    3    0  502  0.98123044460E+01  0.28190508836E+01  0.64128948700E+01  0.12939999499E+02  0.47000000000E+01 0.  1.
        -11    1    1    2    0    0  0.32633770921E+02 -0.50153813830E+01  0.97407785919E+02  0.10285131896E+03  0.00000000000E+00 0.  1.
         11    1    1    2    0    0  0.15104116402E+03 -0.19693300655E+03  0.14423457476E+04  0.14635427216E+04  0.00000000000E+00 0. -1.
<mgrwt>
<rscale>  0 0.29704605E+03</rscale>
<asrwt>0</asrwt>
<pdfrwt beam="1">  1        2 0.38304666E+00 0.30024165E+03</pdfrwt>
<pdfrwt beam="2">  1       -2 0.57505688E-02 0.30024165E+03</pdfrwt>
<totfact> 0.63872254E+02</totfact>
</mgrwt>
</event>
<event>
 7    1  0.5400401E-006  0.1724061E+03  0.7546771E-02  0.1181432E+00
          3   -1    0    0  501    0  0.00000000000E+00  0.00000000000E+00  0.33468585166E+03  0.33468585166E+03  0.00000000000E+00 0. -1.
         -3   -1    0    0    0  501 -0.00000000000E+00 -0.00000000000E+00 -0.79256340663E+02  0.79256340663E+02  0.00000000000E+00 0.  1.
         23    2    1    2    0    0  0.11439272468E+03  0.31837660622E+02  0.10844510053E+03  0.20367668465E+03  0.12499807978E+03 0.  0.
          5    1    3    3  502    0  0.22170217500E+02  0.17038030672E+02 -0.26953355880E+02  0.39120153711E+02  0.47000000000E+01 0.  1.
         -5    1    3    3    0  502  0.92222507178E+02  0.14799629951E+02  0.13539845641E+03  0.16455653094E+03  0.47000000000E+01 0.  1.
        -11    1    1    2    0    0 -0.26876471152E+02  0.23137755753E+02  0.78900870200E+02  0.86504611213E+02  0.00000000000E+00 0. -1.
         11    1    1    2    0    0 -0.87516253526E+02 -0.54975416375E+02  0.68083540268E+02  0.12376089646E+03  0.00000000000E+00 0.  1.
<mgrwt>
<rscale>  0 0.16660774E+03</rscale>
<asrwt>0</asrwt>
<pdfrwt beam="1">  1        3 0.51490130E-01 0.17240607E+03</pdfrwt>
<pdfrwt beam="2">  1       -3 0.12193283E-01 0.17240607E+03</pdfrwt>
<totfact> 0.47753916E+02</totfact>
</mgrwt>
</event>
<event>
 7    1  0.5400401E-006  0.1614302E+03  0.7546771E-02  0.1194560E+00
         -2   -1    0    0    0  501 -0.00000000000E+00  0.00000000000E+00  0.72320971136E+02  0.72320971136E+02  0.00000000000E+00 0. -1.
          2   -1    0    0  501    0  0.00000000000E+00 -0.00000000000E+00 -0.32544913148E+03  0.32544913148E+03  0.00000000000E+00 0.  1.
         23    2    1    2    0    0  0.18576914774E+02  0.10043131063E+03 -0.90062189214E+02  0.18485376978E+03  0.12501267279E+03 0.  0.
          5    1    3    3  502    0  0.49547011309E+02  0.30493444402E+02 -0.91123020523E+02  0.10821391477E+03  0.47000000000E+01 0. -1.
         -5    1    3    3    0  502 -0.30970096535E+02  0.69937866232E+02  0.10608313088E+01  0.76639855007E+02  0.47000000000E+01 0. -1.
        -11    1    1    2    0    0  0.23958970482E+02 -0.79031605261E+02 -0.13315541302E+03  0.15668564361E+03  0.00000000000E+00 0. -1.
         11    1    1    2    0    0 -0.42535885256E+02 -0.21399705374E+02 -0.29910558115E+02  0.56230689231E+02  0.00000000000E+00 0.  1.
<mgrwt>
<rscale>  0 0.15491487E+03</rscale>
<asrwt>0</asrwt>
<pdfrwt beam="2">  1        2 0.50069097E-01 0.16143023E+03</pdfrwt>
<pdfrwt beam="1">  1       -2 0.11126303E-01 0.16143023E+03</pdfrwt>
<totfact> 0.54115114E+03</totfact>
</mgrwt>
</event>
<event>
 7    1  0.5400401E-006  0.1366289E+03  0.7546771E-02  0.1230005E+00
          2   -1    0    0  501    0  0.00000000000E+00  0.00000000000E+00  0.40785595915E+03  0.40785595915E+03  0.00000000000E+00 0. -1.
         -2   -1    0    0    0  501 -0.00000000000E+00 -0.00000000000E+00 -0.38966630879E+02  0.38966630879E+02  0.00000000000E+00 0.  1.
         23    2    1    2    0    0 -0.50047517560E+02  0.23194897864E+02  0.14625962825E+03  0.20014826652E+03  0.12499876974E+03 0.  0.
          5    1    3    3  502    0 -0.49331654080E+02  0.49788747381E+02  0.15627395761E+03  0.17133642720E+03  0.47000000000E+01 0. -1.
         -5    1    3    3    0  502 -0.71586348074E+00 -0.26593849517E+02 -0.10014329359E+02  0.28811839323E+02  0.47000000000E+01 0. -1.
        -11    1    1    2    0    0  0.31029686520E+02 -0.44784567290E+02  0.58107739369E+02  0.79655560305E+02  0.00000000000E+00 0.  1.
         11    1    1    2    0    0  0.19017831041E+02  0.21589669425E+02  0.16452196066E+03  0.16701876320E+03  0.00000000000E+00 0. -1.
<mgrwt>
<rscale>  0 0.12829682E+03</rscale>
<asrwt>0</asrwt>
<pdfrwt beam="1">  1        2 0.62747067E-01 0.13662888E+03</pdfrwt>
<pdfrwt beam="2">  1       -2 0.59948666E-02 0.13662888E+03</pdfrwt>
<totfact> 0.10982902E+04</totfact>
</mgrwt>
</event>
<event>
 7    1  0.6563540E-006  0.2407112E+03  0.7546771E-02  0.1121823E+00
         -1   -1    0    0    0  501 -0.00000000000E+00  0.00000000000E+00  0.86554047525E+03  0.86554047525E+03  0.00000000000E+00 0.  1.
          1   -1    0    0  501    0  0.00000000000E+00 -0.00000000000E+00 -0.93883059859E+02  0.93883059859E+02  0.00000000000E+00 0. -1.
         23    2    1    2    0    0  0.15541046006E+03  0.13477403484E+03  0.66919900966E+03  0.71117452646E+03  0.12500176398E+03 0.  0.
          5    1    3    3  502    0  0.12423088244E+03  0.62589962821E+02  0.55672501600E+03  0.57386030446E+03  0.47000000000E+01 0.  1.
         -5    1    3    3    0  502  0.31179577623E+02  0.72184072019E+02  0.11247399366E+03  0.13731422200E+03  0.47000000000E+01 0.  1.
        -11    1    1    2    0    0 -0.79659817796E+02 -0.10822352194E+03  0.24969799048E+02  0.13668031364E+03  0.00000000000E+00 0.  1.
         11    1    1    2    0    0 -0.75750642265E+02 -0.26550512896E+02  0.77488606682E+02  0.11156869500E+03  0.00000000000E+00 0. -1.
<mgrwt>
<rscale>  0 0.23697720E+03</rscale>
<asrwt>0</asrwt>
<pdfrwt beam="2">  1        1 0.14443548E-01 0.24071122E+03</pdfrwt>
<pdfrwt beam="1">  1       -1 0.13316007E+00 0.24071122E+03</pdfrwt>
<totfact> 0.20207698E+02</totfact>
</mgrwt>
</event>
<event>
 7    1  0.5400401E-006  0.2243285E+03  0.7546771E-02  0.1133974E+00
          2   -1    0    0  501    0  0.00000000000E+00  0.00000000000E+00  0.91002650098E+03  0.91002650098E+03  0.00000000000E+00 0. -1.
         -2   -1    0    0    0  501 -0.00000000000E+00 -0.00000000000E+00 -0.55109200910E+02  0.55109200910E+02  0.00000000000E+00 0.  1.
         23    2    1    2    0    0 -0.18267599509E+03  0.36434410174E+02  0.31362348766E+03  0.38559429159E+03  0.12500112107E+03 0.  0.
          5    1    3    3  502    0 -0.96525404779E+02  0.36423047882E+02  0.26966061613E+03  0.28876067959E+03  0.47000000000E+01 0.  1.
         -5    1    3    3    0  502 -0.86150590314E+02  0.11362292459E-01  0.43962871532E+02  0.96833612004E+02  0.47000000000E+01 0.  1.
        -11    1    1    2    0    0  0.12871139995E+03 -0.12099686419E+02  0.24116665597E+03  0.27363183814E+03  0.00000000000E+00 0.  1.
         11    1    1    2    0    0  0.53964595140E+02 -0.24334723755E+02  0.30012715644E+03  0.30590957216E+03  0.00000000000E+00 0. -1.
<mgrwt>
<rscale>  0 0.21987788E+03</rscale>
<asrwt>0</asrwt>
<pdfrwt beam="1">  1        2 0.14000407E+00 0.22432848E+03</pdfrwt>
<pdfrwt beam="2">  1       -2 0.84783393E-02 0.22432848E+03</pdfrwt>
<totfact> 0.25711961E+03</totfact>
</mgrwt>
</event>
<event>
 7    1  0.5400401E-006  0.1269572E+03  0.7546771E-02  0.1247120E+00
          1   -1    0    0  501    0  0.00000000000E+00  0.00000000000E+00  0.53201735880E+03  0.53201735880E+03  0.00000000000E+00 0.  1.
         -1   -1    0    0    0  501 -0.00000000000E+00 -0.00000000000E+00 -0.22930690939E+02  0.22930690939E+02  0.00000000000E+00 0. -1.
         23    2    1    2    0    0  0.21351970101E+02  0.51903438952E+01  0.27466230255E+03  0.30258472752E+03  0.12504115559E+03 0.  0.
          5    1    3    3  502    0  0.52486762456E+02 -0.39066413097E+02  0.99362248943E+02  0.11906297233E+03  0.47000000000E+01 0.  1.
         -5    1    3    3    0  502 -0.31134792355E+02  0.44256756992E+02  0.17530005360E+03  0.18352175519E+03  0.47000000000E+01 0.  1.
        -11    1    1    2    0    0  0.16817434481E+02  0.19524147241E+02  0.18547810999E+02  0.31749641271E+02  0.00000000000E+00 0. -1.
         11    1    1    2    0    0 -0.38169404582E+02 -0.24714491136E+02  0.21587655432E+03  0.22061368095E+03  0.00000000000E+00 0.  1.
<mgrwt>
<rscale>  0 0.11759400E+03</rscale>
<asrwt>0</asrwt>
<pdfrwt beam="1">  1        1 0.81848815E-01 0.12695722E+03</pdfrwt>
<pdfrwt beam="2">  1       -1 0.35277990E-02 0.12695722E+03</pdfrwt>
<totfact> 0.11649584E+04</totfact>
</mgrwt>
</event>
<event>
 7    1  0.5400401E-006  0.2649601E+03  0.7546771E-02  0.1106464E+00
          2   -1    0    0  501    0  0.00000000000E+00  0.00000000000E+00  0.46581948289E+03  0.46581948289E+03  0.00000000000E+00 0. -1.
         -2   -1    0    0    0  501 -0.00000000000E+00 -0.00000000000E+00 -0.27189674191E+03  0.27189674191E+03  0.00000000000E+00 0.  1.
         23    2    1    2    0    0 -0.88266814085E+02  0.21630442390E+03 -0.15615197081E+03  0.30755045014E+03  0.12500082852E+03 0.  0.
          5    1    3    3  502    0 -0.11024113524E+03  0.21584344298E+03 -0.14486593936E+03  0.28239994717E+03  0.47000000000E+01 0. -1.
         -5    1    3    3    0  502  0.21974321159E+02  0.46098091856E+00 -0.11286031444E+02  0.25150502968E+02  0.47000000000E+01 0. -1.
        -11    1    1    2    0    0  0.37166817333E+02 -0.11578623746E+02  0.51603208752E+02  0.64639987562E+02  0.00000000000E+00 0.  1.
         11    1    1    2    0    0  0.51099996752E+02 -0.20472580015E+03  0.29847150303E+03  0.36552578710E+03  0.00000000000E+00 0. -1.
<mgrwt>
<rscale>  0 0.26113308E+03</rscale>
<asrwt>0</asrwt>
<pdfrwt beam="1">  1        2 0.71664536E-01 0.26496008E+03</pdfrwt>
<pdfrwt beam="2">  1       -2 0.41830268E-01 0.26496008E+03</pdfrwt>
<totfact> 0.37090032E+02</totfact>
</mgrwt>
</event>
<event>
 7    1  0.5400401E-006  0.1432014E+03  0.7546771E-02  0.1220805E+00
          1   -1    0    0  501    0  0.00000000000E+00  0.00000000000E+00  0.59813317665E+03  0.59813317665E+03  0.00000000000E+00 0. -1.
         -1   -1    0    0    0  501 -0.00000000000E+00 -0.00000000000E+00 -0.29664257024E+02  0.29664257024E+02  0.00000000000E+00 0.  1.
         23    2    1    2    0    0  0.44101538803E+02 -0.54176925032E+02  0.22585736468E+03  0.26742884252E+03  0.12500620665E+03 0.  0.
          5    1    3    3  502    0  0.70504744847E+01 -0.90365661052E+02  0.13337937209E+03  0.16133136330E+03  0.47000000000E+01 0.  1.
         -5    1    3    3    0  502  0.37051064319E+02  0.36188736020E+02  0.92477992598E+02  0.10609747922E+03  0.47000000000E+01 0.  1.
        -11    1    1    2    0    0  0.22999793683E+02  0.10231711152E+02  0.39627371973E+02  0.46946853271E+02  0.00000000000E+00 0.  1.
         11    1    1    2    0    0 -0.67101332486E+02  0.43945213880E+02  0.30298418297E+03  0.31342173788E+03  0.00000000000E+00 0. -1.
<mgrwt>
<rscale>  0 0.13458591E+03</rscale>
<asrwt>0</asrwt>
<pdfrwt beam="1">  1        1 0.92020480E-01 0.14320138E+03</pdfrwt>
<pdfrwt beam="2">  1       -1 0.45637323E-02 0.14320138E+03</pdfrwt>
<totfact> 0.68774556E+03</totfact>
</mgrwt>
</event>
<event>
 6    1  0.5400401E-006  0.3085943E+03  0.7546771E-02  0.1093708E+00
          2   -1    0    0  501    0  0.00000000000E+00  0.00000000000E+00  0.86902819951E+03  0.86902819951E+03  0.00000000000E+00 0. -1.
         -2   -1    0    0    0  501 -0.00000000000E+00 -0.00000000000E+00 -0.83981257981E+02  0.83981257981E+02  0.00000000000E+00 0.  1.
          5    1    1    2  502    0 -0.14679286670E+03 -0.17728382026E+03  0.36676340260E+03  0.43303023234E+03  0.47000000000E+01 0. -1.
         -5    1    1    2    0  502  0.27141175849E+01  0.39459837867E+02 -0.75448975736E+01  0.40539619117E+02  0.47000000000E+01 0.  1.
        -11    1    1    2    0    0  0.17881031243E+00  0.53242767442E+02  0.11047181883E+03  0.12263297686E+03  0.00000000000E+00 0.  1.
         11    1    1    2    0    0  0.14389993880E+03  0.84581214947E+02  0.31535661768E+03  0.35680662917E+03  0.00000000000E+00 0. -1.
<mgrwt>
<rscale>  0 0.28365800E+03</rscale>
<asrwt>0</asrwt>
<pdfrwt beam="1">  1        2 0.13369664E+00 0.30859435E+03</pdfrwt>
<pdfrwt beam="2">  1       -2 0.12920194E-01 0.30859435E+03</pdfrwt>
<totfact> 0.13956323E+03</totfact>
</mgrwt>
</event>
<event>
 7    1  0.5400401E-006  0.2370118E+03  0.7546771E-02  0.1124758E+00
         -1   -1    0    0    0  501 -0.00000000000E+00  0.00000000000E+00  0.13664921613E+03  0.13664921613E+03  0.00000000000E+00 0.  1.
          1   -1    0    0  501    0  0.00000000000E+00 -0.00000000000E+00 -0.45447993555E+03  0.45447993555E+03  0.00000000000E+00 0. -1.
         23    2    1    2    0    0 -0.20103389783E+03  0.11705828392E+02 -0.46233660373E+02  0.24147909788E+03  0.12499179520E+03 0.  0.
          5    1    3    3  502    0 -0.17552462339E+03  0.56123737519E+02 -0.25815921602E+02  0.18613790355E+03  0.47000000000E+01 0. -1.
         -5    1    3    3    0  502 -0.25509274437E+02 -0.44417909128E+02 -0.20417738771E+02  0.55341194332E+02  0.47000000000E+01 0. -1.
        -11    1    1    2    0    0  0.13698153021E+03  0.33255669111E+02 -0.15844577295E+03  0.21207296412E+03  0.00000000000E+00 0.  1.
         11    1    1    2    0    0  0.64052367618E+02 -0.44961497502E+02 -0.11315128610E+03  0.13757708967E+03  0.00000000000E+00 0. -1.
<mgrwt>
<rscale>  0 0.23269350E+03</rscale>
<asrwt>0</asrwt>
<pdfrwt beam="2">  1        1 0.69919989E-01 0.23701182E+03</pdfrwt>
<pdfrwt beam="1">  1       -1 0.21022957E-01 0.23701182E+03</pdfrwt>
<totfact> 0.95387556E+02</totfact>
</mgrwt>
</event>
<event>
 7    1  0.5400401E-006  0.1509764E+03  0.7546771E-02  0.1208167E+00
         -2   -1    0    0    0  501 -0.00000000000E+00  0.00000000000E+00  0.10144587603E+03  0.10144587603E+03  0.00000000000E+00 0.  1.
          2   -1    0    0  501    0  0.00000000000E+00 -0.00000000000E+00 -0.21576493157E+03  0.21576493157E+03  0.00000000000E+00 0. -1.
         23    2    1    2    0    0 -0.47747115701E+02  0.69925260905E+02 -0.44025363457E+01  0.15104056149E+03  0.12499815886E+03 0.  0.
          5    1    3    3  502    0 -0.47689559003E+02  0.49741286569E+02 -0.60135151513E+02  0.91579561448E+02  0.47000000000E+01 0. -1.
         -5    1    3    3    0  502 -0.57556698099E-01  0.20183974337E+02  0.55732615168E+02  0.59461000044E+02  0.47000000000E+01 0. -1.
        -11    1    1    2    0    0 -0.15991435944E+02 -0.53123850747E+01  0.69262665443E+01  0.18218688948E+02  0.00000000000E+00 0.  1.
         11    1    1    2    0    0  0.63738551645E+02 -0.64612875831E+02 -0.11684278573E+03  0.14795155716E+03  0.00000000000E+00 0. -1.
<mgrwt>
<rscale>  0 0.14390682E+03</rscale>
<asrwt>0</asrwt>
<pdfrwt beam="2">  1        2 0.33194604E-01 0.15097639E+03</pdfrwt>
<pdfrwt beam="1">  1       -2 0.15607058E-01 0.15097639E+03</pdfrwt>
<totfact> 0.48386029E+03</totfact>
</mgrwt>
</event>
<event>
 7    1  0.5400401E-006  0.1306064E+03  0.7546771E-02  0.1242630E+00
         -3   -1    0    0    0  501 -0.00000000000E+00  0.00000000000E+00  0.16777687497E+03  0.16777687497E+03  0.00000000000E+00 0.  1.
          3   -1    0    0  501    0  0.00000000000E+00 -0.00000000000E+00 -0.75550362446E+02  0.75550362446E+02  0.00000000000E+00 0. -1.
         23    2    1    2    0    0 -0.16763985959E+02 -0.33939634390E+02  0.62418640099E+02  0.14475541223E+03  0.12500045092E+03 0.  0.
          5    1    3    3  502    0  0.51230080200E+01 -0.74050186398E+02  0.99788119811E+01  0.75042268125E+02  0.47000000000E+01 0.  1.
         -5    1    3    3    0  502 -0.21886993979E+02  0.40110552007E+02  0.52439828118E+02  0.69713144104E+02  0.47000000000E+01 0.  1.
        -11    1    1    2    0    0 -0.18541947878E+02 -0.18576895317E+02  0.23049028293E+02  0.34930825584E+02  0.00000000000E+00 0. -1.
         11    1    1    2    0    0  0.35305933838E+02  0.52516529707E+02  0.67588441318E+01  0.63640999604E+02  0.00000000000E+00 0.  1.
<mgrwt>
<rscale>  0 0.12028337E+03</rscale>
<asrwt>0</asrwt>
<pdfrwt beam="2">  1        3 0.11623133E-01 0.13060644E+03</pdfrwt>
<pdfrwt beam="1">  1       -3 0.25811827E-01 0.13060644E+03</pdfrwt>
<totfact> 0.18517241E+03</totfact>
</mgrwt>
</event>
<event>
 7    1  0.5400401E-006  0.1219962E+03  0.7546771E-02  0.1251859E+00
         -1   -1    0    0    0  501 -0.00000000000E+00  0.00000000000E+00  0.89196067641E+02  0.89196067641E+02  0.00000000000E+00 0.  1.
          1   -1    0    0  501    0  0.00000000000E+00 -0.00000000000E+00 -0.13974669074E+03  0.13974669074E+03  0.00000000000E+00 0. -1.
         23    2    1    2    0    0 -0.28004815426E+02 -0.23465674058E+02 -0.30905982615E+01  0.12203533148E+03  0.11639657549E+03 0.  0.
          5    1    3    3  502    0  0.46421427870E+01 -0.60182313341E+02  0.24705429657E+02  0.65390431893E+02  0.47000000000E+01 0. -1.
         -5    1    3    3    0  502 -0.32646958213E+02  0.36716639283E+02 -0.27796027918E+02  0.56644899584E+02  0.47000000000E+01 0.  1.
        -11    1    1    2    0    0  0.25839330400E+02  0.56793055569E+02 -0.31300623345E+02  0.69805810490E+02  0.00000000000E+00 0.  1.
         11    1    1    2    0    0  0.21654850265E+01 -0.33327381511E+02 -0.16159401487E+02  0.37101616409E+02  0.00000000000E+00 0. -1.
<mgrwt>
<rscale>  0 0.11484069E+03</rscale>
<asrwt>0</asrwt>
<pdfrwt beam="2">  1        1 0.21499491E-01 0.12199619E+03</pdfrwt>
<pdfrwt beam="1">  1       -1 0.13722472E-01 0.12199619E+03</pdfrwt>
<totfact> 0.80717643E+03</totfact>
</mgrwt>
</event>
<event>
 6    1  0.5400401E-006  0.3952887E+03  0.7546771E-02  0.1096707E+00
         -2   -1    0    0    0  501 -0.00000000000E+00  0.00000000000E+00  0.25756308938E+02  0.25756308938E+02  0.00000000000E+00 0.  1.
          2   -1    0    0  501    0  0.00000000000E+00 -0.00000000000E+00 -0.23616351001E+04  0.23616351001E+04  0.00000000000E+00 0. -1.
          5    1    1    2  502    0  0.94234714909E+02 -0.30542571543E+02 -0.15890003467E+04  0.15920920897E+04  0.47000000000E+01 0. -1.
         -5    1    1    2    0  502 -0.13801766380E+03  0.21277740025E+01 -0.22129960087E+03  0.26086204455E+03  0.47000000000E+01 0.  1.
        -11    1    1    2    0    0  0.33512571530E+02  0.57206560407E+02 -0.35309867927E+03  0.35926920312E+03  0.00000000000E+00 0.  1.
         11    1    1    2    0    0  0.10270377358E+02 -0.28791762866E+02 -0.17248016436E+03  0.17516807174E+03  0.00000000000E+00 0. -1.
<mgrwt>
<rscale>  0 0.27814383E+03</rscale>
<asrwt>0</asrwt>
<pdfrwt beam="2">  1        2 0.36332848E+00 0.39528866E+03</pdfrwt>
<pdfrwt beam="1">  1       -2 0.39625090E-02 0.39528866E+03</pdfrwt>
<totfact> 0.13119901E+03</totfact>
</mgrwt>
</event>
<event>
 7    1  0.5400401E-006  0.1354410E+03  0.7546771E-02  0.1231723E+00
          1   -1    0    0  501    0  0.00000000000E+00  0.00000000000E+00  0.49110108021E+02  0.49110108021E+02  0.00000000000E+00 0. -1.
         -1   -1    0    0    0  501 -0.00000000000E+00 -0.00000000000E+00 -0.30295618199E+03  0.30295618199E+03  0.00000000000E+00 0.  1.
         23    2    1    2    0    0  0.45189046365E+02  0.26029056790E+02 -0.17087926220E+03  0.21804585032E+03  0.12499883554E+03 0.  0.
          5    1    3    3  502    0  0.22014344820E+02  0.54272902475E+02 -0.17141592307E+03  0.18120620299E+03  0.47000000000E+01 0. -1.
         -5    1    3    3    0  502  0.23174701544E+02 -0.28243845685E+02  0.53666087139E+00  0.36839647334E+02  0.47000000000E+01 0. -1.
        -11    1    1    2    0    0  0.12820535271E+01  0.30162869266E+02 -0.12689421133E+02  0.32748492367E+02  0.00000000000E+00 0. -1.
         11    1    1    2    0    0 -0.46471099892E+02 -0.56191926056E+02 -0.70277390642E+02  0.10127194732E+03  0.00000000000E+00 0.  1.
<mgrwt>
<rscale>  0 0.12716578E+03</rscale>
<asrwt>0</asrwt>
<pdfrwt beam="1">  1        1 0.75554012E-02 0.13544102E+03</pdfrwt>
<pdfrwt beam="2">  1       -1 0.46608643E-01 0.13544102E+03</pdfrwt>
<totfact> 0.42113095E+03</totfact>
</mgrwt>
</event>
<event>
 7    1  0.5400401E-006  0.3628279E+03  0.7546771E-02  0.1058478E+00
         -3   -1    0    0    0  501 -0.00000000000E+00  0.00000000000E+00  0.45612883348E+03  0.45612883348E+03  0.00000000000E+00 0.  1.
          3   -1    0    0  501    0  0.00000000000E+00 -0.00000000000E+00 -0.42383501509E+03  0.42383501509E+03  0.00000000000E+00 0. -1.
         23    2    1    2    0    0  0.31774121787E+03 -0.12271632348E+03  0.27205263056E+03  0.45349391751E+03  0.12500128737E+03 0.  0.
          5    1    3    3  502    0  0.93145244296E+02 -0.10020847155E+03  0.10933838035E+03  0.17519916017E+03  0.47000000000E+01 0. -1.
         -5    1    3    3    0  502  0.22459597358E+03 -0.22507851925E+02  0.16271425020E+03  0.27829475734E+03  0.47000000000E+01 0. -1.
        -11    1    1    2    0    0 -0.66740338764E+02 -0.59681089808E+01 -0.71685550127E+02  0.98125986569E+02  0.00000000000E+00 0. -1.
         11    1    1    2    0    0 -0.25100087911E+03  0.12868443246E+03 -0.16807326205E+03  0.32834394449E+03  0.00000000000E+00 0.  1.
<mgrwt>
<rscale>  0 0.36026719E+03</rscale>
<asrwt>0</asrwt>
<pdfrwt beam="2">  1        3 0.65205387E-01 0.36282792E+03</pdfrwt>
<pdfrwt beam="1">  1       -3 0.70173666E-01 0.36282792E+03</pdfrwt>
<totfact> 0.11433397E+01</totfact>
</mgrwt>
</event>
<event>
 7    1  0.5400401E-006  0.1460977E+03  0.7546771E-02  0.1216120E+00
         -3   -1    0    0    0  501 -0.00000000000E+00  0.00000000000E+00  0.57116329815E+02  0.57116329815E+02  0.00000000000E+00 0.  1.
          3   -1    0    0  501    0  0.00000000000E+00 -0.00000000000E+00 -0.30392119425E+03  0.30392119425E+03  0.00000000000E+00 0. -1.
         23    2    1    2    0    0  0.74916746777E+02  0.10348919326E+02 -0.15509545485E+03  0.21307073632E+03  0.12499967792E+03 0.  0.
          5    1    3    3  502    0  0.62250833111E+02  0.61719987334E+02 -0.12264234053E+03  0.15082359480E+03  0.47000000000E+01 0. -1.
         -5    1    3    3    0  502  0.12665913666E+02 -0.51371068008E+02 -0.32453114327E+02  0.62247141515E+02  0.47000000000E+01 0. -1.
        -11    1    1    2    0    0  0.15816907338E+02 -0.15442854753E+02 -0.33192885403E+02  0.39880119885E+02  0.00000000000E+00 0. -1.
         11    1    1    2    0    0 -0.90733654115E+02  0.50939354271E+01 -0.58516524174E+02  0.10808666786E+03  0.00000000000E+00 0.  1.
<mgrwt>
<rscale>  0 0.13794567E+03</rscale>
<asrwt>0</asrwt>
<pdfrwt beam="2">  1        3 0.46757106E-01 0.14609770E+03</pdfrwt>
<pdfrwt beam="1">  1       -3 0.87871277E-02 0.14609770E+03</pdfrwt>
<totfact> 0.97505466E+02</totfact>
</mgrwt>
</event>
<event>
 7    1  0.5400401E-006  0.1852284E+03  0.7546771E-02  0.1168076E+00
          2   -1    0    0  501    0  0.00000000000E+00  0.00000000000E+00  0.52968907569E+03  0.52968907569E+03  0.00000000000E+00 0. -1.
         -2   -1    0    0    0  501 -0.00000000000E+00 -0.00000000000E+00 -0.77526446692E+02  0.77526446692E+02  0.00000000000E+00 0.  1.
         23    2    1    2    0    0  0.75271122675E+02  0.11409622777E+03  0.82550769156E+02  0.20279101650E+03  0.12500350309E+03 0.  0.
          5    1    3    3  502    0  0.60747659713E+01 -0.23104086038E+02  0.33516654440E+02  0.41426533745E+02  0.47000000000E+01 0. -1.
         -5    1    3    3    0  502  0.69196356704E+02  0.13720031381E+03  0.49034114716E+02  0.16136448276E+03  0.47000000000E+01 0. -1.
        -11    1    1    2    0    0 -0.93984382060E+02 -0.11000216102E+03  0.31781540420E+03  0.34919932796E+03  0.00000000000E+00 0.  1.
         11    1    1    2    0    0  0.18713259384E+02 -0.40940667464E+01  0.51796455641E+02  0.55225177920E+02  0.00000000000E+00 0. -1.
<mgrwt>
<rscale>  0 0.17971859E+03</rscale>
<asrwt>0</asrwt>
<pdfrwt beam="1">  1        2 0.81490625E-01 0.18522842E+03</pdfrwt>
<pdfrwt beam="2">  1       -2 0.11927146E-01 0.18522842E+03</pdfrwt>
<totfact> 0.28699330E+03</totfact>
</mgrwt>
</event>
<event>
 6    1  0.5400401E-006  0.2677471E+03  0.7546771E-02  0.1140737E+00
          4   -1    0    0  501    0  0.00000000000E+00  0.00000000000E+00  0.54147405522E+02  0.54147405522E+02  0.00000000000E+00 0. -1.
         -4   -1    0    0    0  501 -0.00000000000E+00 -0.00000000000E+00 -0.89330522750E+03  0.89330522750E+03  0.00000000000E+00 0.  1.
          5    1    1    2  502    0  0.61016567429E+02 -0.62419708790E+02 -0.67404604355E+02  0.11038438402E+03  0.47000000000E+01 0. -1.
         -5    1    1    2    0  502 -0.18838544506E+02  0.38302692567E+02 -0.72034784104E+03  0.72162669650E+03  0.47000000000E+01 0.  1.
        -11    1    1    2    0    0 -0.49990916632E+02 -0.21380588212E+02 -0.41059223229E+02  0.68132819626E+02  0.00000000000E+00 0.  1.
         11    1    1    2    0    0  0.78128937095E+01  0.45497604435E+02 -0.10346153359E+02  0.47308732881E+02  0.00000000000E+00 0. -1.
<mgrwt>
<rscale>  0 0.21105059E+03</rscale>
<asrwt>0</asrwt>
<pdfrwt beam="1">  1        4 0.83303705E-02 0.26774712E+03</pdfrwt>
<pdfrwt beam="2">  1       -4 0.13743157E+00 0.26774712E+03</pdfrwt>
<totfact> 0.75274327E+01</totfact>
</mgrwt>
</event>
<event>
 7    1  0.5400401E-006  0.1366340E+03  0.7546771E-02  0.1230888E+00
          4   -1    0    0  501    0  0.00000000000E+00  0.00000000000E+00  0.15942204861E+03  0.15942204861E+03  0.00000000000E+00 0. -1.
         -4   -1    0    0    0  501 -0.00000000000E+00 -0.00000000000E+00 -0.12833346785E+03  0.12833346785E+03  0.00000000000E+00 0.  1.
         23    2    1    2    0    0  0.39907633826E+02 -0.38084466131E+02 -0.60050128672E+02  0.14924767799E+03  0.12500322249E+03 0.  0.
          5    1    3    3  502    0  0.44525630104E+02  0.19172045643E+02 -0.75255360951E+02  0.89641276330E+02  0.47000000000E+01 0. -1.
         -5    1    3    3    0  502 -0.46179962779E+01 -0.57256511774E+02  0.15205232279E+02  0.59606401659E+02  0.47000000000E+01 0. -1.
        -11    1    1    2    0    0  0.89753674400E+01  0.14296161485E+02  0.81582412665E+02  0.83310428580E+02  0.00000000000E+00 0. -1.
         11    1    1    2    0    0 -0.48883001266E+02  0.23788304645E+02  0.95562967607E+01  0.55197409889E+02  0.00000000000E+00 0.  1.
<mgrwt>
<rscale>  0 0.12771400E+03</rscale>
<asrwt>0</asrwt>
<pdfrwt beam="1">  1        4 0.24526469E-01 0.13663401E+03</pdfrwt>
<pdfrwt beam="2">  1       -4 0.19743611E-01 0.13663401E+03</pdfrwt>
<totfact> 0.59474693E+02</totfact>
</mgrwt>
</event>
<event>
 7    1  0.5400401E-006  0.1331037E+03  0.7546771E-02  0.1235485E+00
         -2   -1    0    0    0  501 -0.00000000000E+00  0.00000000000E+00  0.34992608429E+02  0.34992608429E+02  0.00000000000E+00 0.  1.
          2   -1    0    0  501    0  0.00000000000E+00 -0.00000000000E+00 -0.43430788418E+03  0.43430788418E+03  0.00000000000E+00 0. -1.
         23    2    1    2    0    0 -0.34597238730E+02  0.29933705731E+02 -0.15507683900E+03  0.20436588434E+03  0.12499437196E+03 0.  0.
          5    1    3    3  502    0 -0.45299182180E+02  0.23103827791E+02 -0.24356885534E+01  0.51125584040E+02  0.47000000000E+01 0.  1.
         -5    1    3    3    0  502  0.10701943450E+02  0.68298779403E+01 -0.15264115044E+03  0.15324030030E+03  0.47000000000E+01 0.  1.
        -11    1    1    2    0    0 -0.16314910208E+02  0.18113545558E+02 -0.25546182186E+02  0.35311248237E+02  0.00000000000E+00 0.  1.
         11    1    1    2    0    0  0.50912148938E+02 -0.48047251289E+02 -0.21869225457E+03  0.22962336004E+03  0.00000000000E+00 0. -1.
<mgrwt>
<rscale>  0 0.12473461E+03</rscale>
<asrwt>0</asrwt>
<pdfrwt beam="2">  1        2 0.66816593E-01 0.13310368E+03</pdfrwt>
<pdfrwt beam="1">  1       -2 0.53834786E-02 0.13310368E+03</pdfrwt>
<totfact> 0.12055549E+04</totfact>
</mgrwt>
</event>
<event>
 7    1  0.5400401E-006  0.2108637E+03  0.7546771E-02  0.1144649E+00
          2   -1    0    0  501    0  0.00000000000E+00  0.00000000000E+00  0.96665070767E+03  0.96665070767E+03  0.00000000000E+00 0. -1.
         -2   -1    0    0    0  501 -0.00000000000E+00 -0.00000000000E+00 -0.42609990212E+02  0.42609990212E+02  0.00000000000E+00 0.  1.
         23    2    1    2    0    0  0.15208355695E+03  0.75565093037E+02  0.53728347105E+03  0.57718022284E+03  0.12499595911E+03 0.  0.
          5    1    3    3  502    0  0.72735021771E+02  0.10278326935E+03  0.29667370778E+03  0.32232307200E+03  0.47000000000E+01 0.  1.
         -5    1    3    3    0  502  0.79348535183E+02 -0.27218176316E+02  0.24060976326E+03  0.25485715084E+03  0.47000000000E+01 0.  1.
        -11    1    1    2    0    0 -0.17415972251E+02  0.20090007473E+02  0.40602090394E+02  0.48533022099E+02  0.00000000000E+00 0. -1.
         11    1    1    2    0    0 -0.13466758470E+03 -0.95655100510E+02  0.34615515602E+03  0.38354745295E+03  0.00000000000E+00 0.  1.
<mgrwt>
<rscale>  0 0.20615370E+03</rscale>
<asrwt>0</asrwt>
<pdfrwt beam="1">  1        2 0.14871548E+00 0.21086366E+03</pdfrwt>
<pdfrwt beam="2">  1       -2 0.65553839E-02 0.21086366E+03</pdfrwt>
<totfact> 0.35289181E+03</totfact>
</mgrwt>
</event>
<event>
 7    1  0.5400401E-006  0.2078971E+03  0.7546771E-02  0.1147368E+00
          3   -1    0    0  501    0  0.00000000000E+00  0.00000000000E+00  0.23496112703E+02  0.23496112703E+02  0.00000000000E+00 0. -1.
         -3   -1    0    0    0  501 -0.00000000000E+00 -0.00000000000E+00 -0.25098366107E+04  0.25098366107E+04  0.00000000000E+00 0.  1.
         23    2    1    2    0    0  0.12352771729E+03 -0.11106503826E+03 -0.20156735153E+04  0.20263664299E+04  0.12500659213E+03 0.  0.
          5    1    3    3  502    0 -0.20671780410E+02 -0.13338210596E+02 -0.11365749604E+03  0.11638447823E+03  0.47000000000E+01 0. -1.
         -5    1    3    3    0  502  0.14419949770E+03 -0.97726827661E+02 -0.19020160193E+04  0.19099819516E+04  0.47000000000E+01 0. -1.
        -11    1    1    2    0    0  0.18986526753E+01  0.99084257996E+01 -0.66580843811E+00  0.10110642150E+02  0.00000000000E+00 0. -1.
         11    1    1    2    0    0 -0.12542636997E+03  0.10115661246E+03 -0.47000117427E+03  0.49685565141E+03  0.00000000000E+00 0.  1.
<mgrwt>
<rscale>  0 0.20283624E+03</rscale>
<asrwt>0</asrwt>
<pdfrwt beam="1">  1        3 0.36147889E-02 0.20789706E+03</pdfrwt>
<pdfrwt beam="2">  1       -3 0.38612846E+00 0.20789706E+03</pdfrwt>
<totfact> 0.14498259E+01</totfact>
</mgrwt>
</event>
<event>
 7    1  0.5400401E-006  0.1442856E+03  0.7546771E-02  0.1218525E+00
         -1   -1    0    0    0  501 -0.00000000000E+00  0.00000000000E+00  0.67043028101E+02  0.67043028101E+02  0.00000000000E+00 0.  1.
          1   -1    0    0  501    0  0.00000000000E+00 -0.00000000000E+00 -0.25378806177E+03  0.25378806177E+03  0.00000000000E+00 0. -1.
         23    2    1    2    0    0  0.62893836364E+02 -0.35221045924E+02 -0.84182863971E+02  0.16704817249E+03  0.12498872196E+03 0.  0.
          5    1    3    3  502    0  0.21286008868E+02 -0.71736993504E+02 -0.11953130800E+02  0.75922709030E+02  0.47000000000E+01 0.  1.
         -5    1    3    3    0  502  0.41607827496E+02  0.36515947580E+02 -0.72229733171E+02  0.91125463458E+02  0.47000000000E+01 0.  1.
        -11    1    1    2    0    0 -0.17337636427E+02 -0.30166903840E+02 -0.28250561560E+02  0.44818857110E+02  0.00000000000E+00 0.  1.
         11    1    1    2    0    0 -0.45556199936E+02  0.65387949764E+02 -0.74311608138E+02  0.10896406027E+03  0.00000000000E+00 0. -1.
<mgrwt>
<rscale>  0 0.13620753E+03</rscale>
<asrwt>0</asrwt>
<pdfrwt beam="2">  1        1 0.39044317E-01 0.14428561E+03</pdfrwt>
<pdfrwt beam="1">  1       -1 0.10314312E-01 0.14428561E+03</pdfrwt>
<totfact> 0.60268742E+03</totfact>
</mgrwt>
</event>
<event>
 7    1  0.5400401E-006  0.1617664E+03  0.7546771E-02  0.1196533E+00
         -3   -1    0    0    0  501 -0.00000000000E+00  0.00000000000E+00  0.28815668276E+03  0.28815668276E+03  0.00000000000E+00 0.  1.
          3   -1    0    0  501    0  0.00000000000E+00 -0.00000000000E+00 -0.10091839356E+03  0.10091839356E+03  0.00000000000E+00 0. -1.
         23    2    1    2    0    0  0.98126327520E+01  0.10221485333E+03  0.20104103158E+03  0.25804239080E+03  0.12499686024E+03 0.  0.
          5    1    3    3  502    0 -0.34243908651E+02  0.23756460662E+01  0.11163775985E+03  0.11689041192E+03  0.47000000000E+01 0.  1.
         -5    1    3    3    0  502  0.44056541403E+02  0.99839207260E+02  0.89403271725E+02  0.14115197888E+03  0.47000000000E+01 0.  1.
        -11    1    1    2    0    0  0.11240638374E+02 -0.14696309880E+02 -0.34064771754E+02  0.38765218300E+02  0.00000000000E+00 0. -1.
         11    1    1    2    0    0 -0.21053271126E+02 -0.87518543446E+02  0.20262029384E+02  0.92267467217E+02  0.00000000000E+00 0.  1.
<mgrwt>
<rscale>  0 0.15325176E+03</rscale>
<asrwt>0</asrwt>
<pdfrwt beam="2">  1        3 0.15525907E-01 0.16176643E+03</pdfrwt>
<pdfrwt beam="1">  1       -3 0.44331797E-01 0.16176643E+03</pdfrwt>
<totfact> 0.42240318E+02</totfact>
</mgrwt>
</event>
<event>
 7    1  0.5400401E-006  0.1364993E+03  0.7546771E-02  0.1229930E+00
         -1   -1    0    0    0  501 -0.00000000000E+00  0.00000000000E+00  0.52530226117E+03  0.52530226117E+03  0.00000000000E+00 0.  1.
          1   -1    0    0  501    0  0.00000000000E+00 -0.00000000000E+00 -0.35808723476E+02  0.35808723476E+02  0.00000000000E+00 0. -1.
         23    2    1    2    0    0  0.28382379567E+02 -0.46930690677E+02  0.39732417441E+03  0.42011731563E+03  0.12499604043E+03 0.  0.
          5    1    3    3  502    0  0.13670262026E+02  0.42936537080E+02  0.13427671324E+03  0.14171361261E+03  0.47000000000E+01 0.  1.
         -5    1    3    3    0  502  0.14712117541E+02 -0.89867227758E+02  0.26304746117E+03  0.27840370302E+03  0.47000000000E+01 0.  1.
        -11    1    1    2    0    0 -0.39046727026E+02 -0.70381171013E+01  0.72359564493E+02  0.82523260705E+02  0.00000000000E+00 0.  1.
         11    1    1    2    0    0  0.10664347459E+02  0.53968807779E+02  0.19809798791E+02  0.58470408310E+02  0.00000000000E+00 0. -1.
<mgrwt>
<rscale>  0 0.12834673E+03</rscale>
<asrwt>0</asrwt>
<pdfrwt beam="2">  1        1 0.55090348E-02 0.13649930E+03</pdfrwt>
<pdfrwt beam="1">  1       -1 0.80815727E-01 0.13649930E+03</pdfrwt>
<totfact> 0.22519360E+03</totfact>
</mgrwt>
</event>
<event>
 7    1  0.5400401E-006  0.1488910E+03  0.7546771E-02  0.1209768E+00
          2   -1    0    0  501    0  0.00000000000E+00  0.00000000000E+00  0.60063752939E+03  0.60063752939E+03  0.00000000000E+00 0. -1.
         -2   -1    0    0    0  501 -0.00000000000E+00 -0.00000000000E+00 -0.33690596910E+02  0.33690596910E+02  0.00000000000E+00 0.  1.
         23    2    1    2    0    0 -0.61387892033E+02  0.62405140479E+02  0.22260135694E+03  0.26780570283E+03  0.12043942671E+03 0.  0.
          5    1    3    3  502    0 -0.85383619504E+02  0.47257746812E+02  0.21771175073E+03  0.23862974148E+03  0.47000000000E+01 0. -1.
         -5    1    3    3    0  502  0.23995727471E+02  0.15147393667E+02  0.48896062183E+01  0.29175961350E+02  0.47000000000E+01 0.  1.
        -11    1    1    2    0    0  0.59591089551E+02 -0.14706132825E+02  0.98295990445E+02  0.11588559028E+03  0.00000000000E+00 0.  1.
         11    1    1    2    0    0  0.17968024825E+01 -0.47699007654E+02  0.24604958509E+03  0.25063683319E+03  0.00000000000E+00 0. -1.
<mgrwt>
<rscale>  0 0.14267978E+03</rscale>
<asrwt>0</asrwt>
<pdfrwt beam="1">  1        2 0.92405766E-01 0.14889100E+03</pdfrwt>
<pdfrwt beam="2">  1       -2 0.51831692E-02 0.14889100E+03</pdfrwt>
<totfact> 0.89882433E+03</totfact>
</mgrwt>
</event>
<event>
 7    1  0.5400401E-006  0.1298785E+03  0.7546771E-02  0.1245543E+00
          1   -1    0    0  501    0  0.00000000000E+00  0.00000000000E+00  0.18679428348E+03  0.18679428348E+03  0.00000000000E+00 0. -1.
         -1   -1    0    0    0  501 -0.00000000000E+00 -0.00000000000E+00 -0.71458998975E+02  0.71458998975E+02  0.00000000000E+00 0.  1.
         23    2    1    2    0    0 -0.33535137140E+02 -0.10764219010E+02  0.28176204682E+02  0.13289966962E+03  0.12501179881E+03 0.  0.
          5    1    3    3  502    0 -0.20342100941E+01 -0.45176250335E+02 -0.32740145960E+02  0.56027125239E+02  0.47000000000E+01 0.  1.
         -5    1    3    3    0  502 -0.31500927045E+02  0.34412031325E+02  0.60916350643E+02  0.76872544385E+02  0.47000000000E+01 0.  1.
        -11    1    1    2    0    0  0.56317044464E+02 -0.72818716151E+01  0.38269312294E+02  0.68477554095E+02  0.00000000000E+00 0. -1.
         11    1    1    2    0    0 -0.22781907325E+02  0.18046090626E+02  0.48889767529E+02  0.56876058735E+02  0.00000000000E+00 0.  1.
<mgrwt>
<rscale>  0 0.11852943E+03</rscale>
<asrwt>0</asrwt>
<pdfrwt beam="1">  1        1 0.28737582E-01 0.12987850E+03</pdfrwt>
<pdfrwt beam="2">  1       -1 0.10993692E-01 0.12987850E+03</pdfrwt>
<totfact> 0.79375620E+03</totfact>
</mgrwt>
</event>
<event>
 7    1  0.5400401E-006  0.1456507E+03  0.7546771E-02  0.1216348E+00
          3   -1    0    0  501    0  0.00000000000E+00  0.00000000000E+00  0.15739549991E+03  0.15739549991E+03  0.00000000000E+00 0. -1.
         -3   -1    0    0    0  501 -0.00000000000E+00 -0.00000000000E+00 -0.10990453686E+03  0.10990453686E+03  0.00000000000E+00 0.  1.
         23    2    1    2    0    0  0.46456822507E+02 -0.58532564959E+02  0.16217539631E+02  0.14655074852E+03  0.12501926165E+03 0.  0.
          5    1    3    3  502    0  0.14158659688E+02 -0.77406338418E+02 -0.32226995589E+02  0.85163831032E+02  0.47000000000E+01 0.  1.
         -5    1    3    3    0  502  0.32298162819E+02  0.18873773459E+02  0.48444535220E+02  0.61386917489E+02  0.47000000000E+01 0.  1.
        -11    1    1    2    0    0 -0.51308254645E+02 -0.46242690669E+01  0.24499796739E+02  0.57045253084E+02  0.00000000000E+00 0. -1.
         11    1    1    2    0    0  0.48514321378E+01  0.63156834025E+02  0.67736266892E+01  0.63704035166E+02  0.00000000000E+00 0.  1.
<mgrwt>
<rscale>  0 0.13777998E+03</rscale>
<asrwt>0</asrwt>
<pdfrwt beam="1">  1        3 0.24214692E-01 0.14565065E+03</pdfrwt>
<pdfrwt beam="2">  1       -3 0.16908390E-01 0.14565065E+03</pdfrwt>
<totfact> 0.11185457E+03</totfact>
</mgrwt>
</event>
<event>
 7    1  0.5400401E-006  0.1274604E+03  0.7546771E-02  0.1245443E+00
          1   -1    0    0  501    0  0.00000000000E+00  0.00000000000E+00  0.96489032384E+03  0.96489032384E+03  0.00000000000E+00 0. -1.
         -1   -1    0    0    0  501 -0.00000000000E+00 -0.00000000000E+00 -0.12976518228E+02  0.12976518228E+02  0.00000000000E+00 0.  1.
         23    2    1    2    0    0  0.24789091057E+02  0.25985130784E+01  0.50222385515E+03  0.51814568889E+03  0.12499961172E+03 0.  0.
          5    1    3    3  502    0 -0.48328448588E+02  0.92733003046E+01  0.13855554374E+03  0.14711003277E+03  0.47000000000E+01 0. -1.
         -5    1    3    3    0  502  0.73117539645E+02 -0.66747872262E+01  0.36366831141E+03  0.37103565612E+03  0.47000000000E+01 0. -1.
        -11    1    1    2    0    0 -0.59062516278E+02 -0.65622722996E+01  0.32278900469E+03  0.32821362829E+03  0.00000000000E+00 0. -1.
         11    1    1    2    0    0  0.34273425222E+02  0.39637592212E+01  0.12690094577E+03  0.13150752489E+03  0.00000000000E+00 0.  1.
<mgrwt>
<rscale>  0 0.11858933E+03</rscale>
<asrwt>0</asrwt>
<pdfrwt beam="1">  1        1 0.14844461E+00 0.12746040E+03</pdfrwt>
<pdfrwt beam="2">  1       -1 0.19963882E-02 0.12746040E+03</pdfrwt>
<totfact> 0.11200522E+04</totfact>
</mgrwt>
</event>
<event>
 7    1  0.5400401E-006  0.1778395E+03  0.7546771E-02  0.1172429E+00
         -1   -1    0    0    0  501 -0.00000000000E+00  0.00000000000E+00  0.33014140047E+03  0.33014140047E+03  0.00000000000E+00 0.  1.
          1   -1    0    0  501    0  0.00000000000E+00 -0.00000000000E+00 -0.10156233927E+03  0.10156233927E+03  0.00000000000E+00 0. -1.
         23    2    1    2    0    0 -0.27172640238E+02  0.10875947727E+03  0.18250588846E+03  0.24799300801E+03  0.12500062570E+03 0.  0.
          5    1    3    3  502    0 -0.18820904825E+01  0.12481188862E+03  0.99743790679E+02  0.15985137968E+03  0.47000000000E+01 0.  1.
         -5    1    3    3    0  502 -0.25290549756E+02 -0.16052411344E+02  0.82762097782E+02  0.88141628339E+02  0.47000000000E+01 0.  1.
        -11    1    1    2    0    0 -0.16383285673E+02 -0.41810145526E+02 -0.44315177157E+02  0.63089898120E+02  0.00000000000E+00 0. -1.
         11    1    1    2    0    0  0.43555925911E+02 -0.66949331748E+02  0.90388349896E+02  0.12062083361E+03  0.00000000000E+00 0.  1.
<mgrwt>
<rscale>  0 0.17530213E+03</rscale>
<asrwt>0</asrwt>
<pdfrwt beam="2">  1        1 0.15624975E-01 0.17783952E+03</pdfrwt>
<pdfrwt beam="1">  1       -1 0.50790984E-01 0.17783952E+03</pdfrwt>
<totfact> 0.13926387E+03</totfact>
</mgrwt>
</event>
<event>
 7    1  0.1390158E-005  0.4043032E+03  0.7546771E-02  0.1043103E+00
         -1   -1    0    0    0  501 -0.00000000000E+00  0.00000000000E+00  0.37710174467E+03  0.37710174467E+03  0.00000000000E+00 0.  1.
          1   -1    0    0  501    0  0.00000000000E+00 -0.00000000000E+00 -0.42501896527E+03  0.42501896527E+03  0.00000000000E+00 0. -1.
         23    2    1    2    0    0  0.37058087627E+03  0.10249130629E+03 -0.81464692562E+00  0.40430402924E+03  0.12500572264E+03 0.  0.
          5    1    3    3  502    0  0.34715326335E+02  0.29825949484E+02 -0.36581252293E+02  0.58779411060E+02  0.47000000000E+01 0.  1.
         -5    1    3    3    0  502  0.33586554993E+03  0.72665356806E+02  0.35766605367E+02  0.34552461818E+03  0.47000000000E+01 0.  1.
        -11    1    1    2    0    0 -0.12095308211E+03 -0.35781739463E+02 -0.58794572572E+02  0.13916458858E+03  0.00000000000E+00 0.  1.
         11    1    1    2    0    0 -0.24962779416E+03 -0.66709566827E+02  0.11691998899E+02  0.25865209213E+03  0.00000000000E+00 0. -1.
<mgrwt>
<rscale>  0 0.40196172E+03</rscale>
<asrwt>0</asrwt>
<pdfrwt beam="2">  1        1 0.65387533E-01 0.40430321E+03</pdfrwt>
<pdfrwt beam="1">  1       -1 0.58015653E-01 0.40430321E+03</pdfrwt>
<totfact> 0.17287867E+02</totfact>
</mgrwt>
</event>
<event>
 6    1  0.5400401E-006  0.1838103E+03  0.7546771E-02  0.1171277E+00
         -2   -1    0    0    0  501 -0.00000000000E+00  0.00000000000E+00  0.10407077303E+03  0.10407077303E+03  0.00000000000E+00 0.  1.
          2   -1    0    0  501    0  0.00000000000E+00 -0.00000000000E+00 -0.31586668476E+03  0.31586668476E+03  0.00000000000E+00 0. -1.
          5    1    1    2  502    0  0.53128676979E+02  0.31965423556E+02 -0.86037507573E+02  0.10615548658E+03  0.47000000000E+01 0. -1.
         -5    1    1    2    0  502  0.68034641785E+02  0.45789179922E+01  0.45450612174E+02  0.82082440996E+02  0.47000000000E+01 0.  1.
        -11    1    1    2    0    0 -0.11337297021E+03 -0.64739126530E+00 -0.15374400292E+03  0.19102635400E+03  0.00000000000E+00 0. -1.
         11    1    1    2    0    0 -0.77903485540E+01 -0.35896950283E+02 -0.17465013415E+02  0.40673176220E+02  0.00000000000E+00 0.  1.
<mgrwt>
<rscale>  0 0.17645708E+03</rscale>
<asrwt>0</asrwt>
<pdfrwt beam="2">  1        2 0.48594874E-01 0.18381029E+03</pdfrwt>
<pdfrwt beam="1">  1       -2 0.16010888E-01 0.18381029E+03</pdfrwt>
<totfact> 0.31133586E+03</totfact>
</mgrwt>
</event>
<event>
 7    1  0.5400401E-006  0.1389655E+03  0.7546771E-02  0.1229455E+00
          2   -1    0    0  501    0  0.00000000000E+00  0.00000000000E+00  0.70009715881E+03  0.70009715881E+03  0.00000000000E+00 0. -1.
         -2   -1    0    0    0  501 -0.00000000000E+00 -0.00000000000E+00 -0.21941899153E+02  0.21941899153E+02  0.00000000000E+00 0.  1.
         23    2    1    2    0    0 -0.22046755674E+02 -0.56561580167E+02  0.30503170434E+03  0.33519509064E+03  0.12500454532E+03 0.  0.
          5    1    3    3  502    0  0.38683460505E+02 -0.34688362643E+02  0.50663839015E+02  0.72722810749E+02  0.47000000000E+01 0. -1.
         -5    1    3    3    0  502 -0.60730216179E+02 -0.21873217524E+02  0.25436786533E+03  0.26247227989E+03  0.47000000000E+01 0. -1.
        -11    1    1    2    0    0  0.39790723520E+02  0.80946978420E+00  0.20508737916E+03  0.20891335527E+03  0.00000000000E+00 0. -1.
         11    1    1    2    0    0 -0.17743967847E+02  0.55752110383E+02  0.16803617616E+03  0.17793061205E+03  0.00000000000E+00 0.  1.
<mgrwt>
<rscale>  0 0.12866206E+03</rscale>
<asrwt>0</asrwt>
<pdfrwt beam="1">  1        2 0.10770724E+00 0.13896549E+03</pdfrwt>
<pdfrwt beam="2">  1       -2 0.33756773E-02 0.13896549E+03</pdfrwt>
<totfact> 0.14190229E+04</totfact>
</mgrwt>
</event>
<event>
 7    1  0.5400401E-006  0.1316412E+03  0.7546771E-02  0.1240662E+00
         -2   -1    0    0    0  501 -0.00000000000E+00  0.00000000000E+00  0.45786742473E+03  0.45786742473E+03  0.00000000000E+00 0.  1.
          2   -1    0    0  501    0  0.00000000000E+00 -0.00000000000E+00 -0.30352378803E+02  0.30352378803E+02  0.00000000000E+00 0. -1.
         23    2    1    2    0    0  0.39614928184E+02  0.11647581122E+02  0.31004294323E+03  0.33683233498E+03  0.12499754624E+03 0.  0.
          5    1    3    3  502    0  0.54806960936E+01  0.56546440410E+02  0.24053122138E+03  0.24719404607E+03  0.47000000000E+01 0. -1.
         -5    1    3    3    0  502  0.34134232090E+02 -0.44898859289E+02  0.69511721845E+02  0.89638288916E+02  0.47000000000E+01 0. -1.
        -11    1    1    2    0    0 -0.41222653068E+02  0.42343745361E+01  0.12645405181E+03  0.13307089942E+03  0.00000000000E+00 0.  1.
         11    1    1    2    0    0  0.16077248845E+01 -0.15881955658E+02 -0.89819491093E+01  0.18316569128E+02  0.00000000000E+00 0. -1.
<mgrwt>
<rscale>  0 0.12148818E+03</rscale>
<asrwt>0</asrwt>
<pdfrwt beam="2">  1        2 0.46695971E-02 0.13164116E+03</pdfrwt>
<pdfrwt beam="1">  1       -2 0.70441137E-01 0.13164116E+03</pdfrwt>
<totfact> 0.30877127E+03</totfact>
</mgrwt>
</event>
<event>
 7    1  0.5400401E-006  0.1295471E+03  0.7546771E-02  0.1242556E+00
         -1   -1    0    0    0  501 -0.00000000000E+00  0.00000000000E+00  0.46868981532E+02  0.46868981532E+02  0.00000000000E+00 0.  1.
          1   -1    0    0  501    0  0.00000000000E+00 -0.00000000000E+00 -0.38147962272E+03  0.38147962272E+03  0.00000000000E+00 0. -1.
         23    2    1    2    0    0  0.19600077891E+02  0.27788406163E+02 -0.71156264471E+02  0.14780279978E+03  0.12500438023E+03 0.  0.
          5    1    3    3  502    0  0.62742313699E+00  0.68693902765E+02 -0.75590447813E+02  0.10225092536E+03  0.47000000000E+01 0. -1.
         -5    1    3    3    0  502  0.18972654754E+02 -0.40905496602E+02  0.44341833415E+01  0.45551874414E+02  0.47000000000E+01 0. -1.
        -11    1    1    2    0    0 -0.46184121177E+02  0.44005528073E+01 -0.19434597688E+03  0.19980664815E+03  0.00000000000E+00 0. -1.
         11    1    1    2    0    0  0.26584043285E+02 -0.32188958970E+02 -0.69108399841E+02  0.80739156335E+02  0.00000000000E+00 0.  1.
<mgrwt>
<rscale>  0 0.12032835E+03</rscale>
<asrwt>0</asrwt>
<pdfrwt beam="2">  1        1 0.58689175E-01 0.12954711E+03</pdfrwt>
<pdfrwt beam="1">  1       -1 0.72106123E-02 0.12954711E+03</pdfrwt>
<totfact> 0.62074690E+03</totfact>
</mgrwt>
</event>
<event>
 7    1  0.5400401E-006  0.1870722E+03  0.7546771E-02  0.1165796E+00
         -2   -1    0    0    0  501 -0.00000000000E+00  0.00000000000E+00  0.68615317112E+02  0.68615317112E+02  0.00000000000E+00 0.  1.
          2   -1    0    0  501    0  0.00000000000E+00 -0.00000000000E+00 -0.45917348089E+03  0.45917348089E+03  0.00000000000E+00 0. -1.
         23    2    1    2    0    0  0.72779396714E+02 -0.11865031604E+03 -0.20691173750E+03  0.27894169267E+03  0.12498504996E+03 0.  0.
          5    1    3    3  502    0 -0.30476624054E+02 -0.32461484522E+02 -0.21061246925E+02  0.49479679800E+02  0.47000000000E+01 0. -1.
         -5    1    3    3    0  502  0.10325602077E+03 -0.86188831513E+02 -0.18585049058E+03  0.22946201287E+03  0.47000000000E+01 0. -1.
        -11    1    1    2    0    0  0.56698657223E+01  0.78062444921E+02 -0.10196769287E+03  0.12854300088E+03  0.00000000000E+00 0.  1.
         11    1    1    2    0    0 -0.78449262437E+02  0.40587871114E+02 -0.81678733404E+02  0.12030410446E+03  0.00000000000E+00 0. -1.
<mgrwt>
<rscale>  0 0.18208991E+03</rscale>
<asrwt>0</asrwt>
<pdfrwt beam="2">  1        2 0.70642076E-01 0.18707218E+03</pdfrwt>
<pdfrwt beam="1">  1       -2 0.10556202E-01 0.18707218E+03</pdfrwt>
<totfact> 0.40889398E+03</totfact>
</mgrwt>
</event>
<event>
 6    1  0.5400401E-006  0.3530799E+03  0.7546771E-02  0.1095558E+00
         -1   -1    0    0    0  501 -0.00000000000E+00  0.00000000000E+00  0.25442296555E+03  0.25442296555E+03  0.00000000000E+00 0.  1.
          1   -1    0    0  501    0  0.00000000000E+00 -0.00000000000E+00 -0.24127279617E+03  0.24127279617E+03  0.00000000000E+00 0. -1.
          5    1    1    2  502    0 -0.64738246859E+00 -0.17970766070E+03 -0.62170279300E+02  0.19021697098E+03  0.47000000000E+01 0. -1.
         -5    1    1    2    0  502 -0.78501721851E+02  0.10999259259E+03  0.93201487359E+02  0.16422392640E+03  0.47000000000E+01 0.  1.
        -11    1    1    2    0    0  0.88380325874E+02  0.81092094536E+02 -0.28346543190E+02  0.12324989375E+03  0.00000000000E+00 0.  1.
         11    1    1    2    0    0 -0.92312215548E+01 -0.11377026420E+02  0.10465504508E+02  0.18004970596E+02  0.00000000000E+00 0. -1.
<mgrwt>
<rscale>  0 0.28023904E+03</rscale>
<asrwt>0</asrwt>
<pdfrwt beam="2">  1        1 0.37118892E-01 0.35307990E+03</pdfrwt>
<pdfrwt beam="1">  1       -1 0.39141995E-01 0.35307990E+03</pdfrwt>
<totfact> 0.74346346E+02</totfact>
</mgrwt>
</event>
<event>
 7    1  0.5400401E-006  0.1405386E+03  0.7546771E-02  0.1223464E+00
          1   -1    0    0  501    0  0.00000000000E+00  0.00000000000E+00  0.27168782306E+03  0.27168782306E+03  0.00000000000E+00 0. -1.
         -1   -1    0    0    0  501 -0.00000000000E+00 -0.00000000000E+00 -0.71036391784E+02  0.71036391784E+02  0.00000000000E+00 0.  1.
         23    2    1    2    0    0  0.63684565087E+02  0.81763715810E+01  0.38414475653E+02  0.14569410644E+03  0.12501409452E+03 0.  0.
          5    1    3    3  502    0 -0.22057718731E+02  0.33107757855E+02  0.39516947077E+02  0.56270291381E+02  0.47000000000E+01 0. -1.
         -5    1    3    3    0  502  0.85742283818E+02 -0.24931386274E+02 -0.11024714240E+01  0.89423815056E+02  0.47000000000E+01 0. -1.
        -11    1    1    2    0    0 -0.16160741519E+02 -0.32030211915E+02  0.12272284876E+02  0.37917186312E+02  0.00000000000E+00 0.  1.
         11    1    1    2    0    0 -0.47523823568E+02  0.23853840334E+02  0.14996467075E+03  0.15911292210E+03  0.00000000000E+00 0. -1.
<mgrwt>
<rscale>  0 0.13272742E+03</rscale>
<asrwt>0</asrwt>
<pdfrwt beam="1">  1        1 0.41798126E-01 0.14053861E+03</pdfrwt>
<pdfrwt beam="2">  1       -1 0.10928676E-01 0.14053861E+03</pdfrwt>
<totfact> 0.50613080E+03</totfact>
</mgrwt>
</event>
<event>
 7    1  0.5400401E-006  0.1478934E+03  0.7546771E-02  0.1212767E+00
         -1   -1    0    0    0  501 -0.00000000000E+00  0.00000000000E+00  0.36316779514E+02  0.36316779514E+02  0.00000000000E+00 0.  1.
          1   -1    0    0  501    0  0.00000000000E+00 -0.00000000000E+00 -0.57522103346E+03  0.57522103346E+03  0.00000000000E+00 0. -1.
         23    2    1    2    0    0  0.28135685565E+01 -0.78966911776E+02 -0.17954373045E+03  0.23261214744E+03  0.12501508176E+03 0.  0.
          5    1    3    3  502    0  0.18228087891E+01  0.22876194392E+02 -0.10162704465E+03  0.10429184583E+03  0.47000000000E+01 0.  1.
         -5    1    3    3    0  502  0.99075976743E+00 -0.10184310617E+03 -0.77916685801E+02  0.12832030161E+03  0.47000000000E+01 0.  1.
        -11    1    1    2    0    0  0.13783975864E+02  0.95599582571E+02 -0.28271217086E+03  0.29875650575E+03  0.00000000000E+00 0.  1.
         11    1    1    2    0    0 -0.16597544421E+02 -0.16632670795E+02 -0.76648352632E+02  0.80169159779E+02  0.00000000000E+00 0. -1.
<mgrwt>
<rscale>  0 0.14041874E+03</rscale>
<asrwt>0</asrwt>
<pdfrwt beam="2">  1        1 0.88495533E-01 0.14789341E+03</pdfrwt>
<pdfrwt beam="1">  1       -1 0.55871975E-02 0.14789341E+03</pdfrwt>
<totfact> 0.53815119E+03</totfact>
</mgrwt>
</event>
<event>
 7    1  0.5400401E-006  0.1455277E+03  0.7546771E-02  0.1217361E+00
         -2   -1    0    0    0  501 -0.00000000000E+00  0.00000000000E+00  0.30462938207E+03  0.30462938207E+03  0.00000000000E+00 0.  1.
          2   -1    0    0  501    0  0.00000000000E+00 -0.00000000000E+00 -0.58197614909E+02  0.58197614909E+02  0.00000000000E+00 0. -1.
         23    2    1    2    0    0 -0.69668141886E+02  0.26369475272E+02  0.17627183548E+03  0.22858276434E+03  0.12501728260E+03 0.  0.
          5    1    3    3  502    0 -0.28742478835E+01 -0.43158981707E+02  0.86196856917E+02  0.96555409715E+02  0.47000000000E+01 0. -1.
         -5    1    3    3    0  502 -0.66793894003E+02  0.69528456980E+02  0.90074978562E+02  0.13202735462E+03  0.47000000000E+01 0. -1.
        -11    1    1    2    0    0  0.31616210976E+02 -0.11823291958E+02  0.84550803466E+02  0.91039625416E+02  0.00000000000E+00 0.  1.
         11    1    1    2    0    0  0.38051930910E+02 -0.14546183314E+02 -0.14390871780E+02  0.43204607227E+02  0.00000000000E+00 0. -1.
<mgrwt>
<rscale>  0 0.13704541E+03</rscale>
<asrwt>0</asrwt>
<pdfrwt beam="2">  1        2 0.89534794E-02 0.14552773E+03</pdfrwt>
<pdfrwt beam="1">  1       -2 0.46866058E-01 0.14552773E+03</pdfrwt>
<totfact> 0.30997801E+03</totfact>
</mgrwt>
</event>
<event>
 7    1  0.5400401E-006  0.1487343E+03  0.7546771E-02  0.1211328E+00
         -2   -1    0    0    0  501 -0.00000000000E+00  0.00000000000E+00  0.27404000161E+02  0.27404000161E+02  0.00000000000E+00 0.  1.
          2   -1    0    0  501    0  0.00000000000E+00 -0.00000000000E+00 -0.68038497398E+03  0.68038497398E+03  0.00000000000E+00 0. -1.
         23    2    1    2    0    0  0.79992328792E+02 -0.10013879210E+02 -0.31054870975E+03  0.34432890655E+03  0.12499137696E+03 0.  0.
          5    1    3    3  502    0  0.42993182581E+02 -0.23552546263E+02 -0.29896635149E+03  0.30299522357E+03  0.47000000000E+01 0. -1.
         -5    1    3    3    0  502  0.36999146211E+02  0.13538667053E+02 -0.11582358269E+02  0.41333682983E+02  0.47000000000E+01 0. -1.
        -11    1    1    2    0    0 -0.12814108622E+02  0.35805030594E+02 -0.20324179680E+03  0.20676902467E+03  0.00000000000E+00 0. -1.
         11    1    1    2    0    0 -0.67178220170E+02 -0.25791151383E+02 -0.13919046727E+03  0.15669104292E+03  0.00000000000E+00 0.  1.
<mgrwt>
<rscale>  0 0.14149787E+03</rscale>
<asrwt>0</asrwt>
<pdfrwt beam="2">  1        2 0.10467461E+00 0.14873431E+03</pdfrwt>
<pdfrwt beam="1">  1       -2 0.42159999E-02 0.14873431E+03</pdfrwt>
<totfact> 0.10600807E+04</totfact>
</mgrwt>
</event>
<event>
 7    1  0.5400401E-006  0.1460739E+03  0.7546771E-02  0.1215067E+00
         -3   -1    0    0    0  501 -0.00000000000E+00  0.00000000000E+00  0.87011631158E+02  0.87011631158E+02  0.00000000000E+00 0.  1.
          3   -1    0    0  501    0  0.00000000000E+00 -0.00000000000E+00 -0.39196558006E+03  0.39196558006E+03  0.00000000000E+00 0. -1.
         23    2    1    2    0    0 -0.75487097464E+02  0.43187988681E+01  0.59050269466E+01  0.14619317117E+03  0.12498247895E+03 0.  0.
          5    1    3    3  502    0 -0.96842065470E+02 -0.10129843461E+02  0.38112782415E+02  0.10466935347E+03  0.47000000000E+01 0.  1.
         -5    1    3    3    0  502  0.21354968006E+02  0.14448642329E+02 -0.32207755468E+02  0.41523817695E+02  0.47000000000E+01 0.  1.
        -11    1    1    2    0    0  0.53453129480E+02  0.41111019279E+02 -0.19731127600E+03  0.20851640845E+03  0.00000000000E+00 0.  1.
         11    1    1    2    0    0  0.22033967985E+02 -0.45429818147E+02 -0.11354769985E+03  0.12426763160E+03  0.00000000000E+00 0. -1.
<mgrwt>
<rscale>  0 0.13871634E+03</rscale>
<asrwt>0</asrwt>
<pdfrwt beam="2">  1        3 0.60302397E-01 0.14607386E+03</pdfrwt>
<pdfrwt beam="1">  1       -3 0.13386405E-01 0.14607386E+03</pdfrwt>
<totfact> 0.28933475E+02</totfact>
</mgrwt>
</event>
<event>
 7    1  0.5400401E-006  0.1540715E+03  0.7546771E-02  0.1204133E+00
         -2   -1    0    0    0  501 -0.00000000000E+00  0.00000000000E+00  0.22419786556E+03  0.22419786556E+03  0.00000000000E+00 0.  1.
          2   -1    0    0  501    0  0.00000000000E+00 -0.00000000000E+00 -0.14208538144E+03  0.14208538144E+03  0.00000000000E+00 0. -1.
         23    2    1    2    0    0  0.81792854628E+02  0.37729028463E+02  0.15544884254E+03  0.21886611153E+03  0.12499792588E+03 0.  0.
          5    1    3    3  502    0  0.91774470392E+01 -0.34755348931E+02  0.48470031755E+01  0.36575172635E+02  0.47000000000E+01 0. -1.
         -5    1    3    3    0  502  0.72615407589E+02  0.72484377393E+02  0.15060183936E+03  0.18229093890E+03  0.47000000000E+01 0. -1.
        -11    1    1    2    0    0 -0.58473487843E+02 -0.67832426637E+02 -0.47220793092E+02  0.10124322290E+03  0.00000000000E+00 0.  1.
         11    1    1    2    0    0 -0.23319366785E+02  0.30103398174E+02 -0.26115565323E+02  0.46173912559E+02  0.00000000000E+00 0. -1.
<mgrwt>
<rscale>  0 0.14705961E+03</rscale>
<asrwt>0</asrwt>
<pdfrwt beam="2">  1        2 0.21859289E-01 0.15407152E+03</pdfrwt>
<pdfrwt beam="1">  1       -2 0.34491980E-01 0.15407152E+03</pdfrwt>
<totfact> 0.19343215E+03</totfact>
</mgrwt>
</event>
<event>
 7    1  0.5400401E-006  0.1496047E+03  0.7546771E-02  0.1210392E+00
         -1   -1    0    0    0  501 -0.00000000000E+00  0.00000000000E+00  0.51507932175E+03  0.51507932175E+03  0.00000000000E+00 0.  1.
          1   -1    0    0  501    0  0.00000000000E+00 -0.00000000000E+00 -0.39677817521E+02  0.39677817521E+02  0.00000000000E+00 0. -1.
         23    2    1    2    0    0  0.38557562480E+02  0.72601113494E+02  0.34527805266E+03  0.37629577696E+03  0.12499588315E+03 0.  0.
          5    1    3    3  502    0  0.74645699648E+02  0.34127062339E+02  0.12406449654E+03  0.14883120023E+03  0.47000000000E+01 0. -1.
         -5    1    3    3    0  502 -0.36088137168E+02  0.38474051155E+02  0.22121355611E+03  0.22746457673E+03  0.47000000000E+01 0. -1.
        -11    1    1    2    0    0 -0.36352766189E+01  0.16108325729E+02  0.53982037459E+02  0.56451339773E+02  0.00000000000E+00 0.  1.
         11    1    1    2    0    0 -0.34922285861E+02 -0.88709439223E+02  0.76141414108E+02  0.12201002254E+03  0.00000000000E+00 0. -1.
<mgrwt>
<rscale>  0 0.14220564E+03</rscale>
<asrwt>0</asrwt>
<pdfrwt beam="2">  1        1 0.61042800E-02 0.14960474E+03</pdfrwt>
<pdfrwt beam="1">  1       -1 0.79242968E-01 0.14960474E+03</pdfrwt>
<totfact> 0.20474325E+03</totfact>
</mgrwt>
</event>
<event>
 7    1  0.5400401E-006  0.1481090E+03  0.7546771E-02  0.1212034E+00
          1   -1    0    0  501    0  0.00000000000E+00  0.00000000000E+00  0.12805272039E+03  0.12805272039E+03  0.00000000000E+00 0. -1.
         -1   -1    0    0    0  501 -0.00000000000E+00 -0.00000000000E+00 -0.18178782803E+03  0.18178782803E+03  0.00000000000E+00 0.  1.
         23    2    1    2    0    0  0.79320833550E+02  0.43059899686E+01 -0.10117721304E+03  0.17936863134E+03  0.12500376509E+03 0.  0.
          5    1    3    3  502    0  0.46353266186E+02  0.50970242439E+02 -0.73925809874E+01  0.69450206292E+02  0.47000000000E+01 0.  1.
         -5    1    3    3    0  502  0.32967567365E+02 -0.46664252470E+02 -0.93784632055E+02  0.10991842505E+03  0.47000000000E+01 0.  1.
        -11    1    1    2    0    0 -0.95922133721E+02  0.75596862686E+00  0.56048511724E+02  0.11109933795E+03  0.00000000000E+00 0. -1.
         11    1    1    2    0    0  0.16601300171E+02 -0.50619585955E+01 -0.86064063288E+01  0.19372579128E+02  0.00000000000E+00 0.  1.
<mgrwt>
<rscale>  0 0.14096673E+03</rscale>
<asrwt>0</asrwt>
<pdfrwt beam="1">  1        1 0.19700419E-01 0.14810901E+03</pdfrwt>
<pdfrwt beam="2">  1       -1 0.27967358E-01 0.14810901E+03</pdfrwt>
<totfact> 0.29115172E+03</totfact>
</mgrwt>
</event>
<event>
 7    1  0.5400401E-006  0.1294332E+03  0.7546771E-02  0.1240372E+00
          3   -1    0    0  501    0  0.00000000000E+00  0.00000000000E+00  0.23406691531E+03  0.23406691531E+03  0.00000000000E+00 0. -1.
         -3   -1    0    0    0  501 -0.00000000000E+00 -0.00000000000E+00 -0.57278505300E+02  0.57278505300E+02  0.00000000000E+00 0.  1.
         23    2    1    2    0    0 -0.20951354878E+02  0.26321666788E+02  0.85164614742E+02  0.15493855737E+03  0.12498462122E+03 0.  0.
          5    1    3    3  502    0  0.17033897823E+02 -0.43804028599E+02  0.46124014750E+02  0.66018643830E+02  0.47000000000E+01 0. -1.
         -5    1    3    3    0  502 -0.37985252702E+02  0.70125695386E+02  0.39040599992E+02  0.88919913540E+02  0.47000000000E+01 0. -1.
        -11    1    1    2    0    0 -0.29479479447E+02 -0.17865611387E+02  0.36655625156E+01  0.34664912047E+02  0.00000000000E+00 0.  1.
         11    1    1    2    0    0  0.50430834325E+02 -0.84560554009E+01  0.87958232756E+02  0.10174195120E+03  0.00000000000E+00 0. -1.
<mgrwt>
<rscale>  0 0.12166694E+03</rscale>
<asrwt>0</asrwt>
<pdfrwt beam="1">  1        3 0.36010294E-01 0.12943317E+03</pdfrwt>
<pdfrwt beam="2">  1       -3 0.88120779E-02 0.12943317E+03</pdfrwt>
<totfact> 0.15772254E+03</totfact>
</mgrwt>
</event>
<event>
 7    1  0.5400401E-006  0.1964009E+03  0.7546771E-02  0.1156875E+00
         -1   -1    0    0    0  501 -0.00000000000E+00  0.00000000000E+00  0.59953904524E+03  0.59953904524E+03  0.00000000000E+00 0.  1.
          1   -1    0    0  501    0  0.00000000000E+00 -0.00000000000E+00 -0.59343167373E+02  0.59343167373E+02  0.00000000000E+00 0. -1.
         23    2    1    2    0    0 -0.99385365693E+02  0.11432074737E+03  0.31929920359E+03  0.37486701728E+03  0.12500645999E+03 0.  0.
          5    1    3    3  502    0 -0.99629849945E+02  0.38822103457E+02  0.11542331062E+03  0.15740995315E+03  0.47000000000E+01 0. -1.
         -5    1    3    3    0  502  0.24448425190E+00  0.75498643916E+02  0.20387589297E+03  0.21745706413E+03  0.47000000000E+01 0. -1.
        -11    1    1    2    0    0  0.66497562232E+02 -0.84494308759E+01  0.94941815689E+02  0.11622076850E+03  0.00000000000E+00 0.  1.
         11    1    1    2    0    0  0.32887803461E+02 -0.10587131650E+03  0.12595485859E+03  0.16779442683E+03  0.00000000000E+00 0. -1.
<mgrwt>
<rscale>  0 0.19176930E+03</rscale>
<asrwt>0</asrwt>
<pdfrwt beam="2">  1        1 0.91297185E-02 0.19640086E+03</pdfrwt>
<pdfrwt beam="1">  1       -1 0.92236772E-01 0.19640086E+03</pdfrwt>
<totfact> 0.87018379E+02</totfact>
</mgrwt>
</event>
<event>
 7    1  0.5400401E-006  0.1900704E+03  0.7546771E-02  0.1163452E+00
          1   -1    0    0  501    0  0.00000000000E+00  0.00000000000E+00  0.99569331499E+02  0.99569331499E+02  0.00000000000E+00 0. -1.
         -1   -1    0    0    0  501 -0.00000000000E+00 -0.00000000000E+00 -0.36272335430E+03  0.36272335430E+03  0.00000000000E+00 0.  1.
         23    2    1    2    0    0  0.74449450909E+02  0.12232978185E+03 -0.21413717224E+03  0.28632407547E+03  0.12497780360E+03 0.  0.
          5    1    3    3  502    0 -0.35087367058E+02  0.23739703460E+02 -0.47807427660E+02  0.64049488576E+02  0.47000000000E+01 0. -1.
         -5    1    3    3    0  502  0.10953681797E+03  0.98590078391E+02 -0.16632974458E+03  0.22227458690E+03  0.47000000000E+01 0. -1.
        -11    1    1    2    0    0  0.91569502601E+01 -0.53627780468E+02 -0.39713117286E+02  0.67356664559E+02  0.00000000000E+00 0. -1.
         11    1    1    2    0    0 -0.83606401169E+02 -0.68702001382E+02 -0.93037332731E+01  0.10861194577E+03  0.00000000000E+00 0.  1.
<mgrwt>
<rscale>  0 0.18456952E+03</rscale>
<asrwt>0</asrwt>
<pdfrwt beam="1">  1        1 0.15318359E-01 0.19007038E+03</pdfrwt>
<pdfrwt beam="2">  1       -1 0.55803592E-01 0.19007038E+03</pdfrwt>
<totfact> 0.12012761E+03</totfact>
</mgrwt>
</event>
<event>
 7    1  0.5400401E-006  0.1505913E+03  0.7546771E-02  0.1208752E+00
          1   -1    0    0  501    0  0.00000000000E+00  0.00000000000E+00  0.21519613418E+03  0.21519613418E+03  0.00000000000E+00 0. -1.
         -1   -1    0    0    0  501 -0.00000000000E+00 -0.00000000000E+00 -0.11477887011E+03  0.11477887011E+03  0.00000000000E+00 0.  1.
         23    2    1    2    0    0 -0.11568859767E+02  0.83203525985E+02 -0.26071375700E+02  0.15283144953E+03  0.12498427933E+03 0.  0.
          5    1    3    3  502    0  0.53630016692E+02  0.53548356477E+02  0.14763798723E+01  0.75946526381E+02  0.47000000000E+01 0.  1.
         -5    1    3    3    0  502 -0.65198876459E+02  0.29655169508E+02 -0.27547755572E+02  0.76884923145E+02  0.47000000000E+01 0.  1.
        -11    1    1    2    0    0  0.21194652787E+02  0.41076866860E+00 -0.42835510972E+01  0.21627085972E+02  0.00000000000E+00 0.  1.
         11    1    1    2    0    0 -0.96257930201E+01 -0.83614294654E+02  0.13077219086E+03  0.15551646879E+03  0.00000000000E+00 0. -1.
<mgrwt>
<rscale>  0 0.14345677E+03</rscale>
<asrwt>0</asrwt>
<pdfrwt beam="1">  1        1 0.33107098E-01 0.15059129E+03</pdfrwt>
<pdfrwt beam="2">  1       -1 0.17658288E-01 0.15059129E+03</pdfrwt>
<totfact> 0.32054237E+03</totfact>
</mgrwt>
</event>
<event>
 7    1  0.5400401E-006  0.1251869E+03  0.7546771E-02  0.1248456E+00
          4   -1    0    0  501    0  0.00000000000E+00  0.00000000000E+00  0.23272643920E+03  0.23272643920E+03  0.00000000000E+00 0. -1.
         -4   -1    0    0    0  501 -0.00000000000E+00 -0.00000000000E+00 -0.76493887441E+02  0.76493887441E+02  0.00000000000E+00 0.  1.
         23    2    1    2    0    0 -0.57995228403E+01  0.35467123125E+01 -0.14406389257E+01  0.12519521961E+03  0.12500221574E+03 0.  0.
          5    1    3    3  502    0 -0.60985823754E+02  0.68785722099E+00  0.21970742679E+02  0.64996518218E+02  0.47000000000E+01 0.  1.
         -5    1    3    3    0  502  0.55186300914E+02  0.28588550915E+01 -0.23411381605E+02  0.60198701395E+02  0.47000000000E+01 0.  1.
        -11    1    1    2    0    0  0.39506943104E+02 -0.26595643326E+02  0.11731051575E+03  0.12660917779E+03  0.00000000000E+00 0. -1.
         11    1    1    2    0    0 -0.33707420263E+02  0.23048931014E+02  0.40362674942E+02  0.57415929237E+02  0.00000000000E+00 0.  1.
<mgrwt>
<rscale>  0 0.11680895E+03</rscale>
<asrwt>0</asrwt>
<pdfrwt beam="1">  1        4 0.35804067E-01 0.12518693E+03</pdfrwt>
<pdfrwt beam="2">  1       -4 0.11768290E-01 0.12518693E+03</pdfrwt>
<totfact> 0.70727536E+02</totfact>
</mgrwt>
</event>
<event>
 7    1  0.5400401E-006  0.1395737E+03  0.7546771E-02  0.1224452E+00
         -2   -1    0    0    0  501 -0.00000000000E+00  0.00000000000E+00  0.40723877633E+02  0.40723877633E+02  0.00000000000E+00 0.  1.
          2   -1    0    0  501    0  0.00000000000E+00 -0.00000000000E+00 -0.39703938865E+03  0.39703938865E+03  0.00000000000E+00 0. -1.
         23    2    1    2    0    0  0.60927957812E+02  0.12031307866E+02 -0.16444443186E+03  0.21569139262E+03  0.12499534899E+03 0.  0.
          5    1    3    3  502    0 -0.36815078044E+02  0.17874154574E+02 -0.41856239898E+02  0.58727082267E+02  0.47000000000E+01 0.  1.
         -5    1    3    3    0  502  0.97743035856E+02 -0.58428467077E+01 -0.12258819196E+03  0.15696431035E+03  0.47000000000E+01 0.  1.
        -11    1    1    2    0    0 -0.21594540423E+02  0.25923857055E+00  0.39563603027E+01  0.21955504266E+02  0.00000000000E+00 0.  1.
         11    1    1    2    0    0 -0.39333417388E+02 -0.12290546437E+02 -0.19582743946E+03  0.20011636939E+03  0.00000000000E+00 0. -1.
<mgrwt>
<rscale>  0 0.13204515E+03</rscale>
<asrwt>0</asrwt>
<pdfrwt beam="2">  1        2 0.61082981E-01 0.13957366E+03</pdfrwt>
<pdfrwt beam="1">  1       -2 0.62652121E-02 0.13957366E+03</pdfrwt>
<totfact> 0.10587205E+04</totfact>
</mgrwt>
</event>
<event>
 7    1  0.5400401E-006  0.1396521E+03  0.7546771E-02  0.1225166E+00
          1   -1    0    0  501    0  0.00000000000E+00  0.00000000000E+00  0.37962991095E+03  0.37962991095E+03  0.00000000000E+00 0. -1.
         -1   -1    0    0    0  501 -0.00000000000E+00 -0.00000000000E+00 -0.41130106537E+02  0.41130106537E+02  0.00000000000E+00 0.  1.
         23    2    1    2    0    0  0.57063730984E+02 -0.24924465144E+02  0.19935731858E+03  0.24340511564E+03  0.12500084596E+03 0.  0.
          5    1    3    3  502    0  0.86443622555E+02 -0.33882534331E+01  0.18441508918E+03  0.20375228896E+03  0.47000000000E+01 0.  1.
         -5    1    3    3    0  502 -0.29379891571E+02 -0.21536211711E+02  0.14942229400E+02  0.39652826672E+02  0.47000000000E+01 0.  1.
        -11    1    1    2    0    0 -0.45582967117E+02 -0.13285011808E+02  0.12710208598E+03  0.13568064965E+03  0.00000000000E+00 0.  1.
         11    1    1    2    0    0 -0.11480763868E+02  0.38209476952E+02  0.12040399863E+02  0.41674252204E+02  0.00000000000E+00 0. -1.
<mgrwt>
<rscale>  0 0.13155502E+03</rscale>
<asrwt>0</asrwt>
<pdfrwt beam="1">  1        1 0.58404599E-01 0.13965210E+03</pdfrwt>
<pdfrwt beam="2">  1       -1 0.63277089E-02 0.13965210E+03</pdfrwt>
<totfact> 0.76300551E+03</totfact>
</mgrwt>
</event>
<event>
 7    1  0.5400401E-006  0.2535891E+03  0.7546771E-02  0.1113615E+00
          1   -1    0    0  501    0  0.00000000000E+00  0.00000000000E+00  0.23432005911E+03  0.23432005911E+03  0.00000000000E+00 0. -1.
         -1   -1    0    0    0  501 -0.00000000000E+00 -0.00000000000E+00 -0.38181575099E+03  0.38181575099E+03  0.00000000000E+00 0.  1.
         23    2    1    2    0    0 -0.15050234854E+03 -0.16134227561E+03 -0.25110239593E+03  0.35687509781E+03  0.12500054152E+03 0.  0.
          5    1    3    3  502    0 -0.10046103308E+03 -0.45456927103E+02 -0.54245999870E+02  0.12297751783E+03  0.47000000000E+01 0. -1.
         -5    1    3    3    0  502 -0.50041315458E+02 -0.11588534851E+03 -0.19685639606E+03  0.23389757998E+03  0.47000000000E+01 0. -1.
        -11    1    1    2    0    0  0.22257195871E+02  0.41486303432E+02 -0.12612101855E+02  0.48739729725E+02  0.00000000000E+00 0.  1.
         11    1    1    2    0    0  0.12824515267E+03  0.11985597218E+03  0.11621880590E+03  0.21052098256E+03  0.00000000000E+00 0. -1.
<mgrwt>
<rscale>  0 0.24950913E+03</rscale>
<asrwt>0</asrwt>
<pdfrwt beam="1">  1        1 0.36049240E-01 0.25358908E+03</pdfrwt>
<pdfrwt beam="2">  1       -1 0.58740885E-01 0.25358908E+03</pdfrwt>
<totfact> 0.36533963E+02</totfact>
</mgrwt>
</event>
<event>
 7    1  0.5400401E-006  0.3838234E+03  0.7546771E-02  0.1049530E+00
         -1   -1    0    0    0  501 -0.00000000000E+00  0.00000000000E+00  0.27673058532E+03  0.27673058532E+03  0.00000000000E+00 0.  1.
          1   -1    0    0  501    0  0.00000000000E+00 -0.00000000000E+00 -0.13309013069E+03  0.13309013069E+03  0.00000000000E+00 0. -1.
         23    2    1    2    0    0  0.10131250490E+03 -0.37988366782E+02  0.10890178684E+03  0.19475196950E+03  0.11983902030E+03 0.  0.
          5    1    3    3  502    0  0.66103801454E-01 -0.51771224106E+02  0.10944333714E+02  0.53123746626E+02  0.47000000000E+01 0. -1.
         -5    1    3    3    0  502  0.10124640110E+03  0.13782857323E+02  0.97957453129E+02  0.14162822288E+03  0.47000000000E+01 0.  1.
        -11    1    1    2    0    0 -0.47817572575E+02  0.89427125087E+02  0.79097577616E+02  0.12860854456E+03  0.00000000000E+00 0.  1.
         11    1    1    2    0    0 -0.53494932326E+02 -0.51438758305E+02 -0.44358909830E+02  0.86460201953E+02  0.00000000000E+00 0. -1.
<mgrwt>
<rscale>  0 0.38382345E+03</rscale>
<asrwt>0</asrwt>
<pdfrwt beam="2">  1        1 0.20475405E-01 0.38382345E+03</pdfrwt>
<pdfrwt beam="1">  1       -1 0.42573936E-01 0.38382345E+03</pdfrwt>
<totfact> 0.13730669E+03</totfact>
</mgrwt>
</event>
<event>
 7    1  0.5400401E-006  0.1303743E+03  0.7546771E-02  0.1240170E+00
          2   -1    0    0  501    0  0.00000000000E+00  0.00000000000E+00  0.15422000098E+03  0.15422000098E+03  0.00000000000E+00 0. -1.
         -2   -1    0    0    0  501 -0.00000000000E+00 -0.00000000000E+00 -0.89774560205E+02  0.89774560205E+02  0.00000000000E+00 0.  1.
         23    2    1    2    0    0  0.25959943234E+02  0.26550404557E+02  0.99975079343E+01  0.13075705124E+03  0.12497445199E+03 0.  0.
          5    1    3    3  502    0  0.23066484518E+02  0.72386365023E+02  0.28140302582E+02  0.81153035548E+02  0.47000000000E+01 0. -1.
         -5    1    3    3    0  502  0.28934587162E+01 -0.45835960466E+02 -0.18142794648E+02  0.49604015692E+02  0.47000000000E+01 0. -1.
        -11    1    1    2    0    0 -0.77286411413E+01 -0.36394519202E+02  0.75207558819E+02  0.83907507562E+02  0.00000000000E+00 0. -1.
         11    1    1    2    0    0 -0.18231302092E+02  0.98441146450E+01 -0.20759625976E+02  0.29330002383E+02  0.00000000000E+00 0.  1.
<mgrwt>
<rscale>  0 0.12179191E+03</rscale>
<asrwt>0</asrwt>
<pdfrwt beam="1">  1        2 0.23726154E-01 0.13037429E+03</pdfrwt>
<pdfrwt beam="2">  1       -2 0.13811471E-01 0.13037429E+03</pdfrwt>
<totfact> 0.84391456E+03</totfact>
</mgrwt>
</event>
<event>
 6    1  0.5400401E-006  0.3222617E+03  0.7546771E-02  0.1110858E+00
          1   -1    0    0  501    0  0.00000000000E+00  0.00000000000E+00  0.16697794072E+03  0.16697794072E+03  0.00000000000E+00 0. -1.
         -1   -1    0    0    0  501 -0.00000000000E+00 -0.00000000000E+00 -0.30330260666E+03  0.30330260666E+03  0.00000000000E+00 0.  1.
          5    1    1    2  502    0  0.16366338694E+03  0.55420304240E+02  0.94068737572E+01  0.17311179515E+03  0.47000000000E+01 0. -1.
         -5    1    1    2    0  502 -0.10814925885E+03  0.56402248062E+01 -0.13410047278E+03  0.17243288876E+03  0.47000000000E+01 0.  1.
        -11    1    1    2    0    0 -0.40306856000E+02 -0.85999808553E+02 -0.93900527377E+01  0.95439943432E+02  0.00000000000E+00 0.  1.
         11    1    1    2    0    0 -0.15207272082E+02  0.24939279507E+02 -0.22410141773E+01  0.29295920041E+02  0.00000000000E+00 0. -1.
<mgrwt>
<rscale>  0 0.25391031E+03</rscale>
<asrwt>0</asrwt>
<pdfrwt beam="1">  1        1 0.25688914E-01 0.32226175E+03</pdfrwt>
<pdfrwt beam="2">  1       -1 0.46661940E-01 0.32226175E+03</pdfrwt>
<totfact> 0.86454040E+02</totfact>
</mgrwt>
</event>
<event>
 7    1  0.5400401E-006  0.1162553E+03  0.7546771E-02  0.1259708E+00
         -2   -1    0    0    0  501 -0.00000000000E+00  0.00000000000E+00  0.90799708604E+02  0.90799708604E+02  0.00000000000E+00 0.  1.
          2   -1    0    0  501    0  0.00000000000E+00 -0.00000000000E+00 -0.21789678842E+03  0.21789678842E+03  0.00000000000E+00 0. -1.
         23    2    1    2    0    0  0.30445976156E+02  0.44095390928E+01  0.34580299410E+02  0.12128933289E+03  0.11211112196E+03 0.  0.
          5    1    3    3  502    0 -0.24155451133E+02  0.37615156663E+02  0.35384428427E+02  0.57206062662E+02  0.47000000000E+01 0. -1.
         -5    1    3    3    0  502  0.54601427289E+02 -0.33205617570E+02 -0.80412901716E+00  0.64083270232E+02  0.47000000000E+01 0.  1.
        -11    1    1    2    0    0 -0.89236407817E+01 -0.45559014367E+02 -0.99544927348E+02  0.10983827983E+03  0.00000000000E+00 0.  1.
         11    1    1    2    0    0 -0.21522335375E+02  0.41149475274E+02 -0.62132451880E+02  0.77568884302E+02  0.00000000000E+00 0. -1.
<mgrwt>
<rscale>  0 0.11046649E+03</rscale>
<asrwt>0</asrwt>
<pdfrwt beam="2">  1        2 0.33522583E-01 0.11625534E+03</pdfrwt>
<pdfrwt beam="1">  1       -2 0.13969186E-01 0.11625534E+03</pdfrwt>
<totfact> 0.56439962E+03</totfact>
</mgrwt>
</event>
<event>
 7    1  0.5400401E-006  0.1351028E+03  0.7546771E-02  0.1233229E+00
         -2   -1    0    0    0  501 -0.00000000000E+00  0.00000000000E+00  0.21902392567E+02  0.21902392567E+02  0.00000000000E+00 0.  1.
          2   -1    0    0  501    0  0.00000000000E+00 -0.00000000000E+00 -0.64997783817E+03  0.64997783817E+03  0.00000000000E+00 0. -1.
         23    2    1    2    0    0 -0.16284408671E+02  0.48548801439E+02 -0.33061284681E+03  0.35715208218E+03  0.12502234697E+03 0.  0.
          5    1    3    3  502    0 -0.27724701863E+02  0.40471744256E+02 -0.33311950520E+02  0.59484428416E+02  0.47000000000E+01 0. -1.
         -5    1    3    3    0  502  0.11440293192E+02  0.80770571830E+01 -0.29730089630E+03  0.29766765377E+03  0.47000000000E+01 0. -1.
        -11    1    1    2    0    0 -0.81180831563E+01  0.23917920148E+02 -0.55649375327E+02  0.61113199496E+02  0.00000000000E+00 0.  1.
         11    1    1    2    0    0  0.24402491827E+02 -0.72466721587E+02 -0.24181322346E+03  0.25361494906E+03  0.00000000000E+00 0. -1.
<mgrwt>
<rscale>  0 0.12618466E+03</rscale>
<asrwt>0</asrwt>
<pdfrwt beam="2">  1        2 0.99996575E-01 0.13510276E+03</pdfrwt>
<pdfrwt beam="1">  1       -2 0.33695994E-02 0.13510276E+03</pdfrwt>
<totfact> 0.15493328E+04</totfact>
</mgrwt>
</event>
<event>
 7    1  0.5400401E-006  0.1145814E+03  0.7546771E-02  0.1263744E+00
         -1   -1    0    0    0  501 -0.00000000000E+00  0.00000000000E+00  0.26522638625E+02  0.26522638625E+02  0.00000000000E+00 0.  1.
          1   -1    0    0  501    0  0.00000000000E+00 -0.00000000000E+00 -0.49895233734E+03  0.49895233734E+03  0.00000000000E+00 0. -1.
         23    2    1    2    0    0 -0.16051904814E+01  0.63796610365E+01 -0.14115386408E+03  0.18180570183E+03  0.11439240868E+03 0.  0.
          5    1    3    3  502    0 -0.15262503017E+02  0.15507431343E+02 -0.15695957965E+03  0.15853019923E+03  0.47000000000E+01 0. -1.
         -5    1    3    3    0  502  0.13657312536E+02 -0.91277703068E+01  0.15805715574E+02  0.23275502600E+02  0.47000000000E+01 0.  1.
        -11    1    1    2    0    0 -0.13561428435E+02  0.40223973742E+02 -0.15482516658E+03  0.16053881964E+03  0.00000000000E+00 0.  1.
         11    1    1    2    0    0  0.15166618916E+02 -0.46603634778E+02 -0.17645066806E+03  0.18313045449E+03  0.00000000000E+00 0. -1.
<mgrwt>
<rscale>  0 0.10830367E+03</rscale>
<asrwt>0</asrwt>
<pdfrwt beam="2">  1        1 0.76761893E-01 0.11458141E+03</pdfrwt>
<pdfrwt beam="1">  1       -1 0.40804062E-02 0.11458141E+03</pdfrwt>
<totfact> 0.10163035E+04</totfact>
</mgrwt>
</event>
<event>
 7    1  0.5400401E-006  0.1434268E+03  0.7546771E-02  0.1218763E+00
         -1   -1    0    0    0  501 -0.00000000000E+00  0.00000000000E+00  0.75393894056E+02  0.75393894056E+02  0.00000000000E+00 0.  1.
          1   -1    0    0  501    0  0.00000000000E+00 -0.00000000000E+00 -0.22538197436E+03  0.22538197436E+03  0.00000000000E+00 0. -1.
         23    2    1    2    0    0 -0.33915943021E+02 -0.61643678748E+02 -0.68442200802E+02  0.15892007425E+03  0.12498408230E+03 0.  0.
          5    1    3    3  502    0 -0.47305294482E+02 -0.30852290573E+02 -0.98480962970E+02  0.11362325813E+03  0.47000000000E+01 0. -1.
         -5    1    3    3    0  502  0.13389351461E+02 -0.30791388175E+02  0.30038762168E+02  0.45296816123E+02  0.47000000000E+01 0. -1.
        -11    1    1    2    0    0 -0.25640330022E+02 -0.36075041921E+01 -0.85864971352E+01  0.27279452766E+02  0.00000000000E+00 0.  1.
         11    1    1    2    0    0  0.59556273043E+02  0.65251182940E+02 -0.72959382371E+02  0.11457634141E+03  0.00000000000E+00 0. -1.
<mgrwt>
<rscale>  0 0.13603704E+03</rscale>
<asrwt>0</asrwt>
<pdfrwt beam="2">  1        1 0.34674149E-01 0.14342683E+03</pdfrwt>
<pdfrwt beam="1">  1       -1 0.11599061E-01 0.14342683E+03</pdfrwt>
<totfact> 0.58278782E+03</totfact>
</mgrwt>
</event>
<event>
 7    1  0.5400401E-006  0.1327700E+03  0.7546771E-02  0.1236502E+00
          2   -1    0    0  501    0  0.00000000000E+00  0.00000000000E+00  0.46553839817E+03  0.46553839817E+03  0.00000000000E+00 0. -1.
         -2   -1    0    0    0  501 -0.00000000000E+00 -0.00000000000E+00 -0.30128422838E+02  0.30128422838E+02  0.00000000000E+00 0.  1.
         23    2    1    2    0    0 -0.26383211125E+02 -0.36134675366E+02  0.28388915774E+03  0.31340219092E+03  0.12500436312E+03 0.  0.
          5    1    3    3  502    0 -0.18355958109E+02  0.42282220329E+02  0.15924892688E+03  0.16585245873E+03  0.47000000000E+01 0.  1.
         -5    1    3    3    0  502 -0.80272530155E+01 -0.78416895695E+02  0.12464023085E+03  0.14754973219E+03  0.47000000000E+01 0.  1.
        -11    1    1    2    0    0 -0.85185927506E+01  0.50658031180E+02  0.41841666538E+02  0.66253510127E+02  0.00000000000E+00 0.  1.
         11    1    1    2    0    0  0.34901803875E+02 -0.14523355814E+02  0.10967915105E+03  0.11601111996E+03  0.00000000000E+00 0. -1.
<mgrwt>
<rscale>  0 0.12408754E+03</rscale>
<asrwt>0</asrwt>
<pdfrwt beam="1">  1        2 0.71621287E-01 0.13277002E+03</pdfrwt>
<pdfrwt beam="2">  1       -2 0.46351423E-02 0.13277002E+03</pdfrwt>
<totfact> 0.13997498E+04</totfact>
</mgrwt>
</event>
<event>
 7    1  0.5400401E-006  0.1253061E+03  0.7546771E-02  0.1249755E+00
          2   -1    0    0  501    0  0.00000000000E+00  0.00000000000E+00  0.26540918962E+03  0.26540918962E+03  0.00000000000E+00 0. -1.
         -2   -1    0    0    0  501 -0.00000000000E+00 -0.00000000000E+00 -0.44772865921E+02  0.44772865921E+02  0.00000000000E+00 0.  1.
         23    2    1    2    0    0  0.74780803678E+01  0.38686256013E+01  0.11645845828E+03  0.17106782656E+03  0.12502296121E+03 0.  0.
          5    1    3    3  502    0  0.10816477094E+02  0.25733568020E+02  0.13737733236E+03  0.14026344551E+03  0.47000000000E+01 0. -1.
         -5    1    3    3    0  502 -0.33383967258E+01 -0.21864942419E+02 -0.20918874075E+02  0.30804381056E+02  0.47000000000E+01 0. -1.
        -11    1    1    2    0    0 -0.31034000097E+02 -0.80070454176E+01 -0.18001912400E+00  0.32050808808E+02  0.00000000000E+00 0.  1.
         11    1    1    2    0    0  0.23555919729E+02  0.41384198163E+01  0.10435788454E+03  0.10706342017E+03  0.00000000000E+00 0. -1.
<mgrwt>
<rscale>  0 0.11605263E+03</rscale>
<asrwt>0</asrwt>
<pdfrwt beam="1">  1        2 0.40832182E-01 0.12530614E+03</pdfrwt>
<pdfrwt beam="2">  1       -2 0.68881334E-02 0.12530614E+03</pdfrwt>
<totfact> 0.13927930E+04</totfact>
</mgrwt>
</event>
<event>
 7    1  0.5400401E-006  0.1227837E+03  0.7546771E-02  0.1278337E+00
         -2   -1    0    0    0  501 -0.00000000000E+00  0.00000000000E+00  0.31149098083E+03  0.31149098083E+03  0.00000000000E+00 0.  1.
          2   -1    0    0  501    0  0.00000000000E+00 -0.00000000000E+00 -0.10525791858E+03  0.10525791858E+03  0.00000000000E+00 0. -1.
         23    2    1    2    0    0  0.11760901430E+02 -0.40291238938E+02  0.29058317246E+03  0.31545904209E+03  0.11538684665E+03 0.  0.
          5    1    3    3  502    0  0.23943982829E+02  0.30851633831E+02  0.46609893017E+02  0.60989423270E+02  0.47000000000E+01 0. -1.
         -5    1    3    3    0  502 -0.12183081399E+02 -0.71142872769E+02  0.24397327945E+03  0.25446961882E+03  0.47000000000E+01 0.  1.
        -11    1    1    2    0    0  0.21168982379E+01  0.32299233049E+02 -0.28295658828E+02  0.42992627533E+02  0.00000000000E+00 0.  1.
         11    1    1    2    0    0 -0.13877799668E+02  0.79920058896E+01 -0.56054451380E+02  0.58297229791E+02  0.00000000000E+00 0. -1.
<mgrwt>
<rscale>  0 0.10093754E+03</rscale>
<asrwt>0</asrwt>
<pdfrwt beam="2">  1        2 0.16193526E-01 0.12278366E+03</pdfrwt>
<pdfrwt beam="1">  1       -2 0.47921689E-01 0.12278366E+03</pdfrwt>
<totfact> 0.14442761E+03</totfact>
</mgrwt>
</event>
<event>
 7    1  0.5400401E-006  0.1332281E+03  0.7546771E-02  0.1236029E+00
          1   -1    0    0  501    0  0.00000000000E+00  0.00000000000E+00  0.21416179928E+03  0.21416179928E+03  0.00000000000E+00 0. -1.
         -1   -1    0    0    0  501 -0.00000000000E+00 -0.00000000000E+00 -0.95550461407E+02  0.95550461407E+02  0.00000000000E+00 0.  1.
         23    2    1    2    0    0 -0.39526291624E+02 -0.23734400239E+02 -0.23444896371E+02  0.13527520787E+03  0.12499627681E+03 0.  0.
          5    1    3    3  502    0 -0.21258085228E+02  0.31974993508E+02  0.35139163271E+02  0.52260474479E+02  0.47000000000E+01 0. -1.
         -5    1    3    3    0  502 -0.18268206395E+02 -0.55709393748E+02 -0.58584059641E+02  0.83014733395E+02  0.47000000000E+01 0. -1.
        -11    1    1    2    0    0  0.67388165021E+02  0.60991425817E+01  0.86343376249E+02  0.10969750657E+03  0.00000000000E+00 0. -1.
         11    1    1    2    0    0 -0.27861873397E+02  0.17635257658E+02  0.55712857992E+02  0.64739546241E+02  0.00000000000E+00 0.  1.
<mgrwt>
<rscale>  0 0.12438796E+03</rscale>
<asrwt>0</asrwt>
<pdfrwt beam="1">  1        1 0.32947969E-01 0.13322807E+03</pdfrwt>
<pdfrwt beam="2">  1       -1 0.14700071E-01 0.13322807E+03</pdfrwt>
<totfact> 0.42796057E+03</totfact>
</mgrwt>
</event>
<event>
 7    1  0.5400401E-006  0.1851150E+03  0.7546771E-02  0.1168096E+00
         -1   -1    0    0    0  501 -0.00000000000E+00  0.00000000000E+00  0.28867150795E+02  0.28867150795E+02  0.00000000000E+00 0.  1.
          1   -1    0    0  501    0  0.00000000000E+00 -0.00000000000E+00 -0.10608927471E+04  0.10608927471E+04  0.00000000000E+00 0. -1.
         23    2    1    2    0    0 -0.27780782245E+00 -0.13655401640E+03 -0.51734382142E+03  0.54946535747E+03  0.12498189039E+03 0.  0.
          5    1    3    3  502    0 -0.33554969438E+02 -0.34081277029E+02 -0.32850960518E+03  0.33200620493E+03  0.47000000000E+01 0. -1.
         -5    1    3    3    0  502  0.33277161616E+02 -0.10247273937E+03 -0.18883421624E+03  0.21745915254E+03  0.47000000000E+01 0. -1.
        -11    1    1    2    0    0  0.41129720312E+02  0.80394425424E+02 -0.35222206858E+03  0.36361422294E+03  0.00000000000E+00 0. -1.
         11    1    1    2    0    0 -0.40851912490E+02  0.56159590974E+02 -0.16245970630E+03  0.17668031748E+03  0.00000000000E+00 0.  1.
<mgrwt>
<rscale>  0 0.17969812E+03</rscale>
<asrwt>0</asrwt>
<pdfrwt beam="2">  1        1 0.16321428E+00 0.18511496E+03</pdfrwt>
<pdfrwt beam="1">  1       -1 0.44410998E-02 0.18511496E+03</pdfrwt>
<totfact> 0.30080176E+03</totfact>
</mgrwt>
</event>
<event>
 7    1  0.5400401E-006  0.3232720E+03  0.7546771E-02  0.1075305E+00
          2   -1    0    0  501    0  0.00000000000E+00  0.00000000000E+00  0.15049520722E+03  0.15049520722E+03  0.00000000000E+00 0. -1.
         -2   -1    0    0    0  501 -0.00000000000E+00 -0.00000000000E+00 -0.86393626660E+03  0.86393626660E+03  0.00000000000E+00 0.  1.
         23    2    1    2    0    0 -0.20889656439E+03 -0.21270200603E+03 -0.59940517874E+03  0.68102228469E+03  0.12499946383E+03 0.  0.
          5    1    3    3  502    0 -0.53498345933E+02 -0.89984855751E+02 -0.10467006165E+03  0.14811231916E+03  0.47000000000E+01 0. -1.
         -5    1    3    3    0  502 -0.15539821845E+03 -0.12271715028E+03 -0.49473511709E+03  0.53290996553E+03  0.47000000000E+01 0. -1.
        -11    1    1    2    0    0  0.81183742147E+02  0.66828773484E+02  0.60947560551E+01  0.10532820613E+03  0.00000000000E+00 0. -1.
         11    1    1    2    0    0  0.12771282224E+03  0.14587323255E+03 -0.12013063669E+03  0.22808098301E+03  0.00000000000E+00 0.  1.
<mgrwt>
<rscale>  0 0.32074988E+03</rscale>
<asrwt>0</asrwt>
<pdfrwt beam="1">  1        2 0.23153109E-01 0.32327200E+03</pdfrwt>
<pdfrwt beam="2">  1       -2 0.13291327E+00 0.32327200E+03</pdfrwt>
<totfact> 0.10140754E+02</totfact>
</mgrwt>
</event>
<event>
 7    1  0.5400401E-006  0.2234103E+03  0.7546771E-02  0.1134658E+00
          1   -1    0    0  501    0  0.00000000000E+00  0.00000000000E+00  0.26556089084E+03  0.26556089084E+03  0.00000000000E+00 0. -1.
         -1   -1    0    0    0  501 -0.00000000000E+00 -0.00000000000E+00 -0.17923824910E+03  0.17923824910E+03  0.00000000000E+00 0.  1.
         23    2    1    2    0    0 -0.30761319761E+02 -0.18260998471E+03  0.58130114487E+01  0.22348591017E+03  0.12497798058E+03 0.  0.
          5    1    3    3  502    0  0.15213723083E+02 -0.55113050724E+02 -0.50706955809E+02  0.76564946924E+02  0.47000000000E+01 0.  1.
         -5    1    3    3    0  502 -0.45975042844E+02 -0.12749693399E+03  0.56519967257E+02  0.14692096324E+03  0.47000000000E+01 0.  1.
        -11    1    1    2    0    0 -0.18835708323E+02  0.10798805768E+03  0.72349290965E+02  0.13134163244E+03  0.00000000000E+00 0.  1.
         11    1    1    2    0    0  0.49597028084E+02  0.74621927037E+02  0.81603393273E+01  0.89971597338E+02  0.00000000000E+00 0. -1.
<mgrwt>
<rscale>  0 0.21896421E+03</rscale>
<asrwt>0</asrwt>
<pdfrwt beam="1">  1        1 0.40855521E-01 0.22341030E+03</pdfrwt>
<pdfrwt beam="2">  1       -1 0.27575115E-01 0.22341030E+03</pdfrwt>
<totfact> 0.12040874E+03</totfact>
</mgrwt>
</event>
<event>
 7    1  0.5400401E-006  0.1583102E+03  0.7546771E-02  0.1198792E+00
          4   -1    0    0  501    0  0.00000000000E+00  0.00000000000E+00  0.42574515772E+02  0.42574515772E+02  0.00000000000E+00 0. -1.
         -4   -1    0    0    0  501 -0.00000000000E+00 -0.00000000000E+00 -0.51116781976E+03  0.51116781976E+03  0.00000000000E+00 0.  1.
         23    2    1    2    0    0  0.47625378210E+02 -0.84667197187E+02 -0.30200756298E+03  0.34098487301E+03  0.12500161835E+03 0.  0.
          5    1    3    3  502    0  0.97380302402E+01 -0.79465084964E+02 -0.28961010288E+03  0.30050895270E+03  0.47000000000E+01 0. -1.
         -5    1    3    3    0  502  0.37887347970E+02 -0.52021122224E+01 -0.12397460101E+02  0.40475920307E+02  0.47000000000E+01 0. -1.
        -11    1    1    2    0    0  0.93508086182E+01  0.51135212707E+02 -0.12310218636E+03  0.13362782602E+03  0.00000000000E+00 0.  1.
         11    1    1    2    0    0 -0.56976186828E+02  0.33531984479E+02 -0.43483554643E+02  0.79129636502E+02  0.00000000000E+00 0. -1.
<mgrwt>
<rscale>  0 0.15137623E+03</rscale>
<asrwt>0</asrwt>
<pdfrwt beam="1">  1        4 0.65499256E-02 0.15831019E+03</pdfrwt>
<pdfrwt beam="2">  1       -4 0.78641202E-01 0.15831019E+03</pdfrwt>
<totfact> 0.38853432E+02</totfact>
</mgrwt>
</event>
<event>
 7    1  0.5400401E-006  0.1760514E+03  0.7546771E-02  0.1177635E+00
         -1   -1    0    0    0  501 -0.00000000000E+00  0.00000000000E+00  0.10650042730E+03  0.10650042730E+03  0.00000000000E+00 0.  1.
          1   -1    0    0  501    0  0.00000000000E+00 -0.00000000000E+00 -0.28447312261E+03  0.28447312261E+03  0.00000000000E+00 0. -1.
         23    2    1    2    0    0  0.12196147537E+03  0.22217962251E+02 -0.32014117575E+02  0.17893853771E+03  0.12500342888E+03 0.  0.
          5    1    3    3  502    0  0.43582831127E+02  0.33667132490E+02 -0.71446749695E+02  0.90330875238E+02  0.47000000000E+01 0. -1.
         -5    1    3    3    0  502  0.78378644241E+02 -0.11449170239E+02  0.39432632120E+02  0.88607662468E+02  0.47000000000E+01 0. -1.
        -11    1    1    2    0    0 -0.10215358860E+03  0.22556114965E+01 -0.55553180145E+02  0.11630390910E+03  0.00000000000E+00 0.  1.
         11    1    1    2    0    0 -0.19807886769E+02 -0.24473573748E+02 -0.90405397588E+02  0.95731103114E+02  0.00000000000E+00 0. -1.
<mgrwt>
<rscale>  0 0.17020403E+03</rscale>
<asrwt>0</asrwt>
<pdfrwt beam="2">  1        1 0.43765095E-01 0.17605140E+03</pdfrwt>
<pdfrwt beam="1">  1       -1 0.16384681E-01 0.17605140E+03</pdfrwt>
<totfact> 0.25679194E+03</totfact>
</mgrwt>
</event>
<event>
 7    1  0.5400401E-006  0.1416155E+03  0.7546771E-02  0.1221683E+00
         -2   -1    0    0    0  501 -0.00000000000E+00  0.00000000000E+00  0.42739446269E+02  0.42739446269E+02  0.00000000000E+00 0.  1.
          2   -1    0    0  501    0  0.00000000000E+00 -0.00000000000E+00 -0.61834362263E+03  0.61834362263E+03  0.00000000000E+00 0. -1.
         23    2    1    2    0    0  0.65868018728E+02  0.95069288958E+01 -0.10313309666E+03  0.17518955564E+03  0.12500386870E+03 0.  0.
          5    1    3    3  502    0  0.28784661819E+02 -0.57707142624E+02 -0.49371241837E+02  0.81352815479E+02  0.47000000000E+01 0.  1.
         -5    1    3    3    0  502  0.37083356910E+02  0.67214071520E+02 -0.53761854827E+02  0.93836740163E+02  0.47000000000E+01 0.  1.
        -11    1    1    2    0    0  0.12876467979E+02  0.24473361444E+02 -0.11472881416E+03  0.11801461624E+03  0.00000000000E+00 0.  1.
         11    1    1    2    0    0 -0.78744486708E+02 -0.33980290340E+02 -0.35774226553E+03  0.36787889701E+03  0.00000000000E+00 0. -1.
<mgrwt>
<rscale>  0 0.13396869E+03</rscale>
<asrwt>0</asrwt>
<pdfrwt beam="2">  1        2 0.95129786E-01 0.14161548E+03</pdfrwt>
<pdfrwt beam="1">  1       -2 0.65752996E-02 0.14161548E+03</pdfrwt>
<totfact> 0.60437372E+03</totfact>
</mgrwt>
</event>
<event>
 7    1  0.5400401E-006  0.1434075E+03  0.7546771E-02  0.1218841E+00
         -2   -1    0    0    0  501 -0.00000000000E+00  0.00000000000E+00  0.24966675872E+02  0.24966675872E+02  0.00000000000E+00 0.  1.
          2   -1    0    0  501    0  0.00000000000E+00 -0.00000000000E+00 -0.67380464024E+03  0.67380464024E+03  0.00000000000E+00 0. -1.
         23    2    1    2    0    0  0.56534372175E+02  0.41787627337E+02 -0.35098489256E+03  0.37915184162E+03  0.12499353248E+03 0.  0.
          5    1    3    3  502    0  0.47114058941E+02  0.66261379200E+02 -0.11088650243E+03  0.13757983626E+03  0.47000000000E+01 0. -1.
         -5    1    3    3    0  502  0.94203132346E+01 -0.24473751863E+02 -0.24009839013E+03  0.24157200536E+03  0.47000000000E+01 0. -1.
        -11    1    1    2    0    0 -0.17213196306E+02  0.16413799193E+01 -0.13057032236E+01  0.17340505068E+02  0.00000000000E+00 0.  1.
         11    1    1    2    0    0 -0.39321175869E+02 -0.43429007256E+02 -0.29654736859E+03  0.30227896943E+03  0.00000000000E+00 0. -1.
<mgrwt>
<rscale>  0 0.13598141E+03</rscale>
<asrwt>0</asrwt>
<pdfrwt beam="2">  1        2 0.10366222E+00 0.14340755E+03</pdfrwt>
<pdfrwt beam="1">  1       -2 0.38410283E-02 0.14340755E+03</pdfrwt>
<totfact> 0.12289002E+04</totfact>
</mgrwt>
</event>
<event>
 7    1  0.5400401E-006  0.2757253E+03  0.7546771E-02  0.1100229E+00
          1   -1    0    0  501    0  0.00000000000E+00  0.00000000000E+00  0.21930451703E+04  0.21930451703E+04  0.00000000000E+00 0.  1.
         -1   -1    0    0    0  501 -0.00000000000E+00 -0.00000000000E+00 -0.32876686401E+02  0.32876686401E+02  0.00000000000E+00 0. -1.
         23    2    1    2    0    0 -0.13840292652E+03  0.20308601358E+03  0.11705047225E+04  0.12025413650E+04  0.12500052113E+03 0.  0.
          5    1    3    3  502    0 -0.20208207511E+02  0.11052453467E+03  0.32772222432E+03  0.34647942324E+03  0.47000000000E+01 0.  1.
         -5    1    3    3    0  502 -0.11819471901E+03  0.92561478906E+02  0.84278249816E+03  0.85606194179E+03  0.47000000000E+01 0.  1.
        -11    1    1    2    0    0  0.63288675873E+02 -0.16359484440E+03  0.68774427794E+03  0.70976117212E+03  0.00000000000E+00 0.  1.
         11    1    1    2    0    0  0.75114250645E+02 -0.39491169181E+02  0.30191948349E+03  0.31361931956E+03  0.00000000000E+00 0. -1.
<mgrwt>
<rscale>  0 0.27184402E+03</rscale>
<asrwt>0</asrwt>
<pdfrwt beam="1">  1        1 0.33739145E+00 0.27572528E+03</pdfrwt>
<pdfrwt beam="2">  1       -1 0.50579535E-02 0.27572528E+03</pdfrwt>
<totfact> 0.43640665E+02</totfact>
</mgrwt>
</event>
<event>
 7    1  0.5400401E-006  0.1654580E+03  0.7546771E-02  0.1190076E+00
          2   -1    0    0  501    0  0.00000000000E+00  0.00000000000E+00  0.65157375841E+03  0.65157375841E+03  0.00000000000E+00 0. -1.
         -2   -1    0    0    0  501 -0.00000000000E+00 -0.00000000000E+00 -0.45678577823E+02  0.45678577823E+02  0.00000000000E+00 0.  1.
         23    2    1    2    0    0  0.51372123969E+00 -0.10839684865E+03  0.16144467955E+03  0.23117248786E+03  0.12500477544E+03 0.  0.
          5    1    3    3  502    0 -0.10088597119E+02 -0.72281267699E+02  0.17596412721E+03  0.19055662024E+03  0.47000000000E+01 0. -1.
         -5    1    3    3    0  502  0.10602318359E+02 -0.36115580953E+02 -0.14519447667E+02  0.40615867622E+02  0.47000000000E+01 0. -1.
        -11    1    1    2    0    0  0.12483481193E+01  0.31194376091E+02  0.26188980959E+02  0.40749358233E+02  0.00000000000E+00 0.  1.
         11    1    1    2    0    0 -0.17620693590E+01  0.77202472561E+02  0.41826152008E+03  0.42533049013E+03  0.00000000000E+00 0. -1.
<mgrwt>
<rscale>  0 0.15878445E+03</rscale>
<asrwt>0</asrwt>
<pdfrwt beam="1">  1        2 0.10024211E+00 0.16545795E+03</pdfrwt>
<pdfrwt beam="2">  1       -2 0.70274740E-02 0.16545795E+03</pdfrwt>
<totfact> 0.51751041E+03</totfact>
</mgrwt>
</event>
<event>
 7    1  0.5400401E-006  0.1260828E+03  0.7546771E-02  0.1248496E+00
          1   -1    0    0  501    0  0.00000000000E+00  0.00000000000E+00  0.17776739050E+03  0.17776739050E+03  0.00000000000E+00 0. -1.
         -1   -1    0    0    0  501 -0.00000000000E+00 -0.00000000000E+00 -0.67513110091E+02  0.67513110091E+02  0.00000000000E+00 0.  1.
         23    2    1    2    0    0  0.16341589266E+02  0.28602531445E+01  0.68820789798E+02  0.14364254348E+03  0.12498660169E+03 0.  0.
          5    1    3    3  502    0  0.65402404799E+02 -0.22701721958E+02  0.28445173109E+02  0.74993737116E+02  0.47000000000E+01 0.  1.
         -5    1    3    3    0  502 -0.49060815534E+02  0.25561975103E+02  0.40375616690E+02  0.68648806363E+02  0.47000000000E+01 0.  1.
        -11    1    1    2    0    0  0.29238779754E+02 -0.10205434688E+02  0.45774103561E+02  0.55265954217E+02  0.00000000000E+00 0. -1.
         11    1    1    2    0    0 -0.45580369020E+02  0.73451815432E+01 -0.43406129488E+01  0.46372002897E+02  0.00000000000E+00 0.  1.
<mgrwt>
<rscale>  0 0.11678570E+03</rscale>
<asrwt>0</asrwt>
<pdfrwt beam="1">  1        1 0.27348829E-01 0.12608283E+03</pdfrwt>
<pdfrwt beam="2">  1       -1 0.10386632E-01 0.12608283E+03</pdfrwt>
<totfact> 0.91876951E+03</totfact>
</mgrwt>
</event>
<event>
 7    1  0.5400401E-006  0.1256242E+03  0.7546771E-02  0.1249625E+00
         -1   -1    0    0    0  501 -0.00000000000E+00  0.00000000000E+00  0.56212146959E+02  0.56212146959E+02  0.00000000000E+00 0.  1.
          1   -1    0    0  501    0  0.00000000000E+00 -0.00000000000E+00 -0.22630673702E+03  0.22630673702E+03  0.00000000000E+00 0. -1.
         23    2    1    2    0    0  0.95873797470E+00  0.12462901339E+02 -0.60004584005E+02  0.13921925717E+03  0.12500083351E+03 0.  0.
          5    1    3    3  502    0  0.39227646109E+02  0.21520412169E+01 -0.83857496544E+02  0.92723293876E+02  0.47000000000E+01 0. -1.
         -5    1    3    3    0  502 -0.38268908134E+02  0.10310860122E+02  0.23852912540E+02  0.46495963296E+02  0.47000000000E+01 0. -1.
        -11    1    1    2    0    0  0.87906975190E+01  0.23259360026E+02 -0.10253641593E+03  0.10550824984E+03  0.00000000000E+00 0. -1.
         11    1    1    2    0    0 -0.97494354937E+01 -0.35722261366E+02 -0.75535901278E+01  0.37791376971E+02  0.00000000000E+00 0.  1.
<mgrwt>
<rscale>  0 0.11612793E+03</rscale>
<asrwt>0</asrwt>
<pdfrwt beam="2">  1        1 0.34816422E-01 0.12562425E+03</pdfrwt>
<pdfrwt beam="1">  1       -1 0.86480224E-02 0.12562425E+03</pdfrwt>
<totfact> 0.89931062E+03</totfact>
</mgrwt>
</event>
<event>
 7    1  0.5400401E-006  0.1295407E+03  0.7546771E-02  0.1242254E+00
          1   -1    0    0  501    0  0.00000000000E+00  0.00000000000E+00  0.72761162221E+02  0.72761162221E+02  0.00000000000E+00 0. -1.
         -1   -1    0    0    0  501 -0.00000000000E+00 -0.00000000000E+00 -0.18714963700E+03  0.18714963700E+03  0.00000000000E+00 0.  1.
         23    2    1    2    0    0  0.14126982702E+02  0.30951153685E+02 -0.95800615988E+02  0.16111659688E+03  0.12499301665E+03 0.  0.
          5    1    3    3  502    0  0.28519137732E+02  0.30382372378E+02 -0.12301656657E+03  0.12996767066E+03  0.47000000000E+01 0. -1.
         -5    1    3    3    0  502 -0.14392155030E+02  0.56878130745E+00  0.27215950577E+02  0.31148926216E+02  0.47000000000E+01 0. -1.
        -11    1    1    2    0    0 -0.48878986642E+02 -0.30569290554E+01 -0.22822670500E+02  0.54031235773E+02  0.00000000000E+00 0. -1.
         11    1    1    2    0    0  0.34752003940E+02 -0.27894224630E+02  0.42348117111E+01  0.44762966566E+02  0.00000000000E+00 0.  1.
<mgrwt>
<rscale>  0 0.12051221E+03</rscale>
<asrwt>0</asrwt>
<pdfrwt beam="1">  1        1 0.11194025E-01 0.12954073E+03</pdfrwt>
<pdfrwt beam="2">  1       -1 0.28792252E-01 0.12954073E+03</pdfrwt>
<totfact> 0.57252477E+03</totfact>
</mgrwt>
</event>
<event>
 6    1  0.5400401E-006  0.8647516E+03  0.7546771E-02  0.9470749E-01
          1   -1    0    0  501    0  0.00000000000E+00  0.00000000000E+00  0.21652473486E+03  0.21652473486E+03  0.00000000000E+00 0. -1.
         -1   -1    0    0    0  501 -0.00000000000E+00 -0.00000000000E+00 -0.86340641288E+03  0.86340641288E+03  0.00000000000E+00 0.  1.
          5    1    1    2  502    0 -0.53632620348E+01  0.20443348443E+02 -0.28674416382E+03  0.28756042941E+03  0.47000000000E+01 0. -1.
         -5    1    1    2    0  502  0.16375412261E+03  0.28869860735E+02 -0.51834807130E+03  0.54438561200E+03  0.47000000000E+01 0.  1.
        -11    1    1    2    0    0 -0.37028501450E+02 -0.57787859651E+02  0.67182736498E+02  0.96042005009E+02  0.00000000000E+00 0.  1.
         11    1    1    2    0    0 -0.12136235913E+03  0.84746504729E+01  0.91027820605E+02  0.15194310132E+03  0.00000000000E+00 0. -1.
<mgrwt>
<rscale>  0 0.86475163E+03</rscale>
<asrwt>0</asrwt>
<pdfrwt beam="1">  1        1 0.33311497E-01 0.86475163E+03</pdfrwt>
<pdfrwt beam="2">  1       -1 0.13283176E+00 0.86475163E+03</pdfrwt>
<totfact> 0.65066738E+01</totfact>
</mgrwt>
</event>
<event>
 7    1  0.5400401E-006  0.2249463E+03  0.7546771E-02  0.1132839E+00
          2   -1    0    0  501    0  0.00000000000E+00  0.00000000000E+00  0.25042212496E+03  0.25042212496E+03  0.00000000000E+00 0. -1.
         -2   -1    0    0    0  501 -0.00000000000E+00 -0.00000000000E+00 -0.19016525872E+03  0.19016525872E+03  0.00000000000E+00 0.  1.
         23    2    1    2    0    0  0.38531186959E+02  0.18302417217E+03  0.40297944985E+02  0.22852738402E+03  0.12497336080E+03 0.  0.
          5    1    3    3  502    0 -0.58713980318E+01  0.18003806605E+03  0.32530845773E+02  0.18310795850E+03  0.47000000000E+01 0.  1.
         -5    1    3    3    0  502  0.44402584990E+02  0.29861061203E+01  0.77670992117E+01  0.45419425511E+02  0.47000000000E+01 0.  1.
        -11    1    1    2    0    0 -0.63401057633E+02 -0.74703444281E+02  0.23889671793E+02  0.10085145073E+03  0.00000000000E+00 0. -1.
         11    1    1    2    0    0  0.24869870675E+02 -0.10832072789E+03 -0.39307505408E+01  0.11120854894E+03  0.00000000000E+00 0.  1.
<mgrwt>
<rscale>  0 0.22140672E+03</rscale>
<asrwt>0</asrwt>
<pdfrwt beam="1">  1        2 0.38526481E-01 0.22494631E+03</pdfrwt>
<pdfrwt beam="2">  1       -2 0.29256194E-01 0.22494631E+03</pdfrwt>
<totfact> 0.14187334E+03</totfact>
</mgrwt>
</event>
<event>
 7    1  0.5400401E-006  0.1303086E+03  0.7546771E-02  0.1241484E+00
         -2   -1    0    0    0  501 -0.00000000000E+00  0.00000000000E+00  0.95032855065E+01  0.95032855065E+01  0.00000000000E+00 0.  1.
          2   -1    0    0  501    0  0.00000000000E+00 -0.00000000000E+00 -0.13902630831E+04  0.13902630831E+04  0.00000000000E+00 0. -1.
         23    2    1    2    0    0  0.33662771668E+02  0.14887375043E+02 -0.89661881131E+03  0.90603842618E+03  0.12500208315E+03 0.  0.
          5    1    3    3  502    0  0.72925195732E+02  0.28221487050E+02 -0.73330583585E+03  0.73747818638E+03  0.47000000000E+01 0. -1.
         -5    1    3    3    0  502 -0.39262424064E+02 -0.13334112007E+02 -0.16331297546E+03  0.16856023980E+03  0.47000000000E+01 0. -1.
        -11    1    1    2    0    0  0.13565704148E+02  0.29199926878E+02 -0.15656694866E+03  0.15984327784E+03  0.00000000000E+00 0.  1.
         11    1    1    2    0    0 -0.47228475816E+02 -0.44087301920E+02 -0.32757403764E+03  0.33388466460E+03  0.00000000000E+00 0. -1.
<mgrwt>
<rscale>  0 0.12098319E+03</rscale>
<asrwt>0</asrwt>
<pdfrwt beam="2">  1        2 0.21388644E+00 0.13030862E+03</pdfrwt>
<pdfrwt beam="1">  1       -2 0.14620452E-02 0.13030862E+03</pdfrwt>
<totfact> 0.18420141E+04</totfact>
</mgrwt>
</event>
<event>
 7    1  0.5400401E-006  0.1367209E+03  0.7546771E-02  0.1227330E+00
          1   -1    0    0  501    0  0.00000000000E+00  0.00000000000E+00  0.24088944971E+03  0.24088944971E+03  0.00000000000E+00 0. -1.
         -1   -1    0    0    0  501 -0.00000000000E+00 -0.00000000000E+00 -0.74442973521E+02  0.74442973521E+02  0.00000000000E+00 0.  1.
         23    2    1    2    0    0  0.46939757365E+02 -0.29622373418E+02  0.32183400404E+02  0.14045774408E+03  0.12494711194E+03 0.  0.
          5    1    3    3  502    0  0.82474665108E+02  0.10032319825E+02  0.17709761922E+02  0.85079042620E+02  0.47000000000E+01 0.  1.
         -5    1    3    3    0  502 -0.35534907743E+02 -0.39654693243E+02  0.14473638482E+02  0.55378701460E+02  0.47000000000E+01 0.  1.
        -11    1    1    2    0    0 -0.69871895778E+02  0.10861292482E+02  0.52970850425E+02  0.88351346842E+02  0.00000000000E+00 0. -1.
         11    1    1    2    0    0  0.22932138414E+02  0.18761080936E+02  0.81292225359E+02  0.86523332310E+02  0.00000000000E+00 0.  1.
<mgrwt>
<rscale>  0 0.13008478E+03</rscale>
<asrwt>0</asrwt>
<pdfrwt beam="1">  1        1 0.37059915E-01 0.13672091E+03</pdfrwt>
<pdfrwt beam="2">  1       -1 0.11452765E-01 0.13672091E+03</pdfrwt>
<totfact> 0.54566796E+03</totfact>
</mgrwt>
</event>
<event>
 7    1  0.5400401E-006  0.1314777E+03  0.7546771E-02  0.1238351E+00
         -3   -1    0    0    0  501 -0.00000000000E+00  0.00000000000E+00  0.50513095735E+03  0.50513095735E+03  0.00000000000E+00 0.  1.
          3   -1    0    0  501    0  0.00000000000E+00 -0.00000000000E+00 -0.26908586914E+02  0.26908586914E+02  0.00000000000E+00 0. -1.
         23    2    1    2    0    0 -0.36421350258E+02 -0.18352943082E+02  0.29788641387E+03  0.32561128605E+03  0.12499219479E+03 0.  0.
          5    1    3    3  502    0 -0.58449346196E+01  0.26041408497E+02  0.47381995669E+01  0.27511065998E+02  0.47000000000E+01 0. -1.
         -5    1    3    3    0  502 -0.30576415638E+02 -0.44394351579E+02  0.29314821430E+03  0.29810022005E+03  0.47000000000E+01 0. -1.
        -11    1    1    2    0    0  0.33804413347E+02  0.54048990563E+02  0.12838512109E+03  0.14334144920E+03  0.00000000000E+00 0.  1.
         11    1    1    2    0    0  0.26169369108E+01 -0.35696047481E+02  0.51950835478E+02  0.63086809013E+02  0.00000000000E+00 0. -1.
<mgrwt>
<rscale>  0 0.12292324E+03</rscale>
<asrwt>0</asrwt>
<pdfrwt beam="2">  1        3 0.41397830E-02 0.13147773E+03</pdfrwt>
<pdfrwt beam="1">  1       -3 0.77712448E-01 0.13147773E+03</pdfrwt>
<totfact> 0.11204696E+03</totfact>
</mgrwt>
</event>
<event>
 6    1  0.5400401E-006  0.1447084E+03  0.7546771E-02  0.1222693E+00
         -2   -1    0    0    0  501 -0.00000000000E+00  0.00000000000E+00  0.27239405505E+02  0.27239405505E+02  0.00000000000E+00 0.  1.
          2   -1    0    0  501    0  0.00000000000E+00 -0.00000000000E+00 -0.60541110645E+03  0.60541110645E+03  0.00000000000E+00 0. -1.
          5    1    1    2  502    0  0.20698998646E+02  0.28290410786E+02 -0.18034793152E+03  0.18378319371E+03  0.47000000000E+01 0. -1.
         -5    1    1    2    0  502 -0.32508246776E+02 -0.73162301915E+02 -0.75453169105E+02  0.11011257538E+03  0.47000000000E+01 0.  1.
        -11    1    1    2    0    0 -0.27562366249E+02  0.55951444501E+02 -0.17361965669E+03  0.18448315198E+03  0.00000000000E+00 0.  1.
         11    1    1    2    0    0  0.39371614378E+02 -0.11079553372E+02 -0.14875094363E+03  0.15427159088E+03  0.00000000000E+00 0. -1.
<mgrwt>
<rscale>  0 0.13326274E+03</rscale>
<asrwt>0</asrwt>
<pdfrwt beam="2">  1        2 0.93140162E-01 0.14470840E+03</pdfrwt>
<pdfrwt beam="1">  1       -2 0.41906782E-02 0.14470840E+03</pdfrwt>
<totfact> 0.12227903E+04</totfact>
</mgrwt>
</event>
<event>
 7    1  0.5400401E-006  0.1472966E+03  0.7546771E-02  0.1214453E+00
          2   -1    0    0  501    0  0.00000000000E+00  0.00000000000E+00  0.17333568647E+02  0.17333568647E+02  0.00000000000E+00 0. -1.
         -2   -1    0    0    0  501 -0.00000000000E+00 -0.00000000000E+00 -0.10592477443E+04  0.10592477443E+04  0.00000000000E+00 0.  1.
         23    2    1    2    0    0  0.74532698897E+02 -0.22756776418E+02 -0.69208132335E+03  0.70758240023E+03  0.12499320345E+03 0.  0.
          5    1    3    3  502    0  0.73900501122E+02 -0.50276413281E+02 -0.65538781407E+03  0.66147129842E+03  0.47000000000E+01 0. -1.
         -5    1    3    3    0  502  0.63219777512E+00  0.27519636862E+02 -0.36693509276E+02  0.46111101809E+02  0.47000000000E+01 0. -1.
        -11    1    1    2    0    0 -0.88144394518E+02 -0.18360745248E+01 -0.24187701580E+03  0.25744377294E+03  0.00000000000E+00 0. -1.
         11    1    1    2    0    0  0.13611695620E+02  0.24592850943E+02 -0.10795583651E+03  0.11155513978E+03  0.00000000000E+00 0.  1.
<mgrwt>
<rscale>  0 0.13916807E+03</rscale>
<asrwt>0</asrwt>
<pdfrwt beam="1">  1        2 0.26667031E-02 0.14729662E+03</pdfrwt>
<pdfrwt beam="2">  1       -2 0.16296118E+00 0.14729662E+03</pdfrwt>
<totfact> 0.91370063E+02</totfact>
</mgrwt>
</event>
<event>
 6    1  0.5400401E-006  0.3502008E+03  0.7546771E-02  0.1109873E+00
          2   -1    0    0  501    0  0.00000000000E+00  0.00000000000E+00  0.23405074867E+03  0.23405074867E+03  0.00000000000E+00 0. -1.
         -2   -1    0    0    0  501 -0.00000000000E+00 -0.00000000000E+00 -0.29294386542E+03  0.29294386542E+03  0.00000000000E+00 0.  1.
          5    1    1    2  502    0  0.14068343256E+03 -0.32784463646E+02 -0.45837536259E+01  0.14460204027E+03  0.47000000000E+01 0. -1.
         -5    1    1    2    0  502 -0.18214058702E+03  0.20479742217E+02 -0.15568628950E+03  0.24053050538E+03  0.47000000000E+01 0.  1.
        -11    1    1    2    0    0  0.39151175924E+02  0.46538296748E+02  0.44204632775E+02  0.75184288247E+02  0.00000000000E+00 0. -1.
         11    1    1    2    0    0  0.23059785337E+01 -0.34233575319E+02  0.57172293599E+02  0.66677780193E+02  0.00000000000E+00 0.  1.
<mgrwt>
<rscale>  0 0.25550767E+03</rscale>
<asrwt>0</asrwt>
<pdfrwt beam="1">  1        2 0.36007807E-01 0.35020079E+03</pdfrwt>
<pdfrwt beam="2">  1       -2 0.45068287E-01 0.35020079E+03</pdfrwt>
<totfact> 0.67982342E+02</totfact>
</mgrwt>
</event>
<event>
 7    1  0.5400401E-006  0.1266781E+03  0.7546771E-02  0.1247358E+00
         -3   -1    0    0    0  501 -0.00000000000E+00  0.00000000000E+00  0.88748332464E+02  0.88748332464E+02  0.00000000000E+00 0.  1.
          3   -1    0    0  501    0  0.00000000000E+00 -0.00000000000E+00 -0.13997079775E+03  0.13997079775E+03  0.00000000000E+00 0. -1.
         23    2    1    2    0    0 -0.10216496559E+02 -0.17706904589E+02 -0.12096865470E+02  0.12725439378E+03  0.12501773998E+03 0.  0.
          5    1    3    3  502    0 -0.18936346102E+02  0.12304473146E+01  0.54189414342E+02  0.57608001450E+02  0.47000000000E+01 0. -1.
         -5    1    3    3    0  502  0.87198495431E+01 -0.18937351903E+02 -0.66286279812E+02  0.69646392329E+02  0.47000000000E+01 0. -1.
        -11    1    1    2    0    0 -0.29748215123E+02 -0.20717188228E+02 -0.56140165131E+01  0.36683448209E+02  0.00000000000E+00 0.  1.
         11    1    1    2    0    0  0.39964711682E+02  0.38424092817E+02 -0.33511583301E+02  0.64781288224E+02  0.00000000000E+00 0. -1.
<mgrwt>
<rscale>  0 0.11745344E+03</rscale>
<asrwt>0</asrwt>
<pdfrwt beam="2">  1        3 0.21533969E-01 0.12667812E+03</pdfrwt>
<pdfrwt beam="1">  1       -3 0.13653590E-01 0.12667812E+03</pdfrwt>
<totfact> 0.19438568E+03</totfact>
</mgrwt>
</event>
<event>
 7    1  0.5400401E-006  0.1453075E+03  0.7546771E-02  0.1216386E+00
         -1   -1    0    0    0  501 -0.00000000000E+00  0.00000000000E+00  0.29671954845E+03  0.29671954845E+03  0.00000000000E+00 0.  1.
          1   -1    0    0  501    0  0.00000000000E+00 -0.00000000000E+00 -0.59392174608E+02  0.59392174608E+02  0.00000000000E+00 0. -1.
         23    2    1    2    0    0  0.35207952822E+02  0.65188619617E+02  0.15681616013E+03  0.21378864437E+03  0.12500048125E+03 0.  0.
          5    1    3    3  502    0  0.72820426391E+02  0.34408094909E+02  0.14102319837E+03  0.16246957861E+03  0.47000000000E+01 0.  1.
         -5    1    3    3    0  502 -0.37612473569E+02  0.30780524708E+02  0.15792961765E+02  0.51319065761E+02  0.47000000000E+01 0.  1.
        -11    1    1    2    0    0  0.18255313387E+02 -0.13746071031E+02  0.61680076466E+02  0.65777220742E+02  0.00000000000E+00 0.  1.
         11    1    1    2    0    0 -0.53463266209E+02 -0.51442548586E+02  0.18831137241E+02  0.76545857945E+02  0.00000000000E+00 0. -1.
<mgrwt>
<rscale>  0 0.13775197E+03</rscale>
<asrwt>0</asrwt>
<pdfrwt beam="2">  1        1 0.91372579E-02 0.14530752E+03</pdfrwt>
<pdfrwt beam="1">  1       -1 0.45649160E-01 0.14530752E+03</pdfrwt>
<totfact> 0.34027912E+03</totfact>
</mgrwt>
</event>
<event>
 7    1  0.5400401E-006  0.1383055E+03  0.7546771E-02  0.1227192E+00
          2   -1    0    0  501    0  0.00000000000E+00  0.00000000000E+00  0.30892791831E+03  0.30892791831E+03  0.00000000000E+00 0. -1.
         -2   -1    0    0    0  501 -0.00000000000E+00 -0.00000000000E+00 -0.49450470174E+02  0.49450470174E+02  0.00000000000E+00 0.  1.
         23    2    1    2    0    0 -0.20983036313E+02  0.55342941772E+02  0.13599038212E+03  0.19396337194E+03  0.12500110643E+03 0.  0.
          5    1    3    3  502    0  0.34148610892E+02 -0.17665347644E+02  0.13525061187E+02  0.41026935218E+02  0.47000000000E+01 0. -1.
         -5    1    3    3    0  502 -0.55131647204E+02  0.73008289416E+02  0.12246532093E+03  0.15293643672E+03  0.47000000000E+01 0. -1.
        -11    1    1    2    0    0  0.28595626485E+02 -0.41458097123E+02  0.13548838858E+03  0.14454614181E+03  0.00000000000E+00 0. -1.
         11    1    1    2    0    0 -0.76125901723E+01 -0.13884844649E+02 -0.12001322562E+02  0.19868874736E+02  0.00000000000E+00 0.  1.
<mgrwt>
<rscale>  0 0.13017801E+03</rscale>
<asrwt>0</asrwt>
<pdfrwt beam="1">  1        2 0.47527371E-01 0.13830548E+03</pdfrwt>
<pdfrwt beam="2">  1       -2 0.76077649E-02 0.13830548E+03</pdfrwt>
<totfact> 0.10265164E+04</totfact>
</mgrwt>
</event>
<event>
 7    1  0.5400401E-006  0.1221533E+03  0.7546771E-02  0.1250057E+00
         -1   -1    0    0    0  501 -0.00000000000E+00  0.00000000000E+00  0.27433586543E+02  0.27433586543E+02  0.00000000000E+00 0.  1.
          1   -1    0    0  501    0  0.00000000000E+00 -0.00000000000E+00 -0.67064264260E+03  0.67064264260E+03  0.00000000000E+00 0. -1.
         23    2    1    2    0    0 -0.33547844435E+02 -0.20355594569E+02 -0.14250468933E+03  0.18769395506E+03  0.11567897904E+03 0.  0.
          5    1    3    3  502    0  0.13316258034E+02  0.11746703235E+02 -0.12741382021E+03  0.12873103489E+03  0.47000000000E+01 0. -1.
         -5    1    3    3    0  502 -0.46864102469E+02 -0.32102297804E+02 -0.15090869120E+02  0.58962920173E+02  0.47000000000E+01 0.  1.
        -11    1    1    2    0    0 -0.12697171431E+02 -0.28516387875E+02 -0.18136398917E+03  0.18403070153E+03  0.00000000000E+00 0.  1.
         11    1    1    2    0    0  0.46245015866E+02  0.48871982444E+02 -0.31934037757E+03  0.32635157255E+03  0.00000000000E+00 0. -1.
<mgrwt>
<rscale>  0 0.11587779E+03</rscale>
<asrwt>0</asrwt>
<pdfrwt beam="2">  1        1 0.10317579E+00 0.12215332E+03</pdfrwt>
<pdfrwt beam="1">  1       -1 0.42205517E-02 0.12215332E+03</pdfrwt>
<totfact> 0.65284233E+03</totfact>
</mgrwt>
</event>
<event>
 7    1  0.5400401E-006  0.1328910E+03  0.7546771E-02  0.1233837E+00
          2   -1    0    0  501    0  0.00000000000E+00  0.00000000000E+00  0.72346415431E+02  0.72346415431E+02  0.00000000000E+00 0. -1.
         -2   -1    0    0    0  501 -0.00000000000E+00 -0.00000000000E+00 -0.21339348047E+03  0.21339348047E+03  0.00000000000E+00 0.  1.
         23    2    1    2    0    0  0.29038540848E+02  0.34518532223E+02 -0.11541654163E+03  0.17601422996E+03  0.12500106057E+03 0.  0.
          5    1    3    3  502    0 -0.12858471335E+02 -0.39137209043E+02 -0.65601529433E+02  0.77606134298E+02  0.47000000000E+01 0. -1.
         -5    1    3    3    0  502  0.41897012183E+02  0.73655741266E+02 -0.49815012197E+02  0.98408095660E+02  0.47000000000E+01 0. -1.
        -11    1    1    2    0    0 -0.60015610746E+02 -0.41427245960E+02 -0.27486547404E+02  0.77933308214E+02  0.00000000000E+00 0. -1.
         11    1    1    2    0    0  0.30977069898E+02  0.69087137372E+01  0.18560239926E+01  0.31792357730E+02  0.00000000000E+00 0.  1.
<mgrwt>
<rscale>  0 0.12579197E+03</rscale>
<asrwt>0</asrwt>
<pdfrwt beam="1">  1        2 0.11130218E-01 0.13289105E+03</pdfrwt>
<pdfrwt beam="2">  1       -2 0.32829766E-01 0.13289105E+03</pdfrwt>
<totfact> 0.46192991E+03</totfact>
</mgrwt>
</event>
<event>
 7    1  0.5400401E-006  0.1324398E+03  0.7546771E-02  0.1232031E+00
          2   -1    0    0  501    0  0.00000000000E+00  0.00000000000E+00  0.10931101646E+03  0.10931101646E+03  0.00000000000E+00 0. -1.
         -2   -1    0    0    0  501 -0.00000000000E+00 -0.00000000000E+00 -0.14963893059E+03  0.14963893059E+03  0.00000000000E+00 0.  1.
         23    2    1    2    0    0  0.60911313995E+02 -0.17098048140E+02 -0.59959604479E+02  0.14538035987E+03  0.11635189489E+03 0.  0.
          5    1    3    3  502    0 -0.15308464007E+02 -0.28303961282E+02 -0.59945086489E+02  0.68197996221E+02  0.47000000000E+01 0. -1.
         -5    1    3    3    0  502  0.76219778002E+02  0.11205913142E+02 -0.14517990755E-01  0.77182363651E+02  0.47000000000E+01 0.  1.
        -11    1    1    2    0    0 -0.18311146270E+02  0.52391852444E+02  0.21089149839E+01  0.55539641722E+02  0.00000000000E+00 0.  1.
         11    1    1    2    0    0 -0.42600167725E+02 -0.35293804303E+02  0.17522775370E+02  0.58029945451E+02  0.00000000000E+00 0. -1.
<mgrwt>
<rscale>  0 0.12696455E+03</rscale>
<asrwt>0</asrwt>
<pdfrwt beam="1">  1        2 0.16817079E-01 0.13243978E+03</pdfrwt>
<pdfrwt beam="2">  1       -2 0.23021374E-01 0.13243978E+03</pdfrwt>
<totfact> 0.53172270E+03</totfact>
</mgrwt>
</event>
<event>
 7    1  0.5400401E-006  0.1360995E+03  0.7546771E-02  0.1230675E+00
         -2   -1    0    0    0  501 -0.00000000000E+00  0.00000000000E+00  0.15723461972E+03  0.15723461972E+03  0.00000000000E+00 0.  1.
          2   -1    0    0  501    0  0.00000000000E+00 -0.00000000000E+00 -0.93274877536E+02  0.93274877536E+02  0.00000000000E+00 0. -1.
         23    2    1    2    0    0 -0.14168454699E+02  0.51897854483E+02  0.39728490302E+02  0.14177948080E+03  0.12501574231E+03 0.  0.
          5    1    3    3  502    0 -0.45696307111E+02  0.36247576096E+02 -0.28330368110E+02  0.65013375652E+02  0.47000000000E+01 0. -1.
         -5    1    3    3    0  502  0.31527852412E+02  0.15650278387E+02  0.68058858412E+02  0.76766105149E+02  0.47000000000E+01 0. -1.
        -11    1    1    2    0    0 -0.55972437546E+01 -0.69228757140E+02  0.37877209818E+02  0.79111522400E+02  0.00000000000E+00 0.  1.
         11    1    1    2    0    0  0.19765698454E+02  0.17330902657E+02 -0.13645957935E+02  0.29618494058E+02  0.00000000000E+00 0. -1.
<mgrwt>
<rscale>  0 0.12785399E+03</rscale>
<asrwt>0</asrwt>
<pdfrwt beam="2">  1        2 0.14349981E-01 0.13609948E+03</pdfrwt>
<pdfrwt beam="1">  1       -2 0.24189942E-01 0.13609948E+03</pdfrwt>
<totfact> 0.58824091E+03</totfact>
</mgrwt>
</event>
<event>
 7    1  0.5400401E-006  0.1258360E+03  0.7546771E-02  0.1250254E+00
          1   -1    0    0  501    0  0.00000000000E+00  0.00000000000E+00  0.50772102455E+03  0.50772102455E+03  0.00000000000E+00 0. -1.
         -1   -1    0    0    0  501 -0.00000000000E+00 -0.00000000000E+00 -0.23063896641E+02  0.23063896641E+02  0.00000000000E+00 0.  1.
         23    2    1    2    0    0  0.13112025724E+02  0.60726746154E+01  0.29925362874E+03  0.32463431641E+03  0.12500360989E+03 0.  0.
          5    1    3    3  502    0  0.55819744444E+02  0.11314238954E+02  0.65584387587E+02  0.86989986597E+02  0.47000000000E+01 0. -1.
         -5    1    3    3    0  502 -0.42707718720E+02 -0.52415643382E+01  0.23366924115E+03  0.23764432982E+03  0.47000000000E+01 0. -1.
        -11    1    1    2    0    0 -0.38611202558E+02 -0.10097331009E+02  0.17293858247E+03  0.17748389888E+03  0.00000000000E+00 0. -1.
         11    1    1    2    0    0  0.25499176835E+02  0.40246563940E+01  0.12464916703E+02  0.28666705893E+02  0.00000000000E+00 0.  1.
<mgrwt>
<rscale>  0 0.11576370E+03</rscale>
<asrwt>0</asrwt>
<pdfrwt beam="1">  1        1 0.78110919E-01 0.12583602E+03</pdfrwt>
<pdfrwt beam="2">  1       -1 0.35482922E-02 0.12583602E+03</pdfrwt>
<totfact> 0.12273134E+04</totfact>
</mgrwt>
</event>
<event>
 7    1  0.5400401E-006  0.1332180E+03  0.7546771E-02  0.1234628E+00
         -1   -1    0    0    0  501 -0.00000000000E+00  0.00000000000E+00  0.17226876109E+03  0.17226876109E+03  0.00000000000E+00 0.  1.
          1   -1    0    0  501    0  0.00000000000E+00 -0.00000000000E+00 -0.84228277516E+02  0.84228277516E+02  0.00000000000E+00 0. -1.
         23    2    1    2    0    0  0.22639997392E+02  0.40122572317E+02  0.70850509388E+02  0.15088680618E+03  0.12499857322E+03 0.  0.
          5    1    3    3  502    0 -0.10845930150E+02  0.74179580684E+02  0.13865150321E+02  0.76384401449E+02  0.47000000000E+01 0. -1.
         -5    1    3    3    0  502  0.33485927542E+02 -0.34057008367E+02  0.56985359067E+02  0.74502404728E+02  0.47000000000E+01 0. -1.
        -11    1    1    2    0    0 -0.31083947201E+01 -0.51824388889E+02  0.45671023733E+02  0.69146741139E+02  0.00000000000E+00 0.  1.
         11    1    1    2    0    0 -0.19531602672E+02  0.11701816572E+02 -0.28481049545E+02  0.36463491292E+02  0.00000000000E+00 0. -1.
<mgrwt>
<rscale>  0 0.12528268E+03</rscale>
<asrwt>0</asrwt>
<pdfrwt beam="2">  1        1 0.12958197E-01 0.13321799E+03</pdfrwt>
<pdfrwt beam="1">  1       -1 0.26502886E-01 0.13321799E+03</pdfrwt>
<totfact> 0.54338426E+03</totfact>
</mgrwt>
</event>
<event>
 7    1  0.5400401E-006  0.1508228E+03  0.7546771E-02  0.1208716E+00
         -4   -1    0    0    0  501 -0.00000000000E+00  0.00000000000E+00  0.40293019886E+02  0.40293019886E+02  0.00000000000E+00 0.  1.
          4   -1    0    0  501    0  0.00000000000E+00 -0.00000000000E+00 -0.46840792844E+03  0.46840792844E+03  0.00000000000E+00 0. -1.
         23    2    1    2    0    0 -0.31520550065E+02  0.78262698366E+02 -0.24886941072E+03  0.29100428180E+03  0.12501565264E+03 0.  0.
          5    1    3    3  502    0 -0.98864130953E+01 -0.13909596839E+02  0.63061850511E+01  0.18790317135E+02  0.47000000000E+01 0. -1.
         -5    1    3    3    0  502 -0.21634136970E+02  0.92172295205E+02 -0.25517559577E+03  0.27221396467E+03  0.47000000000E+01 0. -1.
        -11    1    1    2    0    0  0.18654419851E+02 -0.45660030260E+02 -0.17716811060E+02  0.52409074953E+02  0.00000000000E+00 0.  1.
         11    1    1    2    0    0  0.12866130214E+02 -0.32602668106E+02 -0.16152868678E+03  0.16528759157E+03  0.00000000000E+00 0. -1.
<mgrwt>
<rscale>  0 0.14348443E+03</rscale>
<asrwt>0</asrwt>
<pdfrwt beam="2">  1        4 0.72062757E-01 0.15082277E+03</pdfrwt>
<pdfrwt beam="1">  1       -4 0.61989262E-02 0.15082277E+03</pdfrwt>
<totfact> 0.51033721E+02</totfact>
</mgrwt>
</event>
<event>
 7    1  0.5400401E-006  0.1604179E+03  0.7546771E-02  0.1195463E+00
          2   -1    0    0  501    0  0.00000000000E+00  0.00000000000E+00  0.58340761550E+02  0.58340761550E+02  0.00000000000E+00 0. -1.
         -2   -1    0    0    0  501 -0.00000000000E+00 -0.00000000000E+00 -0.38179751009E+03  0.38179751009E+03  0.00000000000E+00 0.  1.
         23    2    1    2    0    0  0.93739372211E+02 -0.36353018728E+02 -0.15409669538E+03  0.22244033448E+03  0.12500119601E+03 0.  0.
          5    1    3    3  502    0 -0.32849023831E+01  0.36385626501E+02 -0.21312449523E+02  0.42556020775E+02  0.47000000000E+01 0.  1.
         -5    1    3    3    0  502  0.97024274594E+02 -0.72738645229E+02 -0.13278424585E+03  0.17988431370E+03  0.47000000000E+01 0.  1.
        -11    1    1    2    0    0 -0.20317540773E+02  0.56219457149E+02 -0.62002090600E+02  0.86126006897E+02  0.00000000000E+00 0. -1.
         11    1    1    2    0    0 -0.73421831437E+02 -0.19866438421E+02 -0.10735796256E+03  0.13157193026E+03  0.00000000000E+00 0.  1.
<mgrwt>
<rscale>  0 0.15415146E+03</rscale>
<asrwt>0</asrwt>
<pdfrwt beam="1">  1        2 0.89755021E-02 0.16041793E+03</pdfrwt>
<pdfrwt beam="2">  1       -2 0.58738077E-01 0.16041793E+03</pdfrwt>
<totfact> 0.19770909E+03</totfact>
</mgrwt>
</event>
<event>
 7    1  0.5400401E-006  0.1304034E+03  0.7546771E-02  0.1241095E+00
          1   -1    0    0  501    0  0.00000000000E+00  0.00000000000E+00  0.26411304492E+03  0.26411304492E+03  0.00000000000E+00 0. -1.
         -1   -1    0    0    0  501 -0.00000000000E+00 -0.00000000000E+00 -0.53177213129E+02  0.53177213129E+02  0.00000000000E+00 0.  1.
         23    2    1    2    0    0 -0.32833646466E+02 -0.18200007953E+02  0.76152342691E+02  0.15101065421E+03  0.12488294423E+03 0.  0.
          5    1    3    3  502    0  0.31672568069E+02 -0.39694846524E+02  0.30876939634E+01  0.51092624347E+02  0.47000000000E+01 0.  1.
         -5    1    3    3    0  502 -0.64506214535E+02  0.21494838571E+02  0.73064648727E+02  0.99918029867E+02  0.47000000000E+01 0.  1.
        -11    1    1    2    0    0 -0.29561171020E+02  0.14532438195E+02  0.63050476532E+02  0.71136609302E+02  0.00000000000E+00 0. -1.
         11    1    1    2    0    0  0.62394817486E+02  0.36675697579E+01  0.71733012572E+02  0.95142994538E+02  0.00000000000E+00 0.  1.
<mgrwt>
<rscale>  0 0.12122185E+03</rscale>
<asrwt>0</asrwt>
<pdfrwt beam="1">  1        1 0.40632775E-01 0.13040337E+03</pdfrwt>
<pdfrwt beam="2">  1       -1 0.81811099E-02 0.13040337E+03</pdfrwt>
<totfact> 0.81038604E+03</totfact>
</mgrwt>
</event>
<event>
 7    1  0.1351214E-005  0.3930308E+03  0.7546771E-02  0.1047057E+00
         -1   -1    0    0    0  501 -0.00000000000E+00  0.00000000000E+00  0.98536011881E+03  0.98536011881E+03  0.00000000000E+00 0.  1.
          1   -1    0    0  501    0  0.00000000000E+00 -0.00000000000E+00 -0.16039207930E+03  0.16039207930E+03  0.00000000000E+00 0. -1.
         23    2    1    2    0    0  0.36769176070E+03  0.60425505900E+02  0.53965249443E+03  0.66760617802E+03  0.12499888613E+03 0.  0.
          5    1    3    3  502    0  0.18410956403E+03 -0.16524206640E+02  0.18928516123E+03  0.26461357341E+03  0.47000000000E+01 0.  1.
         -5    1    3    3    0  502  0.18358219667E+03  0.76949712540E+02  0.35036733320E+03  0.40299260461E+03  0.47000000000E+01 0.  1.
        -11    1    1    2    0    0 -0.17642965526E+03 -0.71277994353E+02  0.16554904989E+03  0.25221907869E+03  0.00000000000E+00 0. -1.
         11    1    1    2    0    0 -0.19126210544E+03  0.10852488453E+02  0.11976649519E+03  0.22592694141E+03  0.00000000000E+00 0.  1.
<mgrwt>
<rscale>  0 0.39067469E+03</rscale>
<asrwt>0</asrwt>
<pdfrwt beam="2">  1        1 0.24675705E-01 0.39303078E+03</pdfrwt>
<pdfrwt beam="1">  1       -1 0.15159386E+00 0.39303078E+03</pdfrwt>
<totfact> 0.70772882E+01</totfact>
</mgrwt>
</event>
<event>
 7    1  0.5400401E-006  0.1950602E+03  0.7546771E-02  0.1161613E+00
         -2   -1    0    0    0  501 -0.00000000000E+00  0.00000000000E+00  0.56004840016E+02  0.56004840016E+02  0.00000000000E+00 0. -1.
          2   -1    0    0  501    0  0.00000000000E+00 -0.00000000000E+00 -0.80196103952E+03  0.80196103952E+03  0.00000000000E+00 0.  1.
         23    2    1    2    0    0  0.78528519152E+02 -0.12750248343E+03 -0.16805430185E+03  0.25746988856E+03  0.12499953418E+03 0.  0.
          5    1    3    3  502    0  0.90672632977E+02 -0.13309152222E+03 -0.10376059432E+03  0.19163306237E+03  0.47000000000E+01 0. -1.
         -5    1    3    3    0  502 -0.12144113825E+02  0.55890387967E+01 -0.64293707530E+02  0.65836826193E+02  0.47000000000E+01 0. -1.
        -11    1    1    2    0    0 -0.15643779041E+02  0.40740861642E+02 -0.79355124526E+02  0.90563687086E+02  0.00000000000E+00 0.  1.
         11    1    1    2    0    0 -0.62884740111E+02  0.86761621784E+02 -0.49854677313E+03  0.50993230389E+03  0.00000000000E+00 0. -1.
<mgrwt>
<rscale>  0 0.18654663E+03</rscale>
<asrwt>0</asrwt>
<pdfrwt beam="2">  1        2 0.12337862E+00 0.19506023E+03</pdfrwt>
<pdfrwt beam="1">  1       -2 0.86161297E-02 0.19506023E+03</pdfrwt>
<totfact> 0.29472360E+03</totfact>
</mgrwt>
</event>
<event>
 7    1  0.5400401E-006  0.1386211E+03  0.7546771E-02  0.1226351E+00
          1   -1    0    0  501    0  0.00000000000E+00  0.00000000000E+00  0.44561111742E+03  0.44561111742E+03  0.00000000000E+00 0. -1.
         -1   -1    0    0    0  501 -0.00000000000E+00 -0.00000000000E+00 -0.37590849320E+02  0.37590849320E+02  0.00000000000E+00 0.  1.
         23    2    1    2    0    0  0.14733240737E+02  0.58099287988E+02  0.15812124278E+03  0.21028108814E+03  0.12499285165E+03 0.  0.
          5    1    3    3  502    0 -0.23663981370E+02  0.66333723130E+02  0.30897017161E+02  0.77051038332E+02  0.47000000000E+01 0. -1.
         -5    1    3    3    0  502  0.38397222107E+02 -0.82344351422E+01  0.12722422562E+03  0.13323004981E+03  0.47000000000E+01 0. -1.
        -11    1    1    2    0    0  0.29908796615E+02 -0.39242386773E+02  0.64013845135E+02  0.80822480806E+02  0.00000000000E+00 0.  1.
         11    1    1    2    0    0 -0.44642037352E+02 -0.18856901215E+02  0.18588518018E+03  0.19209839779E+03  0.00000000000E+00 0. -1.
<mgrwt>
<rscale>  0 0.13074755E+03</rscale>
<asrwt>0</asrwt>
<pdfrwt beam="1">  1        1 0.68555553E-01 0.13862110E+03</pdfrwt>
<pdfrwt beam="2">  1       -1 0.57832079E-02 0.13862110E+03</pdfrwt>
<totfact> 0.71196462E+03</totfact>
</mgrwt>
</event>
<event>
 7    1  0.5400401E-006  0.1281218E+03  0.7546771E-02  0.1244955E+00
         -1   -1    0    0    0  501 -0.00000000000E+00  0.00000000000E+00  0.39503654232E+02  0.39503654232E+02  0.00000000000E+00 0.  1.
          1   -1    0    0  501    0  0.00000000000E+00 -0.00000000000E+00 -0.31506886705E+03  0.31506886705E+03  0.00000000000E+00 0. -1.
         23    2    1    2    0    0  0.80581070818E+01  0.26927606666E+02 -0.16144641259E+03  0.20610708645E+03  0.12500063142E+03 0.  0.
          5    1    3    3  502    0 -0.50893813181E+02  0.42912741217E+02 -0.79642789142E+02  0.10390739839E+03  0.47000000000E+01 0.  1.
         -5    1    3    3    0  502  0.58951920263E+02 -0.15985134551E+02 -0.81803623447E+02  0.10219968805E+03  0.47000000000E+01 0.  1.
        -11    1    1    2    0    0  0.34382546149E+02  0.12902267555E+02 -0.42039841706E+02  0.55820930469E+02  0.00000000000E+00 0.  1.
         11    1    1    2    0    0 -0.42440653230E+02 -0.39829874222E+02 -0.72078958519E+02  0.92644504361E+02  0.00000000000E+00 0. -1.
<mgrwt>
<rscale>  0 0.11888068E+03</rscale>
<asrwt>0</asrwt>
<pdfrwt beam="2">  1        1 0.48472131E-01 0.12812177E+03</pdfrwt>
<pdfrwt beam="1">  1       -1 0.60774855E-02 0.12812177E+03</pdfrwt>
<totfact> 0.10159580E+04</totfact>
</mgrwt>
</event>
<event>
 7    1  0.5400401E-006  0.1260649E+03  0.7546771E-02  0.1248457E+00
         -1   -1    0    0    0  501 -0.00000000000E+00  0.00000000000E+00  0.18642019396E+02  0.18642019396E+02  0.00000000000E+00 0.  1.
          1   -1    0    0  501    0  0.00000000000E+00 -0.00000000000E+00 -0.67363182400E+03  0.67363182400E+03  0.00000000000E+00 0. -1.
         23    2    1    2    0    0 -0.70795926301E+01  0.14711889037E+02 -0.30193965212E+03  0.32720010245E+03  0.12500317281E+03 0.  0.
          5    1    3    3  502    0  0.52199142443E+02 -0.21246830207E+02 -0.13257876682E+03  0.14413673258E+03  0.47000000000E+01 0. -1.
         -5    1    3    3    0  502 -0.59278735073E+02  0.35958719244E+02 -0.16936088530E+03  0.18306336987E+03  0.47000000000E+01 0. -1.
        -11    1    1    2    0    0 -0.37755447698E+02 -0.11177851112E+02 -0.90432415527E+02  0.98632854386E+02  0.00000000000E+00 0.  1.
         11    1    1    2    0    0  0.44835040328E+02 -0.35340379243E+01 -0.26261773696E+03  0.26644088656E+03  0.00000000000E+00 0. -1.
<mgrwt>
<rscale>  0 0.11680859E+03</rscale>
<asrwt>0</asrwt>
<pdfrwt beam="2">  1        1 0.10363566E+00 0.12606488E+03</pdfrwt>
<pdfrwt beam="1">  1       -1 0.28680032E-02 0.12606488E+03</pdfrwt>
<totfact> 0.11422209E+04</totfact>
</mgrwt>
</event>
<event>
 7    1  0.5400401E-006  0.2507150E+03  0.7546771E-02  0.1115386E+00
         -2   -1    0    0    0  501 -0.00000000000E+00  0.00000000000E+00  0.11264535599E+03  0.11264535599E+03  0.00000000000E+00 0.  1.
          2   -1    0    0  501    0  0.00000000000E+00 -0.00000000000E+00 -0.71414943932E+03  0.71414943932E+03  0.00000000000E+00 0. -1.
         23    2    1    2    0    0  0.20391640635E+03  0.75170157779E+02 -0.94549409525E+02  0.26795078345E+03  0.12500231243E+03 0.  0.
          5    1    3    3  502    0  0.22088626988E+03  0.73080444919E+02 -0.84546975891E+02  0.24759195622E+03  0.47000000000E+01 0.  1.
         -5    1    3    3    0  502 -0.16969863526E+02  0.20897128604E+01 -0.10002433634E+02  0.20358827239E+02  0.47000000000E+01 0.  1.
        -11    1    1    2    0    0 -0.17355081216E+03 -0.32316101283E+02 -0.32989846034E+03  0.37416200895E+03  0.00000000000E+00 0.  1.
         11    1    1    2    0    0 -0.30365594189E+02 -0.42854056497E+02 -0.17705621346E+03  0.18468200290E+03  0.00000000000E+00 0. -1.
<mgrwt>
<rscale>  0 0.24673426E+03</rscale>
<asrwt>0</asrwt>
<pdfrwt beam="2">  1        2 0.10986914E+00 0.25071504E+03</pdfrwt>
<pdfrwt beam="1">  1       -2 0.17330055E-01 0.25071504E+03</pdfrwt>
<totfact> 0.11006121E+03</totfact>
</mgrwt>
</event>
<event>
 7    1  0.5400401E-006  0.1268792E+03  0.7546771E-02  0.1251576E+00
          1   -1    0    0  501    0  0.00000000000E+00  0.00000000000E+00  0.52764244848E+03  0.52764244848E+03  0.00000000000E+00 0. -1.
         -1   -1    0    0    0  501 -0.00000000000E+00 -0.00000000000E+00 -0.29348730544E+02  0.29348730544E+02  0.00000000000E+00 0.  1.
         23    2    1    2    0    0  0.17672149711E+02 -0.12801174212E+02  0.14145668930E+03  0.19002191438E+03  0.12498863172E+03 0.  0.
          5    1    3    3  502    0 -0.25955538264E+02 -0.58101674467E+02  0.70605635240E+02  0.95166907432E+02  0.47000000000E+01 0. -1.
         -5    1    3    3    0  502  0.43627687975E+02  0.45300500255E+02  0.70851054060E+02  0.94855006946E+02  0.47000000000E+01 0. -1.
        -11    1    1    2    0    0 -0.16004498380E+02 -0.34040925526E+02  0.12959770243E+03  0.13494625988E+03  0.00000000000E+00 0.  1.
         11    1    1    2    0    0 -0.16676513310E+01  0.46842099738E+02  0.22723932620E+03  0.23202300477E+03  0.00000000000E+00 0. -1.
<mgrwt>
<rscale>  0 0.11500290E+03</rscale>
<asrwt>0</asrwt>
<pdfrwt beam="1">  1        1 0.81175754E-01 0.12687921E+03</pdfrwt>
<pdfrwt beam="2">  1       -1 0.45151897E-02 0.12687921E+03</pdfrwt>
<totfact> 0.82023758E+03</totfact>
</mgrwt>
</event>
<event>
 7    1  0.5400401E-006  0.1592066E+03  0.7546771E-02  0.1197282E+00
         -4   -1    0    0    0  501 -0.00000000000E+00  0.00000000000E+00  0.17387272809E+03  0.17387272809E+03  0.00000000000E+00 0.  1.
          4   -1    0    0  501    0  0.00000000000E+00 -0.00000000000E+00 -0.12776542778E+03  0.12776542778E+03  0.00000000000E+00 0. -1.
         23    2    1    2    0    0  0.98563128942E+02  0.87415886597E+00  0.50700689736E+02  0.16708473870E+03  0.12502517917E+03 0.  0.
          5    1    3    3  502    0  0.52878044069E+02  0.82335343808E+01  0.90913497176E+02  0.10559939679E+03  0.47000000000E+01 0. -1.
         -5    1    3    3    0  502  0.45685084873E+02 -0.73593755148E+01 -0.40212807440E+02  0.61485341912E+02  0.47000000000E+01 0. -1.
        -11    1    1    2    0    0 -0.12139559044E+02 -0.13248947656E+02 -0.37236292528E+02  0.41345434923E+02  0.00000000000E+00 0. -1.
         11    1    1    2    0    0 -0.86423569898E+02  0.12374788790E+02  0.32642903110E+02  0.93207982249E+02  0.00000000000E+00 0.  1.
<mgrwt>
<rscale>  0 0.15262695E+03</rscale>
<asrwt>0</asrwt>
<pdfrwt beam="2">  1        4 0.19656220E-01 0.15920663E+03</pdfrwt>
<pdfrwt beam="1">  1       -4 0.26749651E-01 0.15920663E+03</pdfrwt>
<totfact> 0.52553689E+02</totfact>
</mgrwt>
</event>
<event>
 7    1  0.5400401E-006  0.1252960E+03  0.7546771E-02  0.1248228E+00
          3   -1    0    0  501    0  0.00000000000E+00  0.00000000000E+00  0.32533639925E+03  0.32533639925E+03  0.00000000000E+00 0. -1.
         -3   -1    0    0    0  501 -0.00000000000E+00 -0.00000000000E+00 -0.37319585922E+02  0.37319585922E+02  0.00000000000E+00 0.  1.
         23    2    1    2    0    0 -0.28892645623E+00 -0.84624830759E+01  0.16474175361E+03  0.20697566316E+03  0.12500953027E+03 0.  0.
          5    1    3    3  502    0  0.61066857536E+02  0.61168431281E+01  0.90545336368E+02  0.10948572874E+03  0.47000000000E+01 0.  1.
         -5    1    3    3    0  502 -0.61355783992E+02 -0.14579326204E+02  0.74196417246E+02  0.97489934424E+02  0.47000000000E+01 0.  1.
        -11    1    1    2    0    0 -0.29889438240E+02  0.39570575343E+02  0.82004817743E+02  0.95833183628E+02  0.00000000000E+00 0. -1.
         11    1    1    2    0    0  0.30178364696E+02 -0.31108092267E+02  0.41270241973E+02  0.59847138384E+02  0.00000000000E+00 0.  1.
<mgrwt>
<rscale>  0 0.11694229E+03</rscale>
<asrwt>0</asrwt>
<pdfrwt beam="1">  1        3 0.50051752E-01 0.12529597E+03</pdfrwt>
<pdfrwt beam="2">  1       -3 0.57414750E-02 0.12529597E+03</pdfrwt>
<totfact> 0.16512113E+03</totfact>
</mgrwt>
</event>
<event>
 7    1  0.5400401E-006  0.2759076E+03  0.7546771E-02  0.1099905E+00
         -2   -1    0    0    0  501 -0.00000000000E+00  0.00000000000E+00  0.13743930877E+03  0.13743930877E+03  0.00000000000E+00 0.  1.
          2   -1    0    0  501    0  0.00000000000E+00 -0.00000000000E+00 -0.55283366223E+03  0.55283366223E+03  0.00000000000E+00 0. -1.
         23    2    1    2    0    0  0.19199131900E+03  0.15375935526E+03 -0.13773573900E+03  0.30837658378E+03  0.12498951046E+03 0.  0.
          5    1    3    3  502    0  0.30471078088E+02  0.80138129578E+02 -0.90243536905E+02  0.12456561470E+03  0.47000000000E+01 0. -1.
         -5    1    3    3    0  502  0.16152024091E+03  0.73621225681E+02 -0.47492202099E+02  0.18381096908E+03  0.47000000000E+01 0. -1.
        -11    1    1    2    0    0 -0.90818663764E+02 -0.49570566160E+02 -0.58129344349E+02  0.11867725726E+03  0.00000000000E+00 0.  1.
         11    1    1    2    0    0 -0.10117265523E+03 -0.10418878910E+03 -0.21952927011E+03  0.26321912996E+03  0.00000000000E+00 0. -1.
<mgrwt>
<rscale>  0 0.27241576E+03</rscale>
<asrwt>0</asrwt>
<pdfrwt beam="2">  1        2 0.85051333E-01 0.27590756E+03</pdfrwt>
<pdfrwt beam="1">  1       -2 0.21144509E-01 0.27590756E+03</pdfrwt>
<totfact> 0.10610758E+03</totfact>
</mgrwt>
</event>
<event>
 7    1  0.5400401E-006  0.1346960E+03  0.7546771E-02  0.1231245E+00
          1   -1    0    0  501    0  0.00000000000E+00  0.00000000000E+00  0.57402051595E+02  0.57402051595E+02  0.00000000000E+00 0. -1.
         -1   -1    0    0    0  501 -0.00000000000E+00 -0.00000000000E+00 -0.25858052237E+03  0.25858052237E+03  0.00000000000E+00 0.  1.
         23    2    1    2    0    0 -0.39713435914E+02 -0.36163318243E+02 -0.12504416332E+03  0.18379079888E+03  0.12352357019E+03 0.  0.
          5    1    3    3  502    0  0.24609488286E+02 -0.48480003464E+02 -0.16639572427E+02  0.57051757379E+02  0.47000000000E+01 0. -1.
         -5    1    3    3    0  502 -0.64322924199E+02  0.12316685220E+02 -0.10840459090E+03  0.12673904150E+03  0.47000000000E+01 0.  1.
        -11    1    1    2    0    0  0.48809113484E+02  0.61430001670E+02 -0.42761098603E+02  0.89355952337E+02  0.00000000000E+00 0. -1.
         11    1    1    2    0    0 -0.90956775696E+01 -0.25266683427E+02 -0.33373208845E+02  0.42835822748E+02  0.00000000000E+00 0.  1.
<mgrwt>
<rscale>  0 0.12747886E+03</rscale>
<asrwt>0</asrwt>
<pdfrwt beam="1">  1        1 0.88310850E-02 0.13469601E+03</pdfrwt>
<pdfrwt beam="2">  1       -1 0.39781618E-01 0.13469601E+03</pdfrwt>
<totfact> 0.45251541E+03</totfact>
</mgrwt>
</event>
<event>
 7    1  0.5400401E-006  0.1431640E+03  0.7546771E-02  0.1217393E+00
         -1   -1    0    0    0  501 -0.00000000000E+00  0.00000000000E+00  0.62250131284E+02  0.62250131284E+02  0.00000000000E+00 0.  1.
          1   -1    0    0  501    0  0.00000000000E+00 -0.00000000000E+00 -0.28570093498E+03  0.28570093498E+03  0.00000000000E+00 0. -1.
         23    2    1    2    0    0  0.28459757484E+02  0.63714573654E+02 -0.93566329690E+02  0.17102799894E+03  0.12500565458E+03 0.  0.
          5    1    3    3  502    0  0.79447436645E+01  0.57935287845E+02  0.14784909834E+02  0.60500413953E+02  0.47000000000E+01 0.  1.
         -5    1    3    3    0  502  0.20515013820E+02  0.57792858082E+01 -0.10835123952E+03  0.11052758499E+03  0.47000000000E+01 0.  1.
        -11    1    1    2    0    0 -0.24606706619E+02  0.93940140357E+01  0.16465079800E+01  0.26390310700E+02  0.00000000000E+00 0.  1.
         11    1    1    2    0    0 -0.38530508654E+01 -0.73108587689E+02 -0.13153098199E+03  0.15053275662E+03  0.00000000000E+00 0. -1.
<mgrwt>
<rscale>  0 0.13702200E+03</rscale>
<asrwt>0</asrwt>
<pdfrwt beam="2">  1        1 0.43953990E-01 0.14316396E+03</pdfrwt>
<pdfrwt beam="1">  1       -1 0.95769433E-02 0.14316396E+03</pdfrwt>
<totfact> 0.58268301E+03</totfact>
</mgrwt>
</event>
<event>
 7    1  0.5400401E-006  0.1547646E+03  0.7546771E-02  0.1203114E+00
          2   -1    0    0  501    0  0.00000000000E+00  0.00000000000E+00  0.19673805362E+03  0.19673805362E+03  0.00000000000E+00 0. -1.
         -2   -1    0    0    0  501 -0.00000000000E+00 -0.00000000000E+00 -0.10953128883E+03  0.10953128883E+03  0.00000000000E+00 0.  1.
         23    2    1    2    0    0 -0.57449185189E+02 -0.70900455258E+02  0.81271009179E+01  0.15497787000E+03  0.12499922794E+03 0.  0.
          5    1    3    3  502    0  0.12355519890E+02  0.20598564258E+02 -0.25141509597E+02  0.35087679120E+02  0.47000000000E+01 0.  1.
         -5    1    3    3    0  502 -0.69804705079E+02 -0.91499019516E+02  0.33268610515E+02  0.11989019088E+03  0.47000000000E+01 0.  1.
        -11    1    1    2    0    0 -0.61654699719E+01  0.51533298657E+02  0.56195649679E+01  0.52204151184E+02  0.00000000000E+00 0.  1.
         11    1    1    2    0    0  0.63614655161E+02  0.19367156601E+02  0.73460098905E+02  0.99087321274E+02  0.00000000000E+00 0. -1.
<mgrwt>
<rscale>  0 0.14787111E+03</rscale>
<asrwt>0</asrwt>
<pdfrwt beam="1">  1        2 0.30267393E-01 0.15476463E+03</pdfrwt>
<pdfrwt beam="2">  1       -2 0.16850968E-01 0.15476463E+03</pdfrwt>
<totfact> 0.47172673E+03</totfact>
</mgrwt>
</event>
<event>
 7    1  0.5400401E-006  0.1292335E+03  0.7546771E-02  0.1243120E+00
         -2   -1    0    0    0  501 -0.00000000000E+00  0.00000000000E+00  0.34996441051E+02  0.34996441051E+02  0.00000000000E+00 0. -1.
          2   -1    0    0  501    0  0.00000000000E+00 -0.00000000000E+00 -0.39455441263E+03  0.39455441263E+03  0.00000000000E+00 0.  1.
         23    2    1    2    0    0 -0.30895820845E+02 -0.11022033137E+02 -0.14350937449E+03  0.19312232131E+03  0.12500101385E+03 0.  0.
          5    1    3    3  502    0 -0.66097146077E+02 -0.16063422873E+02 -0.14164830907E+03  0.15720432480E+03  0.47000000000E+01 0.  1.
         -5    1    3    3    0  502  0.35201325232E+02  0.50413897357E+01 -0.18610654142E+01  0.35917996506E+02  0.47000000000E+01 0.  1.
        -11    1    1    2    0    0  0.61225788450E+02  0.13047881137E+02 -0.11535092819E+03  0.13124283222E+03  0.00000000000E+00 0.  1.
         11    1    1    2    0    0 -0.30329967605E+02 -0.20258480002E+01 -0.10069766890E+03  0.10518570015E+03  0.00000000000E+00 0. -1.
<mgrwt>
<rscale>  0 0.11998617E+03</rscale>
<asrwt>0</asrwt>
<pdfrwt beam="2">  1        2 0.60700678E-01 0.12923347E+03</pdfrwt>
<pdfrwt beam="1">  1       -2 0.53840680E-02 0.12923347E+03</pdfrwt>
<totfact> 0.13327314E+04</totfact>
</mgrwt>
</event>
<event>
 7    1  0.5400401E-006  0.1278396E+03  0.7546771E-02  0.1245667E+00
          2   -1    0    0  501    0  0.00000000000E+00  0.00000000000E+00  0.10699979164E+03  0.10699979164E+03  0.00000000000E+00 0. -1.
         -2   -1    0    0    0  501 -0.00000000000E+00 -0.00000000000E+00 -0.17652931026E+03  0.17652931026E+03  0.00000000000E+00 0.  1.
         23    2    1    2    0    0 -0.17671129421E+02 -0.20136311033E+02 -0.12111040238E+03  0.17609856017E+03  0.12500093397E+03 0.  0.
          5    1    3    3  502    0 -0.42947503343E+02 -0.31463518725E+02 -0.13468108844E+03  0.14489833208E+03  0.47000000000E+01 0.  1.
         -5    1    3    3    0  502  0.25276373922E+02  0.11327207691E+02  0.13570686067E+02  0.31200228093E+02  0.47000000000E+01 0.  1.
        -11    1    1    2    0    0 -0.27890480185E+02  0.25303498524E+02 -0.99087685966E+00  0.37671312155E+02  0.00000000000E+00 0.  1.
         11    1    1    2    0    0  0.45561609606E+02 -0.51671874908E+01  0.52571760617E+02  0.69759229574E+02  0.00000000000E+00 0. -1.
<mgrwt>
<rscale>  0 0.11845551E+03</rscale>
<asrwt>0</asrwt>
<pdfrwt beam="1">  1        2 0.16461507E-01 0.12783964E+03</pdfrwt>
<pdfrwt beam="2">  1       -2 0.27158355E-01 0.12783964E+03</pdfrwt>
<totfact> 0.40751864E+03</totfact>
</mgrwt>
</event>
<event>
 7    1  0.5400401E-006  0.1768145E+03  0.7546771E-02  0.1176083E+00
         -2   -1    0    0    0  501 -0.00000000000E+00  0.00000000000E+00  0.49394467013E+02  0.49394467013E+02  0.00000000000E+00 0. -1.
          2   -1    0    0  501    0  0.00000000000E+00 -0.00000000000E+00 -0.62351751520E+03  0.62351751520E+03  0.00000000000E+00 0.  1.
         23    2    1    2    0    0 -0.63051299831E+02 -0.10793993611E+03 -0.19921320656E+03  0.26636301919E+03  0.12504743144E+03 0.  0.
          5    1    3    3  502    0  0.12853524491E+02  0.22177302219E+02 -0.27339371009E+02  0.37770054709E+02  0.47000000000E+01 0.  1.
         -5    1    3    3    0  502 -0.75904824323E+02 -0.13011723833E+03 -0.17187383555E+03  0.22859296449E+03  0.47000000000E+01 0.  1.
        -11    1    1    2    0    0  0.12651933215E+02  0.10314004387E+03 -0.21459837305E+03  0.23843322289E+03  0.00000000000E+00 0.  1.
         11    1    1    2    0    0  0.50399366617E+02  0.47998922390E+01 -0.16031146858E+03  0.16811574013E+03  0.00000000000E+00 0. -1.
<mgrwt>
<rscale>  0 0.17170370E+03</rscale>
<asrwt>0</asrwt>
<pdfrwt beam="2">  1        2 0.95925771E-01 0.17681447E+03</pdfrwt>
<pdfrwt beam="1">  1       -2 0.75991488E-02 0.17681447E+03</pdfrwt>
<totfact> 0.48418302E+03</totfact>
</mgrwt>
</event>
<event>
 7    1  0.5400401E-006  0.1320500E+03  0.7546771E-02  0.1237696E+00
          2   -1    0    0  501    0  0.00000000000E+00  0.00000000000E+00  0.51389633378E+02  0.51389633378E+02  0.00000000000E+00 0. -1.
         -2   -1    0    0    0  501 -0.00000000000E+00 -0.00000000000E+00 -0.26431015125E+03  0.26431015125E+03  0.00000000000E+00 0.  1.
         23    2    1    2    0    0 -0.38021703795E+02 -0.19119130285E+02 -0.11009261003E+03  0.17192319793E+03  0.12500404834E+03 0.  0.
          5    1    3    3  502    0 -0.44159219441E+02 -0.56186354873E+02 -0.20246477170E+02  0.74424142410E+02  0.47000000000E+01 0. -1.
         -5    1    3    3    0  502  0.61375156465E+01  0.37067224589E+02 -0.89846132863E+02  0.97499055521E+02  0.47000000000E+01 0. -1.
        -11    1    1    2    0    0 -0.10802905734E+01  0.28978229386E+02 -0.99126829972E+02  0.10328133048E+03  0.00000000000E+00 0.  1.
         11    1    1    2    0    0  0.39101994368E+02 -0.98590991014E+01 -0.37010778692E+01  0.40495256217E+02  0.00000000000E+00 0. -1.
<mgrwt>
<rscale>  0 0.12333431E+03</rscale>
<asrwt>0</asrwt>
<pdfrwt beam="1">  1        2 0.79060974E-02 0.13205000E+03</pdfrwt>
<pdfrwt beam="2">  1       -2 0.40663100E-01 0.13205000E+03</pdfrwt>
<totfact> 0.47295532E+03</totfact>
</mgrwt>
</event>
<event>
 7    1  0.5400401E-006  0.1572899E+03  0.7546771E-02  0.1201480E+00
          1   -1    0    0  501    0  0.00000000000E+00  0.00000000000E+00  0.14013590468E+03  0.14013590468E+03  0.00000000000E+00 0.  1.
         -1   -1    0    0    0  501 -0.00000000000E+00 -0.00000000000E+00 -0.14568393216E+03  0.14568393216E+03  0.00000000000E+00 0. -1.
         23    2    1    2    0    0  0.87050713428E+02 -0.39228418256E+02 -0.16015293538E+02  0.15810313918E+03  0.12499366978E+03 0.  0.
          5    1    3    3  502    0  0.92703681850E+02 -0.62018825306E+02  0.21412567762E+02  0.11367011647E+03  0.47000000000E+01 0.  1.
         -5    1    3    3    0  502 -0.56529684221E+01  0.22790407050E+02 -0.37427861299E+02  0.44433022708E+02  0.47000000000E+01 0.  1.
        -11    1    1    2    0    0 -0.56690872215E+02  0.65205628484E+02  0.14289990602E+02  0.87577581663E+02  0.00000000000E+00 0.  1.
         11    1    1    2    0    0 -0.30359841212E+02 -0.25977210228E+02 -0.38227245454E+01  0.40139115992E+02  0.00000000000E+00 0. -1.
<mgrwt>
<rscale>  0 0.14918380E+03</rscale>
<asrwt>0</asrwt>
<pdfrwt beam="1">  1        1 0.21559370E-01 0.15728990E+03</pdfrwt>
<pdfrwt beam="2">  1       -1 0.22412913E-01 0.15728990E+03</pdfrwt>
<totfact> 0.37502086E+03</totfact>
</mgrwt>
</event>
<event>
 6    1  0.5400401E-006  0.2971419E+03  0.7546771E-02  0.1090431E+00
          2   -1    0    0  501    0  0.00000000000E+00  0.00000000000E+00  0.11294498899E+04  0.11294498899E+04  0.00000000000E+00 0. -1.
         -2   -1    0    0    0  501 -0.00000000000E+00 -0.00000000000E+00 -0.21489060113E+03  0.21489060113E+03  0.00000000000E+00 0.  1.
          5    1    1    2  502    0 -0.18378352428E+02  0.35625126873E+02 -0.32221160264E+01  0.40489326178E+02  0.47000000000E+01 0. -1.
         -5    1    1    2    0  502 -0.20586481155E+03 -0.15178399258E+03 -0.81902884483E+02  0.26860542349E+03  0.47000000000E+01 0.  1.
        -11    1    1    2    0    0  0.12928577871E+03  0.83265432119E+02  0.42781113360E+03  0.45461006456E+03  0.00000000000E+00 0. -1.
         11    1    1    2    0    0  0.94957385270E+02  0.32893433590E+02  0.57187315564E+03  0.58063567677E+03  0.00000000000E+00 0.  1.
<mgrwt>
<rscale>  0 0.28984381E+03</rscale>
<asrwt>0</asrwt>
<pdfrwt beam="1">  1        2 0.17376152E+00 0.29714188E+03</pdfrwt>
<pdfrwt beam="2">  1       -2 0.33060093E-01 0.29714188E+03</pdfrwt>
<totfact> 0.18870779E+02</totfact>
</mgrwt>
</event>
<event>
 7    1  0.5400401E-006  0.1260096E+03  0.7546771E-02  0.1247129E+00
         -4   -1    0    0    0  501 -0.00000000000E+00  0.00000000000E+00  0.25248319406E+03  0.25248319406E+03  0.00000000000E+00 0. -1.
          4   -1    0    0  501    0  0.00000000000E+00 -0.00000000000E+00 -0.92714184468E+02  0.92714184468E+02  0.00000000000E+00 0.  1.
         23    2    1    2    0    0 -0.15757620749E+02 -0.21700583271E+00  0.20409707905E+03  0.23986251728E+03  0.12502023762E+03 0.  0.
          5    1    3    3  502    0  0.28755477740E+02 -0.80106186413E+01 -0.55955055693E+00  0.30223345412E+02  0.47000000000E+01 0. -1.
         -5    1    3    3    0  502 -0.44513098489E+02  0.77936128086E+01  0.20465662961E+03  0.20963917187E+03  0.47000000000E+01 0. -1.
        -11    1    1    2    0    0  0.40608267546E+02  0.30691615714E+02 -0.74852765245E+01  0.51449354057E+02  0.00000000000E+00 0. -1.
         11    1    1    2    0    0 -0.24850646797E+02 -0.30474609881E+02 -0.36842792938E+02  0.53885507190E+02  0.00000000000E+00 0.  1.
<mgrwt>
<rscale>  0 0.11758832E+03</rscale>
<asrwt>0</asrwt>
<pdfrwt beam="2">  1        4 0.14263721E-01 0.12600956E+03</pdfrwt>
<pdfrwt beam="1">  1       -4 0.38843568E-01 0.12600956E+03</pdfrwt>
<totfact> 0.43426538E+02</totfact>
</mgrwt>
</event>
<event>
 6    1  0.5400401E-006  0.2001470E+03  0.7546771E-02  0.1171722E+00
          1   -1    0    0  501    0  0.00000000000E+00  0.00000000000E+00  0.32637124168E+03  0.32637124168E+03  0.00000000000E+00 0. -1.
         -1   -1    0    0    0  501 -0.00000000000E+00 -0.00000000000E+00 -0.80959110803E+02  0.80959110803E+02  0.00000000000E+00 0.  1.
          5    1    1    2  502    0 -0.66703993924E+02 -0.25833818692E+02  0.31186984257E+02  0.78176255863E+02  0.47000000000E+01 0. -1.
         -5    1    1    2    0  502  0.12465471582E+03 -0.26123129557E+02  0.86057617703E+02  0.15378302780E+03  0.47000000000E+01 0.  1.
        -11    1    1    2    0    0 -0.39997425046E+02  0.36444828872E+02  0.10228898550E+02  0.55069500882E+02  0.00000000000E+00 0.  1.
         11    1    1    2    0    0 -0.17953296852E+02  0.15512119377E+02  0.11793863037E+03  0.12030156794E+03  0.00000000000E+00 0. -1.
<mgrwt>
<rscale>  0 0.17600919E+03</rscale>
<asrwt>0</asrwt>
<pdfrwt beam="1">  1        1 0.50210960E-01 0.20014698E+03</pdfrwt>
<pdfrwt beam="2">  1       -1 0.12455248E-01 0.20014698E+03</pdfrwt>
<totfact> 0.33456505E+03</totfact>
</mgrwt>
</event>
<event>
 7    1  0.5400401E-006  0.1610724E+03  0.7546771E-02  0.1199662E+00
         -1   -1    0    0    0  501 -0.00000000000E+00  0.00000000000E+00  0.49144151067E+03  0.49144151067E+03  0.00000000000E+00 0.  1.
          1   -1    0    0  501    0  0.00000000000E+00 -0.00000000000E+00 -0.41159513751E+02  0.41159513751E+02  0.00000000000E+00 0. -1.
         23    2    1    2    0    0  0.26216339284E+02 -0.98126793701E+02  0.26116492510E+03  0.30684108601E+03  0.12501267884E+03 0.  0.
          5    1    3    3  502    0  0.12742133428E+02 -0.12148293750E+03  0.24795508442E+03  0.27644941663E+03  0.47000000000E+01 0.  1.
         -5    1    3    3    0  502  0.13474205856E+02  0.23356143797E+02  0.13209840683E+02  0.30391669374E+02  0.47000000000E+01 0.  1.
        -11    1    1    2    0    0 -0.37452809767E+01  0.77001592546E+02  0.17619100952E+03  0.19231886080E+03  0.00000000000E+00 0.  1.
         11    1    1    2    0    0 -0.22471058308E+02  0.21125201155E+02  0.12926062294E+02  0.33441077610E+02  0.00000000000E+00 0. -1.
<mgrwt>
<rscale>  0 0.15066228E+03</rscale>
<asrwt>0</asrwt>
<pdfrwt beam="2">  1        1 0.63322332E-02 0.16107245E+03</pdfrwt>
<pdfrwt beam="1">  1       -1 0.75606382E-01 0.16107245E+03</pdfrwt>
<totfact> 0.21500712E+03</totfact>
</mgrwt>
</event>
<event>
 7    1  0.5400401E-006  0.1892544E+03  0.7546771E-02  0.1164373E+00
         -2   -1    0    0    0  501 -0.00000000000E+00  0.00000000000E+00  0.73990810095E+02  0.73990810095E+02  0.00000000000E+00 0.  1.
          2   -1    0    0  501    0  0.00000000000E+00 -0.00000000000E+00 -0.43060157326E+03  0.43060157326E+03  0.00000000000E+00 0. -1.
         23    2    1    2    0    0  0.13571936684E+03  0.42102402523E+02 -0.19625293211E+03  0.27263977699E+03  0.12499950322E+03 0.  0.
          5    1    3    3  502    0  0.52880380233E+02 -0.40587879223E+02 -0.41923984477E+02  0.78888662226E+02  0.47000000000E+01 0. -1.
         -5    1    3    3    0  502  0.82838986607E+02  0.82690281745E+02 -0.15432894763E+03  0.19375111477E+03  0.47000000000E+01 0. -1.
        -11    1    1    2    0    0 -0.21568156413E+02  0.25188080510E+01  0.84865784296E+01  0.23314196930E+02  0.00000000000E+00 0.  1.
         11    1    1    2    0    0 -0.11415121043E+03 -0.44621210574E+02 -0.16884440949E+03  0.20863840943E+03  0.00000000000E+00 0. -1.
<mgrwt>
<rscale>  0 0.18358975E+03</rscale>
<asrwt>0</asrwt>
<pdfrwt beam="2">  1        2 0.66246395E-01 0.18925442E+03</pdfrwt>
<pdfrwt beam="1">  1       -2 0.11383202E-01 0.18925442E+03</pdfrwt>
<totfact> 0.38908240E+03</totfact>
</mgrwt>
</event>
<event>
 7    1  0.5400401E-006  0.1393501E+03  0.7546771E-02  0.1224792E+00
         -2   -1    0    0    0  501 -0.00000000000E+00  0.00000000000E+00  0.72756642498E+02  0.72756642498E+02  0.00000000000E+00 0.  1.
          2   -1    0    0  501    0  0.00000000000E+00 -0.00000000000E+00 -0.23395672071E+03  0.23395672071E+03  0.00000000000E+00 0. -1.
         23    2    1    2    0    0  0.72797881890E+01 -0.61159573509E+02 -0.46984001628E+02  0.14705766133E+03  0.12499988240E+03 0.  0.
          5    1    3    3  502    0 -0.35819010914E+02 -0.69523525781E+02 -0.62534510978E+02  0.10024558466E+03  0.47000000000E+01 0.  1.
         -5    1    3    3    0  502  0.43098799103E+02  0.83639522715E+01  0.15550509350E+02  0.46812076677E+02  0.47000000000E+01 0.  1.
        -11    1    1    2    0    0 -0.32074028027E+02 -0.60099311105E+01 -0.65124724968E+02  0.72842929293E+02  0.00000000000E+00 0. -1.
         11    1    1    2    0    0  0.24794239838E+02  0.67169504620E+02 -0.49091351617E+02  0.86812772584E+02  0.00000000000E+00 0.  1.
<mgrwt>
<rscale>  0 0.13181150E+03</rscale>
<asrwt>0</asrwt>
<pdfrwt beam="2">  1        2 0.35993342E-01 0.13935013E+03</pdfrwt>
<pdfrwt beam="1">  1       -2 0.11193330E-01 0.13935013E+03</pdfrwt>
<totfact> 0.75498467E+03</totfact>
</mgrwt>
</event>
<event>
 6    1  0.5400401E-006  0.1841416E+03  0.7546771E-02  0.1185938E+00
         -4   -1    0    0    0  501 -0.00000000000E+00  0.00000000000E+00  0.11835587021E+04  0.11835587021E+04  0.00000000000E+00 0.  1.
          4   -1    0    0  501    0  0.00000000000E+00 -0.00000000000E+00 -0.21193901267E+02  0.21193901267E+02  0.00000000000E+00 0. -1.
          5    1    1    2  502    0 -0.78503457213E+02  0.30413862499E+02  0.22560822818E+03  0.24085048983E+03  0.47000000000E+01 0. -1.
         -5    1    1    2    0  502  0.24895652927E+02 -0.60284962326E+02  0.68994624567E+03  0.69303822559E+03  0.47000000000E+01 0.  1.
        -11    1    1    2    0    0  0.77402223643E+02  0.14701393177E+02  0.21127596026E+03  0.22548784129E+03  0.00000000000E+00 0.  1.
         11    1    1    2    0    0 -0.23794419357E+02  0.15169706650E+02  0.35534366739E+02  0.45376046676E+02  0.00000000000E+00 0. -1.
<mgrwt>
<rscale>  0 0.16246824E+03</rscale>
<asrwt>0</asrwt>
<pdfrwt beam="2">  1        4 0.32606011E-02 0.18414163E+03</pdfrwt>
<pdfrwt beam="1">  1       -4 0.18208590E+00 0.18414163E+03</pdfrwt>
<totfact> 0.15783674E+02</totfact>
</mgrwt>
</event>
<event>
 7    1  0.5400401E-006  0.1591478E+03  0.7546771E-02  0.1197975E+00
         -2   -1    0    0    0  501 -0.00000000000E+00  0.00000000000E+00  0.89952212288E+02  0.89952212288E+02  0.00000000000E+00 0.  1.
          2   -1    0    0  501    0  0.00000000000E+00 -0.00000000000E+00 -0.24311911559E+03  0.24311911559E+03  0.00000000000E+00 0. -1.
         23    2    1    2    0    0  0.93262813932E+02  0.31706340993E+02 -0.11058962694E+03  0.19379911013E+03  0.12499913991E+03 0.  0.
          5    1    3    3  502    0 -0.12856793398E+02 -0.28971347301E+02 -0.54696541994E+01  0.32506048944E+02  0.47000000000E+01 0. -1.
         -5    1    3    3    0  502  0.10611960733E+03  0.60677688294E+02 -0.10511997274E+03  0.16129306118E+03  0.47000000000E+01 0. -1.
        -11    1    1    2    0    0 -0.61189989316E+02  0.83629653304E+01 -0.58972368293E+02  0.85392588693E+02  0.00000000000E+00 0. -1.
         11    1    1    2    0    0 -0.32072824616E+02 -0.40069306324E+02  0.16395091930E+02  0.53879629059E+02  0.00000000000E+00 0.  1.
<mgrwt>
<rscale>  0 0.15205125E+03</rscale>
<asrwt>0</asrwt>
<pdfrwt beam="2">  1        2 0.37402941E-01 0.15914782E+03</pdfrwt>
<pdfrwt beam="1">  1       -2 0.13838802E-01 0.15914782E+03</pdfrwt>
<totfact> 0.51966172E+03</totfact>
</mgrwt>
</event>
<event>
 6    1  0.5400401E-006  0.1704957E+03  0.7546771E-02  0.1197795E+00
         -2   -1    0    0    0  501 -0.00000000000E+00  0.00000000000E+00  0.81381152442E+02  0.81381152442E+02  0.00000000000E+00 0. -1.
          2   -1    0    0  501    0  0.00000000000E+00 -0.00000000000E+00 -0.27351924770E+03  0.27351924770E+03  0.00000000000E+00 0.  1.
          5    1    1    2  502    0 -0.20349072198E+02 -0.89923614335E+02  0.87132686052E+01  0.92727300209E+02  0.47000000000E+01 0. -1.
         -5    1    1    2    0  502  0.50454062667E+02  0.31562113107E+02 -0.61603065562E+02  0.85783489729E+02  0.47000000000E+01 0.  1.
        -11    1    1    2    0    0 -0.49664594835E+02  0.49798477279E+01 -0.50586996964E+02  0.71066272770E+02  0.00000000000E+00 0.  1.
         11    1    1    2    0    0  0.19559604366E+02  0.53381653499E+02 -0.88661301335E+02  0.10532333743E+03  0.00000000000E+00 0. -1.
<mgrwt>
<rscale>  0 0.15220040E+03</rscale>
<asrwt>0</asrwt>
<pdfrwt beam="2">  1        2 0.42079884E-01 0.17049566E+03</pdfrwt>
<pdfrwt beam="1">  1       -2 0.12520177E-01 0.17049566E+03</pdfrwt>
<totfact> 0.54077507E+03</totfact>
</mgrwt>
</event>
<event>
 7    1  0.5400401E-006  0.1536090E+03  0.7546771E-02  0.1205125E+00
         -1   -1    0    0    0  501 -0.00000000000E+00  0.00000000000E+00  0.29198422807E+03  0.29198422807E+03  0.00000000000E+00 0.  1.
          1   -1    0    0  501    0  0.00000000000E+00 -0.00000000000E+00 -0.68758620964E+02  0.68758620964E+02  0.00000000000E+00 0. -1.
         23    2    1    2    0    0  0.82585267149E+02 -0.33944280832E+02  0.94258678988E+02  0.18022323897E+03  0.12499270679E+03 0.  0.
          5    1    3    3  502    0  0.26317990208E+02 -0.55070503331E+02 -0.77769691836E+01  0.61708736783E+02  0.47000000000E+01 0.  1.
         -5    1    3    3    0  502  0.56267276941E+02  0.21126222499E+02  0.10203564817E+03  0.11851450219E+03  0.47000000000E+01 0.  1.
        -11    1    1    2    0    0 -0.38698261510E+02  0.59947369024E+02  0.96639665583E+02  0.12012688068E+03  0.00000000000E+00 0.  1.
         11    1    1    2    0    0 -0.43887005639E+02 -0.26003088192E+02  0.32327262534E+02  0.60392729384E+02  0.00000000000E+00 0. -1.
<mgrwt>
<rscale>  0 0.14627634E+03</rscale>
<asrwt>0</asrwt>
<pdfrwt beam="2">  1        1 0.10578250E-01 0.15360898E+03</pdfrwt>
<pdfrwt beam="1">  1       -1 0.44920650E-01 0.15360898E+03</pdfrwt>
<totfact> 0.28908164E+03</totfact>
</mgrwt>
</event>
<event>
 7    1  0.5400401E-006  0.1443510E+03  0.7546771E-02  0.1212441E+00
          1   -1    0    0  501    0  0.00000000000E+00  0.00000000000E+00  0.15172312414E+03  0.15172312414E+03  0.00000000000E+00 0. -1.
         -1   -1    0    0    0  501 -0.00000000000E+00 -0.00000000000E+00 -0.12847058031E+03  0.12847058031E+03  0.00000000000E+00 0.  1.
         23    2    1    2    0    0  0.53881311021E+02 -0.48045330110E+02  0.37840289117E+02  0.14922833969E+03  0.12500264182E+03 0.  0.
          5    1    3    3  502    0  0.41612369455E+02 -0.63462733469E+01 -0.41081821900E+02  0.59005682503E+02  0.47000000000E+01 0.  1.
         -5    1    3    3    0  502  0.12268941566E+02 -0.41699056763E+02  0.78922111017E+02  0.90222657185E+02  0.47000000000E+01 0.  1.
        -11    1    1    2    0    0 -0.16792073861E+02  0.52657906721E+02 -0.53562558199E+02  0.76966073861E+02  0.00000000000E+00 0. -1.
         11    1    1    2    0    0 -0.37089237160E+02 -0.46125766108E+01  0.38974812912E+02  0.53999290899E+02  0.00000000000E+00 0.  1.
<mgrwt>
<rscale>  0 0.14066181E+03</rscale>
<asrwt>0</asrwt>
<pdfrwt beam="1">  1        1 0.23342019E-01 0.14435100E+03</pdfrwt>
<pdfrwt beam="2">  1       -1 0.19764705E-01 0.14435100E+03</pdfrwt>
<totfact> 0.41370403E+03</totfact>
</mgrwt>
</event>
<event>
 7    1  0.5400401E-006  0.1629917E+03  0.7546771E-02  0.1192910E+00
         -2   -1    0    0    0  501 -0.00000000000E+00  0.00000000000E+00  0.31238301389E+03  0.31238301389E+03  0.00000000000E+00 0.  1.
          2   -1    0    0  501    0  0.00000000000E+00 -0.00000000000E+00 -0.72581257754E+02  0.72581257754E+02  0.00000000000E+00 0. -1.
         23    2    1    2    0    0 -0.10379736638E+03 -0.13359073363E+02  0.13762436305E+03  0.21332313120E+03  0.12495573173E+03 0.  0.
          5    1    3    3  502    0 -0.88380695842E+01  0.42608751707E+02  0.73975224310E+02  0.85953714334E+02  0.47000000000E+01 0. -1.
         -5    1    3    3    0  502 -0.94959296792E+02 -0.55967825070E+02  0.63649138743E+02  0.12736941687E+03  0.47000000000E+01 0. -1.
        -11    1    1    2    0    0  0.51462984562E+02  0.51644039262E+02  0.58247082870E+02  0.93318102393E+02  0.00000000000E+00 0. -1.
         11    1    1    2    0    0  0.52334381814E+02 -0.38284965900E+02  0.43930310209E+02  0.78323038046E+02  0.00000000000E+00 0.  1.
<mgrwt>
<rscale>  0 0.15632439E+03</rscale>
<asrwt>0</asrwt>
<pdfrwt beam="2">  1        2 0.11166348E-01 0.16299170E+03</pdfrwt>
<pdfrwt beam="1">  1       -2 0.48058924E-01 0.16299170E+03</pdfrwt>
<totfact> 0.22622295E+03</totfact>
</mgrwt>
</event>
<event>
 7    1  0.5400401E-006  0.1311509E+03  0.7546771E-02  0.1241232E+00
          1   -1    0    0  501    0  0.00000000000E+00  0.00000000000E+00  0.18734699148E+03  0.18734699148E+03  0.00000000000E+00 0. -1.
         -1   -1    0    0    0  501 -0.00000000000E+00 -0.00000000000E+00 -0.84506102159E+02  0.84506102159E+02  0.00000000000E+00 0.  1.
         23    2    1    2    0    0  0.31537818929E+02  0.24037809217E+02 -0.52684526163E+00  0.13115198232E+03  0.12501245780E+03 0.  0.
          5    1    3    3  502    0 -0.31297581421E+02  0.21404596835E+02 -0.41136210842E+02  0.56142436810E+02  0.47000000000E+01 0.  1.
         -5    1    3    3    0  502  0.62835400350E+02  0.26332123817E+01  0.40609365580E+02  0.75009545508E+02  0.47000000000E+01 0.  1.
        -11    1    1    2    0    0 -0.35701058491E+02  0.26591505684E+02  0.44483736876E+02  0.62932317599E+02  0.00000000000E+00 0.  1.
         11    1    1    2    0    0  0.41632395626E+01 -0.50629314901E+02  0.58883997707E+02  0.77768793722E+02  0.00000000000E+00 0. -1.
<mgrwt>
<rscale>  0 0.12113781E+03</rscale>
<asrwt>0</asrwt>
<pdfrwt beam="1">  1        1 0.28822614E-01 0.13115092E+03</pdfrwt>
<pdfrwt beam="2">  1       -1 0.13000939E-01 0.13115092E+03</pdfrwt>
<totfact> 0.61116962E+03</totfact>
</mgrwt>
</event>
<event>
 7    1  0.5400401E-006  0.1316249E+03  0.7546771E-02  0.1238980E+00
         -1   -1    0    0    0  501 -0.00000000000E+00  0.00000000000E+00  0.30603897884E+02  0.30603897884E+02  0.00000000000E+00 0.  1.
          1   -1    0    0  501    0  0.00000000000E+00 -0.00000000000E+00 -0.48515740844E+03  0.48515740844E+03  0.00000000000E+00 0. -1.
         23    2    1    2    0    0 -0.37348369746E+02 -0.17460032372E+02 -0.17313118308E+03  0.21748450642E+03  0.12500140209E+03 0.  0.
          5    1    3    3  502    0 -0.12021059238E+02 -0.25306391718E+02  0.11684734183E+02  0.30717134305E+02  0.47000000000E+01 0. -1.
         -5    1    3    3    0  502 -0.25327310509E+02  0.78463593469E+01 -0.18481591727E+03  0.18676737212E+03  0.47000000000E+01 0. -1.
        -11    1    1    2    0    0 -0.12602703278E+02  0.32467972413E+02 -0.49264860177E+02  0.60332609845E+02  0.00000000000E+00 0.  1.
         11    1    1    2    0    0  0.49951073024E+02 -0.15007940041E+02 -0.23215746730E+03  0.23794419006E+03  0.00000000000E+00 0. -1.
<mgrwt>
<rscale>  0 0.12253021E+03</rscale>
<asrwt>0</asrwt>
<pdfrwt beam="2">  1        1 0.74639601E-01 0.13162486E+03</pdfrwt>
<pdfrwt beam="1">  1       -1 0.47082920E-02 0.13162486E+03</pdfrwt>
<totfact> 0.86257658E+03</totfact>
</mgrwt>
</event>
<event>
 7    1  0.5400401E-006  0.1251275E+03  0.7546771E-02  0.1250457E+00
         -1   -1    0    0    0  501 -0.00000000000E+00  0.00000000000E+00  0.69745017987E+03  0.69745017987E+03  0.00000000000E+00 0.  1.
          1   -1    0    0  501    0  0.00000000000E+00 -0.00000000000E+00 -0.23517480906E+02  0.23517480906E+02  0.00000000000E+00 0. -1.
         23    2    1    2    0    0  0.27163762015E+01  0.49781339569E+01  0.56568305012E+03  0.57935672085E+03  0.12499894512E+03 0.  0.
          5    1    3    3  502    0  0.14623480678E+02 -0.41416266001E+02  0.47173331074E+03  0.47379696045E+03  0.47000000000E+01 0. -1.
         -5    1    3    3    0  502 -0.11907104476E+02  0.46394399958E+02  0.93949739383E+02  0.10555976039E+03  0.47000000000E+01 0. -1.
        -11    1    1    2    0    0 -0.11863386624E+02 -0.28019935125E+02 -0.13398370105E+00  0.30428188547E+02  0.00000000000E+00 0. -1.
         11    1    1    2    0    0  0.91470104225E+01  0.23041801168E+02  0.10838363255E+03  0.11118275138E+03  0.00000000000E+00 0.  1.
<mgrwt>
<rscale>  0 0.11564642E+03</rscale>
<asrwt>0</asrwt>
<pdfrwt beam="2">  1        1 0.36180745E-02 0.12512752E+03</pdfrwt>
<pdfrwt beam="1">  1       -1 0.10730001E+00 0.12512752E+03</pdfrwt>
<totfact> 0.21703935E+03</totfact>
</mgrwt>
</event>
<event>
 7    1  0.5400401E-006  0.1285910E+03  0.7546771E-02  0.1242643E+00
         -1   -1    0    0    0  501 -0.00000000000E+00  0.00000000000E+00  0.13123263548E+03  0.13123263548E+03  0.00000000000E+00 0.  1.
          1   -1    0    0  501    0  0.00000000000E+00 -0.00000000000E+00 -0.10476137754E+03  0.10476137754E+03  0.00000000000E+00 0. -1.
         23    2    1    2    0    0  0.29953237503E+02  0.32725241645E+01  0.44232536162E+02  0.13598590603E+03  0.12501097364E+03 0.  0.
          5    1    3    3  502    0 -0.13193616957E+02 -0.12593169102E+02 -0.37573594733E+02  0.42030042322E+02  0.47000000000E+01 0. -1.
         -5    1    3    3    0  502  0.43146854460E+02  0.15865693266E+02  0.81806130895E+02  0.93955863705E+02  0.47000000000E+01 0. -1.
        -11    1    1    2    0    0 -0.15182750168E+02  0.12086649088E+02  0.36706331196E+02  0.41520570068E+02  0.00000000000E+00 0.  1.
         11    1    1    2    0    0 -0.14770487335E+02 -0.15359173253E+02 -0.54467609425E+02  0.58487536925E+02  0.00000000000E+00 0. -1.
<mgrwt>
<rscale>  0 0.12027543E+03</rscale>
<asrwt>0</asrwt>
<pdfrwt beam="2">  1        1 0.16117135E-01 0.12859102E+03</pdfrwt>
<pdfrwt beam="1">  1       -1 0.20189636E-01 0.12859102E+03</pdfrwt>
<totfact> 0.63621654E+03</totfact>
</mgrwt>
</event>
<event>
 6    1  0.5400401E-006  0.1364112E+03  0.7546771E-02  0.1235332E+00
          1   -1    0    0  501    0  0.00000000000E+00  0.00000000000E+00  0.38181732320E+03  0.38181732320E+03  0.00000000000E+00 0. -1.
         -1   -1    0    0    0  501 -0.00000000000E+00 -0.00000000000E+00 -0.57569529363E+02  0.57569529363E+02  0.00000000000E+00 0.  1.
          5    1    1    2  502    0 -0.49642206431E+02 -0.59030215957E+02  0.15281746469E+02  0.78768882374E+02  0.47000000000E+01 0. -1.
         -5    1    1    2    0  502  0.44964602033E+02  0.36024268725E+02  0.28829308064E+02  0.64597077152E+02  0.47000000000E+01 0.  1.
        -11    1    1    2    0    0 -0.38238090938E+02  0.95853198374E+01  0.63304187221E+02  0.74575130404E+02  0.00000000000E+00 0. -1.
         11    1    1    2    0    0  0.42915695336E+02  0.13420627394E+02  0.21683255208E+03  0.22144576264E+03  0.00000000000E+00 0.  1.
<mgrwt>
<rscale>  0 0.12483193E+03</rscale>
<asrwt>0</asrwt>
<pdfrwt beam="1">  1        1 0.58741125E-01 0.13641119E+03</pdfrwt>
<pdfrwt beam="2">  1       -1 0.88568509E-02 0.13641119E+03</pdfrwt>
<totfact> 0.45610784E+03</totfact>
</mgrwt>
</event>
<event>
 7    1  0.5400401E-006  0.1335634E+03  0.7546771E-02  0.1236807E+00
          1   -1    0    0  501    0  0.00000000000E+00  0.00000000000E+00  0.20001738742E+03  0.20001738742E+03  0.00000000000E+00 0. -1.
         -1   -1    0    0    0  501 -0.00000000000E+00 -0.00000000000E+00 -0.78582561850E+02  0.78582561850E+02  0.00000000000E+00 0.  1.
         23    2    1    2    0    0 -0.46968101219E+02  0.29671263816E+01  0.16776557231E+02  0.13461286843E+03  0.12499746039E+03 0.  0.
          5    1    3    3  502    0 -0.53274621955E+02  0.21729772395E+02 -0.42667212389E+02  0.71784046737E+02  0.47000000000E+01 0. -1.
         -5    1    3    3    0  502  0.63065207364E+01 -0.18762646014E+02  0.59443769620E+02  0.62828821697E+02  0.47000000000E+01 0. -1.
        -11    1    1    2    0    0  0.12557840625E+02 -0.40942649432E+01 -0.14700092511E+02  0.19762466608E+02  0.00000000000E+00 0.  1.
         11    1    1    2    0    0  0.34410260594E+02  0.11271385616E+01  0.11935836085E+03  0.12422461423E+03  0.00000000000E+00 0. -1.
<mgrwt>
<rscale>  0 0.12389446E+03</rscale>
<asrwt>0</asrwt>
<pdfrwt beam="1">  1        1 0.30771906E-01 0.13356336E+03</pdfrwt>
<pdfrwt beam="2">  1       -1 0.12089625E-01 0.13356336E+03</pdfrwt>
<totfact> 0.63119096E+03</totfact>
</mgrwt>
</event>
<event>
 7    1  0.5400401E-006  0.1170612E+03  0.7546771E-02  0.1257606E+00
         -2   -1    0    0    0  501 -0.00000000000E+00  0.00000000000E+00  0.23714928838E+02  0.23714928838E+02  0.00000000000E+00 0.  1.
          2   -1    0    0  501    0  0.00000000000E+00 -0.00000000000E+00 -0.54977132543E+03  0.54977132543E+03  0.00000000000E+00 0. -1.
         23    2    1    2    0    0  0.21056208713E+02 -0.22321486279E+02 -0.18460956954E+03  0.21859554609E+03  0.11296772516E+03 0.  0.
          5    1    3    3  502    0  0.24310209312E+02  0.43124088774E+02 -0.97948404176E+02  0.10984831901E+03  0.47000000000E+01 0. -1.
         -5    1    3    3    0  502 -0.32540005988E+01 -0.65445575053E+02 -0.86661165366E+02  0.10874722707E+03  0.47000000000E+01 0.  1.
        -11    1    1    2    0    0  0.33984723235E+02  0.41973273175E+01 -0.78656043426E+02  0.85786666431E+02  0.00000000000E+00 0.  1.
         11    1    1    2    0    0 -0.55040931948E+02  0.18124158962E+02 -0.26279078362E+03  0.26910404175E+03  0.00000000000E+00 0. -1.
<mgrwt>
<rscale>  0 0.11161633E+03</rscale>
<asrwt>0</asrwt>
<pdfrwt beam="2">  1        2 0.84580204E-01 0.11706118E+03</pdfrwt>
<pdfrwt beam="1">  1       -2 0.36484506E-02 0.11706118E+03</pdfrwt>
<totfact> 0.16468884E+04</totfact>
</mgrwt>
</event>
<event>
 7    1  0.5400401E-006  0.1398814E+03  0.7546771E-02  0.1225039E+00
          2   -1    0    0  501    0  0.00000000000E+00  0.00000000000E+00  0.53638920068E+03  0.53638920068E+03  0.00000000000E+00 0. -1.
         -2   -1    0    0    0  501 -0.00000000000E+00 -0.00000000000E+00 -0.29666196741E+02  0.29666196741E+02  0.00000000000E+00 0.  1.
         23    2    1    2    0    0 -0.62653090496E+02 -0.29062748373E+01  0.24243671664E+03  0.27989708611E+03  0.12503184017E+03 0.  0.
          5    1    3    3  502    0 -0.18336629437E+02  0.46512682491E+02  0.32868718680E+02  0.60017533099E+02  0.47000000000E+01 0. -1.
         -5    1    3    3    0  502 -0.44316461060E+02 -0.49418957328E+02  0.20956799796E+03  0.21987955301E+03  0.47000000000E+01 0. -1.
        -11    1    1    2    0    0  0.86949379911E+01 -0.39151469564E+02  0.11886168307E+03  0.12544536348E+03  0.00000000000E+00 0. -1.
         11    1    1    2    0    0  0.53958152505E+02  0.42057744401E+02  0.14542460423E+03  0.16071294783E+03  0.00000000000E+00 0.  1.
<mgrwt>
<rscale>  0 0.13164228E+03</rscale>
<asrwt>0</asrwt>
<pdfrwt beam="1">  1        2 0.82521408E-01 0.13988144E+03</pdfrwt>
<pdfrwt beam="2">  1       -2 0.45640307E-02 0.13988144E+03</pdfrwt>
<totfact> 0.12308210E+04</totfact>
</mgrwt>
</event>
<event>
 7    1  0.5400401E-006  0.1324251E+03  0.7546771E-02  0.1237370E+00
          2   -1    0    0  501    0  0.00000000000E+00  0.00000000000E+00  0.82044599386E+02  0.82044599386E+02  0.00000000000E+00 0. -1.
         -2   -1    0    0    0  501 -0.00000000000E+00 -0.00000000000E+00 -0.17156441923E+03  0.17156441923E+03  0.00000000000E+00 0.  1.
         23    2    1    2    0    0  0.43602477245E-01  0.43713283960E+02 -0.75205795677E+02  0.15229026088E+03  0.12500223502E+03 0.  0.
          5    1    3    3  502    0 -0.70050512507E+01 -0.43735220937E+02 -0.23883237784E+02  0.50540472301E+02  0.47000000000E+01 0. -1.
         -5    1    3    3    0  502  0.70486537279E+01  0.87448504897E+02 -0.51322557893E+02  0.10174978858E+03  0.47000000000E+01 0. -1.
        -11    1    1    2    0    0  0.20771466296E+02  0.16665231762E+02  0.15525799565E+02  0.30825869231E+02  0.00000000000E+00 0. -1.
         11    1    1    2    0    0 -0.20815068773E+02 -0.60378515722E+02 -0.29839823733E+02  0.70492888501E+02  0.00000000000E+00 0.  1.
<mgrwt>
<rscale>  0 0.12353948E+03</rscale>
<asrwt>0</asrwt>
<pdfrwt beam="1">  1        2 0.12622246E-01 0.13242512E+03</pdfrwt>
<pdfrwt beam="2">  1       -2 0.26394526E-01 0.13242512E+03</pdfrwt>
<totfact> 0.58686497E+03</totfact>
</mgrwt>
</event>
<event>
 7    1  0.5400401E-006  0.1275005E+03  0.7546771E-02  0.1245599E+00
          2   -1    0    0  501    0  0.00000000000E+00  0.00000000000E+00  0.51034600674E+03  0.51034600674E+03  0.00000000000E+00 0. -1.
         -2   -1    0    0    0  501 -0.00000000000E+00 -0.00000000000E+00 -0.24515291326E+02  0.24515291326E+02  0.00000000000E+00 0.  1.
         23    2    1    2    0    0  0.55434382416E+01 -0.24516803506E+02  0.25187426025E+03  0.28230661145E+03  0.12499830611E+03 0.  0.
          5    1    3    3  502    0  0.59755906017E+02 -0.25033131566E+02  0.86272713029E+02  0.10799304141E+03  0.47000000000E+01 0.  1.
         -5    1    3    3    0  502 -0.54212467775E+02  0.51632806025E+00  0.16560154722E+03  0.17431357004E+03  0.47000000000E+01 0.  1.
        -11    1    1    2    0    0 -0.25467621089E+02 -0.24105055423E+02  0.14552094933E+03  0.14968633910E+03  0.00000000000E+00 0. -1.
         11    1    1    2    0    0  0.19924182847E+02  0.48621858929E+02  0.88435505836E+02  0.10286834751E+03  0.00000000000E+00 0.  1.
<mgrwt>
<rscale>  0 0.11849622E+03</rscale>
<asrwt>0</asrwt>
<pdfrwt beam="1">  1        2 0.78514762E-01 0.12750051E+03</pdfrwt>
<pdfrwt beam="2">  1       -2 0.37715837E-02 0.12750051E+03</pdfrwt>
<totfact> 0.17147057E+04</totfact>
</mgrwt>
</event>
<event>
 7    1  0.5400401E-006  0.1562074E+03  0.7546771E-02  0.1201569E+00
         -2   -1    0    0    0  501 -0.00000000000E+00  0.00000000000E+00  0.39597178672E+03  0.39597178672E+03  0.00000000000E+00 0.  1.
          2   -1    0    0  501    0  0.00000000000E+00 -0.00000000000E+00 -0.54838396841E+02  0.54838396841E+02  0.00000000000E+00 0. -1.
         23    2    1    2    0    0  0.65260589092E+02  0.67248075053E+02  0.13097630309E+03  0.20385174469E+03  0.12497797308E+03 0.  0.
          5    1    3    3  502    0 -0.37653950790E+02  0.19355202480E+02  0.35806812722E+02  0.55647656828E+02  0.47000000000E+01 0.  1.
         -5    1    3    3    0  502  0.10291453988E+03  0.47892872573E+02  0.95169490368E+02  0.14820408786E+03  0.47000000000E+01 0.  1.
        -11    1    1    2    0    0 -0.25386621187E+02 -0.81942780524E+02  0.15694721061E+03  0.17886175313E+03  0.00000000000E+00 0.  1.
         11    1    1    2    0    0 -0.39873967905E+02  0.14694705471E+02  0.53209876178E+02  0.68096685736E+02  0.00000000000E+00 0. -1.
<mgrwt>
<rscale>  0 0.14911192E+03</rscale>
<asrwt>0</asrwt>
<pdfrwt beam="2">  1        2 0.84366767E-02 0.15620737E+03</pdfrwt>
<pdfrwt beam="1">  1       -2 0.60918735E-01 0.15620737E+03</pdfrwt>
<totfact> 0.19791131E+03</totfact>
</mgrwt>
</event>
<event>
 7    1  0.5400401E-006  0.1578760E+03  0.7546771E-02  0.1199164E+00
          2   -1    0    0  501    0  0.00000000000E+00  0.00000000000E+00  0.13079325885E+04  0.13079325885E+04  0.00000000000E+00 0. -1.
         -2   -1    0    0    0  501 -0.00000000000E+00 -0.00000000000E+00 -0.16448125883E+02  0.16448125883E+02  0.00000000000E+00 0.  1.
         23    2    1    2    0    0  0.77751685262E+01 -0.96098780904E+02  0.60556578988E+03  0.62580728808E+03  0.12501762677E+03 0.  0.
          5    1    3    3  502    0  0.70423433074E+01  0.15301368637E+02  0.30041010351E+03  0.30091867136E+03  0.47000000000E+01 0. -1.
         -5    1    3    3    0  502  0.73282521879E+00 -0.11140014954E+03  0.30515568637E+03  0.32488861672E+03  0.47000000000E+01 0. -1.
        -11    1    1    2    0    0  0.32519850150E+02  0.57358670278E+01  0.14907329426E+03  0.15268689494E+03  0.00000000000E+00 0.  1.
         11    1    1    2    0    0 -0.40295018676E+02  0.90362913876E+02  0.53684537847E+03  0.54588653136E+03  0.00000000000E+00 0. -1.
<mgrwt>
<rscale>  0 0.15107066E+03</rscale>
<asrwt>0</asrwt>
<pdfrwt beam="1">  1        2 0.20122032E+00 0.15787601E+03</pdfrwt>
<pdfrwt beam="2">  1       -2 0.25304819E-02 0.15787601E+03</pdfrwt>
<totfact> 0.92802318E+03</totfact>
</mgrwt>
</event>
<event>
 7    1  0.5400401E-006  0.1465255E+03  0.7546771E-02  0.1213146E+00
          2   -1    0    0  501    0  0.00000000000E+00  0.00000000000E+00  0.12308852898E+04  0.12308852898E+04  0.00000000000E+00 0. -1.
         -2   -1    0    0    0  501 -0.00000000000E+00 -0.00000000000E+00 -0.14755534969E+02  0.14755534969E+02  0.00000000000E+00 0.  1.
         23    2    1    2    0    0 -0.76316763067E+02  0.47421002010E+01  0.62741552466E+03  0.64429804610E+03  0.12499198287E+03 0.  0.
          5    1    3    3  502    0  0.47815464569E+01  0.14018456865E+02  0.43441695980E+03  0.43469479556E+03  0.47000000000E+01 0.  1.
         -5    1    3    3    0  502 -0.81098309524E+02 -0.92763566642E+01  0.19299856486E+03  0.20960325054E+03  0.47000000000E+01 0.  1.
        -11    1    1    2    0    0  0.15066603746E+02  0.41957381062E+02  0.25384164898E+03  0.25772661316E+03  0.00000000000E+00 0.  1.
         11    1    1    2    0    0  0.61250159321E+02 -0.46699481263E+02  0.33487258119E+03  0.34361616551E+03  0.00000000000E+00 0. -1.
<mgrwt>
<rscale>  0 0.14013613E+03</rscale>
<asrwt>0</asrwt>
<pdfrwt beam="1">  1        2 0.18936689E+00 0.14652553E+03</pdfrwt>
<pdfrwt beam="2">  1       -2 0.22700833E-02 0.14652553E+03</pdfrwt>
<totfact> 0.11942928E+04</totfact>
</mgrwt>
</event>
<event>
 7    1  0.5400401E-006  0.1651349E+03  0.7546771E-02  0.1190123E+00
          1   -1    0    0  501    0  0.00000000000E+00  0.00000000000E+00  0.11222525488E+03  0.11222525488E+03  0.00000000000E+00 0. -1.
         -1   -1    0    0    0  501 -0.00000000000E+00 -0.00000000000E+00 -0.21252716705E+03  0.21252716705E+03  0.00000000000E+00 0.  1.
         23    2    1    2    0    0 -0.10357342512E+03 -0.30553705256E+02 -0.75491250737E+02  0.18157219117E+03  0.12493417615E+03 0.  0.
          5    1    3    3  502    0  0.15062985648E+02  0.61235342970E+01  0.19011824182E+02  0.25454482271E+02  0.47000000000E+01 0.  1.
         -5    1    3    3    0  502 -0.11863641077E+03 -0.36677239553E+02 -0.94503074919E+02  0.15611770890E+03  0.47000000000E+01 0.  1.
        -11    1    1    2    0    0  0.22592500060E+00  0.15013107472E+02 -0.35089101522E+02  0.38166601679E+02  0.00000000000E+00 0.  1.
         11    1    1    2    0    0  0.10334750012E+03  0.15540597784E+02  0.10278440091E+02  0.10501362908E+03  0.00000000000E+00 0. -1.
<mgrwt>
<rscale>  0 0.15874310E+03</rscale>
<asrwt>0</asrwt>
<pdfrwt beam="1">  1        1 0.17265424E-01 0.16513489E+03</pdfrwt>
<pdfrwt beam="2">  1       -1 0.32696486E-01 0.16513489E+03</pdfrwt>
<totfact> 0.26622968E+03</totfact>
</mgrwt>
</event>
<event>
 7    1  0.5400401E-006  0.1394860E+03  0.7546771E-02  0.1222943E+00
         -2   -1    0    0    0  501 -0.00000000000E+00  0.00000000000E+00  0.21815803300E+02  0.21815803300E+02  0.00000000000E+00 0.  1.
          2   -1    0    0  501    0  0.00000000000E+00 -0.00000000000E+00 -0.87400816987E+03  0.87400816987E+03  0.00000000000E+00 0. -1.
         23    2    1    2    0    0  0.38210011759E+02 -0.48667104457E+02 -0.28914803909E+03  0.32103417786E+03  0.12501145065E+03 0.  0.
          5    1    3    3  502    0  0.16296590461E+02 -0.37643430527E+01 -0.26459489472E+03  0.26516466101E+03  0.47000000000E+01 0. -1.
         -5    1    3    3    0  502  0.21913421298E+02 -0.44902761404E+02 -0.24553144369E+02  0.55869516851E+02  0.47000000000E+01 0. -1.
        -11    1    1    2    0    0 -0.25100494259E+02 -0.26618099019E+02 -0.12980591585E+03  0.13486338939E+03  0.00000000000E+00 0. -1.
         11    1    1    2    0    0 -0.13109517500E+02  0.75285203476E+02 -0.43323841163E+03  0.43992640592E+03  0.00000000000E+00 0.  1.
<mgrwt>
<rscale>  0 0.13308886E+03</rscale>
<asrwt>0</asrwt>
<pdfrwt beam="2">  1        2 0.13446282E+00 0.13948604E+03</pdfrwt>
<pdfrwt beam="1">  1       -2 0.33562769E-02 0.13948604E+03</pdfrwt>
<totfact> 0.10881097E+04</totfact>
</mgrwt>
</event>
<event>
 7    1  0.5400401E-006  0.1429756E+03  0.7546771E-02  0.1219345E+00
          1   -1    0    0  501    0  0.00000000000E+00  0.00000000000E+00  0.15482809498E+03  0.15482809498E+03  0.00000000000E+00 0. -1.
         -1   -1    0    0    0  501 -0.00000000000E+00 -0.00000000000E+00 -0.10848851746E+03  0.10848851746E+03  0.00000000000E+00 0.  1.
         23    2    1    2    0    0  0.90368052655E+01 -0.68817063064E+02  0.17641642626E+02  0.14405988730E+03  0.12499828621E+03 0.  0.
          5    1    3    3  502    0 -0.46022206264E+02 -0.70144933264E+02  0.26441532812E+02  0.88088590575E+02  0.47000000000E+01 0.  1.
         -5    1    3    3    0  502  0.55059011529E+02  0.13278701994E+01 -0.87998901857E+01  0.55971296725E+02  0.47000000000E+01 0.  1.
        -11    1    1    2    0    0 -0.41354210579E+01 -0.10616705221E+02 -0.22084335211E+02  0.24850231363E+02  0.00000000000E+00 0.  1.
         11    1    1    2    0    0 -0.49013842076E+01  0.79433768285E+02  0.50782270104E+02  0.94406493781E+02  0.00000000000E+00 0. -1.
<mgrwt>
<rscale>  0 0.13562160E+03</rscale>
<asrwt>0</asrwt>
<pdfrwt beam="1">  1        1 0.23819707E-01 0.14297560E+03</pdfrwt>
<pdfrwt beam="2">  1       -1 0.16690541E-01 0.14297560E+03</pdfrwt>
<totfact> 0.52768664E+03</totfact>
</mgrwt>
</event>
<event>
 7    1  0.5400401E-006  0.1333168E+03  0.7546771E-02  0.1235925E+00
          2   -1    0    0  501    0  0.00000000000E+00  0.00000000000E+00  0.21831433554E+03  0.21831433554E+03  0.00000000000E+00 0. -1.
         -2   -1    0    0    0  501 -0.00000000000E+00 -0.00000000000E+00 -0.72849391917E+02  0.72849391917E+02  0.00000000000E+00 0.  1.
         23    2    1    2    0    0 -0.45484272416E+02  0.88528538868E+01  0.28250986564E+02  0.13627724813E+03  0.12500471214E+03 0.  0.
          5    1    3    3  502    0 -0.16109481721E+02  0.57327469408E+02  0.47411027261E+02  0.76261718155E+02  0.47000000000E+01 0. -1.
         -5    1    3    3    0  502 -0.29374790695E+02 -0.48474615521E+02 -0.19160040696E+02  0.60015529972E+02  0.47000000000E+01 0. -1.
        -11    1    1    2    0    0 -0.82990048922E+01 -0.38636926858E+02  0.40636425309E+02  0.56683371999E+02  0.00000000000E+00 0.  1.
         11    1    1    2    0    0  0.53783277308E+02  0.29784072971E+02  0.76577531754E+02  0.98203107335E+02  0.00000000000E+00 0. -1.
<mgrwt>
<rscale>  0 0.12445373E+03</rscale>
<asrwt>0</asrwt>
<pdfrwt beam="1">  1        2 0.33586821E-01 0.13331680E+03</pdfrwt>
<pdfrwt beam="2">  1       -2 0.11207599E-01 0.13331680E+03</pdfrwt>
<totfact> 0.80897735E+03</totfact>
</mgrwt>
</event>
<event>
 7    1  0.5400401E-006  0.2654681E+03  0.7546771E-02  0.1106106E+00
         -2   -1    0    0    0  501 -0.00000000000E+00  0.00000000000E+00  0.39578149731E+03  0.39578149731E+03  0.00000000000E+00 0.  1.
          2   -1    0    0  501    0  0.00000000000E+00 -0.00000000000E+00 -0.16982167346E+03  0.16982167346E+03  0.00000000000E+00 0. -1.
         23    2    1    2    0    0  0.12991229375E+03  0.19483445341E+03  0.14214699453E+03  0.30112968670E+03  0.12504260014E+03 0.  0.
          5    1    3    3  502    0 -0.18412349240E+02 -0.60297017793E+00  0.36797241382E+01  0.19365137420E+02  0.47000000000E+01 0. -1.
         -5    1    3    3    0  502  0.14832464299E+03  0.19543742359E+03  0.13846727039E+03  0.28176454927E+03  0.47000000000E+01 0. -1.
        -11    1    1    2    0    0 -0.28352064465E+02 -0.84026865032E+02  0.71032606119E+02  0.11362211377E+03  0.00000000000E+00 0.  1.
         11    1    1    2    0    0 -0.10156022929E+03 -0.11080758838E+03  0.12780223198E+02  0.15085137030E+03  0.00000000000E+00 0. -1.
<mgrwt>
<rscale>  0 0.26173348E+03</rscale>
<asrwt>0</asrwt>
<pdfrwt beam="2">  1        2 0.26126411E-01 0.26546812E+03</pdfrwt>
<pdfrwt beam="1">  1       -2 0.60889461E-01 0.26546812E+03</pdfrwt>
<totfact> 0.52628820E+02</totfact>
</mgrwt>
</event>
<event>
 7    1  0.5400401E-006  0.1569935E+03  0.7546771E-02  0.1200039E+00
          1   -1    0    0  501    0  0.00000000000E+00  0.00000000000E+00  0.11336417515E+03  0.11336417515E+03  0.00000000000E+00 0. -1.
         -1   -1    0    0    0  501 -0.00000000000E+00 -0.00000000000E+00 -0.26857578725E+03  0.26857578725E+03  0.00000000000E+00 0.  1.
         23    2    1    2    0    0 -0.68760073865E+02 -0.65525860170E+02 -0.18891542121E+03  0.24563386215E+03  0.12500148700E+03 0.  0.
          5    1    3    3  502    0  0.27642286457E+02 -0.33546663594E+02 -0.10521485705E+03  0.11393739853E+03  0.47000000000E+01 0.  1.
         -5    1    3    3    0  502 -0.96402360322E+02 -0.31979196577E+02 -0.83700564158E+02  0.13169646362E+03  0.47000000000E+01 0.  1.
        -11    1    1    2    0    0  0.81906746382E+02  0.53300088921E+02 -0.44789824966E+00  0.97723155878E+02  0.00000000000E+00 0.  1.
         11    1    1    2    0    0 -0.13146672516E+02  0.12225771249E+02  0.34151707362E+02  0.38582944375E+02  0.00000000000E+00 0. -1.
<mgrwt>
<rscale>  0 0.15035406E+03</rscale>
<asrwt>0</asrwt>
<pdfrwt beam="1">  1        1 0.17440643E-01 0.15699350E+03</pdfrwt>
<pdfrwt beam="2">  1       -1 0.41319351E-01 0.15699350E+03</pdfrwt>
<totfact> 0.17466786E+03</totfact>
</mgrwt>
</event>
<event>
 6    1  0.5400401E-006  0.1620611E+03  0.7546771E-02  0.1199497E+00
         -3   -1    0    0    0  501 -0.00000000000E+00  0.00000000000E+00  0.17872380495E+02  0.17872380495E+02  0.00000000000E+00 0.  1.
          3   -1    0    0  501    0  0.00000000000E+00 -0.00000000000E+00 -0.11418725971E+04  0.11418725971E+04  0.00000000000E+00 0. -1.
          5    1    1    2  502    0  0.66279578788E+02 -0.67043780876E+02 -0.20718839336E+03  0.22767734069E+03  0.47000000000E+01 0. -1.
         -5    1    1    2    0  502  0.66176276433E+01  0.38042965896E+02 -0.36350461028E+03  0.36558002126E+03  0.47000000000E+01 0.  1.
        -11    1    1    2    0    0 -0.60460104217E+02  0.55173923270E+02 -0.49094824563E+03  0.49772458840E+03  0.00000000000E+00 0.  1.
         11    1    1    2    0    0 -0.12437102214E+02 -0.26173108291E+02 -0.62358967297E+02  0.68763027213E+02  0.00000000000E+00 0. -1.
<mgrwt>
<rscale>  0 0.15079691E+03</rscale>
<asrwt>0</asrwt>
<pdfrwt beam="2">  1        3 0.17567268E+00 0.16206108E+03</pdfrwt>
<pdfrwt beam="1">  1       -3 0.27495975E-02 0.16206108E+03</pdfrwt>
<totfact> 0.31909312E+02</totfact>
</mgrwt>
</event>
<event>
 7    1  0.5400401E-006  0.1363454E+03  0.7546771E-02  0.1231260E+00
          2   -1    0    0  501    0  0.00000000000E+00  0.00000000000E+00  0.66570567182E+03  0.66570567182E+03  0.00000000000E+00 0.  1.
         -2   -1    0    0    0  501 -0.00000000000E+00 -0.00000000000E+00 -0.22917929753E+02  0.22917929753E+02  0.00000000000E+00 0. -1.
         23    2    1    2    0    0 -0.62073348907E+01 -0.54075882488E+02  0.28418947040E+03  0.31520424870E+03  0.12500932462E+03 0.  0.
          5    1    3    3  502    0 -0.87363621464E+01 -0.40711895213E+02  0.29452242885E+03  0.29748837545E+03  0.47000000000E+01 0. -1.
         -5    1    3    3    0  502  0.25290272557E+01 -0.13363987275E+02 -0.10332958447E+02  0.17715873251E+02  0.47000000000E+01 0. -1.
        -11    1    1    2    0    0 -0.27417822012E+02  0.60219377962E+02  0.27996814316E+03  0.28768085030E+03  0.00000000000E+00 0.  1.
         11    1    1    2    0    0  0.33625156903E+02 -0.61434954737E+01  0.78630128508E+02  0.85738502568E+02  0.00000000000E+00 0. -1.
<mgrwt>
<rscale>  0 0.12746927E+03</rscale>
<asrwt>0</asrwt>
<pdfrwt beam="1">  1        2 0.10241624E+00 0.13634538E+03</pdfrwt>
<pdfrwt beam="2">  1       -2 0.35258359E-02 0.13634538E+03</pdfrwt>
<totfact> 0.14101247E+04</totfact>
</mgrwt>
</event>
<event>
 7    1  0.5721340E-006  0.1563093E+03  0.7546771E-02  0.1200823E+00
          1   -1    0    0  501    0  0.00000000000E+00  0.00000000000E+00  0.93264818759E+02  0.93264818759E+02  0.00000000000E+00 0. -1.
         -1   -1    0    0    0  501 -0.00000000000E+00 -0.00000000000E+00 -0.23736121713E+03  0.23736121713E+03  0.00000000000E+00 0.  1.
         23    2    1    2    0    0 -0.93033840824E+02  0.12338066298E+02 -0.11958343935E+03  0.19680652994E+03  0.12500035137E+03 0.  0.
          5    1    3    3  502    0 -0.92316394732E+02  0.43842329027E+02 -0.37851204408E+02  0.10908377618E+03  0.47000000000E+01 0.  1.
         -5    1    3    3    0  502 -0.71744609201E+00 -0.31504262729E+02 -0.81732234939E+02  0.87722753760E+02  0.47000000000E+01 0.  1.
        -11    1    1    2    0    0  0.64118736089E+02  0.68183909258E+01 -0.57173687477E+02  0.86177336418E+02  0.00000000000E+00 0.  1.
         11    1    1    2    0    0  0.28915104735E+02 -0.19156457224E+02  0.32660728448E+02  0.47642169534E+02  0.00000000000E+00 0. -1.
<mgrwt>
<rscale>  0 0.14971514E+03</rscale>
<asrwt>0</asrwt>
<pdfrwt beam="1">  1        1 0.14348433E-01 0.15630934E+03</pdfrwt>
<pdfrwt beam="2">  1       -1 0.36517111E-01 0.15630934E+03</pdfrwt>
<totfact> 0.27916418E+03</totfact>
</mgrwt>
</event>
<event>
 6    1  0.5400401E-006  0.2542479E+03  0.7546771E-02  0.1144933E+00
          2   -1    0    0  501    0  0.00000000000E+00  0.00000000000E+00  0.72218055210E+03  0.72218055210E+03  0.00000000000E+00 0. -1.
         -2   -1    0    0    0  501 -0.00000000000E+00 -0.00000000000E+00 -0.57453368526E+02  0.57453368526E+02  0.00000000000E+00 0.  1.
          5    1    1    2  502    0  0.13521275835E+02 -0.95829848937E+02  0.29956863357E+03  0.31484860023E+03  0.47000000000E+01 0. -1.
         -5    1    1    2    0  502  0.23833956036E+02  0.46211917284E+02 -0.26254261563E+02  0.58437787515E+02  0.47000000000E+01 0.  1.
        -11    1    1    2    0    0  0.25993943621E+02 -0.33101666016E+01  0.80185939113E+02  0.84358918553E+02  0.00000000000E+00 0. -1.
         11    1    1    2    0    0 -0.63349175492E+02  0.52928098254E+02  0.31122687245E+03  0.32198861432E+03  0.00000000000E+00 0.  1.
<mgrwt>
<rscale>  0 0.20580300E+03</rscale>
<asrwt>0</asrwt>
<pdfrwt beam="1">  1        2 0.11110469E+00 0.25424787E+03</pdfrwt>
<pdfrwt beam="2">  1       -2 0.88389803E-02 0.25424787E+03</pdfrwt>
<totfact> 0.32462675E+03</totfact>
</mgrwt>
</event>
<event>
 7    1  0.5400401E-006  0.3017150E+03  0.7546771E-02  0.1085948E+00
         -3   -1    0    0    0  501 -0.00000000000E+00  0.00000000000E+00  0.77195868816E+02  0.77195868816E+02  0.00000000000E+00 0.  1.
          3   -1    0    0  501    0  0.00000000000E+00 -0.00000000000E+00 -0.11461257600E+04  0.11461257600E+04  0.00000000000E+00 0. -1.
         23    2    1    2    0    0  0.25983913615E+03  0.88772585043E+02 -0.61431043117E+03  0.68440428820E+03  0.12503989495E+03 0.  0.
          5    1    3    3  502    0  0.21133065345E+03  0.11989316368E+03 -0.47459301717E+03  0.53319380879E+03  0.47000000000E+01 0.  1.
         -5    1    3    3    0  502  0.48508482700E+02 -0.31120578634E+02 -0.13971741400E+03  0.15121047941E+03  0.47000000000E+01 0.  1.
        -11    1    1    2    0    0 -0.56085279273E+02  0.16262489973E+02 -0.69913347085E+02  0.91092827554E+02  0.00000000000E+00 0.  1.
         11    1    1    2    0    0 -0.20375385688E+03 -0.10503507502E+03 -0.38470611296E+03  0.44782451309E+03  0.00000000000E+00 0. -1.
<mgrwt>
<rscale>  0 0.29858826E+03</rscale>
<asrwt>0</asrwt>
<pdfrwt beam="2">  1        3 0.17632702E+00 0.30171497E+03</pdfrwt>
<pdfrwt beam="1">  1       -3 0.11876289E-01 0.30171497E+03</pdfrwt>
<totfact> 0.31267474E+01</totfact>
</mgrwt>
</event>
<event>
 7    1  0.5400401E-006  0.1607296E+03  0.7546771E-02  0.1195521E+00
         -1   -1    0    0    0  501 -0.00000000000E+00  0.00000000000E+00  0.10689896517E+03  0.10689896517E+03  0.00000000000E+00 0.  1.
          1   -1    0    0  501    0  0.00000000000E+00 -0.00000000000E+00 -0.65093002960E+03  0.65093002960E+03  0.00000000000E+00 0. -1.
         23    2    1    2    0    0  0.44181545323E+02  0.90871929799E+02  0.33805554358E+02  0.16424621423E+03  0.12499714722E+03 0.  0.
          5    1    3    3  502    0  0.25282520777E+02 -0.32648175518E+01 -0.36771318490E+02  0.44989829451E+02  0.47000000000E+01 0.  1.
         -5    1    3    3    0  502  0.18899024546E+02  0.94136747351E+02  0.70576872848E+02  0.11925638478E+03  0.47000000000E+01 0.  1.
        -11    1    1    2    0    0 -0.71513126985E+02 -0.75615961148E+02 -0.42317049418E+03  0.43578110108E+03  0.00000000000E+00 0.  1.
         11    1    1    2    0    0  0.27331581662E+02 -0.15255968652E+02 -0.15466612461E+03  0.15780167945E+03  0.00000000000E+00 0. -1.
<mgrwt>
<rscale>  0 0.15410183E+03</rscale>
<asrwt>0</asrwt>
<pdfrwt beam="2">  1        1 0.10014308E+00 0.16072960E+03</pdfrwt>
<pdfrwt beam="1">  1       -1 0.16445995E-01 0.16072960E+03</pdfrwt>
<totfact> 0.87160370E+02</totfact>
</mgrwt>
</event>
<event>
 7    1  0.5400401E-006  0.1382067E+03  0.7546771E-02  0.1228126E+00
          1   -1    0    0  501    0  0.00000000000E+00  0.00000000000E+00  0.21519205450E+02  0.21519205450E+02  0.00000000000E+00 0. -1.
         -1   -1    0    0    0  501 -0.00000000000E+00 -0.00000000000E+00 -0.10094923856E+04  0.10094923856E+04  0.00000000000E+00 0.  1.
         23    2    1    2    0    0  0.94017934071E+01 -0.58230155963E+02 -0.82312344296E+03  0.83464560944E+03  0.12498778426E+03 0.  0.
          5    1    3    3  502    0  0.44661554841E+02 -0.50976291262E+02 -0.21586470428E+03  0.22630266747E+03  0.47000000000E+01 0. -1.
         -5    1    3    3    0  502 -0.35259761433E+02 -0.72538647013E+01 -0.60725873868E+03  0.60834294196E+03  0.47000000000E+01 0. -1.
        -11    1    1    2    0    0  0.10660148248E+02  0.73430137831E+02 -0.85943291942E+02  0.11354238562E+03  0.00000000000E+00 0. -1.
         11    1    1    2    0    0 -0.20061941655E+02 -0.15199981868E+02 -0.78906445207E+02  0.82823595955E+02  0.00000000000E+00 0.  1.
<mgrwt>
<rscale>  0 0.12954912E+03</rscale>
<asrwt>0</asrwt>
<pdfrwt beam="1">  1        1 0.33106470E-02 0.13820670E+03</pdfrwt>
<pdfrwt beam="2">  1       -1 0.15530652E+00 0.13820670E+03</pdfrwt>
<totfact> 0.10045678E+03</totfact>
</mgrwt>
</event>
<event>
 7    1  0.5400401E-006  0.1524470E+03  0.7546771E-02  0.1206420E+00
         -1   -1    0    0    0  501 -0.00000000000E+00  0.00000000000E+00  0.47029943312E+03  0.47029943312E+03  0.00000000000E+00 0.  1.
          1   -1    0    0  501    0  0.00000000000E+00 -0.00000000000E+00 -0.44958601302E+02  0.44958601302E+02  0.00000000000E+00 0. -1.
         23    2    1    2    0    0 -0.13483093368E+02 -0.86217733130E+02  0.30637680863E+03  0.34220876138E+03  0.12499918473E+03 0.  0.
          5    1    3    3  502    0  0.51832241416E+02 -0.39348179442E+02  0.88686962091E+02  0.11010144286E+03  0.47000000000E+01 0. -1.
         -5    1    3    3    0  502 -0.65315334783E+02 -0.46869553687E+02  0.21768984654E+03  0.23210731851E+03  0.47000000000E+01 0. -1.
        -11    1    1    2    0    0 -0.37601104502E+02  0.48100777026E+02  0.68447874352E+02  0.91720441089E+02  0.00000000000E+00 0. -1.
         11    1    1    2    0    0  0.51084197870E+02  0.38116956104E+02  0.50516148839E+02  0.81328831962E+02  0.00000000000E+00 0.  1.
<mgrwt>
<rscale>  0 0.14526110E+03</rscale>
<asrwt>0</asrwt>
<pdfrwt beam="2">  1        1 0.69167082E-02 0.15244700E+03</pdfrwt>
<pdfrwt beam="1">  1       -1 0.72353755E-01 0.15244700E+03</pdfrwt>
<totfact> 0.20782639E+03</totfact>
</mgrwt>
</event>
<event>
 7    1  0.5400401E-006  0.1442150E+03  0.7546771E-02  0.1218179E+00
         -3   -1    0    0    0  501 -0.00000000000E+00  0.00000000000E+00  0.22673355239E+03  0.22673355239E+03  0.00000000000E+00 0.  1.
          3   -1    0    0  501    0  0.00000000000E+00 -0.00000000000E+00 -0.75067594172E+02  0.75067594172E+02  0.00000000000E+00 0. -1.
         23    2    1    2    0    0  0.16880559937E+02 -0.69897117073E+02  0.97960948826E+02  0.17433961281E+03  0.12500957091E+03 0.  0.
          5    1    3    3  502    0 -0.11272457302E+01 -0.56543768560E+02  0.12596640425E+03  0.13815966649E+03  0.47000000000E+01 0.  1.
         -5    1    3    3    0  502  0.18007805668E+02 -0.13353348513E+02 -0.28005455426E+02  0.36179946311E+02  0.47000000000E+01 0.  1.
        -11    1    1    2    0    0 -0.38800054485E+02  0.65359980447E+02  0.78230572831E+01  0.76410545720E+02  0.00000000000E+00 0. -1.
         11    1    1    2    0    0  0.21919494548E+02  0.45371366260E+01  0.45881952109E+02  0.51050988034E+02  0.00000000000E+00 0.  1.
<mgrwt>
<rscale>  0 0.13645597E+03</rscale>
<asrwt>0</asrwt>
<pdfrwt beam="2">  1        3 0.11548861E-01 0.14421495E+03</pdfrwt>
<pdfrwt beam="1">  1       -3 0.34882085E-01 0.14421495E+03</pdfrwt>
<totfact> 0.10896496E+03</totfact>
</mgrwt>
</event>
<event>
 6    1  0.5400401E-006  0.4959711E+03  0.7546771E-02  0.1016397E+00
         -2   -1    0    0    0  501 -0.00000000000E+00  0.00000000000E+00  0.81441713925E+03  0.81441713925E+03  0.00000000000E+00 0.  1.
          2   -1    0    0  501    0  0.00000000000E+00 -0.00000000000E+00 -0.36565507186E+03  0.36565507186E+03  0.00000000000E+00 0. -1.
          5    1    1    2  502    0 -0.68775004580E+02  0.27044166636E+03  0.17255832145E+03  0.32812674451E+03  0.47000000000E+01 0. -1.
         -5    1    1    2    0  502 -0.51627810598E+02  0.17762072838E+03  0.32764256497E+03  0.37627954283E+03  0.47000000000E+01 0.  1.
        -11    1    1    2    0    0  0.12603288502E+03 -0.41055993029E+03 -0.67020085891E+02  0.43466704082E+03  0.00000000000E+00 0.  1.
         11    1    1    2    0    0 -0.56300698423E+01 -0.37502464447E+02  0.15581266858E+02  0.40998882948E+02  0.00000000000E+00 0. -1.
<mgrwt>
<rscale>  0 0.49009375E+03</rscale>
<asrwt>0</asrwt>
<pdfrwt beam="2">  1        2 0.56254627E-01 0.49597106E+03</pdfrwt>
<pdfrwt beam="1">  1       -2 0.12529494E+00 0.49597106E+03</pdfrwt>
<totfact> 0.43257409E+01</totfact>
</mgrwt>
</event>
<event>
 7    1  0.5400401E-006  0.1694309E+03  0.7546771E-02  0.1183906E+00
         -1   -1    0    0    0  501 -0.00000000000E+00  0.00000000000E+00  0.18176649882E+03  0.18176649882E+03  0.00000000000E+00 0.  1.
          1   -1    0    0  501    0  0.00000000000E+00 -0.00000000000E+00 -0.14276899351E+03  0.14276899351E+03  0.00000000000E+00 0. -1.
         23    2    1    2    0    0 -0.11425197909E+03 -0.55955252118E+01  0.42231182628E+02  0.17461472371E+03  0.12498801670E+03 0.  0.
          5    1    3    3  502    0 -0.14521807511E+02 -0.54915390705E+02  0.23686493530E+02  0.61722953635E+02  0.47000000000E+01 0. -1.
         -5    1    3    3    0  502 -0.99730171582E+02  0.49319865493E+02  0.18544689098E+02  0.11289177007E+03  0.47000000000E+01 0. -1.
        -11    1    1    2    0    0  0.72497018679E+01  0.33333805368E+02  0.16070134481E+02  0.37708752031E+02  0.00000000000E+00 0. -1.
         11    1    1    2    0    0  0.10700227723E+03 -0.27738280156E+02 -0.19303811795E+02  0.11221201659E+03  0.00000000000E+00 0.  1.
<mgrwt>
<rscale>  0 0.16431781E+03</rscale>
<asrwt>0</asrwt>
<pdfrwt beam="2">  1        1 0.21964460E-01 0.16943090E+03</pdfrwt>
<pdfrwt beam="1">  1       -1 0.27964077E-01 0.16943090E+03</pdfrwt>
<totfact> 0.25502575E+03</totfact>
</mgrwt>
</event>
<event>
 7    1  0.5400401E-006  0.1310326E+03  0.7546771E-02  0.1236182E+00
         -3   -1    0    0    0  501 -0.00000000000E+00  0.00000000000E+00  0.19599793502E+03  0.19599793502E+03  0.00000000000E+00 0.  1.
          3   -1    0    0  501    0  0.00000000000E+00 -0.00000000000E+00 -0.72565403676E+02  0.72565403676E+02  0.00000000000E+00 0. -1.
         23    2    1    2    0    0 -0.37320249785E+02 -0.12312753339E+02  0.82628261912E+02  0.15490952668E+03  0.12500050741E+03 0.  0.
          5    1    3    3  502    0 -0.25796977135E+02  0.50727857155E+02  0.68385993917E+02  0.89092837450E+02  0.47000000000E+01 0.  1.
         -5    1    3    3    0  502 -0.11523272650E+02 -0.63040610494E+02  0.14242267995E+02  0.65816689233E+02  0.47000000000E+01 0.  1.
        -11    1    1    2    0    0  0.56929338347E+02 -0.26297530925E+02  0.26046297835E+02  0.67903750473E+02  0.00000000000E+00 0.  1.
         11    1    1    2    0    0 -0.19609088562E+02  0.38610284265E+02  0.14757971595E+02  0.45750061539E+02  0.00000000000E+00 0. -1.
<mgrwt>
<rscale>  0 0.12429083E+03</rscale>
<asrwt>0</asrwt>
<pdfrwt beam="2">  1        3 0.11163908E-01 0.13103256E+03</pdfrwt>
<pdfrwt beam="1">  1       -3 0.30153528E-01 0.13103256E+03</pdfrwt>
<totfact> 0.14908681E+03</totfact>
</mgrwt>
</event>
<event>
 7    1  0.5400401E-006  0.1770705E+03  0.7546771E-02  0.1176323E+00
         -1   -1    0    0    0  501 -0.00000000000E+00  0.00000000000E+00  0.12648309678E+03  0.12648309678E+03  0.00000000000E+00 0.  1.
          1   -1    0    0  501    0  0.00000000000E+00 -0.00000000000E+00 -0.28394751568E+03  0.28394751568E+03  0.00000000000E+00 0. -1.
         23    2    1    2    0    0  0.37808960112E+02 -0.11958603452E+03  0.15444634943E+02  0.17774282733E+03  0.12499455509E+03 0.  0.
          5    1    3    3  502    0  0.63635220698E+02 -0.60527483131E+02 -0.36105653243E+02  0.95072213204E+02  0.47000000000E+01 0. -1.
         -5    1    3    3    0  502 -0.25826260586E+02 -0.59058551390E+02  0.51550288186E+02  0.82670614127E+02  0.47000000000E+01 0. -1.
        -11    1    1    2    0    0 -0.45226426712E+00  0.79250613378E+02 -0.39825447758E+02  0.88695718910E+02  0.00000000000E+00 0.  1.
         11    1    1    2    0    0 -0.37356695845E+02  0.40335421143E+02 -0.13308360608E+03  0.14399206621E+03  0.00000000000E+00 0. -1.
<mgrwt>
<rscale>  0 0.17147069E+03</rscale>
<asrwt>0</asrwt>
<pdfrwt beam="2">  1        1 0.43684233E-01 0.17707054E+03</pdfrwt>
<pdfrwt beam="1">  1       -1 0.19458938E-01 0.17707054E+03</pdfrwt>
<totfact> 0.19552291E+03</totfact>
</mgrwt>
</event>
<event>
 7    1  0.5400401E-006  0.1217410E+03  0.7546771E-02  0.1249295E+00
          4   -1    0    0  501    0  0.00000000000E+00  0.00000000000E+00  0.22439305797E+02  0.22439305797E+02  0.00000000000E+00 0. -1.
         -4   -1    0    0    0  501 -0.00000000000E+00 -0.00000000000E+00 -0.56694159000E+03  0.56694159000E+03  0.00000000000E+00 0.  1.
         23    2    1    2    0    0  0.39589014190E+02 -0.23762548352E+02 -0.33897852398E+03  0.36017677895E+03  0.11264512251E+03 0.  0.
          5    1    3    3  502    0 -0.36223801652E+02 -0.20154683064E+02 -0.79454632925E+02  0.89741315729E+02  0.47000000000E+01 0. -1.
         -5    1    3    3    0  502  0.75812815842E+02 -0.36078652884E+01 -0.25952389105E+03  0.27043546322E+03  0.47000000000E+01 0.  1.
        -11    1    1    2    0    0  0.13182528286E+02  0.31538004111E+02 -0.14295093932E+03  0.14698093689E+03  0.00000000000E+00 0.  1.
         11    1    1    2    0    0 -0.52771542476E+02 -0.77754557594E+01 -0.62572820897E+02  0.82223179959E+02  0.00000000000E+00 0. -1.
<mgrwt>
<rscale>  0 0.11631973E+03</rscale>
<asrwt>0</asrwt>
<pdfrwt beam="1">  1        4 0.34522008E-02 0.12174101E+03</pdfrwt>
<pdfrwt beam="2">  1       -4 0.87221785E-01 0.12174101E+03</pdfrwt>
<totfact> 0.81907520E+02</totfact>
</mgrwt>
</event>
<event>
 7    1  0.5400401E-006  0.1633293E+03  0.7546771E-02  0.1192257E+00
          2   -1    0    0  501    0  0.00000000000E+00  0.00000000000E+00  0.50145822355E+03  0.50145822355E+03  0.00000000000E+00 0. -1.
         -2   -1    0    0    0  501 -0.00000000000E+00 -0.00000000000E+00 -0.45761531027E+02  0.45761531027E+02  0.00000000000E+00 0.  1.
         23    2    1    2    0    0 -0.56361024755E+02  0.88743677639E+02  0.26315769031E+03  0.30972317629E+03  0.12499788210E+03 0.  0.
          5    1    3    3  502    0 -0.70158664704E+02  0.40422702250E+01  0.16410690065E+03  0.17858259440E+03  0.47000000000E+01 0.  1.
         -5    1    3    3    0  502  0.13797639950E+02  0.84701407414E+02  0.99050789659E+02  0.13114058189E+03  0.47000000000E+01 0.  1.
        -11    1    1    2    0    0  0.23685911297E+02 -0.74699135647E+01 -0.12106653170E+01  0.24865391876E+02  0.00000000000E+00 0. -1.
         11    1    1    2    0    0  0.32675113458E+02 -0.81273764075E+02  0.19374966753E+03  0.21263118641E+03  0.00000000000E+00 0.  1.
<mgrwt>
<rscale>  0 0.15688686E+03</rscale>
<asrwt>0</asrwt>
<pdfrwt beam="1">  1        2 0.77147415E-01 0.16332935E+03</pdfrwt>
<pdfrwt beam="2">  1       -2 0.70402359E-02 0.16332935E+03</pdfrwt>
<totfact> 0.69435313E+03</totfact>
</mgrwt>
</event>
<event>
 7    1  0.5400401E-006  0.2748190E+03  0.7546771E-02  0.1100586E+00
          2   -1    0    0  501    0  0.00000000000E+00  0.00000000000E+00  0.78584464548E+03  0.78584464548E+03  0.00000000000E+00 0. -1.
         -2   -1    0    0    0  501 -0.00000000000E+00 -0.00000000000E+00 -0.91446944035E+02  0.91446944035E+02  0.00000000000E+00 0.  1.
         23    2    1    2    0    0 -0.16529348683E+01  0.24468946752E+03  0.33492207659E+03  0.43324157314E+03  0.12509914309E+03 0.  0.
          5    1    3    3  502    0  0.41061224802E+02  0.18048120502E+03  0.28941853599E+03  0.34357629214E+03  0.47000000000E+01 0.  1.
         -5    1    3    3    0  502 -0.42714159670E+02  0.64208262496E+02  0.45503540600E+02  0.89665280996E+02  0.47000000000E+01 0.  1.
        -11    1    1    2    0    0  0.98112807070E+01 -0.65263725123E+02  0.17291138202E+03  0.18507825663E+03  0.00000000000E+00 0. -1.
         11    1    1    2    0    0 -0.81583458387E+01 -0.17942574239E+03  0.18656424284E+03  0.25897175975E+03  0.00000000000E+00 0.  1.
<mgrwt>
<rscale>  0 0.27121572E+03</rscale>
<asrwt>0</asrwt>
<pdfrwt beam="1">  1        2 0.12089917E+00 0.27481896E+03</pdfrwt>
<pdfrwt beam="2">  1       -2 0.14068761E-01 0.27481896E+03</pdfrwt>
<totfact> 0.13827061E+03</totfact>
</mgrwt>
</event>
<event>
 7    1  0.5400401E-006  0.1553782E+03  0.7546771E-02  0.1202021E+00
          2   -1    0    0  501    0  0.00000000000E+00  0.00000000000E+00  0.28447076679E+03  0.28447076679E+03  0.00000000000E+00 0. -1.
         -2   -1    0    0    0  501 -0.00000000000E+00 -0.00000000000E+00 -0.10004411128E+03  0.10004411128E+03  0.00000000000E+00 0.  1.
         23    2    1    2    0    0  0.90558490994E+02 -0.17914650078E+02 -0.38551453803E+01  0.15542596994E+03  0.12498237879E+03 0.  0.
          5    1    3    3  502    0  0.72045818196E+02  0.47877807263E+02 -0.64231916118E+01  0.86869049369E+02  0.47000000000E+01 0.  1.
         -5    1    3    3    0  502  0.18512672797E+02 -0.65792457341E+02  0.25680462316E+01  0.68556920573E+02  0.47000000000E+01 0.  1.
        -11    1    1    2    0    0 -0.75345940437E+02 -0.11526180235E+02  0.61181984668E+02  0.97739955080E+02  0.00000000000E+00 0.  1.
         11    1    1    2    0    0 -0.15212550557E+02  0.29440830313E+02  0.12709981622E+03  0.13134895305E+03  0.00000000000E+00 0. -1.
<mgrwt>
<rscale>  0 0.14874750E+03</rscale>
<asrwt>0</asrwt>
<pdfrwt beam="1">  1        2 0.43764733E-01 0.15537815E+03</pdfrwt>
<pdfrwt beam="2">  1       -2 0.15391402E-01 0.15537815E+03</pdfrwt>
<totfact> 0.36883455E+03</totfact>
</mgrwt>
</event>
<event>
 6    1  0.5400401E-006  0.1420445E+03  0.7546771E-02  0.1225089E+00
         -1   -1    0    0    0  501 -0.00000000000E+00  0.00000000000E+00  0.76735566880E+02  0.76735566880E+02  0.00000000000E+00 0.  1.
          1   -1    0    0  501    0  0.00000000000E+00 -0.00000000000E+00 -0.21037596238E+03  0.21037596238E+03  0.00000000000E+00 0. -1.
          5    1    1    2  502    0 -0.82793025740E+01  0.13731820554E+02 -0.81327112473E+02  0.83025893371E+02  0.47000000000E+01 0. -1.
         -5    1    1    2    0  502 -0.39301529219E+02 -0.34157478003E+02  0.38960232340E+02  0.65202248477E+02  0.47000000000E+01 0.  1.
        -11    1    1    2    0    0 -0.23750805941E+02 -0.75230253156E+01 -0.90670346955E+01  0.26512408621E+02  0.00000000000E+00 0.  1.
         11    1    1    2    0    0  0.71331637734E+02  0.27948682764E+02 -0.82206480675E+02  0.11237097879E+03  0.00000000000E+00 0. -1.
<mgrwt>
<rscale>  0 0.13160832E+03</rscale>
<asrwt>0</asrwt>
<pdfrwt beam="2">  1        1 0.32365533E-01 0.14204446E+03</pdfrwt>
<pdfrwt beam="1">  1       -1 0.11805472E-01 0.14204446E+03</pdfrwt>
<totfact> 0.61741768E+03</totfact>
</mgrwt>
</event>
<event>
 7    1  0.5400401E-006  0.1329612E+03  0.7546771E-02  0.1235728E+00
         -2   -1    0    0    0  501 -0.00000000000E+00  0.00000000000E+00  0.87564273798E+02  0.87564273798E+02  0.00000000000E+00 0.  1.
          2   -1    0    0  501    0  0.00000000000E+00 -0.00000000000E+00 -0.16361726244E+03  0.16361726244E+03  0.00000000000E+00 0. -1.
         23    2    1    2    0    0 -0.11900388045E+02  0.43728997971E+02 -0.20234933033E+02  0.13449216678E+03  0.12499938364E+03 0.  0.
          5    1    3    3  502    0 -0.27992194431E+02 -0.69996862542E+01  0.42818936235E+02  0.51846985033E+02  0.47000000000E+01 0. -1.
         -5    1    3    3    0  502  0.16091806387E+02  0.50728684226E+02 -0.63053869268E+02  0.82645181745E+02  0.47000000000E+01 0. -1.
        -11    1    1    2    0    0  0.63414419232E+01 -0.68851139225E+02 -0.18881019694E+02  0.71674166636E+02  0.00000000000E+00 0.  1.
         11    1    1    2    0    0  0.55589461215E+01  0.25122141254E+02 -0.36937035917E+02  0.45015202827E+02  0.00000000000E+00 0. -1.
<mgrwt>
<rscale>  0 0.12457943E+03</rscale>
<asrwt>0</asrwt>
<pdfrwt beam="2">  1        2 0.25171886E-01 0.13296124E+03</pdfrwt>
<pdfrwt beam="1">  1       -2 0.13471427E-01 0.13296124E+03</pdfrwt>
<totfact> 0.82428004E+03</totfact>
</mgrwt>
</event>
<event>
 7    1  0.5400401E-006  0.1776639E+03  0.7546771E-02  0.1176011E+00
         -1   -1    0    0    0  501 -0.00000000000E+00  0.00000000000E+00  0.35336136448E+03  0.35336136448E+03  0.00000000000E+00 0.  1.
          1   -1    0    0  501    0  0.00000000000E+00 -0.00000000000E+00 -0.10712283049E+03  0.10712283049E+03  0.00000000000E+00 0. -1.
         23    2    1    2    0    0  0.10661944246E+03 -0.67613098868E+02  0.24818954322E+03  0.30522534399E+03  0.12500089842E+03 0.  0.
          5    1    3    3  502    0  0.96845972404E+02 -0.60617152803E+02  0.26227680378E+03  0.28612024288E+03  0.47000000000E+01 0. -1.
         -5    1    3    3    0  502  0.97734700609E+01 -0.69959460644E+01 -0.14087260565E+02  0.19105101114E+02  0.47000000000E+01 0. -1.
        -11    1    1    2    0    0 -0.17387790460E+02  0.52332482368E+02  0.25361677808E+02  0.60697929694E+02  0.00000000000E+00 0.  1.
         11    1    1    2    0    0 -0.89231652004E+02  0.15280616500E+02 -0.27312687035E+02  0.94560921279E+02  0.00000000000E+00 0. -1.
<mgrwt>
<rscale>  0 0.17177300E+03</rscale>
<asrwt>0</asrwt>
<pdfrwt beam="2">  1        1 0.16480436E-01 0.17766390E+03</pdfrwt>
<pdfrwt beam="1">  1       -1 0.54363286E-01 0.17766390E+03</pdfrwt>
<totfact> 0.11454466E+03</totfact>
</mgrwt>
</event>
<event>
 7    1  0.5400401E-006  0.1395310E+03  0.7546771E-02  0.1224839E+00
          1   -1    0    0  501    0  0.00000000000E+00  0.00000000000E+00  0.44686100710E+02  0.44686100710E+02  0.00000000000E+00 0. -1.
         -1   -1    0    0    0  501 -0.00000000000E+00 -0.00000000000E+00 -0.37952922699E+03  0.37952922699E+03  0.00000000000E+00 0.  1.
         23    2    1    2    0    0 -0.54140326907E+02  0.30201321889E+02 -0.24267147105E+03  0.27992560738E+03  0.12500243183E+03 0.  0.
          5    1    3    3  502    0 -0.49381791464E+02 -0.39298839614E+02 -0.73979483391E+02  0.97355092758E+02  0.47000000000E+01 0.  1.
         -5    1    3    3    0  502 -0.47585354434E+01  0.69500161503E+02 -0.16869198766E+03  0.18257051462E+03  0.47000000000E+01 0.  1.
        -11    1    1    2    0    0 -0.84217417797E+01 -0.95457721343E+01 -0.75180074789E+02  0.76250187840E+02  0.00000000000E+00 0.  1.
         11    1    1    2    0    0  0.62562068687E+02 -0.20655549755E+02 -0.16991580438E+02  0.68039532479E+02  0.00000000000E+00 0. -1.
<mgrwt>
<rscale>  0 0.13177912E+03</rscale>
<asrwt>0</asrwt>
<pdfrwt beam="1">  1        1 0.68747846E-02 0.13953101E+03</pdfrwt>
<pdfrwt beam="2">  1       -1 0.58389113E-01 0.13953101E+03</pdfrwt>
<totfact> 0.31630720E+03</totfact>
</mgrwt>
</event>
<event>
 7    1  0.5400401E-006  0.1731150E+03  0.7546771E-02  0.1180713E+00
         -2   -1    0    0    0  501 -0.00000000000E+00  0.00000000000E+00  0.59213975844E+02  0.59213975844E+02  0.00000000000E+00 0.  1.
          2   -1    0    0  501    0  0.00000000000E+00 -0.00000000000E+00 -0.59511732582E+03  0.59511732582E+03  0.00000000000E+00 0. -1.
         23    2    1    2    0    0  0.11420601735E+03  0.36069668580E+02 -0.11668116104E+03  0.20876612380E+03  0.12499906284E+03 0.  0.
          5    1    3    3  502    0  0.10522329302E+03  0.75577322933E+02 -0.10354839450E+03  0.16591634380E+03  0.47000000000E+01 0. -1.
         -5    1    3    3    0  502  0.89827243347E+01 -0.39507654352E+02 -0.13132766537E+02  0.42849779997E+02  0.47000000000E+01 0. -1.
        -11    1    1    2    0    0 -0.14654865288E+02 -0.14349244127E+02 -0.81784046587E+01  0.22080583923E+02  0.00000000000E+00 0.  1.
         11    1    1    2    0    0 -0.99551152066E+02 -0.21720424453E+02 -0.41104378428E+03  0.42348459395E+03  0.00000000000E+00 0. -1.
<mgrwt>
<rscale>  0 0.16728146E+03</rscale>
<asrwt>0</asrwt>
<pdfrwt beam="2">  1        2 0.91556511E-01 0.17311499E+03</pdfrwt>
<pdfrwt beam="1">  1       -2 0.91098425E-02 0.17311499E+03</pdfrwt>
<totfact> 0.38485136E+03</totfact>
</mgrwt>
</event>
<event>
 7    1  0.5400401E-006  0.1471942E+03  0.7546771E-02  0.1215256E+00
          1   -1    0    0  501    0  0.00000000000E+00  0.00000000000E+00  0.19206047198E+03  0.19206047198E+03  0.00000000000E+00 0. -1.
         -1   -1    0    0    0  501 -0.00000000000E+00 -0.00000000000E+00 -0.91604292944E+02  0.91604292944E+02  0.00000000000E+00 0.  1.
         23    2    1    2    0    0  0.77267138884E+02  0.82702685692E+01  0.37055087443E+02  0.15178677695E+03  0.12501015181E+03 0.  0.
          5    1    3    3  502    0 -0.29390189405E+02 -0.21072767296E+02  0.97786820656E+01  0.37756554102E+02  0.47000000000E+01 0. -1.
         -5    1    3    3    0  502  0.10665732829E+03  0.29343035865E+02  0.27276405378E+02  0.11403022284E+03  0.47000000000E+01 0. -1.
        -11    1    1    2    0    0 -0.41668064271E+02  0.34872411775E+02  0.11425959536E+02  0.55523555672E+02  0.00000000000E+00 0.  1.
         11    1    1    2    0    0 -0.35599074613E+02 -0.43142680344E+02  0.51975132061E+02  0.76354432310E+02  0.00000000000E+00 0. -1.
<mgrwt>
<rscale>  0 0.13857762E+03</rscale>
<asrwt>0</asrwt>
<pdfrwt beam="1">  1        1 0.29547765E-01 0.14719425E+03</pdfrwt>
<pdfrwt beam="2">  1       -1 0.14092968E-01 0.14719425E+03</pdfrwt>
<totfact> 0.52642522E+03</totfact>
</mgrwt>
</event>
<event>
 7    1  0.5400401E-006  0.1768065E+03  0.7546771E-02  0.1177897E+00
         -2   -1    0    0    0  501 -0.00000000000E+00  0.00000000000E+00  0.11566532482E+03  0.11566532482E+03  0.00000000000E+00 0.  1.
          2   -1    0    0  501    0  0.00000000000E+00 -0.00000000000E+00 -0.30963671971E+03  0.30963671971E+03  0.00000000000E+00 0. -1.
         23    2    1    2    0    0 -0.10315620360E+03 -0.70675536952E+02  0.33842951641E+01  0.17683892704E+03  0.12499727516E+03 0.  0.
          5    1    3    3  502    0 -0.45056556568E+01 -0.22203089869E+02  0.51729798347E+02  0.56668687735E+02  0.47000000000E+01 0.  1.
         -5    1    3    3    0  502 -0.98650547945E+02 -0.48472447083E+02 -0.48345503182E+02  0.12017023930E+03  0.47000000000E+01 0.  1.
        -11    1    1    2    0    0  0.86558978265E+01  0.51126751201E+02 -0.91883119716E+02  0.10550534083E+03  0.00000000000E+00 0. -1.
         11    1    1    2    0    0  0.94500305775E+02  0.19548785751E+02 -0.10547257033E+03  0.14295777666E+03  0.00000000000E+00 0.  1.
<mgrwt>
<rscale>  0 0.16995308E+03</rscale>
<asrwt>0</asrwt>
<pdfrwt beam="2">  1        2 0.47636418E-01 0.17680654E+03</pdfrwt>
<pdfrwt beam="1">  1       -2 0.17794665E-01 0.17680654E+03</pdfrwt>
<totfact> 0.26629519E+03</totfact>
</mgrwt>
</event>
<event>
 7    1  0.5400401E-006  0.1317437E+03  0.7546771E-02  0.1238068E+00
          2   -1    0    0  501    0  0.00000000000E+00  0.00000000000E+00  0.16499772846E+03  0.16499772846E+03  0.00000000000E+00 0. -1.
         -2   -1    0    0    0  501 -0.00000000000E+00 -0.00000000000E+00 -0.10601898134E+03  0.10601898134E+03  0.00000000000E+00 0.  1.
         23    2    1    2    0    0 -0.43431583158E+01  0.41378389117E+02 -0.31926866530E+02  0.13555707288E+03  0.12500144435E+03 0.  0.
          5    1    3    3  502    0  0.57778452291E+02  0.11637462591E+02  0.86125246050E+00  0.59132155724E+02  0.47000000000E+01 0.  1.
         -5    1    3    3    0  502 -0.62121610607E+02  0.29740926526E+02 -0.32788118991E+02  0.76424917154E+02  0.47000000000E+01 0.  1.
        -11    1    1    2    0    0 -0.24187259640E+02 -0.11596679901E+01  0.81808387932E+02  0.85316942601E+02  0.00000000000E+00 0. -1.
         11    1    1    2    0    0  0.28530417955E+02 -0.40218721127E+02  0.90972257131E+01  0.50142694318E+02  0.00000000000E+00 0.  1.
<mgrwt>
<rscale>  0 0.12310038E+03</rscale>
<asrwt>0</asrwt>
<pdfrwt beam="1">  1        2 0.25384266E-01 0.13174367E+03</pdfrwt>
<pdfrwt beam="2">  1       -2 0.16310613E-01 0.13174367E+03</pdfrwt>
<totfact> 0.59745283E+03</totfact>
</mgrwt>
</event>
<event>
 7    1  0.5400401E-006  0.1668479E+03  0.7546771E-02  0.1188334E+00
         -2   -1    0    0    0  501 -0.00000000000E+00  0.00000000000E+00  0.65223187663E+02  0.65223187663E+02  0.00000000000E+00 0.  1.
          2   -1    0    0  501    0  0.00000000000E+00 -0.00000000000E+00 -0.55456203924E+03  0.55456203924E+03  0.00000000000E+00 0. -1.
         23    2    1    2    0    0 -0.97294262992E+02  0.52414527125E+02 -0.77294760684E+02  0.18388228411E+03  0.12499903245E+03 0.  0.
          5    1    3    3  502    0 -0.11309021799E+03  0.60961654269E+02 -0.28509062626E+02  0.13168362597E+03  0.47000000000E+01 0. -1.
         -5    1    3    3    0  502  0.15795954997E+02 -0.85471271435E+01 -0.48785698058E+02  0.52198658140E+02  0.47000000000E+01 0. -1.
        -11    1    1    2    0    0  0.35250211898E+02  0.87173730647E+01 -0.40980749411E+02  0.54753920903E+02  0.00000000000E+00 0.  1.
         11    1    1    2    0    0  0.62044051094E+02 -0.61131900190E+02 -0.37106334148E+03  0.38114902189E+03  0.00000000000E+00 0. -1.
<mgrwt>
<rscale>  0 0.16032188E+03</rscale>
<asrwt>0</asrwt>
<pdfrwt beam="2">  1        2 0.85317238E-01 0.16684788E+03</pdfrwt>
<pdfrwt beam="1">  1       -2 0.10034336E-01 0.16684788E+03</pdfrwt>
<totfact> 0.35765129E+03</totfact>
</mgrwt>
</event>
<event>
 7    1  0.5400401E-006  0.1404863E+03  0.7546771E-02  0.1225150E+00
         -3   -1    0    0    0  501 -0.00000000000E+00  0.00000000000E+00  0.58916570983E+03  0.58916570983E+03  0.00000000000E+00 0.  1.
          3   -1    0    0  501    0  0.00000000000E+00 -0.00000000000E+00 -0.28160621916E+02  0.28160621916E+02  0.00000000000E+00 0. -1.
         23    2    1    2    0    0 -0.63001521429E+02  0.11921756761E+02  0.39507993445E+03  0.41931439584E+03  0.12500035187E+03 0.  0.
          5    1    3    3  502    0 -0.84322629615E+02 -0.16762899330E+02  0.16196407149E+03  0.18342778173E+03  0.47000000000E+01 0. -1.
         -5    1    3    3    0  502  0.21321108186E+02  0.28684656091E+02  0.23311586296E+03  0.23588661410E+03  0.47000000000E+01 0. -1.
        -11    1    1    2    0    0 -0.12912002728E+02 -0.98280679057E+01  0.86936688237E+02  0.88438105445E+02  0.00000000000E+00 0.  1.
         11    1    1    2    0    0  0.75913524157E+02 -0.20936888553E+01  0.78988465226E+02  0.10957383046E+03  0.00000000000E+00 0. -1.
<mgrwt>
<rscale>  0 0.13156628E+03</rscale>
<asrwt>0</asrwt>
<pdfrwt beam="2">  1        3 0.43324038E-02 0.14048633E+03</pdfrwt>
<pdfrwt beam="1">  1       -3 0.90640869E-01 0.14048633E+03</pdfrwt>
<totfact> 0.75244449E+02</totfact>
</mgrwt>
</event>
<event>
 7    1  0.5400401E-006  0.1778789E+03  0.7546771E-02  0.1175104E+00
          2   -1    0    0  501    0  0.00000000000E+00  0.00000000000E+00  0.28133751063E+03  0.28133751063E+03  0.00000000000E+00 0. -1.
         -2   -1    0    0    0  501 -0.00000000000E+00 -0.00000000000E+00 -0.18585671706E+03  0.18585671706E+03  0.00000000000E+00 0.  1.
         23    2    1    2    0    0  0.12125889376E+03 -0.36238230531E+02 -0.10917215480E+03  0.20870899517E+03  0.12499582638E+03 0.  0.
          5    1    3    3  502    0  0.64383888755E+01  0.79668867125E+01  0.24502800562E+02  0.26970379504E+02  0.47000000000E+01 0. -1.
         -5    1    3    3    0  502  0.11482050489E+03 -0.44205117243E+02 -0.13367495536E+03  0.18173861566E+03  0.47000000000E+01 0. -1.
        -11    1    1    2    0    0 -0.65455316522E+02  0.29911859255E+02  0.18578981436E+03  0.19924099203E+03  0.00000000000E+00 0. -1.
         11    1    1    2    0    0 -0.55803577241E+02  0.63263712754E+01  0.18863134015E+02  0.59244240490E+02  0.00000000000E+00 0.  1.
<mgrwt>
<rscale>  0 0.17265828E+03</rscale>
<asrwt>0</asrwt>
<pdfrwt beam="1">  1        2 0.43282694E-01 0.17787885E+03</pdfrwt>
<pdfrwt beam="2">  1       -2 0.28593341E-01 0.17787885E+03</pdfrwt>
<totfact> 0.12976878E+03</totfact>
</mgrwt>
</event>
<event>
 7    1  0.5400401E-006  0.1267180E+03  0.7546771E-02  0.1246307E+00
          1   -1    0    0  501    0  0.00000000000E+00  0.00000000000E+00  0.57375285755E+02  0.57375285755E+02  0.00000000000E+00 0. -1.
         -1   -1    0    0    0  501 -0.00000000000E+00 -0.00000000000E+00 -0.23137557269E+03  0.23137557269E+03  0.00000000000E+00 0.  1.
         23    2    1    2    0    0  0.43137357809E+01  0.20344939610E+02 -0.13616428631E+03  0.18600580481E+03  0.12499968669E+03 0.  0.
          5    1    3    3  502    0  0.20603953438E+02 -0.49803894771E+02 -0.66136143086E+02  0.85446066346E+02  0.47000000000E+01 0.  1.
         -5    1    3    3    0  502 -0.16290217657E+02  0.70148834381E+02 -0.70028143225E+02  0.10055973846E+03  0.47000000000E+01 0.  1.
        -11    1    1    2    0    0  0.14486589205E+02 -0.19128399655E+02 -0.65227015394E+02  0.69500507029E+02  0.00000000000E+00 0.  1.
         11    1    1    2    0    0 -0.18800324986E+02 -0.12165399550E+01  0.27391014768E+02  0.33244546606E+02  0.00000000000E+00 0. -1.
<mgrwt>
<rscale>  0 0.11807493E+03</rscale>
<asrwt>0</asrwt>
<pdfrwt beam="1">  1        1 0.88269669E-02 0.12671798E+03</pdfrwt>
<pdfrwt beam="2">  1       -1 0.35596242E-01 0.12671798E+03</pdfrwt>
<totfact> 0.54675426E+03</totfact>
</mgrwt>
</event>
<event>
 7    1  0.5400401E-006  0.1472713E+03  0.7546771E-02  0.1211828E+00
         -1   -1    0    0    0  501 -0.00000000000E+00  0.00000000000E+00  0.98051864537E+02  0.98051864537E+02  0.00000000000E+00 0.  1.
          1   -1    0    0  501    0  0.00000000000E+00 -0.00000000000E+00 -0.19191674621E+03  0.19191674621E+03  0.00000000000E+00 0. -1.
         23    2    1    2    0    0 -0.22917434924E+02 -0.74421360340E+02 -0.29843154447E+02  0.15026464736E+03  0.12500041073E+03 0.  0.
          5    1    3    3  502    0 -0.39626062732E+02  0.17739062676E+02 -0.35551050277E+02  0.56310446349E+02  0.47000000000E+01 0. -1.
         -5    1    3    3    0  502  0.16708627808E+02 -0.92160423016E+02  0.57078958303E+01  0.93954201015E+02  0.47000000000E+01 0. -1.
        -11    1    1    2    0    0  0.39471968980E+02  0.22721178284E+02 -0.71634426440E+02  0.84886861934E+02  0.00000000000E+00 0. -1.
         11    1    1    2    0    0 -0.16554534056E+02  0.51700182056E+02  0.76126992090E+01  0.54817101453E+02  0.00000000000E+00 0.  1.
<mgrwt>
<rscale>  0 0.14112166E+03</rscale>
<asrwt>0</asrwt>
<pdfrwt beam="2">  1        1 0.29525653E-01 0.14727135E+03</pdfrwt>
<pdfrwt beam="1">  1       -1 0.15084902E-01 0.14727135E+03</pdfrwt>
<totfact> 0.47365964E+03</totfact>
</mgrwt>
</event>
<event>
 7    1  0.5400401E-006  0.1392506E+03  0.7546771E-02  0.1224884E+00
         -1   -1    0    0    0  501 -0.00000000000E+00  0.00000000000E+00  0.58414021735E+02  0.58414021735E+02  0.00000000000E+00 0.  1.
          1   -1    0    0  501    0  0.00000000000E+00 -0.00000000000E+00 -0.27161315741E+03  0.27161315741E+03  0.00000000000E+00 0. -1.
         23    2    1    2    0    0  0.41310895736E+02  0.45485498287E+02 -0.10303211745E+03  0.17322343265E+03  0.12496087280E+03 0.  0.
          5    1    3    3  502    0  0.56659855426E+02  0.79354549644E+02 -0.54171093077E+02  0.11164264907E+03  0.47000000000E+01 0. -1.
         -5    1    3    3    0  502 -0.15348959691E+02 -0.33869051357E+02 -0.48861024371E+02  0.61580783577E+02  0.47000000000E+01 0. -1.
        -11    1    1    2    0    0 -0.58672868068E+02 -0.39877011143E+02 -0.34345938651E+02  0.78818303502E+02  0.00000000000E+00 0.  1.
         11    1    1    2    0    0  0.17361972332E+02 -0.56084871439E+01 -0.75821079574E+02  0.77985442995E+02  0.00000000000E+00 0. -1.
<mgrwt>
<rscale>  0 0.13174886E+03</rscale>
<asrwt>0</asrwt>
<pdfrwt beam="2">  1        1 0.41786639E-01 0.13925064E+03</pdfrwt>
<pdfrwt beam="1">  1       -1 0.89867726E-02 0.13925064E+03</pdfrwt>
<totfact> 0.68215554E+03</totfact>
</mgrwt>
</event>
<event>
 7    1  0.5400401E-006  0.3013017E+03  0.7546771E-02  0.1086220E+00
         -2   -1    0    0    0  501 -0.00000000000E+00  0.00000000000E+00  0.72868811365E+02  0.72868811365E+02  0.00000000000E+00 0.  1.
          2   -1    0    0  501    0  0.00000000000E+00 -0.00000000000E+00 -0.13509382874E+04  0.13509382874E+04  0.00000000000E+00 0. -1.
         23    2    1    2    0    0  0.57692412293E+02 -0.26800971826E+03 -0.40828316866E+03  0.50742276798E+03  0.12500038454E+03 0.  0.
          5    1    3    3  502    0  0.84805319018E+02 -0.12417976910E+03 -0.25008807498E+03  0.29185388884E+03  0.47000000000E+01 0.  1.
         -5    1    3    3    0  502 -0.27112906726E+02 -0.14382994916E+03 -0.15819509368E+03  0.21556887914E+03  0.47000000000E+01 0.  1.
        -11    1    1    2    0    0  0.12119552517E+02  0.14684198259E+03 -0.40241686510E+03  0.42854262883E+03  0.00000000000E+00 0.  1.
         11    1    1    2    0    0 -0.69811964809E+02  0.12116773567E+03 -0.46736944230E+03  0.48784170199E+03  0.00000000000E+00 0. -1.
<mgrwt>
<rscale>  0 0.29804888E+03</rscale>
<asrwt>0</asrwt>
<pdfrwt beam="2">  1        2 0.20783664E+00 0.30130171E+03</pdfrwt>
<pdfrwt beam="1">  1       -2 0.11210587E-01 0.30130171E+03</pdfrwt>
<totfact> 0.90777218E+02</totfact>
</mgrwt>
</event>
<event>
 7    1  0.5400401E-006  0.1312622E+03  0.7546771E-02  0.1255902E+00
          1   -1    0    0  501    0  0.00000000000E+00  0.00000000000E+00  0.12869761820E+03  0.12869761820E+03  0.00000000000E+00 0. -1.
         -1   -1    0    0    0  501 -0.00000000000E+00 -0.00000000000E+00 -0.81815167634E+02  0.81815167634E+02  0.00000000000E+00 0.  1.
         23    2    1    2    0    0  0.21581574157E+02  0.33760253900E+02  0.13122007972E+02  0.13191645044E+03  0.12499697483E+03 0.  0.
          5    1    3    3  502    0  0.44739554284E+02  0.51352415781E+02 -0.34058457482E+02  0.76293950286E+02  0.47000000000E+01 0.  1.
         -5    1    3    3    0  502 -0.23157980127E+02 -0.17592161881E+02  0.47180465455E+02  0.55622500157E+02  0.47000000000E+01 0.  1.
        -11    1    1    2    0    0 -0.10609315207E+02 -0.35093731686E+02  0.48107615232E+02  0.60485289254E+02  0.00000000000E+00 0. -1.
         11    1    1    2    0    0 -0.10972258950E+02  0.13334777857E+01 -0.14347172639E+02  0.18111046138E+02  0.00000000000E+00 0.  1.
<mgrwt>
<rscale>  0 0.11255969E+03</rscale>
<asrwt>0</asrwt>
<pdfrwt beam="1">  1        1 0.19799634E-01 0.13126219E+03</pdfrwt>
<pdfrwt beam="2">  1       -1 0.12586949E-01 0.13126219E+03</pdfrwt>
<totfact> 0.10302599E+04</totfact>
</mgrwt>
</event>
<event>
 7    1  0.5400401E-006  0.1321243E+03  0.7546771E-02  0.1237899E+00
          1   -1    0    0  501    0  0.00000000000E+00  0.00000000000E+00  0.23526113241E+02  0.23526113241E+02  0.00000000000E+00 0. -1.
         -1   -1    0    0    0  501 -0.00000000000E+00 -0.00000000000E+00 -0.58967934928E+03  0.58967934928E+03  0.00000000000E+00 0.  1.
         23    2    1    2    0    0  0.32907854785E+02  0.27424315162E+02 -0.37364112688E+03  0.39631367467E+03  0.12498726761E+03 0.  0.
          5    1    3    3  502    0 -0.27989101123E+02 -0.40679177141E+01 -0.17470757995E+02  0.33574620194E+02  0.47000000000E+01 0.  1.
         -5    1    3    3    0  502  0.60896955908E+02  0.31492232876E+02 -0.35617036888E+03  0.36273905448E+03  0.47000000000E+01 0.  1.
        -11    1    1    2    0    0 -0.49115627812E+02 -0.50432719187E+02 -0.15259472983E+03  0.16805045562E+03  0.00000000000E+00 0.  1.
         11    1    1    2    0    0  0.16207773027E+02  0.23008404025E+02 -0.39917379323E+02  0.48841332233E+02  0.00000000000E+00 0. -1.
<mgrwt>
<rscale>  0 0.12320677E+03</rscale>
<asrwt>0</asrwt>
<pdfrwt beam="1">  1        1 0.36194024E-02 0.13212432E+03</pdfrwt>
<pdfrwt beam="2">  1       -1 0.90719890E-01 0.13212432E+03</pdfrwt>
<totfact> 0.31409861E+03</totfact>
</mgrwt>
</event>
<event>
 7    1  0.5400401E-006  0.2075972E+03  0.7546771E-02  0.1146876E+00
         -3   -1    0    0    0  501 -0.00000000000E+00  0.00000000000E+00  0.40592462178E+03  0.40592462178E+03  0.00000000000E+00 0.  1.
          3   -1    0    0  501    0  0.00000000000E+00 -0.00000000000E+00 -0.10534728541E+03  0.10534728541E+03  0.00000000000E+00 0. -1.
         23    2    1    2    0    0  0.12368321142E+03 -0.11035305346E+03  0.22314202411E+03  0.30477689345E+03  0.12498503375E+03 0.  0.
          5    1    3    3  502    0 -0.25761038135E+02 -0.18230688861E+02  0.37223219191E+02  0.49027004284E+02  0.47000000000E+01 0.  1.
         -5    1    3    3    0  502  0.14944424956E+03 -0.92122364599E+02  0.18591880492E+03  0.25574988917E+03  0.47000000000E+01 0.  1.
        -11    1    1    2    0    0 -0.34659634424E+02  0.50783916103E+02 -0.16896899076E+02  0.63763638475E+02  0.00000000000E+00 0. -1.
         11    1    1    2    0    0 -0.89023577000E+02  0.59569137357E+02  0.94332211337E+02  0.14273137526E+03  0.00000000000E+00 0.  1.
<mgrwt>
<rscale>  0 0.20343066E+03</rscale>
<asrwt>0</asrwt>
<pdfrwt beam="2">  1        3 0.16207275E-01 0.20759719E+03</pdfrwt>
<pdfrwt beam="1">  1       -3 0.62449941E-01 0.20759719E+03</pdfrwt>
<totfact> 0.20151754E+02</totfact>
</mgrwt>
</event>
<event>
 7    1  0.5400401E-006  0.1300233E+03  0.7546771E-02  0.1240867E+00
         -2   -1    0    0    0  501 -0.00000000000E+00  0.00000000000E+00  0.46273685893E+02  0.46273685893E+02  0.00000000000E+00 0.  1.
          2   -1    0    0  501    0  0.00000000000E+00 -0.00000000000E+00 -0.31793968428E+03  0.31793968428E+03  0.00000000000E+00 0. -1.
         23    2    1    2    0    0 -0.33408457959E+02  0.12860411695E+02 -0.92174957982E+02  0.15938093873E+03  0.12499818198E+03 0.  0.
          5    1    3    3  502    0  0.16476537521E+02 -0.30572362168E+02 -0.85900709811E+02  0.92774821818E+02  0.47000000000E+01 0. -1.
         -5    1    3    3    0  502 -0.49884995480E+02  0.43432773863E+02 -0.62742481706E+01  0.66606116908E+02  0.47000000000E+01 0. -1.
        -11    1    1    2    0    0  0.41107739603E+02  0.14044616588E+02 -0.30117034714E+02  0.52859561958E+02  0.00000000000E+00 0.  1.
         11    1    1    2    0    0 -0.76992816444E+01 -0.26905028283E+02 -0.14937400569E+03  0.15197286949E+03  0.00000000000E+00 0. -1.
<mgrwt>
<rscale>  0 0.12136175E+03</rscale>
<asrwt>0</asrwt>
<pdfrwt beam="2">  1        2 0.48913795E-01 0.13002331E+03</pdfrwt>
<pdfrwt beam="1">  1       -2 0.71190289E-02 0.13002331E+03</pdfrwt>
<totfact> 0.10974390E+04</totfact>
</mgrwt>
</event>
<event>
 6    1  0.5400401E-006  0.1607751E+03  0.7546771E-02  0.1206086E+00
         -3   -1    0    0    0  501 -0.00000000000E+00  0.00000000000E+00  0.16825455547E+04  0.16825455547E+04  0.00000000000E+00 0.  1.
          3   -1    0    0  501    0  0.00000000000E+00 -0.00000000000E+00 -0.45344388737E+02  0.45344388737E+02  0.00000000000E+00 0. -1.
          5    1    1    2  502    0  0.34173446217E+00  0.14996294746E+02  0.15981644627E+02  0.22416703672E+02  0.47000000000E+01 0. -1.
         -5    1    1    2    0  502  0.43448354792E+02 -0.55945258229E+02  0.15921289640E+04  0.15937108770E+04  0.47000000000E+01 0.  1.
        -11    1    1    2    0    0 -0.26128829894E+02 -0.94336721267E+01  0.47720006291E+02  0.55216926044E+02  0.00000000000E+00 0.  1.
         11    1    1    2    0    0 -0.17661259361E+02  0.50382635610E+02 -0.18629448905E+02  0.56545436772E+02  0.00000000000E+00 0. -1.
<mgrwt>
<rscale>  0 0.14552227E+03</rscale>
<asrwt>0</asrwt>
<pdfrwt beam="2">  1        3 0.69760611E-02 0.16077508E+03</pdfrwt>
<pdfrwt beam="1">  1       -3 0.25885311E+00 0.16077508E+03</pdfrwt>
<totfact> 0.23857523E+01</totfact>
</mgrwt>
</event>
<event>
 7    1  0.5400401E-006  0.1211362E+03  0.7546771E-02  0.1253886E+00
          1   -1    0    0  501    0  0.00000000000E+00  0.00000000000E+00  0.87106064397E+02  0.87106064397E+02  0.00000000000E+00 0. -1.
         -1   -1    0    0    0  501 -0.00000000000E+00 -0.00000000000E+00 -0.30674161315E+03  0.30674161315E+03  0.00000000000E+00 0.  1.
         23    2    1    2    0    0  0.17775647793E+02 -0.72861567303E+01 -0.26358919561E+03  0.29009179071E+03  0.11960318247E+03 0.  0.
          5    1    3    3  502    0  0.54993634100E+02 -0.32712119927E+02 -0.21165083857E+03  0.22116181869E+03  0.47000000000E+01 0. -1.
         -5    1    3    3    0  502 -0.37217986308E+02  0.25425963197E+02 -0.51938357047E+02  0.68929972015E+02  0.47000000000E+01 0.  1.
        -11    1    1    2    0    0 -0.27216019007E+02  0.34213206037E+02 -0.80363051645E+01  0.44450392109E+02  0.00000000000E+00 0.  1.
         11    1    1    2    0    0  0.94403712145E+01 -0.26927049307E+02  0.51989952027E+02  0.59305494727E+02  0.00000000000E+00 0. -1.
<mgrwt>
<rscale>  0 0.11368973E+03</rscale>
<asrwt>0</asrwt>
<pdfrwt beam="1">  1        1 0.13400933E-01 0.12113622E+03</pdfrwt>
<pdfrwt beam="2">  1       -1 0.47191018E-01 0.12113622E+03</pdfrwt>
<totfact> 0.19184741E+03</totfact>
</mgrwt>
</event>
<event>
 7    1  0.5400401E-006  0.1362221E+03  0.7546771E-02  0.1230381E+00
          2   -1    0    0  501    0  0.00000000000E+00  0.00000000000E+00  0.90452863013E+03  0.90452863013E+03  0.00000000000E+00 0. -1.
         -2   -1    0    0    0  501 -0.00000000000E+00 -0.00000000000E+00 -0.17236113131E+02  0.17236113131E+02  0.00000000000E+00 0.  1.
         23    2    1    2    0    0 -0.13006775023E+02 -0.52573585118E+02  0.38649298351E+03  0.40979662596E+03  0.12499316100E+03 0.  0.
          5    1    3    3  502    0 -0.15644095170E+02  0.37184640862E+02  0.71604281264E+02  0.82320704109E+02  0.47000000000E+01 0.  1.
         -5    1    3    3    0  502  0.26373201463E+01 -0.89758225980E+02  0.31488870224E+03  0.32747592185E+03  0.47000000000E+01 0.  1.
        -11    1    1    2    0    0 -0.63622862953E+01  0.72235517753E+02  0.42824934805E+03  0.43434543030E+03  0.00000000000E+00 0. -1.
         11    1    1    2    0    0  0.19369061319E+02 -0.19661932635E+02  0.72550185435E+02  0.77622687006E+02  0.00000000000E+00 0.  1.
<mgrwt>
<rscale>  0 0.12804837E+03</rscale>
<asrwt>0</asrwt>
<pdfrwt beam="1">  1        2 0.13915821E+00 0.13622206E+03</pdfrwt>
<pdfrwt beam="2">  1       -2 0.26517104E-02 0.13622206E+03</pdfrwt>
<totfact> 0.14691825E+04</totfact>
</mgrwt>
</event>
<event>
 7    1  0.5400401E-006  0.1321512E+03  0.7546771E-02  0.1247575E+00
         -2   -1    0    0    0  501 -0.00000000000E+00  0.00000000000E+00  0.13617186009E+03  0.13617186009E+03  0.00000000000E+00 0.  1.
          2   -1    0    0  501    0  0.00000000000E+00 -0.00000000000E+00 -0.84633403420E+02  0.84633403420E+02  0.00000000000E+00 0. -1.
         23    2    1    2    0    0 -0.41368851619E+02 -0.11277677711E+02  0.38727070841E+02  0.13770886101E+03  0.12500150594E+03 0.  0.
          5    1    3    3  502    0 -0.79169564855E+02  0.21153028020E+02  0.22365748248E+02  0.85074010652E+02  0.47000000000E+01 0.  1.
         -5    1    3    3    0  502  0.37800713236E+02 -0.32430705731E+02  0.16361322593E+02  0.52634850360E+02  0.47000000000E+01 0.  1.
        -11    1    1    2    0    0  0.42432895800E+02  0.33754641702E+02  0.22361955337E+02  0.58651372779E+02  0.00000000000E+00 0.  1.
         11    1    1    2    0    0 -0.10640441809E+01 -0.22476963990E+02 -0.95505695049E+01  0.24445029722E+02  0.00000000000E+00 0. -1.
<mgrwt>
<rscale>  0 0.11732565E+03</rscale>
<asrwt>0</asrwt>
<pdfrwt beam="2">  1        2 0.13020524E-01 0.13215122E+03</pdfrwt>
<pdfrwt beam="1">  1       -2 0.20949517E-01 0.13215122E+03</pdfrwt>
<totfact> 0.84327360E+03</totfact>
</mgrwt>
</event>
<event>
 7    1  0.5400401E-006  0.1393655E+03  0.7546771E-02  0.1232520E+00
          4   -1    0    0  501    0  0.00000000000E+00  0.00000000000E+00  0.72179833653E+02  0.72179833653E+02  0.00000000000E+00 0. -1.
         -4   -1    0    0    0  501 -0.00000000000E+00 -0.00000000000E+00 -0.20557595579E+03  0.20557595579E+03  0.00000000000E+00 0.  1.
         23    2    1    2    0    0  0.25350435313E+02 -0.56173322281E+02 -0.11559327162E+03  0.18106506783E+03  0.12499867055E+03 0.  0.
          5    1    3    3  502    0  0.22078275297E+02 -0.26404279524E+02 -0.13867715114E+03  0.14296180772E+03  0.47000000000E+01 0. -1.
         -5    1    3    3    0  502  0.32721600161E+01 -0.29769042757E+02  0.23083879522E+02  0.38103260118E+02  0.47000000000E+01 0. -1.
        -11    1    1    2    0    0  0.22127227529E+02  0.30438023900E+02 -0.20051765411E+02  0.42639896731E+02  0.00000000000E+00 0.  1.
         11    1    1    2    0    0 -0.47477662842E+02  0.25735298381E+02  0.22489148939E+01  0.54050824877E+02  0.00000000000E+00 0. -1.
<mgrwt>
<rscale>  0 0.12664571E+03</rscale>
<asrwt>0</asrwt>
<pdfrwt beam="1">  1        4 0.11104590E-01 0.13936554E+03</pdfrwt>
<pdfrwt beam="2">  1       -4 0.31627070E-01 0.13936554E+03</pdfrwt>
<totfact> 0.10129127E+03</totfact>
</mgrwt>
</event>
<event>
 7    1  0.5400401E-006  0.1308346E+03  0.7546771E-02  0.1238279E+00
         -1   -1    0    0    0  501 -0.00000000000E+00  0.00000000000E+00  0.97356042470E+02  0.97356042470E+02  0.00000000000E+00 0.  1.
          1   -1    0    0  501    0  0.00000000000E+00 -0.00000000000E+00 -0.15630436870E+03  0.15630436870E+03  0.00000000000E+00 0. -1.
         23    2    1    2    0    0  0.34114942734E+02  0.18085966577E+02  0.88028172031E+01  0.13113038081E+03  0.12500702251E+03 0.  0.
          5    1    3    3  502    0  0.54688347617E+02  0.51302849401E+02  0.35981142657E+02  0.83303843541E+02  0.47000000000E+01 0.  1.
         -5    1    3    3    0  502 -0.20573404884E+02 -0.33216882824E+02 -0.27178325454E+02  0.47826537273E+02  0.47000000000E+01 0.  1.
        -11    1    1    2    0    0  0.16501773578E+02  0.14680043804E+00  0.16001265259E+02  0.22986312699E+02  0.00000000000E+00 0.  1.
         11    1    1    2    0    0 -0.50616716311E+02 -0.18232767015E+02 -0.83752408692E+02  0.99543717657E+02  0.00000000000E+00 0. -1.
<mgrwt>
<rscale>  0 0.12296826E+03</rscale>
<asrwt>0</asrwt>
<pdfrwt beam="2">  1        1 0.24046826E-01 0.13083458E+03</pdfrwt>
<pdfrwt beam="1">  1       -1 0.14977853E-01 0.13083458E+03</pdfrwt>
<totfact> 0.61477673E+03</totfact>
</mgrwt>
</event>
<event>
 7    1  0.5400401E-006  0.1255258E+03  0.7546771E-02  0.1249088E+00
         -2   -1    0    0    0  501 -0.00000000000E+00  0.00000000000E+00  0.14309144890E+03  0.14309144890E+03  0.00000000000E+00 0.  1.
          2   -1    0    0  501    0  0.00000000000E+00 -0.00000000000E+00 -0.85331365410E+02  0.85331365410E+02  0.00000000000E+00 0. -1.
         23    2    1    2    0    0 -0.10352466309E+02  0.49949172191E+01  0.50141899628E+02  0.13517003432E+03  0.12499842129E+03 0.  0.
          5    1    3    3  502    0 -0.29478142229E+02  0.29417781121E+02 -0.28378024778E+02  0.50613921066E+02  0.47000000000E+01 0.  1.
         -5    1    3    3    0  502  0.19125675920E+02 -0.24422863902E+02  0.78519924406E+02  0.84556113258E+02  0.47000000000E+01 0.  1.
        -11    1    1    2    0    0 -0.14190866358E+02  0.12766783124E+02 -0.35646276027E+02  0.40435484836E+02  0.00000000000E+00 0. -1.
         11    1    1    2    0    0  0.24543332668E+02 -0.17761700343E+02  0.43264459891E+02  0.52817295152E+02  0.00000000000E+00 0.  1.
<mgrwt>
<rscale>  0 0.11643986E+03</rscale>
<asrwt>0</asrwt>
<pdfrwt beam="2">  1        2 0.13127902E-01 0.12552581E+03</pdfrwt>
<pdfrwt beam="1">  1       -2 0.22014069E-01 0.12552581E+03</pdfrwt>
<totfact> 0.76415493E+03</totfact>
</mgrwt>
</event>
<event>
 7    1  0.5400401E-006  0.1938867E+03  0.7546771E-02  0.1159629E+00
         -1   -1    0    0    0  501 -0.00000000000E+00  0.00000000000E+00  0.21924395125E+03  0.21924395125E+03  0.00000000000E+00 0.  1.
          1   -1    0    0  501    0  0.00000000000E+00 -0.00000000000E+00 -0.15433912699E+03  0.15433912699E+03  0.00000000000E+00 0. -1.
         23    2    1    2    0    0  0.53412865534E+02 -0.13824914833E+03  0.32531069640E+02  0.19659683353E+03  0.12500513288E+03 0.  0.
          5    1    3    3  502    0  0.83592166315E+02 -0.10372916812E+03  0.56338908632E+02  0.14471887649E+03  0.47000000000E+01 0.  1.
         -5    1    3    3    0  502 -0.30179300781E+02 -0.34519980211E+02 -0.23807838993E+02  0.51877957043E+02  0.47000000000E+01 0.  1.
        -11    1    1    2    0    0 -0.19165202240E+02  0.11806055853E+03 -0.85757937238E+01  0.11991307141E+03  0.00000000000E+00 0. -1.
         11    1    1    2    0    0 -0.34247663295E+02  0.20188589794E+02  0.40949548343E+02  0.57073173283E+02  0.00000000000E+00 0.  1.
<mgrwt>
<rscale>  0 0.18871152E+03</rscale>
<asrwt>0</asrwt>
<pdfrwt beam="2">  1        1 0.23744481E-01 0.19388668E+03</pdfrwt>
<pdfrwt beam="1">  1       -1 0.33729839E-01 0.19388668E+03</pdfrwt>
<totfact> 0.16880082E+03</totfact>
</mgrwt>
</event>
<event>
 7    1  0.5400401E-006  0.1278966E+03  0.7546771E-02  0.1246946E+00
         -1   -1    0    0    0  501 -0.00000000000E+00  0.00000000000E+00  0.74991984080E+02  0.74991984080E+02  0.00000000000E+00 0.  1.
          1   -1    0    0  501    0  0.00000000000E+00 -0.00000000000E+00 -0.16081318830E+03  0.16081318830E+03  0.00000000000E+00 0. -1.
         23    2    1    2    0    0  0.60918503596E+01  0.10028107553E+02 -0.51289486481E+02  0.13779749085E+03  0.12735722783E+03 0.  0.
          5    1    3    3  502    0  0.57848835000E+02 -0.26735134426E+02 -0.30691395043E+02  0.70889398737E+02  0.47000000000E+01 0. -1.
         -5    1    3    3    0  502 -0.51756984641E+02  0.36763241979E+02 -0.20598091439E+02  0.66908092118E+02  0.47000000000E+01 0.  1.
        -11    1    1    2    0    0  0.59007078436E+01  0.36666428674E+02 -0.33144846084E+02  0.49777767795E+02  0.00000000000E+00 0. -1.
         11    1    1    2    0    0 -0.11992558203E+02 -0.46694536227E+02 -0.13868716587E+01  0.48229913733E+02  0.00000000000E+00 0.  1.
<mgrwt>
<rscale>  0 0.11769649E+03</rscale>
<asrwt>0</asrwt>
<pdfrwt beam="2">  1        1 0.24740490E-01 0.12789659E+03</pdfrwt>
<pdfrwt beam="1">  1       -1 0.11537228E-01 0.12789659E+03</pdfrwt>
<totfact> 0.88764057E+03</totfact>
</mgrwt>
</event>
<event>
 7    1  0.5400401E-006  0.1692083E+03  0.7546771E-02  0.1184982E+00
          1   -1    0    0  501    0  0.00000000000E+00  0.00000000000E+00  0.46890365525E+03  0.46890365525E+03  0.00000000000E+00 0. -1.
         -1   -1    0    0    0  501 -0.00000000000E+00 -0.00000000000E+00 -0.63970366283E+02  0.63970366283E+02  0.00000000000E+00 0.  1.
         23    2    1    2    0    0 -0.10162851678E+03  0.51769698575E+02  0.10566537341E+03  0.19949086743E+03  0.12499191149E+03 0.  0.
          5    1    3    3  502    0 -0.10435968826E+03  0.80988999869E+02  0.10651548216E+03  0.16975806483E+03  0.47000000000E+01 0.  1.
         -5    1    3    3    0  502  0.27311714799E+01 -0.29219301294E+02 -0.85010875487E+00  0.29732802603E+02  0.47000000000E+01 0.  1.
        -11    1    1    2    0    0  0.26926521007E+02 -0.27709844429E+02  0.20420528598E+02  0.43702070890E+02  0.00000000000E+00 0.  1.
         11    1    1    2    0    0  0.74701995777E+02 -0.24059854146E+02  0.27884738696E+03  0.28968108321E+03  0.00000000000E+00 0. -1.
<mgrwt>
<rscale>  0 0.16333537E+03</rscale>
<asrwt>0</asrwt>
<pdfrwt beam="1">  1        1 0.72139022E-01 0.16920826E+03</pdfrwt>
<pdfrwt beam="2">  1       -1 0.98415951E-02 0.16920826E+03</pdfrwt>
<totfact> 0.30171536E+03</totfact>
</mgrwt>
</event>
<event>
 7    1  0.5400401E-006  0.1444356E+03  0.7546771E-02  0.1217888E+00
          2   -1    0    0  501    0  0.00000000000E+00  0.00000000000E+00  0.10131796395E+03  0.10131796395E+03  0.00000000000E+00 0. -1.
         -2   -1    0    0    0  501 -0.00000000000E+00 -0.00000000000E+00 -0.16886539697E+03  0.16886539697E+03  0.00000000000E+00 0.  1.
         23    2    1    2    0    0 -0.33740430076E+02 -0.64015860630E+02 -0.51296526663E+02  0.15327415587E+03  0.12500074470E+03 0.  0.
          5    1    3    3  502    0  0.33289013482E+02  0.67843740145E+01 -0.43441877403E+02  0.55348648237E+02  0.47000000000E+01 0. -1.
         -5    1    3    3    0  502 -0.67029443558E+02 -0.70800234645E+02 -0.78546492599E+01  0.97925507629E+02  0.47000000000E+01 0. -1.
        -11    1    1    2    0    0 -0.17293079265E+02  0.62267143799E+02 -0.11324834127E+02  0.65608685822E+02  0.00000000000E+00 0.  1.
         11    1    1    2    0    0  0.51033509341E+02  0.17487168318E+01 -0.49260722243E+01  0.51300519235E+02  0.00000000000E+00 0. -1.
<mgrwt>
<rscale>  0 0.13666540E+03</rscale>
<asrwt>0</asrwt>
<pdfrwt beam="1">  1        2 0.15587379E-01 0.14443557E+03</pdfrwt>
<pdfrwt beam="2">  1       -2 0.25979292E-01 0.14443557E+03</pdfrwt>
<totfact> 0.47312675E+03</totfact>
</mgrwt>
</event>
<event>
 7    1  0.5400401E-006  0.1266395E+03  0.7546771E-02  0.1251564E+00
          2   -1    0    0  501    0  0.00000000000E+00  0.00000000000E+00  0.89613083198E+03  0.89613083198E+03  0.00000000000E+00 0. -1.
         -2   -1    0    0    0  501 -0.00000000000E+00 -0.00000000000E+00 -0.12663045122E+02  0.12663045122E+02  0.00000000000E+00 0.  1.
         23    2    1    2    0    0  0.20703542230E+02 -0.32851520672E+01  0.50325696399E+03  0.51894617744E+03  0.12489249134E+03 0.  0.
          5    1    3    3  502    0  0.65477870631E+02  0.13359438713E+01  0.41071854949E+03  0.41593383270E+03  0.47000000000E+01 0.  1.
         -5    1    3    3    0  502 -0.44774328401E+02 -0.46210959385E+01  0.92538414502E+02  0.10301234475E+03  0.47000000000E+01 0.  1.
        -11    1    1    2    0    0  0.32246303733E+02 -0.38648109114E+01  0.15802289867E+03  0.16132574925E+03  0.00000000000E+00 0. -1.
         11    1    1    2    0    0 -0.52949845963E+02  0.71499629786E+01  0.22218792420E+03  0.22852195041E+03  0.00000000000E+00 0.  1.
<mgrwt>
<rscale>  0 0.11500968E+03</rscale>
<asrwt>0</asrwt>
<pdfrwt beam="1">  1        2 0.13786623E+00 0.12663950E+03</pdfrwt>
<pdfrwt beam="2">  1       -2 0.19481615E-02 0.12663950E+03</pdfrwt>
<totfact> 0.23170535E+04</totfact>
</mgrwt>
</event>
<event>
 7    1  0.5400401E-006  0.1314658E+03  0.7546771E-02  0.1239541E+00
         -1   -1    0    0    0  501 -0.00000000000E+00  0.00000000000E+00  0.82566277592E+02  0.82566277592E+02  0.00000000000E+00 0.  1.
          1   -1    0    0  501    0  0.00000000000E+00 -0.00000000000E+00 -0.19456130967E+03  0.19456130967E+03  0.00000000000E+00 0. -1.
         23    2    1    2    0    0  0.19420333439E+02  0.35798198329E+02 -0.44032447455E+01  0.13153954054E+03  0.12499840721E+03 0.  0.
          5    1    3    3  502    0 -0.40266216022E+02 -0.82388839397E+01 -0.31956692290E+02  0.52273966211E+02  0.47000000000E+01 0. -1.
         -5    1    3    3    0  502  0.59686549462E+02  0.44037082269E+02  0.27553447544E+02  0.79265574324E+02  0.47000000000E+01 0. -1.
        -11    1    1    2    0    0 -0.94439219715E+01 -0.56798466195E+02 -0.30686038112E+02  0.65244818639E+02  0.00000000000E+00 0.  1.
         11    1    1    2    0    0 -0.99764114677E+01  0.21000267866E+02 -0.76905749217E+02  0.80343228083E+02  0.00000000000E+00 0. -1.
<mgrwt>
<rscale>  0 0.12218162E+03</rscale>
<asrwt>0</asrwt>
<pdfrwt beam="2">  1        1 0.29932509E-01 0.13146582E+03</pdfrwt>
<pdfrwt beam="1">  1       -1 0.12702504E-01 0.13146582E+03</pdfrwt>
<totfact> 0.60456559E+03</totfact>
</mgrwt>
</event>
<event>
 7    1  0.5400401E-006  0.1379230E+03  0.7546771E-02  0.1227011E+00
          1   -1    0    0  501    0  0.00000000000E+00  0.00000000000E+00  0.23197991521E+03  0.23197991521E+03  0.00000000000E+00 0. -1.
         -1   -1    0    0    0  501 -0.00000000000E+00 -0.00000000000E+00 -0.66512898529E+02  0.66512898529E+02  0.00000000000E+00 0.  1.
         23    2    1    2    0    0 -0.30602217302E+02  0.49619520242E+02  0.81405990581E+02  0.16015519459E+03  0.12499663418E+03 0.  0.
          5    1    3    3  502    0 -0.54416885282E+02  0.81001974891E+02  0.64248934753E+02  0.11692960685E+03  0.47000000000E+01 0. -1.
         -5    1    3    3    0  502  0.23814667981E+02 -0.31382454649E+02  0.17157055828E+02  0.43225587740E+02  0.47000000000E+01 0. -1.
        -11    1    1    2    0    0  0.38793164618E+02  0.14644394501E+02  0.16197726796E+02  0.44516674008E+02  0.00000000000E+00 0.  1.
         11    1    1    2    0    0 -0.81909473161E+01 -0.64263914743E+02  0.67863299306E+02  0.93820945149E+02  0.00000000000E+00 0. -1.
<mgrwt>
<rscale>  0 0.13030035E+03</rscale>
<asrwt>0</asrwt>
<pdfrwt beam="1">  1        1 0.35689217E-01 0.13792299E+03</pdfrwt>
<pdfrwt beam="2">  1       -1 0.10232754E-01 0.13792299E+03</pdfrwt>
<totfact> 0.67991255E+03</totfact>
</mgrwt>
</event>
<event>
 7    1  0.5400401E-006  0.1350643E+03  0.7546771E-02  0.1232329E+00
          2   -1    0    0  501    0  0.00000000000E+00  0.00000000000E+00  0.14442111740E+03  0.14442111740E+03  0.00000000000E+00 0. -1.
         -2   -1    0    0    0  501 -0.00000000000E+00 -0.00000000000E+00 -0.10046209337E+03  0.10046209337E+03  0.00000000000E+00 0.  1.
         23    2    1    2    0    0 -0.46731632485E+02  0.20844420895E+02  0.13549458772E+02  0.13574219279E+03  0.12499607879E+03 0.  0.
          5    1    3    3  502    0 -0.36005862196E+02 -0.47809526668E+02 -0.12610582250E+02  0.61345657853E+02  0.47000000000E+01 0. -1.
         -5    1    3    3    0  502 -0.10725770289E+02  0.68653947563E+02  0.26160041021E+02  0.74396534936E+02  0.47000000000E+01 0. -1.
        -11    1    1    2    0    0  0.68034168673E+02  0.54274512555E+00  0.38117192375E+02  0.77986300295E+02  0.00000000000E+00 0. -1.
         11    1    1    2    0    0 -0.21302536187E+02 -0.21387166020E+02 -0.77076271221E+01  0.31154717688E+02  0.00000000000E+00 0.  1.
<mgrwt>
<rscale>  0 0.12676966E+03</rscale>
<asrwt>0</asrwt>
<pdfrwt beam="1">  1        2 0.22218633E-01 0.13506426E+03</pdfrwt>
<pdfrwt beam="2">  1       -2 0.15455707E-01 0.13506426E+03</pdfrwt>
<totfact> 0.75790076E+03</totfact>
</mgrwt>
</event>
<event>
 7    1  0.5400401E-006  0.1295973E+03  0.7546771E-02  0.1242976E+00
          1   -1    0    0  501    0  0.00000000000E+00  0.00000000000E+00  0.18173813518E+02  0.18173813518E+02  0.00000000000E+00 0. -1.
         -1   -1    0    0    0  501 -0.00000000000E+00 -0.00000000000E+00 -0.75500628425E+03  0.75500628425E+03  0.00000000000E+00 0.  1.
         23    2    1    2    0    0 -0.26941646216E+02  0.21104255567E+02 -0.52595132052E+03  0.54168280038E+03  0.12499689104E+03 0.  0.
          5    1    3    3  502    0 -0.11176862342E+02 -0.47905813412E+02 -0.32143206677E+03  0.32520847584E+03  0.47000000000E+01 0. -1.
         -5    1    3    3    0  502 -0.15764783874E+02  0.69010068979E+02 -0.20451925375E+03  0.21647432454E+03  0.47000000000E+01 0. -1.
        -11    1    1    2    0    0  0.55576129062E+02  0.13488959443E+01 -0.95367124825E+02  0.11038756334E+03  0.00000000000E+00 0. -1.
         11    1    1    2    0    0 -0.28634482846E+02 -0.22453151511E+02 -0.11551402539E+03  0.12110973405E+03  0.00000000000E+00 0.  1.
<mgrwt>
<rscale>  0 0.12007351E+03</rscale>
<asrwt>0</asrwt>
<pdfrwt beam="1">  1        1 0.27959708E-02 0.12959732E+03</pdfrwt>
<pdfrwt beam="2">  1       -1 0.11615483E+00 0.12959732E+03</pdfrwt>
<totfact> 0.25907746E+03</totfact>
</mgrwt>
</event>
<event>
 7    1  0.5400401E-006  0.1455268E+03  0.7546771E-02  0.1228333E+00
         -2   -1    0    0    0  501 -0.00000000000E+00  0.00000000000E+00  0.36356522110E+02  0.36356522110E+02  0.00000000000E+00 0.  1.
          2   -1    0    0  501    0  0.00000000000E+00 -0.00000000000E+00 -0.42135225034E+03  0.42135225034E+03  0.00000000000E+00 0. -1.
         23    2    1    2    0    0 -0.67992690433E+02  0.30501556976E+02 -0.16717701204E+03  0.22164432628E+03  0.12499881234E+03 0.  0.
          5    1    3    3  502    0  0.19132443062E+02  0.15397133265E+02 -0.11746092857E+03  0.12009280508E+03  0.47000000000E+01 0. -1.
         -5    1    3    3    0  502 -0.87125133496E+02  0.15104423710E+02 -0.49716083466E+02  0.10155152120E+03  0.47000000000E+01 0. -1.
        -11    1    1    2    0    0  0.50916338600E+02 -0.39805147463E+02 -0.19807477609E+03  0.20835196237E+03  0.00000000000E+00 0. -1.
         11    1    1    2    0    0  0.17076351834E+02  0.93035904869E+01 -0.19743940102E+02  0.27712483805E+02  0.00000000000E+00 0.  1.
<mgrwt>
<rscale>  0 0.12941077E+03</rscale>
<asrwt>0</asrwt>
<pdfrwt beam="2">  1        2 0.64823423E-01 0.14552682E+03</pdfrwt>
<pdfrwt beam="1">  1       -2 0.55933111E-02 0.14552682E+03</pdfrwt>
<totfact> 0.11834226E+04</totfact>
</mgrwt>
</event>
<event>
 7    1  0.5400401E-006  0.2014358E+03  0.7546771E-02  0.1152436E+00
          2   -1    0    0  501    0  0.00000000000E+00  0.00000000000E+00  0.55705089308E+03  0.55705089308E+03  0.00000000000E+00 0. -1.
         -2   -1    0    0    0  501 -0.00000000000E+00 -0.00000000000E+00 -0.66815713437E+02  0.66815713437E+02  0.00000000000E+00 0.  1.
         23    2    1    2    0    0 -0.15609863907E+03 -0.24167251137E+02  0.23693911009E+03  0.31099279400E+03  0.12500213950E+03 0.  0.
          5    1    3    3  502    0 -0.13318687854E+02 -0.44326021792E+02  0.20410800553E+02  0.50802307362E+02  0.47000000000E+01 0. -1.
         -5    1    3    3    0  502 -0.14277995122E+03  0.20158770656E+02  0.21652830954E+03  0.26019048664E+03  0.47000000000E+01 0. -1.
        -11    1    1    2    0    0  0.13751489960E+03  0.10299214881E+02  0.25470886668E+03  0.28964293225E+03  0.00000000000E+00 0. -1.
         11    1    1    2    0    0  0.18583739469E+02  0.13868036255E+02 -0.14127971266E+01  0.23230880267E+02  0.00000000000E+00 0.  1.
<mgrwt>
<rscale>  0 0.19683681E+03</rscale>
<asrwt>0</asrwt>
<pdfrwt beam="1">  1        2 0.85700134E-01 0.20143579E+03</pdfrwt>
<pdfrwt beam="2">  1       -2 0.10279341E-01 0.20143579E+03</pdfrwt>
<totfact> 0.34479905E+03</totfact>
</mgrwt>
</event>
<event>
 6    1  0.5400401E-006  0.1319018E+03  0.7546771E-02  0.1286499E+00
         -3   -1    0    0    0  501 -0.00000000000E+00  0.00000000000E+00  0.19367756928E+03  0.19367756928E+03  0.00000000000E+00 0.  1.
          3   -1    0    0  501    0  0.00000000000E+00 -0.00000000000E+00 -0.40471114862E+02  0.40471114862E+02  0.00000000000E+00 0. -1.
          5    1    1    2  502    0  0.39556111181E+02  0.47490108272E+02  0.98504483800E+02  0.11638393207E+03  0.47000000000E+01 0.  1.
         -5    1    1    2    0  502 -0.37522884997E+02 -0.51700434540E+02  0.43501016042E+02  0.77429517800E+02  0.47000000000E+01 0. -1.
        -11    1    1    2    0    0  0.11927749211E+02  0.13320311127E+02 -0.33693483923E+01  0.18194900339E+02  0.00000000000E+00 0. -1.
         11    1    1    2    0    0 -0.13960975395E+02 -0.91099848590E+01  0.14570302972E+02  0.22140333936E+02  0.00000000000E+00 0.  1.
<mgrwt>
<rscale>  0 0.97107478E+02</rscale>
<asrwt>0</asrwt>
<pdfrwt beam="2">  1        3 0.62263254E-02 0.13190182E+03</pdfrwt>
<pdfrwt beam="1">  1       -3 0.29796549E-01 0.13190182E+03</pdfrwt>
<totfact> 0.39545188E+03</totfact>
</mgrwt>
</event>
<event>
 7    1  0.5400401E-006  0.1329558E+03  0.7546771E-02  0.1236179E+00
          2   -1    0    0  501    0  0.00000000000E+00  0.00000000000E+00  0.63467436402E+03  0.63467436402E+03  0.00000000000E+00 0. -1.
         -2   -1    0    0    0  501 -0.00000000000E+00 -0.00000000000E+00 -0.22711316721E+02  0.22711316721E+02  0.00000000000E+00 0.  1.
         23    2    1    2    0    0  0.38222947611E+02 -0.24276721638E+02  0.27498914620E+03  0.30544438429E+03  0.12500755348E+03 0.  0.
          5    1    3    3  502    0  0.82376813129E+02 -0.61531093000E+01  0.14581085272E+03  0.16765051406E+03  0.47000000000E+01 0.  1.
         -5    1    3    3    0  502 -0.44153865518E+02 -0.18123612338E+02  0.12917829348E+03  0.13779387022E+03  0.47000000000E+01 0.  1.
        -11    1    1    2    0    0 -0.19487094997E+02 -0.34620606339E+02  0.13434093557E+03  0.14009218474E+03  0.00000000000E+00 0.  1.
         11    1    1    2    0    0 -0.18735852613E+02  0.58897327977E+02  0.20263296552E+03  0.21184911171E+03  0.00000000000E+00 0. -1.
<mgrwt>
<rscale>  0 0.12429236E+03</rscale>
<asrwt>0</asrwt>
<pdfrwt beam="1">  1        2 0.97642196E-01 0.13295579E+03</pdfrwt>
<pdfrwt beam="2">  1       -2 0.34940492E-02 0.13295579E+03</pdfrwt>
<totfact> 0.15078038E+04</totfact>
</mgrwt>
</event>
<event>
 7    1  0.5400401E-006  0.1479781E+03  0.7546771E-02  0.1212280E+00
          2   -1    0    0  501    0  0.00000000000E+00  0.00000000000E+00  0.21754842275E+02  0.21754842275E+02  0.00000000000E+00 0. -1.
         -2   -1    0    0    0  501 -0.00000000000E+00 -0.00000000000E+00 -0.90105961505E+03  0.90105961505E+03  0.00000000000E+00 0.  1.
         23    2    1    2    0    0  0.60354951484E+02  0.51295848265E+02 -0.60642537423E+03  0.62421892481E+03  0.12499418929E+03 0.  0.
          5    1    3    3  502    0  0.43004400073E+02 -0.93231788942E+01 -0.48772763804E+03  0.48973119055E+03  0.47000000000E+01 0.  1.
         -5    1    3    3    0  502  0.17350551412E+02  0.60619027159E+02 -0.11869773619E+03  0.13448773426E+03  0.47000000000E+01 0.  1.
        -11    1    1    2    0    0 -0.81567676037E+02 -0.21198606359E+02 -0.19612371029E+03  0.21346469596E+03  0.00000000000E+00 0. -1.
         11    1    1    2    0    0  0.21212724553E+02 -0.30097241906E+02 -0.76755688254E+02  0.85130836556E+02  0.00000000000E+00 0.  1.
<mgrwt>
<rscale>  0 0.14078246E+03</rscale>
<asrwt>0</asrwt>
<pdfrwt beam="1">  1        2 0.33468989E-02 0.14797815E+03</pdfrwt>
<pdfrwt beam="2">  1       -2 0.13862455E+00 0.14797815E+03</pdfrwt>
<totfact> 0.10187300E+03</totfact>
</mgrwt>
</event>
<event>
 7    1  0.5400401E-006  0.2095301E+03  0.7546771E-02  0.1145553E+00
          1   -1    0    0  501    0  0.00000000000E+00  0.00000000000E+00  0.16001748505E+03  0.16001748505E+03  0.00000000000E+00 0. -1.
         -1   -1    0    0    0  501 -0.00000000000E+00 -0.00000000000E+00 -0.26182321966E+03  0.26182321966E+03  0.00000000000E+00 0.  1.
         23    2    1    2    0    0 -0.49211698000E+02  0.16080198373E+03 -0.93684242027E+02  0.22952034842E+03  0.12499513568E+03 0.  0.
          5    1    3    3  502    0 -0.45783572524E+02  0.19212954499E+02 -0.69840467834E+02  0.85819893270E+02  0.47000000000E+01 0.  1.
         -5    1    3    3    0  502 -0.34281254763E+01  0.14158902923E+03 -0.23843774193E+02  0.14370045515E+03  0.47000000000E+01 0.  1.
        -11    1    1    2    0    0  0.44595899781E+02 -0.41618570220E+02  0.28810349133E+02  0.67460624675E+02  0.00000000000E+00 0.  1.
         11    1    1    2    0    0  0.46157982195E+01 -0.11918341351E+03 -0.36931841717E+02  0.12485973162E+03  0.00000000000E+00 0. -1.
<mgrwt>
<rscale>  0 0.20504265E+03</rscale>
<asrwt>0</asrwt>
<pdfrwt beam="1">  1        1 0.24618075E-01 0.20953008E+03</pdfrwt>
<pdfrwt beam="2">  1       -1 0.40280495E-01 0.20953008E+03</pdfrwt>
<totfact> 0.11845144E+03</totfact>
</mgrwt>
</event>
<event>
 7    1  0.5400401E-006  0.1548142E+03  0.7546771E-02  0.1203991E+00
          1   -1    0    0  501    0  0.00000000000E+00  0.00000000000E+00  0.10530585376E+04  0.10530585376E+04  0.00000000000E+00 0.  1.
         -1   -1    0    0    0  501 -0.00000000000E+00 -0.00000000000E+00 -0.20209521392E+02  0.20209521392E+02  0.00000000000E+00 0. -1.
         23    2    1    2    0    0 -0.24563455838E+02 -0.87808898152E+02  0.42275229051E+03  0.45020764617E+03  0.12511458580E+03 0.  0.
          5    1    3    3  502    0  0.44274582466E+02 -0.16321664127E+02  0.21159990110E+03  0.21684843443E+03  0.47000000000E+01 0. -1.
         -5    1    3    3    0  502 -0.68838038304E+02 -0.71487234026E+02  0.21115238941E+03  0.23335921173E+03  0.47000000000E+01 0. -1.
        -11    1    1    2    0    0  0.21505184009E+02  0.10521668763E+03  0.55139181921E+03  0.56175258129E+03  0.00000000000E+00 0.  1.
         11    1    1    2    0    0  0.30582718299E+01 -0.17407789480E+02  0.58704906442E+02  0.61307831486E+02  0.00000000000E+00 0. -1.
<mgrwt>
<rscale>  0 0.14717241E+03</rscale>
<asrwt>0</asrwt>
<pdfrwt beam="1">  1        1 0.16200896E+00 0.15481416E+03</pdfrwt>
<pdfrwt beam="2">  1       -1 0.31091580E-02 0.15481416E+03</pdfrwt>
<totfact> 0.51272582E+03</totfact>
</mgrwt>
</event>
<event>
 7    1  0.5400401E-006  0.1474895E+03  0.7546771E-02  0.1213096E+00
         -2   -1    0    0    0  501 -0.00000000000E+00  0.00000000000E+00  0.47552886891E+02  0.47552886891E+02  0.00000000000E+00 0.  1.
          2   -1    0    0  501    0  0.00000000000E+00 -0.00000000000E+00 -0.38844527264E+03  0.38844527264E+03  0.00000000000E+00 0. -1.
         23    2    1    2    0    0  0.65473478978E+02  0.42923826627E+02 -0.15014366516E+03  0.21046677795E+03  0.12499565229E+03 0.  0.
          5    1    3    3  502    0  0.46447011420E+02  0.18908932196E+01 -0.15760586364E+03  0.16438551822E+03  0.47000000000E+01 0. -1.
         -5    1    3    3    0  502  0.19026467558E+02  0.41032933408E+02  0.74621984826E+01  0.46081259726E+02  0.47000000000E+01 0. -1.
        -11    1    1    2    0    0 -0.15954079977E+02 -0.51700342051E+02 -0.41949621250E+02  0.68463338796E+02  0.00000000000E+00 0.  1.
         11    1    1    2    0    0 -0.49519399001E+02  0.87765154243E+01 -0.14879909934E+03  0.15706804279E+03  0.00000000000E+00 0. -1.
<mgrwt>
<rscale>  0 0.14017299E+03</rscale>
<asrwt>0</asrwt>
<pdfrwt beam="2">  1        2 0.59760810E-01 0.14748947E+03</pdfrwt>
<pdfrwt beam="1">  1       -2 0.73158289E-02 0.14748947E+03</pdfrwt>
<totfact> 0.85825572E+03</totfact>
</mgrwt>
</event>
<event>
 7    1  0.5400401E-006  0.1910594E+03  0.7546771E-02  0.1162032E+00
          2   -1    0    0  501    0  0.00000000000E+00  0.00000000000E+00  0.89735988638E+03  0.89735988638E+03  0.00000000000E+00 0. -1.
         -2   -1    0    0    0  501 -0.00000000000E+00 -0.00000000000E+00 -0.37094743168E+02  0.37094743168E+02  0.00000000000E+00 0.  1.
         23    2    1    2    0    0  0.12816944019E+03  0.66725075675E+02  0.40524804117E+03  0.44802863295E+03  0.12499615973E+03 0.  0.
          5    1    3    3  502    0  0.70420831618E+01 -0.30234749229E+02  0.37803446178E+02  0.49141851198E+02  0.47000000000E+01 0.  1.
         -5    1    3    3    0  502  0.12112735703E+03  0.96959824905E+02  0.36744459500E+03  0.39888678176E+03  0.47000000000E+01 0.  1.
        -11    1    1    2    0    0 -0.62620243225E+02 -0.58124813694E+02  0.13584891996E+03  0.16048276506E+03  0.00000000000E+00 0.  1.
         11    1    1    2    0    0 -0.65549196969E+02 -0.86002619813E+01  0.31916818208E+03  0.32594323153E+03  0.00000000000E+00 0. -1.
<mgrwt>
<rscale>  0 0.18609388E+03</rscale>
<asrwt>0</asrwt>
<pdfrwt beam="1">  1        2 0.13805535E+00 0.19105937E+03</pdfrwt>
<pdfrwt beam="2">  1       -2 0.57068842E-02 0.19105937E+03</pdfrwt>
<totfact> 0.48121920E+03</totfact>
</mgrwt>
</event>
<event>
 7    1  0.5400401E-006  0.1311682E+03  0.7546771E-02  0.1237616E+00
          1   -1    0    0  501    0  0.00000000000E+00  0.00000000000E+00  0.14428426967E+03  0.14428426967E+03  0.00000000000E+00 0. -1.
         -1   -1    0    0    0  501 -0.00000000000E+00 -0.00000000000E+00 -0.95009713550E+02  0.95009713550E+02  0.00000000000E+00 0.  1.
         23    2    1    2    0    0 -0.39347957650E+02 -0.55960947271E+01  0.33642009794E+02  0.13541371887E+03  0.12500204953E+03 0.  0.
          5    1    3    3  502    0  0.24248551722E+02  0.43932922211E+02  0.14166377856E+02  0.52353320584E+02  0.47000000000E+01 0. -1.
         -5    1    3    3    0  502 -0.63596509372E+02 -0.49529016938E+02  0.19475631938E+02  0.83060398281E+02  0.47000000000E+01 0. -1.
        -11    1    1    2    0    0  0.10782122494E+02  0.11724397793E+02  0.53632248975E+02  0.55947598691E+02  0.00000000000E+00 0. -1.
         11    1    1    2    0    0  0.28565835156E+02 -0.61283030660E+01 -0.37999702648E+02  0.47932665667E+02  0.00000000000E+00 0.  1.
<mgrwt>
<rscale>  0 0.12338464E+03</rscale>
<asrwt>0</asrwt>
<pdfrwt beam="1">  1        1 0.22197580E-01 0.13116818E+03</pdfrwt>
<pdfrwt beam="2">  1       -1 0.14616879E-01 0.13116818E+03</pdfrwt>
<totfact> 0.70652039E+03</totfact>
</mgrwt>
</event>
<event>
 7    1  0.5400401E-006  0.1321507E+03  0.7546771E-02  0.1242208E+00
          2   -1    0    0  501    0  0.00000000000E+00  0.00000000000E+00  0.17182163823E+03  0.17182163823E+03  0.00000000000E+00 0.  1.
         -2   -1    0    0    0  501 -0.00000000000E+00 -0.00000000000E+00 -0.81716923937E+02  0.81716923937E+02  0.00000000000E+00 0. -1.
         23    2    1    2    0    0  0.42823319775E+02  0.21695635874E+01  0.11012092964E+02  0.13260873804E+03  0.12500106996E+03 0.  0.
          5    1    3    3  502    0  0.56845957221E+02 -0.43347677611E+02 -0.21443333920E+02  0.74782287851E+02  0.47000000000E+01 0.  1.
         -5    1    3    3    0  502 -0.14022637446E+02  0.45517241198E+02  0.32455426884E+02  0.57826450189E+02  0.47000000000E+01 0.  1.
        -11    1    1    2    0    0 -0.21699566069E+02  0.26363721032E+02  0.78297830573E+02  0.85419360960E+02  0.00000000000E+00 0.  1.
         11    1    1    2    0    0 -0.21123753705E+02 -0.28533284619E+02  0.79479075185E+00  0.35510463164E+02  0.00000000000E+00 0. -1.
<mgrwt>
<rscale>  0 0.12054031E+03</rscale>
<asrwt>0</asrwt>
<pdfrwt beam="1">  1        2 0.26434098E-01 0.13215071E+03</pdfrwt>
<pdfrwt beam="2">  1       -2 0.12571834E-01 0.13215071E+03</pdfrwt>
<totfact> 0.87258821E+03</totfact>
</mgrwt>
</event>
<event>
 7    1  0.5400401E-006  0.1389468E+03  0.7546771E-02  0.1225505E+00
          2   -1    0    0  501    0  0.00000000000E+00  0.00000000000E+00  0.14935676939E+03  0.14935676939E+03  0.00000000000E+00 0. -1.
         -2   -1    0    0    0  501 -0.00000000000E+00 -0.00000000000E+00 -0.13166704681E+03  0.13166704681E+03  0.00000000000E+00 0.  1.
         23    2    1    2    0    0  0.28905831781E+02 -0.53330413610E+02 -0.53913085641E+02  0.14903970078E+03  0.12500612577E+03 0.  0.
          5    1    3    3  502    0  0.20733413822E+02  0.37902649073E+02 -0.16794668325E+01  0.43490181240E+02  0.47000000000E+01 0.  1.
         -5    1    3    3    0  502  0.81724179591E+01 -0.91233062683E+02 -0.52233618809E+02  0.10554951954E+03  0.47000000000E+01 0.  1.
        -11    1    1    2    0    0  0.28654730514E+02 -0.83323708993E+00  0.60467681869E+01  0.29297632505E+02  0.00000000000E+00 0. -1.
         11    1    1    2    0    0 -0.57560562295E+02  0.54163650700E+02  0.65556040034E+02  0.10268648292E+03  0.00000000000E+00 0.  1.
<mgrwt>
<rscale>  0 0.13132365E+03</rscale>
<asrwt>0</asrwt>
<pdfrwt beam="1">  1        2 0.22977965E-01 0.13894679E+03</pdfrwt>
<pdfrwt beam="2">  1       -2 0.20256469E-01 0.13894679E+03</pdfrwt>
<totfact> 0.46600016E+03</totfact>
</mgrwt>
</event>
<event>
 7    1  0.5400401E-006  0.3158929E+03  0.7546771E-02  0.1079062E+00
          1   -1    0    0  501    0  0.00000000000E+00  0.00000000000E+00  0.12940598882E+04  0.12940598882E+04  0.00000000000E+00 0. -1.
         -1   -1    0    0    0  501 -0.00000000000E+00 -0.00000000000E+00 -0.80930184867E+02  0.80930184867E+02  0.00000000000E+00 0.  1.
         23    2    1    2    0    0 -0.10498644321E+02 -0.28991933793E+03  0.41767916724E+03  0.52368333772E+03  0.12499962965E+03 0.  0.
          5    1    3    3  502    0  0.24922836803E+02 -0.18612916711E+01  0.38901659464E+02  0.46476244578E+02  0.47000000000E+01 0.  1.
         -5    1    3    3    0  502 -0.35421481125E+02 -0.28805804626E+03  0.37877750778E+03  0.47720709314E+03  0.47000000000E+01 0.  1.
        -11    1    1    2    0    0  0.44563940195E+02  0.20946597747E+03  0.52139795255E+03  0.56366458591E+03  0.00000000000E+00 0.  1.
         11    1    1    2    0    0 -0.34065295874E+02  0.80453360467E+02  0.27405258359E+03  0.28764214949E+03  0.00000000000E+00 0. -1.
<mgrwt>
<rscale>  0 0.31269257E+03</rscale>
<asrwt>0</asrwt>
<pdfrwt beam="1">  1        1 0.19908612E+00 0.31589294E+03</pdfrwt>
<pdfrwt beam="2">  1       -1 0.12450799E-01 0.31589294E+03</pdfrwt>
<totfact> 0.42524684E+02</totfact>
</mgrwt>
</event>
<event>
 7    1  0.5400401E-006  0.1345845E+03  0.7546771E-02  0.1233791E+00
          3   -1    0    0  501    0  0.00000000000E+00  0.00000000000E+00  0.47451349151E+02  0.47451349151E+02  0.00000000000E+00 0. -1.
         -3   -1    0    0    0  501 -0.00000000000E+00 -0.00000000000E+00 -0.86623248719E+03  0.86623248719E+03  0.00000000000E+00 0.  1.
         23    2    1    2    0    0  0.43209231716E+02 -0.15855859147E+02 -0.79739664641E+03  0.80867447018E+03  0.12646952613E+03 0.  0.
          5    1    3    3  502    0  0.10013101264E+02  0.12082788577E+02 -0.82855338799E+01  0.18357452122E+02  0.47000000000E+01 0. -1.
         -5    1    3    3    0  502  0.33196130452E+02 -0.27938647724E+02 -0.78911111253E+03  0.79031701806E+03  0.47000000000E+01 0.  1.
        -11    1    1    2    0    0  0.27467980224E+02  0.10867198029E+02 -0.16858999066E+02  0.34011935848E+02  0.00000000000E+00 0.  1.
         11    1    1    2    0    0 -0.70677211940E+02  0.49886611182E+01 -0.45254925554E+01  0.70997430307E+02  0.00000000000E+00 0. -1.
<mgrwt>
<rscale>  0 0.12582124E+03</rscale>
<asrwt>0</asrwt>
<pdfrwt beam="1">  1        3 0.73002082E-02 0.13458450E+03</pdfrwt>
<pdfrwt beam="2">  1       -3 0.13326653E+00 0.13458450E+03</pdfrwt>
<totfact> 0.13341904E+02</totfact>
</mgrwt>
</event>
<event>
 7    1  0.5400401E-006  0.1280049E+03  0.7546771E-02  0.1245275E+00
          1   -1    0    0  501    0  0.00000000000E+00  0.00000000000E+00  0.35635444459E+02  0.35635444459E+02  0.00000000000E+00 0. -1.
         -1   -1    0    0    0  501 -0.00000000000E+00 -0.00000000000E+00 -0.42425396902E+03  0.42425396902E+03  0.00000000000E+00 0.  1.
         23    2    1    2    0    0 -0.27460592594E+02 -0.29189749535E+01 -0.31497191814E+03  0.33998907090E+03  0.12499061787E+03 0.  0.
          5    1    3    3  502    0  0.50874019108E+01  0.48443023217E+02 -0.58033559055E+02  0.75911739100E+02  0.47000000000E+01 0.  1.
         -5    1    3    3    0  502 -0.32547994505E+02 -0.51361998170E+02 -0.25693835908E+03  0.26407733180E+03  0.47000000000E+01 0.  1.
        -11    1    1    2    0    0 -0.80413951302E+00 -0.39198464599E+02 -0.14066944795E+02  0.41653873807E+02  0.00000000000E+00 0. -1.
         11    1    1    2    0    0  0.28264732107E+02  0.42117439552E+02 -0.59579661630E+02  0.78246468773E+02  0.00000000000E+00 0.  1.
<mgrwt>
<rscale>  0 0.11868932E+03</rscale>
<asrwt>0</asrwt>
<pdfrwt beam="1">  1        1 0.54823765E-02 0.12800492E+03</pdfrwt>
<pdfrwt beam="2">  1       -1 0.65269836E-01 0.12800492E+03</pdfrwt>
<totfact> 0.34570896E+03</totfact>
</mgrwt>
</event>
<event>
 7    1  0.5400401E-006  0.1266394E+03  0.7546771E-02  0.1247642E+00
         -1   -1    0    0    0  501 -0.00000000000E+00  0.00000000000E+00  0.17622860845E+03  0.17622860845E+03  0.00000000000E+00 0.  1.
          1   -1    0    0  501    0  0.00000000000E+00 -0.00000000000E+00 -0.73472230253E+02  0.73472230253E+02  0.00000000000E+00 0. -1.
         23    2    1    2    0    0 -0.15565499507E+02 -0.13034530486E+02  0.90663778352E+02  0.15574807498E+03  0.12500143357E+03 0.  0.
          5    1    3    3  502    0 -0.69931502900E+02  0.11381397830E+00  0.44016792498E+02  0.82764703064E+02  0.47000000000E+01 0.  1.
         -5    1    3    3    0  502  0.54366003394E+02 -0.13148344464E+02  0.46646985854E+02  0.72983371917E+02  0.47000000000E+01 0.  1.
        -11    1    1    2    0    0  0.38643340542E+02  0.24879662656E+02  0.36227549841E+02  0.58521284586E+02  0.00000000000E+00 0.  1.
         11    1    1    2    0    0 -0.23077841035E+02 -0.11845132170E+02 -0.24134949991E+02  0.35431479140E+02  0.00000000000E+00 0. -1.
<mgrwt>
<rscale>  0 0.11728628E+03</rscale>
<asrwt>0</asrwt>
<pdfrwt beam="2">  1        1 0.11303420E-01 0.12663942E+03</pdfrwt>
<pdfrwt beam="1">  1       -1 0.27112094E-01 0.12663942E+03</pdfrwt>
<totfact> 0.62364022E+03</totfact>
</mgrwt>
</event>
<event>
 7    1  0.5400401E-006  0.1428900E+03  0.7546771E-02  0.1219478E+00
          1   -1    0    0  501    0  0.00000000000E+00  0.00000000000E+00  0.22045186075E+03  0.22045186075E+03  0.00000000000E+00 0. -1.
         -1   -1    0    0    0  501 -0.00000000000E+00 -0.00000000000E+00 -0.98748178090E+02  0.98748178090E+02  0.00000000000E+00 0.  1.
         23    2    1    2    0    0 -0.58221009681E+02  0.37443832956E+02 -0.10843567567E+02  0.14330087450E+03  0.12500332427E+03 0.  0.
          5    1    3    3  502    0  0.31067185932E+02  0.34347690522E+02 -0.24813058586E+02  0.52751414789E+02  0.47000000000E+01 0. -1.
         -5    1    3    3    0  502 -0.89288195613E+02  0.30961424344E+01  0.13969491019E+02  0.90549459706E+02  0.47000000000E+01 0. -1.
        -11    1    1    2    0    0  0.23029822543E+02 -0.66256889239E+02  0.79331770591E+02  0.10589559917E+03  0.00000000000E+00 0. -1.
         11    1    1    2    0    0  0.35191187138E+02  0.28813056283E+02  0.53215479639E+02  0.70003565179E+02  0.00000000000E+00 0.  1.
<mgrwt>
<rscale>  0 0.13552672E+03</rscale>
<asrwt>0</asrwt>
<pdfrwt beam="1">  1        1 0.33915671E-01 0.14289002E+03</pdfrwt>
<pdfrwt beam="2">  1       -1 0.15192028E-01 0.14289002E+03</pdfrwt>
<totfact> 0.39357320E+03</totfact>
</mgrwt>
</event>
<event>
 6    1  0.5400401E-006  0.1380791E+03  0.7546771E-02  0.1231599E+00
         -4   -1    0    0    0  501 -0.00000000000E+00  0.00000000000E+00  0.27904548105E+02  0.27904548105E+02  0.00000000000E+00 0.  1.
          4   -1    0    0  501    0  0.00000000000E+00 -0.00000000000E+00 -0.53811468822E+03  0.53811468822E+03  0.00000000000E+00 0. -1.
          5    1    1    2  502    0  0.95941179801E+01 -0.68193817920E+02 -0.20782205713E+03  0.21898525368E+03  0.47000000000E+01 0. -1.
         -5    1    1    2    0  502 -0.20077439217E+02  0.36560508346E+02 -0.17924574900E+02  0.45641589821E+02  0.47000000000E+01 0.  1.
        -11    1    1    2    0    0  0.14395171214E+02  0.55420916353E+02 -0.26285144537E+03  0.26901594982E+03  0.00000000000E+00 0. -1.
         11    1    1    2    0    0 -0.39118499768E+01 -0.23787606779E+02 -0.21612062717E+02  0.32376443001E+02  0.00000000000E+00 0.  1.
<mgrwt>
<rscale>  0 0.12724720E+03</rscale>
<asrwt>0</asrwt>
<pdfrwt beam="2">  1        4 0.82786870E-01 0.13807905E+03</pdfrwt>
<pdfrwt beam="1">  1       -4 0.42930077E-02 0.13807905E+03</pdfrwt>
<totfact> 0.66880234E+02</totfact>
</mgrwt>
</event>
<event>
 7    1  0.5400401E-006  0.1415599E+03  0.7546771E-02  0.1221749E+00
          1   -1    0    0  501    0  0.00000000000E+00  0.00000000000E+00  0.16201633920E+03  0.16201633920E+03  0.00000000000E+00 0. -1.
         -1   -1    0    0    0  501 -0.00000000000E+00 -0.00000000000E+00 -0.23183898481E+03  0.23183898481E+03  0.00000000000E+00 0.  1.
         23    2    1    2    0    0  0.37804503797E+01 -0.66348617868E+02 -0.18452144126E+03  0.23256691967E+03  0.12499111545E+03 0.  0.
          5    1    3    3  502    0  0.36112861478E+02 -0.88062854380E+02 -0.16022526771E+03  0.18642272259E+03  0.47000000000E+01 0.  1.
         -5    1    3    3    0  502 -0.32332411099E+02  0.21714236512E+02 -0.24296173544E+02  0.46144197074E+02  0.47000000000E+01 0.  1.
        -11    1    1    2    0    0  0.30126363098E+01  0.22487072792E+02 -0.12963625008E+02  0.26130441895E+02  0.00000000000E+00 0.  1.
         11    1    1    2    0    0 -0.67930866895E+01  0.43861545076E+02  0.12766242065E+03  0.13515796244E+03  0.00000000000E+00 0. -1.
<mgrwt>
<rscale>  0 0.13392217E+03</rscale>
<asrwt>0</asrwt>
<pdfrwt beam="1">  1        1 0.24925591E-01 0.14155992E+03</pdfrwt>
<pdfrwt beam="2">  1       -1 0.35667536E-01 0.14155992E+03</pdfrwt>
<totfact> 0.14290822E+03</totfact>
</mgrwt>
</event>
<event>
 7    1  0.5400401E-006  0.1893556E+03  0.7546771E-02  0.1163920E+00
         -2   -1    0    0    0  501 -0.00000000000E+00  0.00000000000E+00  0.42040294391E+02  0.42040294391E+02  0.00000000000E+00 0.  1.
          2   -1    0    0  501    0  0.00000000000E+00 -0.00000000000E+00 -0.94316291652E+03  0.94316291652E+03  0.00000000000E+00 0. -1.
         23    2    1    2    0    0  0.13704681517E+03 -0.38063434775E+02 -0.25680162077E+03  0.31906521409E+03  0.12499953519E+03 0.  0.
          5    1    3    3  502    0  0.11702488981E+03 -0.50837417007E+02 -0.26446432455E+03  0.29367113709E+03  0.47000000000E+01 0. -1.
         -5    1    3    3    0  502  0.20021925358E+02  0.12773982232E+02  0.76627037820E+01  0.25394076994E+02  0.47000000000E+01 0. -1.
        -11    1    1    2    0    0 -0.81228311261E+02 -0.14295440368E+02 -0.21961304395E+03  0.23458961452E+03  0.00000000000E+00 0.  1.
         11    1    1    2    0    0 -0.55818503906E+02  0.52358875143E+02 -0.42470795740E+03  0.43154838230E+03  0.00000000000E+00 0. -1.
<mgrwt>
<rscale>  0 0.18407122E+03</rscale>
<asrwt>0</asrwt>
<pdfrwt beam="2">  1        2 0.14510197E+00 0.18935559E+03</pdfrwt>
<pdfrwt beam="1">  1       -2 0.64677384E-02 0.18935559E+03</pdfrwt>
<totfact> 0.37163770E+03</totfact>
</mgrwt>
</event>
<event>
 7    1  0.5400401E-006  0.1501031E+03  0.7546771E-02  0.1209510E+00
         -2   -1    0    0    0  501 -0.00000000000E+00  0.00000000000E+00  0.27505231731E+02  0.27505231731E+02  0.00000000000E+00 0.  1.
          2   -1    0    0  501    0  0.00000000000E+00 -0.00000000000E+00 -0.73869425845E+03  0.73869425845E+03  0.00000000000E+00 0. -1.
         23    2    1    2    0    0 -0.30383622838E+02 -0.75313626788E+02 -0.27933142732E+03  0.31710721378E+03  0.12623641245E+03 0.  0.
          5    1    3    3  502    0  0.23140178143E+02 -0.22441868322E+02 -0.21660623593E+03  0.21904213463E+03  0.47000000000E+01 0. -1.
         -5    1    3    3    0  502 -0.53523800982E+02 -0.52871758466E+02 -0.62725191389E+02  0.98065079154E+02  0.47000000000E+01 0.  1.
        -11    1    1    2    0    0 -0.27729028525E+02  0.29555399375E+00 -0.11727360074E+03  0.12050760891E+03  0.00000000000E+00 0.  1.
         11    1    1    2    0    0  0.58112651363E+02  0.75018072794E+02 -0.31458399866E+03  0.32858466748E+03  0.00000000000E+00 0. -1.
<mgrwt>
<rscale>  0 0.14287674E+03</rscale>
<asrwt>0</asrwt>
<pdfrwt beam="2">  1        2 0.11364526E+00 0.15010309E+03</pdfrwt>
<pdfrwt beam="1">  1       -2 0.42315745E-02 0.15010309E+03</pdfrwt>
<totfact> 0.95598570E+03</totfact>
</mgrwt>
</event>
<event>
 7    1  0.5400401E-006  0.2114861E+03  0.7546771E-02  0.1143997E+00
         -2   -1    0    0    0  501 -0.00000000000E+00  0.00000000000E+00  0.10481272790E+03  0.10481272790E+03  0.00000000000E+00 0.  1.
          2   -1    0    0  501    0  0.00000000000E+00 -0.00000000000E+00 -0.46793965959E+03  0.46793965959E+03  0.00000000000E+00 0. -1.
         23    2    1    2    0    0 -0.17002011449E+03 -0.13708358151E+02 -0.72927350942E+02  0.22370685702E+03  0.12502640101E+03 0.  0.
          5    1    3    3  502    0 -0.17611757058E+03 -0.32640059666E+01 -0.93426925707E+02  0.19944606502E+03  0.47000000000E+01 0. -1.
         -5    1    3    3    0  502  0.60974560912E+01 -0.10444352184E+02  0.20499574765E+02  0.24260792008E+02  0.47000000000E+01 0. -1.
        -11    1    1    2    0    0  0.92416863266E+02 -0.33263654274E+02 -0.11115875712E+03  0.14833616078E+03  0.00000000000E+00 0.  1.
         11    1    1    2    0    0  0.77603251228E+02  0.46972012424E+02 -0.17904082363E+03  0.20070936968E+03  0.00000000000E+00 0. -1.
<mgrwt>
<rscale>  0 0.20695901E+03</rscale>
<asrwt>0</asrwt>
<pdfrwt beam="2">  1        2 0.71990717E-01 0.21148607E+03</pdfrwt>
<pdfrwt beam="1">  1       -2 0.16125035E-01 0.21148607E+03</pdfrwt>
<totfact> 0.20195586E+03</totfact>
</mgrwt>
</event>
<event>
 6    1  0.5400401E-006  0.1497923E+03  0.7546771E-02  0.1216168E+00
         -1   -1    0    0    0  501 -0.00000000000E+00  0.00000000000E+00  0.24822410159E+02  0.24822410159E+02  0.00000000000E+00 0.  1.
          1   -1    0    0  501    0  0.00000000000E+00 -0.00000000000E+00 -0.67540503329E+03  0.67540503329E+03  0.00000000000E+00 0. -1.
          5    1    1    2  502    0  0.66013686316E+02  0.47150409810E+02 -0.25485583080E+03  0.26749682694E+03  0.47000000000E+01 0. -1.
         -5    1    1    2    0  502 -0.21967358566E+02 -0.63464907107E+02 -0.16072167665E+03  0.17425242214E+03  0.47000000000E+01 0.  1.
        -11    1    1    2    0    0 -0.51427449971E+02 -0.27968034023E+02 -0.16725535021E+03  0.17720424857E+03  0.00000000000E+00 0.  1.
         11    1    1    2    0    0  0.73811222214E+01  0.44282531319E+02 -0.67749765462E+02  0.81273945798E+02  0.00000000000E+00 0. -1.
<mgrwt>
<rscale>  0 0.13791053E+03</rscale>
<asrwt>0</asrwt>
<pdfrwt beam="2">  1        1 0.10390847E+00 0.14979230E+03</pdfrwt>
<pdfrwt beam="1">  1       -1 0.38188323E-02 0.14979230E+03</pdfrwt>
<totfact> 0.75726867E+03</totfact>
</mgrwt>
</event>
<event>
 7    1  0.5400401E-006  0.1345032E+03  0.7546771E-02  0.1233406E+00
         -2   -1    0    0    0  501 -0.00000000000E+00  0.00000000000E+00  0.96369421740E+02  0.96369421740E+02  0.00000000000E+00 0.  1.
          2   -1    0    0  501    0  0.00000000000E+00 -0.00000000000E+00 -0.15275381785E+03  0.15275381785E+03  0.00000000000E+00 0. -1.
         23    2    1    2    0    0 -0.48695811903E+02  0.96631494696E+01 -0.84243076707E+01  0.13476680826E+03  0.12500586024E+03 0.  0.
          5    1    3    3  502    0  0.38876059409E+02  0.57583431664E+01  0.17438380046E+02  0.43251515694E+02  0.47000000000E+01 0.  1.
         -5    1    3    3    0  502 -0.87571871312E+02  0.39048063031E+01 -0.25862687717E+02  0.91515292565E+02  0.47000000000E+01 0.  1.
        -11    1    1    2    0    0 -0.11007986827E+02 -0.31597672363E+02 -0.36873308585E+02  0.49791862374E+02  0.00000000000E+00 0. -1.
         11    1    1    2    0    0  0.59703798730E+02  0.21934522893E+02 -0.11086779857E+02  0.64564568960E+02  0.00000000000E+00 0.  1.
<mgrwt>
<rscale>  0 0.12607034E+03</rscale>
<asrwt>0</asrwt>
<pdfrwt beam="2">  1        2 0.23500587E-01 0.13450325E+03</pdfrwt>
<pdfrwt beam="1">  1       -2 0.14826065E-01 0.13450325E+03</pdfrwt>
<totfact> 0.76189508E+03</totfact>
</mgrwt>
</event>
<event>
 7    1  0.5400401E-006  0.1587660E+03  0.7546771E-02  0.1198888E+00
          2   -1    0    0  501    0  0.00000000000E+00  0.00000000000E+00  0.36908408489E+02  0.36908408489E+02  0.00000000000E+00 0. -1.
         -2   -1    0    0    0  501 -0.00000000000E+00 -0.00000000000E+00 -0.11057060736E+04  0.11057060736E+04  0.00000000000E+00 0.  1.
         23    2    1    2    0    0  0.97562329834E+02  0.77885712438E+01 -0.95807464659E+03  0.97114040524E+03  0.12501035238E+03 0.  0.
          5    1    3    3  502    0  0.44330767618E+02 -0.56891452532E+02 -0.35743662538E+03  0.36467092768E+03  0.47000000000E+01 0. -1.
         -5    1    3    3    0  502  0.53231562216E+02  0.64680023776E+02 -0.60063802121E+03  0.60646947756E+03  0.47000000000E+01 0. -1.
        -11    1    1    2    0    0 -0.20913653490E+02  0.26788791864E+02 -0.20218136143E+01  0.34045675234E+02  0.00000000000E+00 0. -1.
         11    1    1    2    0    0 -0.76648676344E+02 -0.34577363108E+02 -0.10870120494E+03  0.13742840165E+03  0.00000000000E+00 0.  1.
<mgrwt>
<rscale>  0 0.15129742E+03</rscale>
<asrwt>0</asrwt>
<pdfrwt beam="1">  1        2 0.56782157E-02 0.15876605E+03</pdfrwt>
<pdfrwt beam="2">  1       -2 0.17010866E+00 0.15876605E+03</pdfrwt>
<totfact> 0.29929325E+02</totfact>
</mgrwt>
</event>
<event>
 7    1  0.5400401E-006  0.1303725E+03  0.7546771E-02  0.1240863E+00
          2   -1    0    0  501    0  0.00000000000E+00  0.00000000000E+00  0.34367059226E+03  0.34367059226E+03  0.00000000000E+00 0. -1.
         -2   -1    0    0    0  501 -0.00000000000E+00 -0.00000000000E+00 -0.40108222715E+02  0.40108222715E+02  0.00000000000E+00 0.  1.
         23    2    1    2    0    0  0.36754992768E+02 -0.44862034103E+01  0.12766949976E+03  0.18247322634E+03  0.12500368653E+03 0.  0.
          5    1    3    3  502    0 -0.27811069340E+02  0.42050102886E+02  0.50760283648E+02  0.71696325754E+02  0.47000000000E+01 0. -1.
         -5    1    3    3    0  502  0.64566062107E+02 -0.46536306297E+02  0.76909216116E+02  0.11077690059E+03  0.47000000000E+01 0. -1.
        -11    1    1    2    0    0 -0.35481102727E+02  0.18560422028E+02  0.18167588084E+03  0.18603635020E+03  0.00000000000E+00 0. -1.
         11    1    1    2    0    0 -0.12738900410E+01 -0.14074218617E+02 -0.57830110587E+01  0.15269238437E+02  0.00000000000E+00 0.  1.
<mgrwt>
<rscale>  0 0.12136460E+03</rscale>
<asrwt>0</asrwt>
<pdfrwt beam="1">  1        2 0.52872397E-01 0.13037246E+03</pdfrwt>
<pdfrwt beam="2">  1       -2 0.61704961E-02 0.13037246E+03</pdfrwt>
<totfact> 0.12569231E+04</totfact>
</mgrwt>
</event>
<event>
 7    1  0.5400401E-006  0.2569655E+03  0.7546771E-02  0.1111223E+00
         -2   -1    0    0    0  501 -0.00000000000E+00  0.00000000000E+00  0.14948582964E+03  0.14948582964E+03  0.00000000000E+00 0.  1.
          2   -1    0    0  501    0  0.00000000000E+00 -0.00000000000E+00 -0.47673294645E+03  0.47673294645E+03  0.00000000000E+00 0. -1.
         23    2    1    2    0    0 -0.12306295391E+03  0.18780362513E+03 -0.57425337295E+02  0.26330391448E+03  0.12496635459E+03 0.  0.
          5    1    3    3  502    0 -0.68138541073E+02  0.10795965358E+02  0.24352548833E+00  0.69148846355E+02  0.47000000000E+01 0. -1.
         -5    1    3    3    0  502 -0.54924412835E+02  0.17700765977E+03 -0.57668862783E+02  0.19415506812E+03  0.47000000000E+01 0. -1.
        -11    1    1    2    0    0  0.45473852093E+02 -0.20647946013E+02 -0.23257814887E+02  0.55092057976E+02  0.00000000000E+00 0.  1.
         11    1    1    2    0    0  0.77589101816E+02 -0.16715567912E+03 -0.24656396463E+03  0.30782280363E+03  0.00000000000E+00 0. -1.
<mgrwt>
<rscale>  0 0.25332246E+03</rscale>
<asrwt>0</asrwt>
<pdfrwt beam="2">  1        2 0.73343528E-01 0.25696553E+03</pdfrwt>
<pdfrwt beam="1">  1       -2 0.22997821E-01 0.25696553E+03</pdfrwt>
<totfact> 0.10833791E+03</totfact>
</mgrwt>
</event>
